<LesHouchesEvents version="3.0">
<header>
<!--
#*********************************************************************
#                                                                    *
#                        MadGraph5_aMC@NLO                           *
#                                                                    *
#                           Going Beyond                             *
#                                                                    *
#                   http://madgraph.hep.uiuc.edu                     *
#                   http://madgraph.phys.ucl.ac.be                   *
#                   http://amcatnlo.cern.ch                          *
#                                                                    *
#                     The MadGraph5_aMC@NLO team                     *
#                                                                    *
#....................................................................*
#                                                                    *
# This file contains all the information necessary to reproduce      *
# the events generated:                                              *
#                                                                    *
# 1. software version                                                *
# 2. proc_card          : code generation info including model       *
# 3. param_card         : model primary parameters in the LH format  *
# 4. run_card           : running parameters (collider and cuts)     *
# 5. pythia_card        : present only if pythia has been run        *
# 6. pgs_card           : present only if pgs has been run           *
# 7. delphes_cards      : present only if delphes has been run       *
#                                                                    *
#                                                                    *
#*********************************************************************
-->
<MGVersion>
#5.2.2.3
</MGVersion>
<MG5ProcCard>
#************************************************************
#*                     MadGraph5_aMC@NLO                    *
#*                                                          *
#*                *                       *                 *
#*                  *        * *        *                   *
#*                    * * * * 5 * * * *                     *
#*                  *        * *        *                   *
#*                *                       *                 *
#*                                                          *
#*                                                          *
#*         VERSION 2.2.3                 2015-02-10         *
#*                                                          *
#*    The MadGraph5_aMC@NLO Development Team - Find us at   *
#*    https://server06.fynu.ucl.ac.be/projects/madgraph     *
#*                                                          *
#************************************************************
#*                                                          *
#*               Command File for MadGraph5_aMC@NLO         *
#*                                                          *
#*     run as ./bin/mg5_aMC  filename                       *
#*                                                          *
#************************************************************
set group_subprocesses Auto
set ignore_six_quark_processes False
set loop_optimized_output True
set gauge unitary
set complex_mass_scheme False
import model sm
define p = g u c d s u~ c~ d~ s~
define j = g u c d s u~ c~ d~ s~
define l+ = e+ mu+
define l- = e- mu-
define vl = ve vm vt
define vl~ = ve~ vm~ vt~
import model Zprime_UFO
generate p p > zph, zph > j j
add process p p > zph, zph > b b~
output Dijet_signal
</MG5ProcCard>
<MGProcCard>
#*********************************************************************
#                        MadGraph/MadEvent                           *
#                   http://madgraph.hep.uiuc.edu                     *
#                                                                    *
#                          proc_card.dat                             *
#*********************************************************************
#                                                                    *
#            This Files is generated by MADGRAPH 5                   *
#                                                                    *
# WARNING: This Files is generated for MADEVENT (compatibility issue)*
#          This files is NOT a valid MG4 proc_card.dat               *
#          Running this in MG4 will NEVER reproduce the result of MG5*
#                                                                    *
#*********************************************************************
#*********************************************************************
# Process(es) requested : mg2 input                                  *
#*********************************************************************
# Begin PROCESS # This is TAG. Do not modify this line
p p > zph , zph > j j           #Process
# Be carefull the coupling are here in MG5 convention
          
end_coup           # End the couplings input

done               # this tells MG there are no more procs
# End PROCESS  # This is TAG. Do not modify this line
#*********************************************************************
# Model information                                                  *
#*********************************************************************
# Begin MODEL  # This is TAG. Do not modify this line
Zprime_UFO
# End   MODEL  # This is TAG. Do not modify this line
#*********************************************************************
# Start multiparticle definitions                                    *
#*********************************************************************
# Begin MULTIPARTICLES # This is TAG. Do not modify this line

# End  MULTIPARTICLES # This is TAG. Do not modify this line
</MGProcCard>
<MGRunCard>
#*********************************************************************
#                       MadGraph5_aMC@NLO                            *
#                                                                    *
#                     run_card.dat MadEvent                          *
#                                                                    *
#  This file is used to set the parameters of the run.               *
#                                                                    *
#  Some notation/conventions:                                        *
#                                                                    *
#   Lines starting with a '# ' are info or comments                  *
#                                                                    *
#   mind the format:   value    = variable     ! comment             *
#*********************************************************************
#
#*******************                                                 
# Running parameters
#*******************                                                 
#                                                                    
#*********************************************************************
# Tag name for the run (one word)                                    *
#*********************************************************************
  tag_1     = run_tag ! name of the run 
#*********************************************************************
# Run to generate the grid pack                                      *
#*********************************************************************
  .false.     = gridpack  !True = setting up the grid pack
#*********************************************************************
# Number of events and rnd seed                                      *
# Warning: Do not generate more than 1M events in a single run       *
# If you want to run Pythia, avoid more than 50k events in a run.    *
#*********************************************************************
  2000 = nevents ! Number of unweighted events requested 
 2388 = iseed   ! rnd seed (0=assigned automatically=default))
#*********************************************************************
# Collider type and energy                                           *
# lpp: 0=No PDF, 1=proton, -1=antiproton, 2=photon from proton,      *
#                                         3=photon from electron     *
#*********************************************************************
        1     = lpp1    ! beam 1 type 
        1     = lpp2    ! beam 2 type
     4000     = ebeam1  ! beam 1 total energy in GeV
     4000     = ebeam2  ! beam 2 total energy in GeV
#*********************************************************************
# Beam polarization from -100 (left-handed) to 100 (right-handed)    *
#*********************************************************************
        0     = polbeam1 ! beam polarization for beam 1
        0     = polbeam2 ! beam polarization for beam 2
#*********************************************************************
# PDF CHOICE: this automatically fixes also alpha_s and its evol.    *
#*********************************************************************
 'nn23lo1'    = pdlabel     ! PDF set                                     
 230000    = lhaid     ! if pdlabel=lhapdf, this is the lhapdf number
#*********************************************************************
# Renormalization and factorization scales                           *
#*********************************************************************
 F        = fixed_ren_scale  ! if .true. use fixed ren scale
 F        = fixed_fac_scale  ! if .true. use fixed fac scale
 91.1880  = scale            ! fixed ren scale
 91.1880  = dsqrt_q2fact1    ! fixed fact scale for pdf1
 91.1880  = dsqrt_q2fact2    ! fixed fact scale for pdf2
 1        = scalefact        ! scale factor for event-by-event scales
#*********************************************************************
# Matching - Warning! ickkw > 1 is still beta
#*********************************************************************
 0        = ickkw            ! 0 no matching, 1 MLM, 2 CKKW matching
 1        = highestmult      ! for ickkw=2, highest mult group
 1        = ktscheme         ! for ickkw=1, 1 Durham kT, 2 Pythia pTE
 1        = alpsfact         ! scale factor for QCD emission vx
 F        = chcluster        ! cluster only according to channel diag
 T        = pdfwgt           ! for ickkw=1, perform pdf reweighting
 5        = asrwgtflavor     ! highest quark flavor for a_s reweight
 T        = clusinfo         ! include clustering tag in output
 3.0      = lhe_version       ! Change the way clustering information pass to shower.        
#*********************************************************************
#**********************************************************
#
#**********************************************************
# Automatic ptj and mjj cuts if xqcut > 0
# (turn off for VBF and single top processes)
#**********************************************************
   T  = auto_ptj_mjj  ! Automatic setting of ptj and mjj
#**********************************************************
#                                                                    
#**********************************
# BW cutoff (M+/-bwcutoff*Gamma)
#**********************************
  15  = bwcutoff      ! (M+/-bwcutoff*Gamma)
#**********************************************************
# Apply pt/E/eta/dr/mij cuts on decay products or not
# (note that etmiss/ptll/ptheavy/ht/sorted cuts always apply)
#**********************************************************
   T  = cut_decays    ! Cut decay products 
#*************************************************************
# Number of helicities to sum per event (0 = all helicities)
# 0 gives more stable result, but longer run time (needed for
# long decay chains e.g.).
# Use >=2 if most helicities contribute, e.g. pure QCD.
#*************************************************************
   0  = nhel          ! Number of helicities used per event
#*******************                                                 
# Standard Cuts
#*******************                                                 
#                                                                    
#*********************************************************************
# Minimum and maximum pt's (for max, -1 means no cut)                *
#*********************************************************************
 20  = ptj       ! minimum pt for the jets 
  0  = ptb       ! minimum pt for the b 
 10  = pta       ! minimum pt for the photons 
 10  = ptl       ! minimum pt for the charged leptons 
  0  = misset    ! minimum missing Et (sum of neutrino's momenta)
  0  = ptheavy   ! minimum pt for one heavy final state
 1.0 = ptonium   ! minimum pt for the quarkonium states
 -1  = ptjmax    ! maximum pt for the jets
 -1  = ptbmax    ! maximum pt for the b
 -1  = ptamax    ! maximum pt for the photons
 -1  = ptlmax    ! maximum pt for the charged leptons
 -1  = missetmax ! maximum missing Et (sum of neutrino's momenta)
#*********************************************************************
# Minimum and maximum E's (in the center of mass frame)              *
#*********************************************************************
  0  = ej     ! minimum E for the jets 
  0  = eb     ! minimum E for the b 
  0  = ea     ! minimum E for the photons 
  0  = el     ! minimum E for the charged leptons 
 -1   = ejmax ! maximum E for the jets
 -1   = ebmax ! maximum E for the b
 -1   = eamax ! maximum E for the photons
 -1   = elmax ! maximum E for the charged leptons
#*********************************************************************
# Maximum and minimum absolute rapidity (for max, -1 means no cut)   *
#*********************************************************************
   5  = etaj    ! max rap for the jets 
  -1  = etab    ! max rap for the b
 2.5  = etaa    ! max rap for the photons 
 2.5  = etal    ! max rap for the charged leptons 
 0.6  = etaonium ! max rap for the quarkonium states
   0  = etajmin ! min rap for the jets
   0  = etabmin ! min rap for the b
   0  = etaamin ! min rap for the photons
   0  = etalmin ! main rap for the charged leptons
#*********************************************************************
# Minimum and maximum DeltaR distance                                *
#*********************************************************************
 0.4 = drjj    ! min distance between jets 
 0   = drbb    ! min distance between b's 
 0.4 = drll    ! min distance between leptons 
 0.4 = draa    ! min distance between gammas 
 0   = drbj    ! min distance between b and jet 
 0.4 = draj    ! min distance between gamma and jet 
 0.4 = drjl    ! min distance between jet and lepton 
 0   = drab    ! min distance between gamma and b 
 0   = drbl    ! min distance between b and lepton 
 0.4 = dral    ! min distance between gamma and lepton 
 -1  = drjjmax ! max distance between jets
 -1  = drbbmax ! max distance between b's
 -1  = drllmax ! max distance between leptons
 -1  = draamax ! max distance between gammas
 -1  = drbjmax ! max distance between b and jet
 -1  = drajmax ! max distance between gamma and jet
 -1  = drjlmax ! max distance between jet and lepton
 -1  = drabmax ! max distance between gamma and b
 -1  = drblmax ! max distance between b and lepton
 -1  = dralmax ! maxdistance between gamma and lepton
#*********************************************************************
# Minimum and maximum invariant mass for pairs                       *
# WARNING: for four lepton final state mmll cut require to have      *
#          different lepton masses for each flavor!                  *           
#*********************************************************************
 0   = mmjj    ! min invariant mass of a jet pair 
 0   = mmbb    ! min invariant mass of a b pair 
 0   = mmaa    ! min invariant mass of gamma gamma pair
 0   = mmll    ! min invariant mass of l+l- (same flavour) lepton pair
 -1  = mmjjmax ! max invariant mass of a jet pair
 -1  = mmbbmax ! max invariant mass of a b pair
 -1  = mmaamax ! max invariant mass of gamma gamma pair
 -1  = mmllmax ! max invariant mass of l+l- (same flavour) lepton pair
#*********************************************************************
# Minimum and maximum invariant mass for all letpons                 *
#*********************************************************************
 0   = mmnl    ! min invariant mass for all letpons (l+- and vl) 
 -1  = mmnlmax ! max invariant mass for all letpons (l+- and vl) 
#*********************************************************************
# Minimum and maximum pt for 4-momenta sum of leptons                *
#*********************************************************************
 0   = ptllmin  ! Minimum pt for 4-momenta sum of leptons(l and vl)
 -1  = ptllmax  ! Maximum pt for 4-momenta sum of leptons(l and vl)
#*********************************************************************
# Inclusive cuts                                                     *
#*********************************************************************
 0  = xptj ! minimum pt for at least one jet  
 0  = xptb ! minimum pt for at least one b 
 0  = xpta ! minimum pt for at least one photon 
 0  = xptl ! minimum pt for at least one charged lepton 
#*********************************************************************
# Control the pt's of the jets sorted by pt                          *
#*********************************************************************
 0   = ptj1min ! minimum pt for the leading jet in pt
 0   = ptj2min ! minimum pt for the second jet in pt
 0   = ptj3min ! minimum pt for the third jet in pt
 0   = ptj4min ! minimum pt for the fourth jet in pt
 -1  = ptj1max ! maximum pt for the leading jet in pt 
 -1  = ptj2max ! maximum pt for the second jet in pt
 -1  = ptj3max ! maximum pt for the third jet in pt
 -1  = ptj4max ! maximum pt for the fourth jet in pt
 0   = cutuse  ! reject event if fails any (0) / all (1) jet pt cuts
#*********************************************************************
# Control the pt's of leptons sorted by pt                           *
#*********************************************************************
 0   = ptl1min ! minimum pt for the leading lepton in pt
 0   = ptl2min ! minimum pt for the second lepton in pt
 0   = ptl3min ! minimum pt for the third lepton in pt
 0   = ptl4min ! minimum pt for the fourth lepton in pt
 -1  = ptl1max ! maximum pt for the leading lepton in pt 
 -1  = ptl2max ! maximum pt for the second lepton in pt
 -1  = ptl3max ! maximum pt for the third lepton in pt
 -1  = ptl4max ! maximum pt for the fourth lepton in pt
#*********************************************************************
# Control the Ht(k)=Sum of k leading jets                            *
#*********************************************************************
 0   = htjmin ! minimum jet HT=Sum(jet pt)
 -1  = htjmax ! maximum jet HT=Sum(jet pt)
 0   = ihtmin  !inclusive Ht for all partons (including b)
 -1  = ihtmax  !inclusive Ht for all partons (including b)
 0   = ht2min ! minimum Ht for the two leading jets
 0   = ht3min ! minimum Ht for the three leading jets
 0   = ht4min ! minimum Ht for the four leading jets
 -1  = ht2max ! maximum Ht for the two leading jets
 -1  = ht3max ! maximum Ht for the three leading jets
 -1  = ht4max ! maximum Ht for the four leading jets
#***********************************************************************
# Photon-isolation cuts, according to hep-ph/9801442                   *
# When ptgmin=0, all the other parameters are ignored                  *
# When ptgmin>0, pta and draj are not going to be used                 *
#***********************************************************************
   0 = ptgmin ! Min photon transverse momentum
 0.4 = R0gamma ! Radius of isolation code
 1.0 = xn ! n parameter of eq.(3.4) in hep-ph/9801442
 1.0 = epsgamma ! epsilon_gamma parameter of eq.(3.4) in hep-ph/9801442
 .true. = isoEM ! isolate photons from EM energy (photons and leptons)
#*********************************************************************
# WBF cuts                                                           *
#*********************************************************************
 0   = xetamin ! minimum rapidity for two jets in the WBF case  
 0   = deltaeta ! minimum rapidity for two jets in the WBF case 
#*********************************************************************
# KT DURHAM CUT                                                      *
#*********************************************************************
 -1    =  ktdurham        
 0.4  =  dparameter 
#*********************************************************************
# maximal pdg code for quark to be considered as a light jet         *
# (otherwise b cuts are applied)                                     *
#*********************************************************************
 4 = maxjetflavor    ! Maximum jet pdg code
#*********************************************************************
# Jet measure cuts                                                   *
#*********************************************************************
 0   = xqcut   ! minimum kt jet measure between partons
#*********************************************************************
#
#*********************************************************************
# Store info for systematics studies                                 *
# WARNING: If use_syst is T, matched Pythia output is                *
#          meaningful ONLY if plotted taking matchscale              *
#          reweighting into account!                                 *
#*********************************************************************
   F  = use_syst      ! Enable systematics studies
#
#**************************************
# Parameter of the systematics study
#  will be used by SysCalc (if installed)
#**************************************                                  
#
0.5 1 2 = sys_scalefact  # factorization/renormalization scale factor
0.5 1 2 = sys_alpsfact  # \alpha_s emission scale factors
30 50 = sys_matchscale # variation of merging scale
# PDF sets and number of members (0 or none for all members).
CT10nlo.LHgrid = sys_pdf # matching scales
# MSTW2008nlo68cl.LHgrid 1  = sys_pdf
</MGRunCard>
<slha>
######################################################################
## PARAM_CARD AUTOMATICALY GENERATED BY MG5 FOLLOWING UFO MODEL   ####
######################################################################
##                                                                  ##
##  Width set on Auto will be computed following the information    ##
##        present in the decay.py files of the model.               ##
##        See  arXiv:1402.1178 for more details.                    ##
##                                                                  ##
######################################################################

###################################
## INFORMATION FOR CKMBLOCK
###################################
Block ckmblock 
    1 2.277360e-01 # cabi 

###################################
## INFORMATION FOR FRBLOCK
###################################
Block frblock 
    1 1.200000e+00 # gz 

###################################
## INFORMATION FOR MASS
###################################
Block mass 
    1 5.040000e-03 # MD 
    2 2.550000e-03 # MU 
    3 1.010000e-01 # MS 
    4 1.270000e+00 # MC 
    5 4.700000e+00 # MB 
    6 1.720000e+02 # MT 
   11 5.110000e-04 # Me 
   13 1.056600e-01 # MM 
   15 1.777000e+00 # MTA 
   23 9.118760e+01 # MZ 
   25 1.200000e+02 # MH 
  10030 3.500000e+03 # MZph 
  10031 3.000000e+02 # MZpl 
## Dependent parameters, given by model restrictions.
## Those values should be edited following the 
## analytical expression. MG5 ignores those values 
## but they are important for interfacing the output of MG5
## to external program such as Pythia.
  12 0.000000 # ve : 0.0 
  14 0.000000 # vm : 0.0 
  16 0.000000 # vt : 0.0 
  21 0.000000 # g : 0.0 
  22 0.000000 # a : 0.0 
  24 79.824360 # w+ : cmath.sqrt(MZ__exp__2/2. + cmath.sqrt(MZ__exp__4/4. - (aEW*cmath.pi*MZ__exp__2)/(Gf*sqrt__2))) 

###################################
## INFORMATION FOR SMINPUTS
###################################
Block sminputs 
    1 1.279000e+02 # aEWM1 
    2 1.166370e-05 # Gf 
    3 1.184000e-01 # aS 

###################################
## INFORMATION FOR YUKAWA
###################################
Block yukawa 
    1 5.040000e-03 # ymdo 
    2 2.550000e-03 # ymup 
    3 1.010000e-01 # yms 
    4 1.270000e+00 # ymc 
    5 4.700000e+00 # ymb 
    6 1.720000e+02 # ymt 
   11 5.110000e-04 # yme 
   13 1.056600e-01 # ymm 
   15 1.777000e+00 # ymtau 

###################################
## INFORMATION FOR DECAY
###################################
DECAY   6 1.508336e+00 # WT 
DECAY  23 2.495200e+00 # WZ 
DECAY  24 2.085000e+00 # WW 
DECAY  25 5.753088e-03 # WH 
## Dependent parameters, given by model restrictions.
## Those values should be edited following the 
## analytical expression. MG5 ignores those values 
## but they are important for interfacing the output of MG5
## to external program such as Pythia.
DECAY  1 0.000000 # d : 0.0 
DECAY  2 0.000000 # u : 0.0 
DECAY  3 0.000000 # s : 0.0 
DECAY  4 0.000000 # c : 0.0 
DECAY  5 0.000000 # b : 0.0 
DECAY  11 0.000000 # e- : 0.0 
DECAY  12 0.000000 # ve : 0.0 
DECAY  13 0.000000 # mu- : 0.0 
DECAY  14 0.000000 # vm : 0.0 
DECAY  15 0.000000 # ta- : 0.0 
DECAY  16 0.000000 # vt : 0.0 
DECAY  21 0.000000 # g : 0.0 
DECAY  22 0.000000 # a : 0.0 
DECAY  10030 0.308725 # zph : (gz__exp__2*MZph*(5 + cmath.sqrt(1 - (4*MT__exp__2)/MZph__exp__2)))/(144.*cmath.pi) 
DECAY  10031 0.132629 # zpl : (5*gz__exp__2*MZpl)/(144.*cmath.pi) 
#===========================================================
# QUANTUM NUMBERS OF NEW STATE(S) (NON SM PDG CODE)
#===========================================================

Block QNUMBERS 10030  # zph 
        1 0  # 3 times electric charge
        2 3  # number of spin states (2S+1)
        3 1  # colour rep (1: singlet, 3: triplet, 8: octet)
        4 0  # Particle/Antiparticle distinction (0=own anti)
Block QNUMBERS 10031  # zpl 
        1 0  # 3 times electric charge
        2 3  # number of spin states (2S+1)
        3 1  # colour rep (1: singlet, 3: triplet, 8: octet)
        4 0  # Particle/Antiparticle distinction (0=own anti)
</slha>
## END BANNER##
<MGGenerationInfo>
#  Number of Events        :         3873
#  Integrated weight (pb)  :  0.35273E-03
#  Max wgt                 :  0.14429E-06
#  Average wgt             :  0.91074E-07
</MGGenerationInfo>
</header>
<init>
     2212     2212  0.40000000000E+04  0.40000000000E+04 0 0  247000  247000 2   1
  0.35288469352E-03  0.11497039940E-05  0.14428640000E-06   0
</init>
<event>
 5   0  0.1442864E-06  0.3481789E+04  0.7818609E-02  0.8118119E-01
       -2   -1    0    0    0  501  0.00000000000E+00  0.00000000000E+00  0.27910939029E+04  0.27910939029E+04  0.25500000920E-02 0.  1.
        2   -1    0    0  501    0  0.00000000000E+00  0.00000000000E+00 -0.10858517214E+04  0.10858517214E+04  0.25500000920E-02 0. -1.
    10030    2    1    2    0    0  0.00000000000E+00  0.00000000000E+00  0.17052421815E+04  0.38769456243E+04  0.34817892636E+04 0.  0.
        1    1    3    3  502    0  0.95790543891E+03 -0.18020213411E+03  0.24587767362E+04  0.26449269702E+04  0.50400001928E-02 0.  1.
       -1    1    3    3    0  502 -0.95790543891E+03  0.18020213411E+03 -0.75353455469E+03  0.12320186541E+04  0.50400001928E-02 0. -1.
</event>
<event>
 5   0  0.1442864E-06  0.3475300E+04  0.7818609E-02  0.8119669E-01
        2   -1    0    0  501    0  0.00000000000E+00  0.00000000000E+00  0.93904071791E+03  0.93904071791E+03  0.25500000920E-02 0. -1.
       -2   -1    0    0    0  501  0.00000000000E+00  0.00000000000E+00 -0.32154382036E+04  0.32154382036E+04  0.25500000920E-02 0.  1.
    10030    2    1    2    0    0  0.00000000000E+00  0.00000000000E+00 -0.22763974857E+04  0.41544789215E+04  0.34752999290E+04 0.  0.
        1    1    3    3  502    0 -0.59079109857E+03 -0.83606935428E+03  0.54025580817E+03  0.11575501828E+04  0.50400001928E-02 0.  1.
       -1    1    3    3    0  502  0.59079109857E+03  0.83606935428E+03 -0.28166532939E+04  0.29969287388E+04  0.50400001928E-02 0. -1.
</event>
<event>
 5   0  0.1361560E-06  0.3476911E+04  0.7818609E-02  0.8119284E-01
       -2   -1    0    0    0  501  0.00000000000E+00  0.00000000000E+00  0.12372809882E+04  0.12372809882E+04  0.25500000920E-02 0.  1.
        2   -1    0    0  501    0  0.00000000000E+00  0.00000000000E+00 -0.24426367664E+04  0.24426367664E+04  0.25500000920E-02 0. -1.
    10030    2    1    2    0    0  0.00000000000E+00  0.00000000000E+00 -0.12053557782E+04  0.36799177546E+04  0.34769112914E+04 0.  0.
        3    1    3    3  502    0 -0.23462113858E+03  0.15450735477E+04 -0.14086718613E+04  0.21039619220E+04  0.10100000352E+00 0.  1.
       -3    1    3    3    0  502  0.23462113858E+03 -0.15450735477E+04  0.20331608308E+03  0.15759558326E+04  0.10100000352E+00 0. -1.
</event>
<event>
 5   0  0.1442864E-06  0.3456809E+04  0.7818609E-02  0.8124103E-01
       -2   -1    0    0    0  501  0.00000000000E+00  0.00000000000E+00  0.18367981668E+04  0.18367981668E+04  0.25500000920E-02 0.  1.
        2   -1    0    0  501    0  0.00000000000E+00  0.00000000000E+00 -0.16264075846E+04  0.16264075846E+04  0.25500000920E-02 0. -1.
    10030    2    1    2    0    0  0.00000000000E+00  0.00000000000E+00  0.21039058215E+03  0.34632057514E+04  0.34568092049E+04 0.  0.
        1    1    3    3  502    0 -0.82739666237E+03  0.13265643787E+03 -0.14092895988E+04  0.16395975545E+04  0.50400001928E-02 0. -1.
       -1    1    3    3    0  502  0.82739666237E+03 -0.13265643787E+03  0.16196801809E+04  0.18236081969E+04  0.50400001928E-02 0.  1.
</event>
<event>
 5   0  0.1361560E-06  0.3459614E+04  0.7818609E-02  0.8123428E-01
        2   -1    0    0  501    0  0.00000000000E+00  0.00000000000E+00  0.27688071480E+04  0.27688071480E+04  0.25500000920E-02 0. -1.
       -2   -1    0    0    0  501  0.00000000000E+00  0.00000000000E+00 -0.10806936819E+04  0.10806936819E+04  0.25500000920E-02 0.  1.
    10030    2    1    2    0    0  0.00000000000E+00  0.00000000000E+00  0.16881134661E+04  0.38495008299E+04  0.34596140775E+04 0.  0.
        3    1    3    3  502    0  0.11243132722E+04 -0.35356180709E+03  0.22529020503E+04  0.25425683754E+04  0.10100000352E+00 0. -1.
       -3    1    3    3    0  502 -0.11243132722E+04  0.35356180709E+03 -0.56478858421E+03  0.13069324544E+04  0.10100000352E+00 0.  1.
</event>
<event>
 5   0  0.4693374E-07  0.3518153E+04  0.7818609E-02  0.8109501E-01
       -1   -1    0    0    0  501  0.00000000000E+00  0.00000000000E+00  0.17102970968E+04  0.17102970968E+04  0.50400001928E-02 0. -1.
        1   -1    0    0  501    0  0.00000000000E+00  0.00000000000E+00 -0.18092473815E+04  0.18092473815E+04  0.50400001928E-02 0.  1.
    10030    2    1    2    0    0  0.00000000000E+00  0.00000000000E+00 -0.98950284621E+02  0.35195444783E+04  0.35181532337E+04 0.  0.
        1    1    3    3  502    0 -0.16279060029E+04 -0.56077021226E+03 -0.40990827706E+03  0.17699056418E+04  0.50400001928E-02 0. -1.
       -1    1    3    3    0  502  0.16279060029E+04  0.56077021226E+03  0.31095799244E+03  0.17496388365E+04  0.50400001928E-02 0.  1.
</event>
<event>
 5   0  0.4700769E-07  0.3488062E+04  0.7818609E-02  0.8116625E-01
        1   -1    0    0  501    0  0.00000000000E+00  0.00000000000E+00  0.15166276961E+04  0.15166276961E+04  0.50400001928E-02 0.  1.
       -1   -1    0    0    0  501  0.00000000000E+00  0.00000000000E+00 -0.20055306629E+04  0.20055306629E+04  0.50400001928E-02 0. -1.
    10030    2    1    2    0    0  0.00000000000E+00  0.00000000000E+00 -0.48890296680E+03  0.35221583591E+04  0.34880615527E+04 0.  0.
        3    1    3    3  502    0 -0.82893186901E+02  0.14015716906E+04  0.80024821633E+03  0.16160667382E+04  0.10100000352E+00 0.  1.
       -3    1    3    3    0  502  0.82893186901E+02 -0.14015716906E+04 -0.12891511831E+04  0.19060916209E+04  0.10100000352E+00 0. -1.
</event>
<event>
 5   0  0.1442864E-06  0.3504634E+04  0.7818609E-02  0.8112693E-01
        2   -1    0    0  501    0  0.00000000000E+00  0.00000000000E+00  0.17130854904E+04  0.17130854904E+04  0.25500000920E-02 0. -1.
       -2   -1    0    0    0  501  0.00000000000E+00  0.00000000000E+00 -0.17924472609E+04  0.17924472609E+04  0.25500000920E-02 0.  1.
    10030    2    1    2    0    0  0.00000000000E+00  0.00000000000E+00 -0.79361770518E+02  0.35055327513E+04  0.35046343005E+04 0.  0.
        1    1    3    3  502    0  0.42596677769E+02 -0.37498217088E+03  0.16719530791E+04  0.17140166872E+04  0.50400001928E-02 0. -1.
       -1    1    3    3    0  502 -0.42596677769E+02  0.37498217088E+03 -0.17513148496E+04  0.17915160641E+04  0.50400001928E-02 0.  1.
</event>
<event>
 5   0  0.4557237E-07  0.3509157E+04  0.7818609E-02  0.8111623E-01
        1   -1    0    0  501    0  0.00000000000E+00  0.00000000000E+00  0.18632012027E+04  0.18632012027E+04  0.50400001928E-02 0. -1.
       -1   -1    0    0    0  501  0.00000000000E+00  0.00000000000E+00 -0.16522882850E+04  0.16522882850E+04  0.50400001928E-02 0.  1.
    10030    2    1    2    0    0  0.00000000000E+00  0.00000000000E+00  0.21091291771E+03  0.35154894877E+04  0.35091568901E+04 0.  0.
        2    1    3    3  502    0 -0.12591140131E+04  0.94264477526E+03 -0.67350587976E+03  0.17110106489E+04  0.25500000920E-02 0.  1.
       -2    1    3    3    0  502  0.12591140131E+04 -0.94264477526E+03  0.88441879747E+03  0.18044788388E+04  0.25500000920E-02 0. -1.
</event>
<event>
 5   0  0.1442864E-06  0.3464036E+04  0.7818609E-02  0.8122366E-01
        2   -1    0    0  501    0  0.00000000000E+00  0.00000000000E+00  0.17320230548E+04  0.17320230548E+04  0.25500000920E-02 0. -1.
       -2   -1    0    0    0  501  0.00000000000E+00  0.00000000000E+00 -0.17320134336E+04  0.17320134336E+04  0.25500000920E-02 0.  1.
    10030    2    1    2    0    0  0.00000000000E+00  0.00000000000E+00  0.96211730531E-02  0.34640364884E+04  0.34640364884E+04 0.  0.
        1    1    3    3  502    0 -0.86657049224E+03  0.43251178422E+02 -0.14990189103E+04  0.17320140808E+04  0.50400001928E-02 0.  1.
       -1    1    3    3    0  502  0.86657049224E+03 -0.43251178422E+02  0.14990285315E+04  0.17320224077E+04  0.50400001928E-02 0. -1.
</event>
<event>
 5   0  0.4557237E-07  0.3450422E+04  0.7818609E-02  0.8125641E-01
        1   -1    0    0  501    0  0.00000000000E+00  0.00000000000E+00  0.21568829419E+04  0.21568829419E+04  0.50400001928E-02 0.  1.
       -1   -1    0    0    0  501  0.00000000000E+00  0.00000000000E+00 -0.13799324164E+04  0.13799324164E+04  0.50400001928E-02 0. -1.
    10030    2    1    2    0    0  0.00000000000E+00  0.00000000000E+00  0.77695052552E+03  0.35368153583E+04  0.34504218235E+04 0.  0.
        2    1    3    3  502    0  0.14661701743E+04 -0.47490379057E+03  0.11832365683E+04  0.19429970064E+04  0.25500000920E-02 0.  1.
       -2    1    3    3    0  502 -0.14661701743E+04  0.47490379057E+03 -0.40628604275E+03  0.15938183519E+04  0.25500000920E-02 0. -1.
</event>
<event>
 5   0  0.1348388E-06  0.3492136E+04  0.7818609E-02  0.8115656E-01
       -2   -1    0    0    0  501  0.00000000000E+00  0.00000000000E+00  0.16068084823E+04  0.16068084823E+04  0.25500000920E-02 0. -1.
        2   -1    0    0  501    0  0.00000000000E+00  0.00000000000E+00 -0.18973974024E+04  0.18973974024E+04  0.25500000920E-02 0.  1.
    10030    2    1    2    0    0  0.00000000000E+00  0.00000000000E+00 -0.29058892019E+03  0.35042058847E+04  0.34921364466E+04 0.  0.
        5    1    3    3  502    0  0.26194346384E+03  0.17253500706E+04 -0.87782271309E+02  0.17473337006E+04  0.46999998093E+01 0. -1.
       -5    1    3    3    0  502 -0.26194346384E+03 -0.17253500706E+04 -0.20280664888E+03  0.17568721841E+04  0.46999998093E+01 0.  1.
</event>
<event>
 5   0  0.4409125E-07  0.3469548E+04  0.7818609E-02  0.8121045E-01
        1   -1    0    0  501    0  0.00000000000E+00  0.00000000000E+00  0.15585322227E+04  0.15585322227E+04  0.50400001928E-02 0. -1.
       -1   -1    0    0    0  501  0.00000000000E+00  0.00000000000E+00 -0.19309455582E+04  0.19309455582E+04  0.50400001928E-02 0.  1.
    10030    2    1    2    0    0  0.00000000000E+00  0.00000000000E+00 -0.37241333545E+03  0.34894777809E+04  0.34695480240E+04 0.  0.
        5    1    3    3  502    0  0.67135575368E+03  0.51165741026E+03  0.13380539646E+04  0.15820626902E+04  0.46999998093E+01 0. -1.
       -5    1    3    3    0  502 -0.67135575368E+03 -0.51165741026E+03 -0.17104673001E+04  0.19074150907E+04  0.46999998093E+01 0.  1.
</event>
<event>
 5   0  0.4693374E-07  0.3516479E+04  0.7818609E-02  0.8109896E-01
        1   -1    0    0  501    0  0.00000000000E+00  0.00000000000E+00  0.15551539771E+04  0.15551539771E+04  0.50400001928E-02 0.  1.
       -1   -1    0    0    0  501  0.00000000000E+00  0.00000000000E+00 -0.19878454775E+04  0.19878454775E+04  0.50400001928E-02 0. -1.
    10030    2    1    2    0    0  0.00000000000E+00  0.00000000000E+00 -0.43269150041E+03  0.35429994546E+04  0.35164788071E+04 0.  0.
        1    1    3    3  502    0 -0.54216765959E+03 -0.98343183018E+03  0.11467514161E+04  0.16050304502E+04  0.50400001928E-02 0.  1.
       -1    1    3    3    0  502  0.54216765959E+03  0.98343183018E+03 -0.15794429165E+04  0.19379690044E+04  0.50400001928E-02 0. -1.
</event>
<event>
 5   0  0.4700769E-07  0.3096795E+04  0.7818609E-02  0.8216618E-01
        1   -1    0    0  501    0  0.00000000000E+00  0.00000000000E+00  0.21797826487E+04  0.21797826487E+04  0.50400001928E-02 0. -1.
       -1   -1    0    0    0  501  0.00000000000E+00  0.00000000000E+00 -0.10998962111E+04  0.10998962111E+04  0.50400001928E-02 0.  1.
    10030    2    1    2    0    0  0.00000000000E+00  0.00000000000E+00  0.10798864376E+04  0.32796788598E+04  0.30967949085E+04 0.  0.
        3    1    3    3  502    0  0.10433687519E+04  0.61130795174E+03  0.15641213872E+04  0.19770663845E+04  0.10100000352E+00 0. -1.
       -3    1    3    3    0  502 -0.10433687519E+04 -0.61130795174E+03 -0.48423494961E+03  0.13026124754E+04  0.10100000352E+00 0.  1.
</event>
<event>
 5   0  0.4700769E-07  0.3533602E+04  0.7818609E-02  0.8105873E-01
        1   -1    0    0  501    0  0.00000000000E+00  0.00000000000E+00  0.18743098851E+04  0.18743098851E+04  0.50400001928E-02 0.  1.
       -1   -1    0    0    0  501  0.00000000000E+00  0.00000000000E+00 -0.16654587709E+04  0.16654587709E+04  0.50400001928E-02 0. -1.
    10030    2    1    2    0    0  0.00000000000E+00  0.00000000000E+00  0.20885111423E+03  0.35397686560E+04  0.35336020362E+04 0.  0.
        3    1    3    3  502    0  0.43635840831E+03  0.16736301263E+04 -0.25695234139E+03  0.17485625457E+04  0.10100000352E+00 0.  1.
       -3    1    3    3    0  502 -0.43635840831E+03 -0.16736301263E+04  0.46580345562E+03  0.17912061103E+04  0.10100000352E+00 0. -1.
</event>
<event>
 5   0  0.1442864E-06  0.3465316E+04  0.7818609E-02  0.8122059E-01
       -2   -1    0    0    0  501  0.00000000000E+00  0.00000000000E+00  0.12511831719E+04  0.12511831719E+04  0.25500000920E-02 0.  1.
        2   -1    0    0  501    0  0.00000000000E+00  0.00000000000E+00 -0.23994123983E+04  0.23994123983E+04  0.25500000920E-02 0. -1.
    10030    2    1    2    0    0  0.00000000000E+00  0.00000000000E+00 -0.11482292264E+04  0.36505955702E+04  0.34653163869E+04 0.  0.
        1    1    3    3  502    0 -0.13735105529E+03 -0.26337570701E+03  0.12241603205E+04  0.12596827242E+04  0.50400001928E-02 0.  1.
       -1    1    3    3    0  502  0.13735105529E+03  0.26337570701E+03 -0.23723895468E+04  0.23909128460E+04  0.50400001928E-02 0. -1.
</event>
<event>
 5   0  0.4591195E-07  0.3442880E+04  0.7818609E-02  0.8127462E-01
        1   -1    0    0  501    0  0.00000000000E+00  0.00000000000E+00  0.21211921827E+04  0.21211921827E+04  0.50400001928E-02 0. -1.
       -1   -1    0    0    0  501  0.00000000000E+00  0.00000000000E+00 -0.13970237172E+04  0.13970237172E+04  0.50400001928E-02 0.  1.
    10030    2    1    2    0    0  0.00000000000E+00  0.00000000000E+00  0.72416846557E+03  0.35182158999E+04  0.34428800664E+04 0.  0.
        4    1    3    3  502    0  0.89003681868E+03  0.14460995376E+04  0.65108848062E+03  0.18185948515E+04  0.12699999809E+01 0. -1.
       -4    1    3    3    0  502 -0.89003681868E+03 -0.14460995376E+04  0.73079984952E+02  0.16996210485E+04  0.12699999809E+01 0.  1.
</event>
<event>
 5   0  0.4693374E-07  0.3509532E+04  0.7818609E-02  0.8111535E-01
        1   -1    0    0  501    0  0.00000000000E+00  0.00000000000E+00  0.17809799035E+04  0.17809799035E+04  0.50400001928E-02 0. -1.
       -1   -1    0    0    0  501  0.00000000000E+00  0.00000000000E+00 -0.17289379327E+04  0.17289379327E+04  0.50400001928E-02 0.  1.
    10030    2    1    2    0    0  0.00000000000E+00  0.00000000000E+00  0.52041970804E+02  0.35099178362E+04  0.35095319988E+04 0.  0.
        1    1    3    3  502    0 -0.85791899566E+03  0.14928718510E+04 -0.31241294659E+03  0.17499409178E+04  0.50400001928E-02 0.  1.
       -1    1    3    3    0  502  0.85791899566E+03 -0.14928718510E+04  0.36445491740E+03  0.17599769184E+04  0.50400001928E-02 0. -1.
</event>
<event>
 5   0  0.1378620E-06  0.3147914E+04  0.7818609E-02  0.8202710E-01
        2   -1    0    0  501    0  0.00000000000E+00  0.00000000000E+00  0.12842113448E+04  0.12842113448E+04  0.25500000920E-02 0. -1.
       -2   -1    0    0    0  501  0.00000000000E+00  0.00000000000E+00 -0.19290754563E+04  0.19290754563E+04  0.25500000920E-02 0.  1.
    10030    2    1    2    0    0  0.00000000000E+00  0.00000000000E+00 -0.64486411145E+03  0.32132868011E+04  0.31479139670E+04 0.  0.
        2    1    3    3  502    0  0.44049808901E+03  0.15761628398E+03  0.12115940598E+04  0.12987846723E+04  0.25500000920E-02 0. -1.
       -2    1    3    3    0  502 -0.44049808901E+03 -0.15761628398E+03 -0.18564581712E+04  0.19145021287E+04  0.25500000920E-02 0.  1.
</event>
<event>
 5   0  0.4700769E-07  0.3152199E+04  0.7818609E-02  0.8201557E-01
       -1   -1    0    0    0  501  0.00000000000E+00  0.00000000000E+00  0.11076167676E+04  0.11076167677E+04  0.50400001928E-02 0. -1.
        1   -1    0    0  501    0  0.00000000000E+00  0.00000000000E+00 -0.22427336739E+04  0.22427336739E+04  0.50400001928E-02 0.  1.
    10030    2    1    2    0    0  0.00000000000E+00  0.00000000000E+00 -0.11351169063E+04  0.33503504416E+04  0.31521988660E+04 0.  0.
        3    1    3    3  502    0 -0.54279293801E+03  0.46158835087E+03  0.92666038558E+03  0.11689257716E+04  0.10100000352E+00 0. -1.
       -3    1    3    3    0  502  0.54279293801E+03 -0.46158835087E+03 -0.20617772919E+04  0.21814246700E+04  0.10100000352E+00 0.  1.
</event>
<event>
 5   0  0.1361560E-06  0.3468605E+04  0.7818609E-02  0.8121271E-01
       -2   -1    0    0    0  501  0.00000000000E+00  0.00000000000E+00  0.11664157615E+04  0.11664157615E+04  0.25500000920E-02 0.  1.
        2   -1    0    0  501    0  0.00000000000E+00  0.00000000000E+00 -0.25786738021E+04  0.25786738021E+04  0.25500000920E-02 0. -1.
    10030    2    1    2    0    0  0.00000000000E+00  0.00000000000E+00 -0.14122580405E+04  0.37450895636E+04  0.34686053489E+04 0.  0.
        3    1    3    3  502    0  0.35959755095E+03 -0.94891945279E+03  0.81240892074E+03  0.12999103012E+04  0.10100000352E+00 0.  1.
       -3    1    3    3    0  502 -0.35959755095E+03  0.94891945279E+03 -0.22246669612E+04  0.24451792624E+04  0.10100000352E+00 0. -1.
</event>
<event>
 5   0  0.4693374E-07  0.3127879E+04  0.7818609E-02  0.8208128E-01
        1   -1    0    0  501    0  0.00000000000E+00  0.00000000000E+00  0.16758298442E+04  0.16758298442E+04  0.50400001928E-02 0.  1.
       -1   -1    0    0    0  501  0.00000000000E+00  0.00000000000E+00 -0.14595198355E+04  0.14595198355E+04  0.50400001928E-02 0. -1.
    10030    2    1    2    0    0  0.00000000000E+00  0.00000000000E+00  0.21631000875E+03  0.31353496797E+04  0.31278790888E+04 0.  0.
        1    1    3    3  502    0 -0.78877210513E+03 -0.44889789955E+03  0.13848673663E+04  0.16557561355E+04  0.50400001928E-02 0.  1.
       -1    1    3    3    0  502  0.78877210513E+03  0.44889789955E+03 -0.11685573576E+04  0.14795935442E+04  0.50400001928E-02 0. -1.
</event>
<event>
 5   0  0.1378620E-06  0.3524092E+04  0.7818609E-02  0.8108104E-01
        2   -1    0    0  501    0  0.00000000000E+00  0.00000000000E+00  0.22783015646E+04  0.22783015646E+04  0.25500000920E-02 0.  1.
       -2   -1    0    0    0  501  0.00000000000E+00  0.00000000000E+00 -0.13627720897E+04  0.13627720897E+04  0.25500000920E-02 0. -1.
    10030    2    1    2    0    0  0.00000000000E+00  0.00000000000E+00  0.91552947494E+03  0.36410736543E+04  0.35240918173E+04 0.  0.
        2    1    3    3  502    0 -0.48052760270E+03 -0.92417283605E+03 -0.10106097075E+04  0.14513215318E+04  0.25500000920E-02 0. -1.
       -2    1    3    3    0  502  0.48052760270E+03  0.92417283605E+03  0.19261391824E+04  0.21897521225E+04  0.25500000920E-02 0.  1.
</event>
<event>
 5   0  0.4557237E-07  0.3471712E+04  0.7818609E-02  0.8120527E-01
       -1   -1    0    0    0  501  0.00000000000E+00  0.00000000000E+00  0.20114378445E+04  0.20114378445E+04  0.50400001928E-02 0. -1.
        1   -1    0    0  501    0  0.00000000000E+00  0.00000000000E+00 -0.14980305812E+04  0.14980305812E+04  0.50400001928E-02 0.  1.
    10030    2    1    2    0    0  0.00000000000E+00  0.00000000000E+00  0.51340726332E+03  0.35094684257E+04  0.34717116258E+04 0.  0.
        2    1    3    3  502    0 -0.14504202846E+04  0.81006818974E+03  0.76543214611E+03  0.18291571404E+04  0.25500000920E-02 0. -1.
       -2    1    3    3    0  502  0.14504202846E+04 -0.81006818974E+03 -0.25202488278E+03  0.16803112853E+04  0.25500000920E-02 0.  1.
</event>
<event>
 5   0  0.1361560E-06  0.3462564E+04  0.7818609E-02  0.8122719E-01
       -2   -1    0    0    0  501  0.00000000000E+00  0.00000000000E+00  0.15997144051E+04  0.15997144051E+04  0.25500000920E-02 0. -1.
        2   -1    0    0  501    0  0.00000000000E+00  0.00000000000E+00 -0.18736706822E+04  0.18736706822E+04  0.25500000920E-02 0.  1.
    10030    2    1    2    0    0  0.00000000000E+00  0.00000000000E+00 -0.27395627703E+03  0.34733850873E+04  0.34625643565E+04 0.  0.
        3    1    3    3  502    0 -0.12189622658E+04  0.14310094680E+03 -0.13618554901E+04  0.18333022862E+04  0.10100000352E+00 0.  1.
       -3    1    3    3    0  502  0.12189622658E+04 -0.14310094680E+03  0.10878992131E+04  0.16400828011E+04  0.10100000352E+00 0. -1.
</event>
<event>
 5   0  0.1348388E-06  0.3439551E+04  0.7818609E-02  0.8128267E-01
       -2   -1    0    0    0  501  0.00000000000E+00  0.00000000000E+00  0.25198078420E+04  0.25198078420E+04  0.25500000920E-02 0. -1.
        2   -1    0    0  501    0  0.00000000000E+00  0.00000000000E+00 -0.11737513730E+04  0.11737513730E+04  0.25500000920E-02 0.  1.
    10030    2    1    2    0    0  0.00000000000E+00  0.00000000000E+00  0.13460564690E+04  0.36935592150E+04  0.34395510836E+04 0.  0.
        5    1    3    3  502    0  0.11705169405E+04 -0.84430684100E+03  0.16773166081E+04  0.22127758684E+04  0.46999998093E+01 0. -1.
       -5    1    3    3    0  502 -0.11705169405E+04  0.84430684100E+03 -0.33126013910E+03  0.14807833466E+04  0.46999998093E+01 0.  1.
</event>
<event>
 5   0  0.4557237E-07  0.3378141E+04  0.7818609E-02  0.8143292E-01
       -1   -1    0    0    0  501  0.00000000000E+00  0.00000000000E+00  0.15025611576E+04  0.15025611576E+04  0.50400001928E-02 0. -1.
        1   -1    0    0  501    0  0.00000000000E+00  0.00000000000E+00 -0.18987307269E+04  0.18987307269E+04  0.50400001928E-02 0.  1.
    10030    2    1    2    0    0  0.00000000000E+00  0.00000000000E+00 -0.39616956930E+03  0.34012918844E+04  0.33781409319E+04 0.  0.
        2    1    3    3  502    0  0.74370246564E+03  0.14186882188E+04  0.34148839815E+03  0.16377985058E+04  0.25500000920E-02 0.  1.
       -2    1    3    3    0  502 -0.74370246564E+03 -0.14186882188E+04 -0.73765796745E+03  0.17634933786E+04  0.25500000920E-02 0. -1.
</event>
<event>
 5   0  0.1361560E-06  0.3506593E+04  0.7818609E-02  0.8112229E-01
        2   -1    0    0  501    0  0.00000000000E+00  0.00000000000E+00  0.22644927500E+04  0.22644927500E+04  0.25500000920E-02 0. -1.
       -2   -1    0    0    0  501  0.00000000000E+00  0.00000000000E+00 -0.13574997566E+04  0.13574997566E+04  0.25500000920E-02 0.  1.
    10030    2    1    2    0    0  0.00000000000E+00  0.00000000000E+00  0.90699299341E+03  0.36219925066E+04  0.35065928517E+04 0.  0.
        3    1    3    3  502    0  0.13597684602E+02  0.63079813458E+03  0.21431660669E+04  0.22341110054E+04  0.10100000352E+00 0. -1.
       -3    1    3    3    0  502 -0.13597684602E+02 -0.63079813458E+03 -0.12361730735E+04  0.13878815013E+04  0.10100000352E+00 0.  1.
</event>
<event>
 5   0  0.1442864E-06  0.3473285E+04  0.7818609E-02  0.8120150E-01
       -2   -1    0    0    0  501  0.00000000000E+00  0.00000000000E+00  0.11413993167E+04  0.11413993167E+04  0.25500000920E-02 0.  1.
        2   -1    0    0  501    0  0.00000000000E+00  0.00000000000E+00 -0.26423071479E+04  0.26423071479E+04  0.25500000920E-02 0. -1.
    10030    2    1    2    0    0  0.00000000000E+00  0.00000000000E+00 -0.15009078312E+04  0.37837064646E+04  0.34732852305E+04 0.  0.
        1    1    3    3  502    0 -0.15843333204E+04  0.69066253952E+03 -0.56557858756E+03  0.18185175150E+04  0.50400001928E-02 0. -1.
       -1    1    3    3    0  502  0.15843333204E+04 -0.69066253952E+03 -0.93532924367E+03  0.19651889496E+04  0.50400001928E-02 0.  1.
</event>
<event>
 5   0  0.4409125E-07  0.3247945E+04  0.7818609E-02  0.8176268E-01
       -1   -1    0    0    0  501  0.00000000000E+00  0.00000000000E+00  0.12059989738E+04  0.12059989738E+04  0.50400001928E-02 0. -1.
        1   -1    0    0  501    0  0.00000000000E+00  0.00000000000E+00 -0.21868072298E+04  0.21868072298E+04  0.50400001928E-02 0.  1.
    10030    2    1    2    0    0  0.00000000000E+00  0.00000000000E+00 -0.98080825596E+03  0.33928062036E+04  0.32479453659E+04 0.  0.
        5    1    3    3  502    0  0.13504273009E+04 -0.19303497883E+03  0.43000046585E+03  0.14303282451E+04  0.46999998093E+01 0. -1.
       -5    1    3    3    0  502 -0.13504273009E+04  0.19303497883E+03 -0.14108087218E+04  0.19624779585E+04  0.46999998093E+01 0.  1.
</event>
<event>
 5   0  0.1361560E-06  0.3610424E+04  0.7818609E-02  0.8088108E-01
        2   -1    0    0  501    0  0.00000000000E+00  0.00000000000E+00  0.20227896220E+04  0.20227896220E+04  0.25500000920E-02 0. -1.
       -2   -1    0    0    0  501  0.00000000000E+00  0.00000000000E+00 -0.16110374919E+04  0.16110374919E+04  0.25500000920E-02 0.  1.
    10030    2    1    2    0    0  0.00000000000E+00  0.00000000000E+00  0.41175213004E+03  0.36338271139E+04  0.36104237532E+04 0.  0.
        3    1    3    3  502    0 -0.10016670918E+04 -0.10158223306E+04 -0.90743968477E+03  0.16907627752E+04  0.10100000352E+00 0.  1.
       -3    1    3    3    0  502  0.10016670918E+04  0.10158223306E+04  0.13191918148E+04  0.19430643388E+04  0.10100000352E+00 0. -1.
</event>
<event>
 5   0  0.4591195E-07  0.3465025E+04  0.7818609E-02  0.8122129E-01
        1   -1    0    0  501    0  0.00000000000E+00  0.00000000000E+00  0.20503830069E+04  0.20503830069E+04  0.50400001928E-02 0.  1.
       -1   -1    0    0    0  501  0.00000000000E+00  0.00000000000E+00 -0.14639215022E+04  0.14639215022E+04  0.50400001928E-02 0. -1.
    10030    2    1    2    0    0  0.00000000000E+00  0.00000000000E+00  0.58646150473E+03  0.35143045091E+04  0.34650251206E+04 0.  0.
        4    1    3    3  502    0  0.12479423019E+04 -0.22137988278E+03  0.14912278552E+04  0.19570720913E+04  0.12699999809E+01 0.  1.
       -4    1    3    3    0  502 -0.12479423019E+04  0.22137988278E+03 -0.90476635045E+03  0.15572324179E+04  0.12699999809E+01 0. -1.
</event>
<event>
 5   0  0.4693374E-07  0.3891308E+04  0.7818609E-02  0.8026839E-01
        1   -1    0    0  501    0  0.00000000000E+00  0.00000000000E+00  0.22423327078E+04  0.22423327078E+04  0.50400001928E-02 0.  1.
       -1   -1    0    0    0  501  0.00000000000E+00  0.00000000000E+00 -0.16882279697E+04  0.16882279697E+04  0.50400001928E-02 0. -1.
    10030    2    1    2    0    0  0.00000000000E+00  0.00000000000E+00  0.55410473808E+03  0.39305606774E+04  0.38913076437E+04 0.  0.
        1    1    3    3  502    0  0.92563938731E+03  0.70956124880E+03 -0.12959891327E+04  0.17435232356E+04  0.50400001928E-02 0. -1.
       -1    1    3    3    0  502 -0.92563938731E+03 -0.70956124880E+03  0.18500938708E+04  0.21870374418E+04  0.50400001928E-02 0.  1.
</event>
<event>
 5   0  0.4409125E-07  0.3503496E+04  0.7818609E-02  0.8112962E-01
        1   -1    0    0  501    0  0.00000000000E+00  0.00000000000E+00  0.92503383809E+03  0.92503383810E+03  0.50400001928E-02 0.  1.
       -1   -1    0    0    0  501  0.00000000000E+00  0.00000000000E+00 -0.33173068743E+04  0.33173068743E+04  0.50400001928E-02 0. -1.
    10030    2    1    2    0    0  0.00000000000E+00  0.00000000000E+00 -0.23922730362E+04  0.42423407124E+04  0.35034960312E+04 0.  0.
        5    1    3    3  502    0 -0.17480495243E+04 -0.11366571539E+03 -0.11944301739E+04  0.21202081418E+04  0.46999998093E+01 0. -1.
       -5    1    3    3    0  502  0.17480495243E+04  0.11366571539E+03 -0.11978428623E+04  0.21221325706E+04  0.46999998093E+01 0.  1.
</event>
<event>
 5   0  0.1387133E-06  0.3440728E+04  0.7818609E-02  0.8127982E-01
        2   -1    0    0  501    0  0.00000000000E+00  0.00000000000E+00  0.23220575414E+04  0.23220575414E+04  0.25500000920E-02 0.  1.
       -2   -1    0    0    0  501  0.00000000000E+00  0.00000000000E+00 -0.12745818988E+04  0.12745818988E+04  0.25500000920E-02 0. -1.
    10030    2    1    2    0    0  0.00000000000E+00  0.00000000000E+00  0.10474756426E+04  0.35966394403E+04  0.34407281266E+04 0.  0.
        4    1    3    3  502    0  0.30557390279E+03 -0.11980234648E+04 -0.72671893671E+03  0.14341400413E+04  0.12699999809E+01 0. -1.
       -4    1    3    3    0  502 -0.30557390279E+03  0.11980234648E+04  0.17741945793E+04  0.21624993989E+04  0.12699999809E+01 0.  1.
</event>
<event>
 5   0  0.1387133E-06  0.2890454E+04  0.7818609E-02  0.8275723E-01
        2   -1    0    0  501    0  0.00000000000E+00  0.00000000000E+00  0.12726057331E+04  0.12726057331E+04  0.25500000920E-02 0. -1.
       -2   -1    0    0    0  501  0.00000000000E+00  0.00000000000E+00 -0.16412631717E+04  0.16412631717E+04  0.25500000920E-02 0.  1.
    10030    2    1    2    0    0  0.00000000000E+00  0.00000000000E+00 -0.36865743867E+03  0.29138689048E+04  0.28904538895E+04 0.  0.
        4    1    3    3  502    0 -0.12713840598E+04  0.60317002687E+03 -0.51631056616E+03  0.14989361969E+04  0.12699999809E+01 0.  1.
       -4    1    3    3    0  502  0.12713840598E+04 -0.60317002687E+03  0.14765312749E+03  0.14149327079E+04  0.12699999809E+01 0. -1.
</event>
<event>
 5   0  0.4557237E-07  0.3532918E+04  0.7818609E-02  0.8106033E-01
        1   -1    0    0  501    0  0.00000000000E+00  0.00000000000E+00  0.21679740086E+04  0.21679740086E+04  0.50400001928E-02 0. -1.
       -1   -1    0    0    0  501  0.00000000000E+00  0.00000000000E+00 -0.14393056526E+04  0.14393056526E+04  0.50400001928E-02 0.  1.
    10030    2    1    2    0    0  0.00000000000E+00  0.00000000000E+00  0.72866835599E+03  0.36072796612E+04  0.35329179132E+04 0.  0.
        2    1    3    3  502    0 -0.13755464499E+04  0.18688824722E+03  0.14797199201E+04  0.20289470902E+04  0.25500000920E-02 0. -1.
       -2    1    3    3    0  502  0.13755464499E+04 -0.18688824722E+03 -0.75105156414E+03  0.15783325710E+04  0.25500000920E-02 0.  1.
</event>
<event>
 5   0  0.4409125E-07  0.3279731E+04  0.7818609E-02  0.8168072E-01
       -1   -1    0    0    0  501  0.00000000000E+00  0.00000000000E+00  0.15104452561E+04  0.15104452561E+04  0.50400001928E-02 0.  1.
        1   -1    0    0  501    0  0.00000000000E+00  0.00000000000E+00 -0.17803747173E+04  0.17803747173E+04  0.50400001928E-02 0. -1.
    10030    2    1    2    0    0  0.00000000000E+00  0.00000000000E+00 -0.26992946119E+03  0.32908199734E+04  0.32797308096E+04 0.  0.
        5    1    3    3  502    0  0.50262754439E+03  0.12658613975E+04 -0.10513417431E+04  0.17205757980E+04  0.46999998093E+01 0. -1.
       -5    1    3    3    0  502 -0.50262754439E+03 -0.12658613975E+04  0.78141228193E+03  0.15702441754E+04  0.46999998093E+01 0.  1.
</event>
<event>
 5   0  0.4409125E-07  0.2974901E+04  0.7818609E-02  0.8250935E-01
        1   -1    0    0  501    0  0.00000000000E+00  0.00000000000E+00  0.22931346907E+04  0.22931346907E+04  0.50400001928E-02 0.  1.
       -1   -1    0    0    0  501  0.00000000000E+00  0.00000000000E+00 -0.96484019724E+03  0.96484019725E+03  0.50400001928E-02 0. -1.
    10030    2    1    2    0    0  0.00000000000E+00  0.00000000000E+00  0.13282944935E+04  0.32579748880E+04  0.29749006890E+04 0.  0.
        5    1    3    3  502    0  0.10917054352E+04  0.94179577406E+03  0.26372437636E+03  0.14657328113E+04  0.46999998093E+01 0. -1.
       -5    1    3    3    0  502 -0.10917054352E+04 -0.94179577406E+03  0.10645701171E+04  0.17922420767E+04  0.46999998093E+01 0.  1.
</event>
<event>
 5   0  0.1378620E-06  0.3468547E+04  0.7818609E-02  0.8121285E-01
       -2   -1    0    0    0  501  0.00000000000E+00  0.00000000000E+00  0.20615741617E+04  0.20615741617E+04  0.25500000920E-02 0. -1.
        2   -1    0    0  501    0  0.00000000000E+00  0.00000000000E+00 -0.14589355774E+04  0.14589355774E+04  0.25500000920E-02 0.  1.
    10030    2    1    2    0    0  0.00000000000E+00  0.00000000000E+00  0.60263858431E+03  0.35205097392E+04  0.34685466064E+04 0.  0.
        2    1    3    3  502    0  0.13710164870E+04  0.93894696389E+03 -0.20250034445E+03  0.16740113495E+04  0.25500000920E-02 0.  1.
       -2    1    3    3    0  502 -0.13710164870E+04 -0.93894696389E+03  0.80513892876E+03  0.18464983897E+04  0.25500000920E-02 0. -1.
</event>
<event>
 5   0  0.1361560E-06  0.3674243E+04  0.7818609E-02  0.8073694E-01
       -2   -1    0    0    0  501  0.00000000000E+00  0.00000000000E+00  0.16248442189E+04  0.16248442189E+04  0.25500000920E-02 0.  1.
        2   -1    0    0  501    0  0.00000000000E+00  0.00000000000E+00 -0.20771312504E+04  0.20771312504E+04  0.25500000920E-02 0. -1.
    10030    2    1    2    0    0  0.00000000000E+00  0.00000000000E+00 -0.45228703155E+03  0.37019754693E+04  0.36742426180E+04 0.  0.
        3    1    3    3  502    0  0.19027250688E+03 -0.13056051090E+03  0.16101840771E+04  0.16266353145E+04  0.10100000352E+00 0.  1.
       -3    1    3    3    0  502 -0.19027250688E+03  0.13056051090E+03 -0.20624711087E+04  0.20753401548E+04  0.10100000352E+00 0. -1.
</event>
<event>
 5   0  0.1442864E-06  0.3540819E+04  0.7818609E-02  0.8104184E-01
       -2   -1    0    0    0  501  0.00000000000E+00  0.00000000000E+00  0.15660221330E+04  0.15660221331E+04  0.25500000920E-02 0. -1.
        2   -1    0    0  501    0  0.00000000000E+00  0.00000000000E+00 -0.20014724069E+04  0.20014724069E+04  0.25500000920E-02 0.  1.
    10030    2    1    2    0    0  0.00000000000E+00  0.00000000000E+00 -0.43545027382E+03  0.35674945399E+04  0.35408191639E+04 0.  0.
        1    1    3    3  502    0  0.70526037458E+03  0.11441756626E+04 -0.13787169678E+04  0.19254585480E+04  0.50400001928E-02 0.  1.
       -1    1    3    3    0  502 -0.70526037458E+03 -0.11441756626E+04  0.94326669393E+03  0.16420359919E+04  0.50400001928E-02 0. -1.
</event>
<event>
 5   0  0.1378620E-06  0.3488773E+04  0.7818609E-02  0.8116456E-01
        2   -1    0    0  501    0  0.00000000000E+00  0.00000000000E+00  0.15989149747E+04  0.15989149747E+04  0.25500000920E-02 0. -1.
       -2   -1    0    0    0  501  0.00000000000E+00  0.00000000000E+00 -0.19030937616E+04  0.19030937616E+04  0.25500000920E-02 0.  1.
    10030    2    1    2    0    0  0.00000000000E+00  0.00000000000E+00 -0.30417878698E+03  0.35020087363E+04  0.34887734886E+04 0.  0.
        2    1    3    3  502    0 -0.66834674292E+03  0.50762526597E+03  0.13829321318E+04  0.16176748933E+04  0.25500000920E-02 0. -1.
       -2    1    3    3    0  502  0.66834674292E+03 -0.50762526597E+03 -0.16871109188E+04  0.18843338429E+04  0.25500000920E-02 0.  1.
</event>
<event>
 5   0  0.1361560E-06  0.3629629E+04  0.7818609E-02  0.8083738E-01
        2   -1    0    0  501    0  0.00000000000E+00  0.00000000000E+00  0.24488677426E+04  0.24488677426E+04  0.25500000920E-02 0.  1.
       -2   -1    0    0    0  501  0.00000000000E+00  0.00000000000E+00 -0.13449286055E+04  0.13449286055E+04  0.25500000920E-02 0. -1.
    10030    2    1    2    0    0  0.00000000000E+00  0.00000000000E+00  0.11039391371E+04  0.37937963481E+04  0.36296293354E+04 0.  0.
        3    1    3    3  502    0 -0.12838006059E+04 -0.71392717928E+03 -0.56193159764E+03  0.15727692595E+04  0.10100000352E+00 0. -1.
       -3    1    3    3    0  502  0.12838006059E+04  0.71392717928E+03  0.16658707348E+04  0.22210270886E+04  0.10100000352E+00 0.  1.
</event>
<event>
 5   0  0.4409125E-07  0.3477657E+04  0.7818609E-02  0.8119105E-01
        1   -1    0    0  501    0  0.00000000000E+00  0.00000000000E+00  0.23545508184E+04  0.23545508185E+04  0.50400001928E-02 0. -1.
       -1   -1    0    0    0  501  0.00000000000E+00  0.00000000000E+00 -0.12841196503E+04  0.12841196503E+04  0.50400001928E-02 0.  1.
    10030    2    1    2    0    0  0.00000000000E+00  0.00000000000E+00  0.10704311682E+04  0.36386704687E+04  0.34776572422E+04 0.  0.
        5    1    3    3  502    0  0.64058682844E+03  0.28715708291E+03 -0.11292530454E+04  0.13296786098E+04  0.46999998093E+01 0.  1.
       -5    1    3    3    0  502 -0.64058682844E+03 -0.28715708291E+03  0.21996842135E+04  0.23089918589E+04  0.46999998093E+01 0. -1.
</event>
<event>
 5   0  0.1348388E-06  0.3531735E+04  0.7818609E-02  0.8106310E-01
        2   -1    0    0  501    0  0.00000000000E+00  0.00000000000E+00  0.17443703396E+04  0.17443703396E+04  0.25500000920E-02 0. -1.
       -2   -1    0    0    0  501  0.00000000000E+00  0.00000000000E+00 -0.17876291178E+04  0.17876291178E+04  0.25500000920E-02 0.  1.
    10030    2    1    2    0    0  0.00000000000E+00  0.00000000000E+00 -0.43258778217E+02  0.35319994574E+04  0.35317345377E+04 0.  0.
        5    1    3    3  502    0  0.16078234873E+04 -0.57524957299E+03  0.42813391304E+03  0.17604911743E+04  0.46999998093E+01 0. -1.
       -5    1    3    3    0  502 -0.16078234873E+04  0.57524957299E+03 -0.47139269126E+03  0.17715082830E+04  0.46999998093E+01 0.  1.
</event>
<event>
 5   0  0.4409125E-07  0.3250648E+04  0.7818609E-02  0.8175568E-01
       -1   -1    0    0    0  501  0.00000000000E+00  0.00000000000E+00  0.11141844054E+04  0.11141844055E+04  0.50400001928E-02 0. -1.
        1   -1    0    0  501    0  0.00000000000E+00  0.00000000000E+00 -0.23709528815E+04  0.23709528815E+04  0.50400001928E-02 0.  1.
    10030    2    1    2    0    0  0.00000000000E+00  0.00000000000E+00 -0.12567684761E+04  0.34851372870E+04  0.32506483825E+04 0.  0.
        5    1    3    3  502    0  0.13834320745E+04  0.72473900243E+03 -0.11108760833E+04  0.19165590752E+04  0.46999998093E+01 0.  1.
       -5    1    3    3    0  502 -0.13834320745E+04 -0.72473900243E+03 -0.14589239279E+03  0.15685782118E+04  0.46999998093E+01 0. -1.
</event>
<event>
 5   0  0.4700769E-07  0.3540141E+04  0.7818609E-02  0.8104343E-01
        1   -1    0    0  501    0  0.00000000000E+00  0.00000000000E+00  0.28793404795E+04  0.28793404795E+04  0.50400001928E-02 0.  1.
       -1   -1    0    0    0  501  0.00000000000E+00  0.00000000000E+00 -0.10881480473E+04  0.10881480473E+04  0.50400001928E-02 0. -1.
    10030    2    1    2    0    0  0.00000000000E+00  0.00000000000E+00  0.17911924322E+04  0.39674885268E+04  0.35401405172E+04 0.  0.
        3    1    3    3  502    0 -0.10655325618E+04 -0.76487931219E+03  0.22276680280E+04  0.25851314968E+04  0.10100000352E+00 0.  1.
       -3    1    3    3    0  502  0.10655325618E+04  0.76487931219E+03 -0.43647559576E+03  0.13823570300E+04  0.10100000352E+00 0. -1.
</event>
<event>
 5   0  0.1361560E-06  0.3716386E+04  0.7818609E-02  0.8064340E-01
       -2   -1    0    0    0  501  0.00000000000E+00  0.00000000000E+00  0.26689514070E+04  0.26689514070E+04  0.25500000920E-02 0.  1.
        2   -1    0    0  501    0  0.00000000000E+00  0.00000000000E+00 -0.12937220892E+04  0.12937220892E+04  0.25500000920E-02 0. -1.
    10030    2    1    2    0    0  0.00000000000E+00  0.00000000000E+00  0.13752293178E+04  0.39626734962E+04  0.37163860888E+04 0.  0.
        3    1    3    3  502    0 -0.36858657304E+03 -0.65385893904E+03  0.25001160492E+04  0.26103577999E+04  0.10100000352E+00 0.  1.
       -3    1    3    3    0  502  0.36858657304E+03  0.65385893904E+03 -0.11248867314E+04  0.13523156963E+04  0.10100000352E+00 0. -1.
</event>
<event>
 5   0  0.4693374E-07  0.3482288E+04  0.7818609E-02  0.8118000E-01
        1   -1    0    0  501    0  0.00000000000E+00  0.00000000000E+00  0.21049529650E+04  0.21049529650E+04  0.50400001928E-02 0. -1.
       -1   -1    0    0    0  501  0.00000000000E+00  0.00000000000E+00 -0.14402139000E+04  0.14402139000E+04  0.50400001928E-02 0.  1.
    10030    2    1    2    0    0  0.00000000000E+00  0.00000000000E+00  0.66473906494E+03  0.35451668650E+04  0.34822880519E+04 0.  0.
        1    1    3    3  502    0 -0.43615801383E+03 -0.16562431349E+04  0.13330323350E+02  0.17127617559E+04  0.50400001928E-02 0. -1.
       -1    1    3    3    0  502  0.43615801383E+03  0.16562431349E+04  0.65140874159E+03  0.18324051091E+04  0.50400001928E-02 0.  1.
</event>
<event>
 5   0  0.4409125E-07  0.3494356E+04  0.7818609E-02  0.8115129E-01
        1   -1    0    0  501    0  0.00000000000E+00  0.00000000000E+00  0.17875408340E+04  0.17875408340E+04  0.50400001928E-02 0.  1.
       -1   -1    0    0    0  501  0.00000000000E+00  0.00000000000E+00 -0.17077267630E+04  0.17077267630E+04  0.50400001928E-02 0. -1.
    10030    2    1    2    0    0  0.00000000000E+00  0.00000000000E+00  0.79814071042E+02  0.34952675970E+04  0.34943562052E+04 0.  0.
        5    1    3    3  502    0 -0.89413133176E+03  0.14035769684E+03 -0.14549519228E+04  0.17134988501E+04  0.46999998093E+01 0. -1.
       -5    1    3    3    0  502  0.89413133176E+03 -0.14035769684E+03  0.15347659939E+04  0.17817687469E+04  0.46999998093E+01 0.  1.
</event>
<event>
 5   0  0.4591195E-07  0.2528328E+04  0.7818609E-02  0.8392963E-01
       -1   -1    0    0    0  501  0.00000000000E+00  0.00000000000E+00  0.70375310806E+03  0.70375310808E+03  0.50400001928E-02 0. -1.
        1   -1    0    0  501    0  0.00000000000E+00  0.00000000000E+00 -0.22708390050E+04  0.22708390050E+04  0.50400001928E-02 0.  1.
    10030    2    1    2    0    0  0.00000000000E+00  0.00000000000E+00 -0.15670858969E+04  0.29745921131E+04  0.25283275165E+04 0.  0.
        4    1    3    3  502    0  0.79032708584E+01  0.94678194480E+03 -0.17690377079E+04  0.20064781428E+04  0.12699999809E+01 0.  1.
       -4    1    3    3    0  502 -0.79032708584E+01 -0.94678194480E+03  0.20195181092E+03  0.96811397032E+03  0.12699999809E+01 0. -1.
</event>
<event>
 5   0  0.4409125E-07  0.3152231E+04  0.7818609E-02  0.8201548E-01
       -1   -1    0    0    0  501  0.00000000000E+00  0.00000000000E+00  0.99971483171E+03  0.99971483172E+03  0.50400001928E-02 0.  1.
        1   -1    0    0  501    0  0.00000000000E+00  0.00000000000E+00 -0.24848487891E+04  0.24848487891E+04  0.50400001928E-02 0. -1.
    10030    2    1    2    0    0  0.00000000000E+00  0.00000000000E+00 -0.14851339574E+04  0.34845636209E+04  0.31522310760E+04 0.  0.
        5    1    3    3  502    0  0.14323668846E+04  0.44729504136E+03 -0.12754362918E+04  0.19693926908E+04  0.46999998093E+01 0.  1.
       -5    1    3    3    0  502 -0.14323668846E+04 -0.44729504136E+03 -0.20969766561E+03  0.15151709300E+04  0.46999998093E+01 0. -1.
</event>
<event>
 5   0  0.1387133E-06  0.3481912E+04  0.7818609E-02  0.8118090E-01
       -2   -1    0    0    0  501  0.00000000000E+00  0.00000000000E+00  0.14911383371E+04  0.14911383371E+04  0.25500000920E-02 0. -1.
        2   -1    0    0  501    0  0.00000000000E+00  0.00000000000E+00 -0.20326264819E+04  0.20326264819E+04  0.25500000920E-02 0.  1.
    10030    2    1    2    0    0  0.00000000000E+00  0.00000000000E+00 -0.54148814478E+03  0.35237648190E+04  0.34819117003E+04 0.  0.
        4    1    3    3  502    0  0.11284765938E+04 -0.63044463311E+03  0.90946661291E+03  0.15805223792E+04  0.12699999809E+01 0. -1.
       -4    1    3    3    0  502 -0.11284765938E+04  0.63044463311E+03 -0.14509547577E+04  0.19432424398E+04  0.12699999809E+01 0.  1.
</event>
<event>
 5   0  0.1442864E-06  0.3352648E+04  0.7818609E-02  0.8149627E-01
        2   -1    0    0  501    0  0.00000000000E+00  0.00000000000E+00  0.18803063775E+04  0.18803063775E+04  0.25500000920E-02 0. -1.
       -2   -1    0    0    0  501  0.00000000000E+00  0.00000000000E+00 -0.14944704326E+04  0.14944704326E+04  0.25500000920E-02 0.  1.
    10030    2    1    2    0    0  0.00000000000E+00  0.00000000000E+00  0.38583594484E+03  0.33747768101E+04  0.33526480790E+04 0.  0.
        1    1    3    3  502    0 -0.11394862160E+04  0.23504042115E+03 -0.10218570384E+04  0.15485040016E+04  0.50400001928E-02 0.  1.
       -1    1    3    3    0  502  0.11394862160E+04 -0.23504042115E+03  0.14076929833E+04  0.18262728085E+04  0.50400001928E-02 0. -1.
</event>
<event>
 5   0  0.4591195E-07  0.3476492E+04  0.7818609E-02  0.8119384E-01
        1   -1    0    0  501    0  0.00000000000E+00  0.00000000000E+00  0.20821438869E+04  0.20821438869E+04  0.50400001928E-02 0. -1.
       -1   -1    0    0    0  501  0.00000000000E+00  0.00000000000E+00 -0.14511481698E+04  0.14511481698E+04  0.50400001928E-02 0.  1.
    10030    2    1    2    0    0  0.00000000000E+00  0.00000000000E+00  0.63099571709E+03  0.35332920566E+04  0.34764920772E+04 0.  0.
        4    1    3    3  502    0 -0.12453449312E+04  0.11515904556E+04  0.70177742036E+03  0.18356300651E+04  0.12699999809E+01 0.  1.
       -4    1    3    3    0  502  0.12453449312E+04 -0.11515904556E+04 -0.70781703271E+02  0.16976619916E+04  0.12699999809E+01 0. -1.
</event>
<event>
 5   0  0.1378620E-06  0.3512967E+04  0.7818609E-02  0.8110724E-01
       -2   -1    0    0    0  501  0.00000000000E+00  0.00000000000E+00  0.20543255083E+04  0.20543255083E+04  0.25500000920E-02 0. -1.
        2   -1    0    0  501    0  0.00000000000E+00  0.00000000000E+00 -0.15018236692E+04  0.15018236692E+04  0.25500000920E-02 0.  1.
    10030    2    1    2    0    0  0.00000000000E+00  0.00000000000E+00  0.55250183910E+03  0.35561491775E+04  0.35129672203E+04 0.  0.
        2    1    3    3  502    0  0.22309244775E+03  0.16371247744E+04 -0.32713542089E+03  0.16843293475E+04  0.25500000920E-02 0.  1.
       -2    1    3    3    0  502 -0.22309244775E+03 -0.16371247744E+04  0.87963726000E+03  0.18718198301E+04  0.25500000920E-02 0. -1.
</event>
<event>
 5   0  0.4409125E-07  0.3442543E+04  0.7818609E-02  0.8127543E-01
       -1   -1    0    0    0  501  0.00000000000E+00  0.00000000000E+00  0.12945127165E+04  0.12945127165E+04  0.50400001928E-02 0.  1.
        1   -1    0    0  501    0  0.00000000000E+00  0.00000000000E+00 -0.22887187056E+04  0.22887187056E+04  0.50400001928E-02 0. -1.
    10030    2    1    2    0    0  0.00000000000E+00  0.00000000000E+00 -0.99420598907E+03  0.35832314221E+04  0.34425429373E+04 0.  0.
        5    1    3    3  502    0 -0.13222084861E+04  0.16318630369E+03 -0.16315476142E+04  0.21063795380E+04  0.46999998093E+01 0. -1.
       -5    1    3    3    0  502  0.13222084861E+04 -0.16318630369E+03  0.63734162517E+03  0.14768518841E+04  0.46999998093E+01 0.  1.
</event>
<event>
 5   0  0.1378620E-06  0.3497876E+04  0.7818609E-02  0.8114294E-01
       -2   -1    0    0    0  501  0.00000000000E+00  0.00000000000E+00  0.10350025626E+04  0.10350025626E+04  0.25500000920E-02 0. -1.
        2   -1    0    0  501    0  0.00000000000E+00  0.00000000000E+00 -0.29553395568E+04  0.29553395568E+04  0.25500000920E-02 0.  1.
    10030    2    1    2    0    0  0.00000000000E+00  0.00000000000E+00 -0.19203369942E+04  0.39903421194E+04  0.34978759353E+04 0.  0.
        2    1    3    3  502    0  0.47231759470E+03  0.34484350795E+03 -0.28404947558E+04  0.29000709324E+04  0.25500000920E-02 0.  1.
       -2    1    3    3    0  502 -0.47231759470E+03 -0.34484350795E+03  0.92015776154E+03  0.10902711871E+04  0.25500000920E-02 0. -1.
</event>
<event>
 5   0  0.4591195E-07  0.3504503E+04  0.7818609E-02  0.8112724E-01
        1   -1    0    0  501    0  0.00000000000E+00  0.00000000000E+00  0.16018566523E+04  0.16018566523E+04  0.50400001928E-02 0. -1.
       -1   -1    0    0    0  501  0.00000000000E+00  0.00000000000E+00 -0.19167668249E+04  0.19167668250E+04  0.50400001928E-02 0.  1.
    10030    2    1    2    0    0  0.00000000000E+00  0.00000000000E+00 -0.31491017265E+03  0.35186234773E+04  0.35045032113E+04 0.  0.
        4    1    3    3  502    0 -0.12575629944E+04  0.11402776329E+04 -0.59358565870E+03  0.17983446033E+04  0.12699999809E+01 0.  1.
       -4    1    3    3    0  502  0.12575629944E+04 -0.11402776329E+04  0.27867548605E+03  0.17202788740E+04  0.12699999809E+01 0. -1.
</event>
<event>
 5   0  0.4591195E-07  0.3465641E+04  0.7818609E-02  0.8121981E-01
       -1   -1    0    0    0  501  0.00000000000E+00  0.00000000000E+00  0.18690231144E+04  0.18690231144E+04  0.50400001928E-02 0. -1.
        1   -1    0    0  501    0  0.00000000000E+00  0.00000000000E+00 -0.16065431785E+04  0.16065431786E+04  0.50400001928E-02 0.  1.
    10030    2    1    2    0    0  0.00000000000E+00  0.00000000000E+00  0.26247993588E+03  0.34755662930E+04  0.34656406825E+04 0.  0.
        4    1    3    3  502    0 -0.88896957152E+03  0.84089484824E+03  0.13616579295E+04  0.18307061410E+04  0.12699999809E+01 0. -1.
       -4    1    3    3    0  502  0.88896957152E+03 -0.84089484824E+03 -0.10991779936E+04  0.16448601520E+04  0.12699999809E+01 0.  1.
</event>
<event>
 5   0  0.4591195E-07  0.3454700E+04  0.7818609E-02  0.8124610E-01
       -1   -1    0    0    0  501  0.00000000000E+00  0.00000000000E+00  0.14220906679E+04  0.14220906679E+04  0.50400001928E-02 0.  1.
        1   -1    0    0  501    0  0.00000000000E+00  0.00000000000E+00 -0.20981354416E+04  0.20981354416E+04  0.50400001928E-02 0. -1.
    10030    2    1    2    0    0  0.00000000000E+00  0.00000000000E+00 -0.67604477372E+03  0.35202261096E+04  0.34547004684E+04 0.  0.
        4    1    3    3  502    0 -0.15061263077E+04  0.40206427857E+03  0.42017752129E+03  0.16145039179E+04  0.12699999809E+01 0.  1.
       -4    1    3    3    0  502  0.15061263077E+04 -0.40206427857E+03 -0.10962222950E+04  0.19057221916E+04  0.12699999809E+01 0. -1.
</event>
<event>
 5   0  0.1378620E-06  0.3416628E+04  0.7818609E-02  0.8133837E-01
       -2   -1    0    0    0  501  0.00000000000E+00  0.00000000000E+00  0.12259727096E+04  0.12259727096E+04  0.25500000920E-02 0. -1.
        2   -1    0    0  501    0  0.00000000000E+00  0.00000000000E+00 -0.23804254352E+04  0.23804254352E+04  0.25500000920E-02 0.  1.
    10030    2    1    2    0    0  0.00000000000E+00  0.00000000000E+00 -0.11544527256E+04  0.36063981447E+04  0.34166279403E+04 0.  0.
        2    1    3    3  502    0  0.62753514778E+03 -0.45982116492E+01  0.10998968520E+04  0.12663311535E+04  0.25500000920E-02 0. -1.
       -2    1    3    3    0  502 -0.62753514778E+03  0.45982116492E+01 -0.22543495776E+04  0.23400669912E+04  0.25500000920E-02 0.  1.
</event>
<event>
 5   0  0.4409125E-07  0.3281671E+04  0.7818609E-02  0.8167575E-01
        3   -1    0    0  501    0  0.00000000000E+00  0.00000000000E+00  0.15623894385E+04  0.15623894418E+04  0.10100000352E+00 0.  1.
       -3   -1    0    0    0  501  0.00000000000E+00  0.00000000000E+00 -0.17232204794E+04  0.17232204824E+04  0.10100000352E+00 0. -1.
    10030    2    1    2    0    0  0.00000000000E+00  0.00000000000E+00 -0.16083104087E+03  0.32856099241E+04  0.32816712130E+04 0.  0.
        5    1    3    3  502    0 -0.10997578873E+04  0.89471086939E+03  0.74661733866E+03  0.16023215941E+04  0.46999998093E+01 0.  1.
       -5    1    3    3    0  502  0.10997578873E+04 -0.89471086939E+03 -0.90744837953E+03  0.16832883300E+04  0.46999998093E+01 0. -1.
</event>
<event>
 5   0  0.1348388E-06  0.3483586E+04  0.7818609E-02  0.8117691E-01
        2   -1    0    0  501    0  0.00000000000E+00  0.00000000000E+00  0.14748819616E+04  0.14748819616E+04  0.25500000920E-02 0. -1.
       -2   -1    0    0    0  501  0.00000000000E+00  0.00000000000E+00 -0.20570071865E+04  0.20570071865E+04  0.25500000920E-02 0.  1.
    10030    2    1    2    0    0  0.00000000000E+00  0.00000000000E+00 -0.58212522495E+03  0.35318891481E+04  0.34835859652E+04 0.  0.
        5    1    3    3  502    0 -0.19166152259E+03 -0.10760626223E+04  0.10839040040E+04  0.15393228661E+04  0.46999998093E+01 0. -1.
       -5    1    3    3    0  502  0.19166152259E+03  0.10760626223E+04 -0.16660292289E+04  0.19925662820E+04  0.46999998093E+01 0.  1.
</event>
<event>
 5   0  0.1348388E-06  0.3481329E+04  0.7818609E-02  0.8118229E-01
       -2   -1    0    0    0  501  0.00000000000E+00  0.00000000000E+00  0.15530424358E+04  0.15530424358E+04  0.25500000920E-02 0.  1.
        2   -1    0    0  501    0  0.00000000000E+00  0.00000000000E+00 -0.19509526236E+04  0.19509526236E+04  0.25500000920E-02 0. -1.
    10030    2    1    2    0    0  0.00000000000E+00  0.00000000000E+00 -0.39791018781E+03  0.35039950594E+04  0.34813286054E+04 0.  0.
        5    1    3    3  502    0 -0.44163759104E+02  0.79975349814E+03 -0.17544407112E+04  0.19286369266E+04  0.46999998093E+01 0. -1.
       -5    1    3    3    0  502  0.44163759104E+02 -0.79975349814E+03  0.13565305234E+04  0.15753581328E+04  0.46999998093E+01 0.  1.
</event>
<event>
 5   0  0.1387133E-06  0.3506460E+04  0.7818609E-02  0.8112261E-01
        2   -1    0    0  501    0  0.00000000000E+00  0.00000000000E+00  0.29340244896E+04  0.29340244896E+04  0.25500000920E-02 0.  1.
       -2   -1    0    0    0  501  0.00000000000E+00  0.00000000000E+00 -0.10476447154E+04  0.10476447154E+04  0.25500000920E-02 0. -1.
    10030    2    1    2    0    0  0.00000000000E+00  0.00000000000E+00  0.18863797742E+04  0.39816692050E+04  0.35064598964E+04 0.  0.
        4    1    3    3  502    0 -0.23000242981E+03 -0.17330614294E+04  0.10930214120E+04  0.20618196953E+04  0.12699999809E+01 0. -1.
       -4    1    3    3    0  502  0.23000242981E+03  0.17330614294E+04  0.79335836224E+03  0.19198495097E+04  0.12699999809E+01 0.  1.
</event>
<event>
 5   0  0.4591195E-07  0.3503137E+04  0.7818609E-02  0.8113047E-01
       -1   -1    0    0    0  501  0.00000000000E+00  0.00000000000E+00  0.19426774823E+04  0.19426774823E+04  0.50400001928E-02 0.  1.
        1   -1    0    0  501    0  0.00000000000E+00  0.00000000000E+00 -0.15792593733E+04  0.15792593733E+04  0.50400001928E-02 0. -1.
    10030    2    1    2    0    0  0.00000000000E+00  0.00000000000E+00  0.36341810899E+03  0.35219368557E+04  0.35031366650E+04 0.  0.
        4    1    3    3  502    0  0.15175106628E+04  0.17458159405E+03  0.10434394774E+04  0.18498878076E+04  0.12699999809E+01 0.  1.
       -4    1    3    3    0  502 -0.15175106628E+04 -0.17458159405E+03 -0.68002136838E+03  0.16720490481E+04  0.12699999809E+01 0. -1.
</event>
<event>
 5   0  0.4557237E-07  0.3486688E+04  0.7818609E-02  0.8116952E-01
        1   -1    0    0  501    0  0.00000000000E+00  0.00000000000E+00  0.11767000991E+04  0.11767000991E+04  0.50400001928E-02 0. -1.
       -1   -1    0    0    0  501  0.00000000000E+00  0.00000000000E+00 -0.25828567934E+04  0.25828567934E+04  0.50400001928E-02 0.  1.
    10030    2    1    2    0    0  0.00000000000E+00  0.00000000000E+00 -0.14061566944E+04  0.37595568925E+04  0.34866877375E+04 0.  0.
        2    1    3    3  502    0 -0.80427094584E+03  0.14490722201E+03  0.95737175944E+03  0.12587337062E+04  0.25500000920E-02 0. -1.
       -2    1    3    3    0  502  0.80427094584E+03 -0.14490722201E+03 -0.23635284538E+04  0.25008231863E+04  0.25500000920E-02 0.  1.
</event>
<event>
 5   0  0.1378620E-06  0.3467776E+04  0.7818609E-02  0.8121469E-01
        2   -1    0    0  501    0  0.00000000000E+00  0.00000000000E+00  0.24114195414E+04  0.24114195414E+04  0.25500000920E-02 0.  1.
       -2   -1    0    0    0  501  0.00000000000E+00  0.00000000000E+00 -0.12467208348E+04  0.12467208348E+04  0.25500000920E-02 0. -1.
    10030    2    1    2    0    0  0.00000000000E+00  0.00000000000E+00  0.11646987066E+04  0.36581403761E+04  0.34677756465E+04 0.  0.
        2    1    3    3  502    0  0.51430578375E+01 -0.17317643775E+04  0.49201757741E+03  0.18003098640E+04  0.25500000920E-02 0. -1.
       -2    1    3    3    0  502 -0.51430578375E+01  0.17317643775E+04  0.67268112916E+03  0.18578305121E+04  0.25500000920E-02 0.  1.
</event>
<event>
 5   0  0.4557237E-07  0.3490528E+04  0.7818609E-02  0.8116038E-01
       -1   -1    0    0    0  501  0.00000000000E+00  0.00000000000E+00  0.14969026997E+04  0.14969026997E+04  0.50400001928E-02 0. -1.
        1   -1    0    0  501    0  0.00000000000E+00  0.00000000000E+00 -0.20348331482E+04  0.20348331482E+04  0.50400001928E-02 0.  1.
    10030    2    1    2    0    0  0.00000000000E+00  0.00000000000E+00 -0.53793044847E+03  0.35317358479E+04  0.34905284602E+04 0.  0.
        2    1    3    3  502    0 -0.91291141068E+03  0.52671347256E+03  0.11385405493E+04  0.15514860323E+04  0.25500000920E-02 0. -1.
       -2    1    3    3    0  502  0.91291141068E+03 -0.52671347256E+03 -0.16764709978E+04  0.19802498156E+04  0.25500000920E-02 0.  1.
</event>
<event>
 5   0  0.1361560E-06  0.3119574E+04  0.7818609E-02  0.8210386E-01
        2   -1    0    0  501    0  0.00000000000E+00  0.00000000000E+00  0.18325806310E+04  0.18325806310E+04  0.25500000920E-02 0.  1.
       -2   -1    0    0    0  501  0.00000000000E+00  0.00000000000E+00 -0.13276010316E+04  0.13276010316E+04  0.25500000920E-02 0. -1.
    10030    2    1    2    0    0  0.00000000000E+00  0.00000000000E+00  0.50497959946E+03  0.31601816626E+04  0.31195742890E+04 0.  0.
        3    1    3    3  502    0 -0.87422571147E+03 -0.10850010552E+04 -0.45766185314E+03  0.14666125141E+04  0.10100000352E+00 0.  1.
       -3    1    3    3    0  502  0.87422571147E+03  0.10850010552E+04  0.96264145260E+03  0.16935691485E+04  0.10100000352E+00 0. -1.
</event>
<event>
 5   0  0.1348388E-06  0.2983502E+04  0.7818609E-02  0.8248458E-01
       -2   -1    0    0    0  501  0.00000000000E+00  0.00000000000E+00  0.27889242964E+04  0.27889242964E+04  0.25500000920E-02 0. -1.
        2   -1    0    0  501    0  0.00000000000E+00  0.00000000000E+00 -0.79791385377E+03  0.79791385377E+03  0.25500000920E-02 0.  1.
    10030    2    1    2    0    0  0.00000000000E+00  0.00000000000E+00  0.19910104427E+04  0.35868381502E+04  0.29835021926E+04 0.  0.
        5    1    3    3  502    0 -0.97847604913E+03  0.30101283483E+03  0.22999461149E+04  0.25174984263E+04  0.46999998093E+01 0. -1.
       -5    1    3    3    0  502  0.97847604913E+03 -0.30101283483E+03 -0.30893567220E+03  0.10693397238E+04  0.46999998093E+01 0.  1.
</event>
<event>
 5   0  0.4409125E-07  0.3597051E+04  0.7818609E-02  0.8091168E-01
       -1   -1    0    0    0  501  0.00000000000E+00  0.00000000000E+00  0.10608285349E+04  0.10608285349E+04  0.50400001928E-02 0.  1.
        1   -1    0    0  501    0  0.00000000000E+00  0.00000000000E+00 -0.30492144562E+04  0.30492144562E+04  0.50400001928E-02 0. -1.
    10030    2    1    2    0    0  0.00000000000E+00  0.00000000000E+00 -0.19883859212E+04  0.41100429911E+04  0.35970508500E+04 0.  0.
        5    1    3    3  502    0 -0.80377883661E+03 -0.13293052913E+03 -0.28262787859E+04  0.29413610471E+04  0.46999998093E+01 0. -1.
       -5    1    3    3    0  502  0.80377883661E+03  0.13293052913E+03  0.83789286463E+03  0.11686819441E+04  0.46999998093E+01 0.  1.
</event>
<event>
 5   0  0.4700769E-07  0.3480296E+04  0.7818609E-02  0.8118475E-01
       -1   -1    0    0    0  501  0.00000000000E+00  0.00000000000E+00  0.15384695443E+04  0.15384695443E+04  0.50400001928E-02 0.  1.
        1   -1    0    0  501    0  0.00000000000E+00  0.00000000000E+00 -0.19682649232E+04  0.19682649232E+04  0.50400001928E-02 0. -1.
    10030    2    1    2    0    0  0.00000000000E+00  0.00000000000E+00 -0.42979537890E+03  0.35067344675E+04  0.34802963319E+04 0.  0.
        3    1    3    3  502    0  0.58875472071E+03 -0.43434226514E+03  0.13759661709E+04  0.15583864213E+04  0.10100000352E+00 0.  1.
       -3    1    3    3    0  502 -0.58875472071E+03  0.43434226514E+03 -0.18057615498E+04  0.19483480462E+04  0.10100000352E+00 0. -1.
</event>
<event>
 5   0  0.1361560E-06  0.3506333E+04  0.7818609E-02  0.8112291E-01
       -2   -1    0    0    0  501  0.00000000000E+00  0.00000000000E+00  0.12038679193E+04  0.12038679193E+04  0.25500000920E-02 0. -1.
        2   -1    0    0  501    0  0.00000000000E+00  0.00000000000E+00 -0.25530976982E+04  0.25530976982E+04  0.25500000920E-02 0.  1.
    10030    2    1    2    0    0  0.00000000000E+00  0.00000000000E+00 -0.13492297789E+04  0.37569656175E+04  0.35063327929E+04 0.  0.
        3    1    3    3  502    0  0.11076703006E+04 -0.85488726319E+03  0.45721838376E+03  0.14720103221E+04  0.10100000352E+00 0. -1.
       -3    1    3    3    0  502 -0.11076703006E+04  0.85488726319E+03 -0.18064481626E+04  0.22849552954E+04  0.10100000352E+00 0.  1.
</event>
<event>
 5   0  0.1442864E-06  0.3136598E+04  0.7818609E-02  0.8205765E-01
        2   -1    0    0  501    0  0.00000000000E+00  0.00000000000E+00  0.14713827806E+04  0.14713827806E+04  0.25500000920E-02 0. -1.
       -2   -1    0    0    0  501  0.00000000000E+00  0.00000000000E+00 -0.16715991528E+04  0.16715991528E+04  0.25500000920E-02 0.  1.
    10030    2    1    2    0    0  0.00000000000E+00  0.00000000000E+00 -0.20021637227E+03  0.31429819334E+04  0.31365982908E+04 0.  0.
        1    1    3    3  502    0  0.10147752346E+04  0.95984849214E+03  0.61442393897E+03  0.15259733554E+04  0.50400001928E-02 0. -1.
       -1    1    3    3    0  502 -0.10147752346E+04 -0.95984849214E+03 -0.81464031123E+03  0.16170085780E+04  0.50400001928E-02 0.  1.
</event>
<event>
 5   0  0.1442864E-06  0.3860029E+04  0.7818609E-02  0.8033394E-01
       -2   -1    0    0    0  501  0.00000000000E+00  0.00000000000E+00  0.30030068983E+04  0.30030068983E+04  0.25500000920E-02 0.  1.
        2   -1    0    0  501    0  0.00000000000E+00  0.00000000000E+00 -0.12404087032E+04  0.12404087032E+04  0.25500000920E-02 0. -1.
    10030    2    1    2    0    0  0.00000000000E+00  0.00000000000E+00  0.17625981951E+04  0.42434156015E+04  0.38600289597E+04 0.  0.
        1    1    3    3  502    0 -0.14167300507E+04  0.12991594053E+04  0.69083792866E+03  0.20425954667E+04  0.50400001928E-02 0. -1.
       -1    1    3    3    0  502  0.14167300507E+04 -0.12991594053E+04  0.10717602664E+04  0.22008201348E+04  0.50400001928E-02 0.  1.
</event>
<event>
 5   0  0.1378620E-06  0.3495157E+04  0.7818609E-02  0.8114939E-01
        2   -1    0    0  501    0  0.00000000000E+00  0.00000000000E+00  0.17195233302E+04  0.17195233302E+04  0.25500000920E-02 0.  1.
       -2   -1    0    0    0  501  0.00000000000E+00  0.00000000000E+00 -0.17760913068E+04  0.17760913068E+04  0.25500000920E-02 0. -1.
    10030    2    1    2    0    0  0.00000000000E+00  0.00000000000E+00 -0.56567976684E+02  0.34956146370E+04  0.34951568998E+04 0.  0.
        2    1    3    3  502    0 -0.12426001640E+03 -0.15888964496E+04 -0.74531439060E+03  0.17594107025E+04  0.25500000920E-02 0. -1.
       -2    1    3    3    0  502  0.12426001640E+03  0.15888964496E+04  0.68874641391E+03  0.17362039345E+04  0.25500000920E-02 0.  1.
</event>
<event>
 5   0  0.4693374E-07  0.3311646E+04  0.7818609E-02  0.8159938E-01
        1   -1    0    0  501    0  0.00000000000E+00  0.00000000000E+00  0.22643643539E+04  0.22643643539E+04  0.50400001928E-02 0. -1.
       -1   -1    0    0    0  501  0.00000000000E+00  0.00000000000E+00 -0.12108253951E+04  0.12108253952E+04  0.50400001928E-02 0.  1.
    10030    2    1    2    0    0  0.00000000000E+00  0.00000000000E+00  0.10535389588E+04  0.34751897491E+04  0.33116460340E+04 0.  0.
        1    1    3    3  502    0 -0.45493146647E+03 -0.62832485611E+01  0.21974829886E+04  0.22440885909E+04  0.50400001928E-02 0. -1.
       -1    1    3    3    0  502  0.45493146647E+03  0.62832485611E+01 -0.11439440298E+04  0.12311011582E+04  0.50400001928E-02 0.  1.
</event>
<event>
 5   0  0.1442864E-06  0.3501035E+04  0.7818609E-02  0.8113545E-01
        2   -1    0    0  501    0  0.00000000000E+00  0.00000000000E+00  0.17855411387E+04  0.17855411387E+04  0.25500000920E-02 0.  1.
       -2   -1    0    0    0  501  0.00000000000E+00  0.00000000000E+00 -0.17161805717E+04  0.17161805717E+04  0.25500000920E-02 0. -1.
    10030    2    1    2    0    0  0.00000000000E+00  0.00000000000E+00  0.69360567028E+02  0.35017217103E+04  0.35010347111E+04 0.  0.
        1    1    3    3  502    0  0.47280713699E+03 -0.15174566663E+04  0.76837019475E+03  0.17653934630E+04  0.50400001928E-02 0.  1.
       -1    1    3    3    0  502 -0.47280713699E+03  0.15174566663E+04 -0.69900962772E+03  0.17363282474E+04  0.50400001928E-02 0. -1.
</event>
<event>
 5   0  0.1387133E-06  0.3490723E+04  0.7818609E-02  0.8115992E-01
        2   -1    0    0  501    0  0.00000000000E+00  0.00000000000E+00  0.13646744836E+04  0.13646744836E+04  0.25500000920E-02 0.  1.
       -2   -1    0    0    0  501  0.00000000000E+00  0.00000000000E+00 -0.22322439965E+04  0.22322439965E+04  0.25500000920E-02 0. -1.
    10030    2    1    2    0    0  0.00000000000E+00  0.00000000000E+00 -0.86756951285E+03  0.35969184801E+04  0.34907228038E+04 0.  0.
        4    1    3    3  502    0  0.97974777042E+02  0.77830339317E+03 -0.20403612979E+04  0.21859622750E+04  0.12699999809E+01 0. -1.
       -4    1    3    3    0  502 -0.97974777042E+02 -0.77830339317E+03  0.11727917851E+04  0.14109562051E+04  0.12699999809E+01 0.  1.
</event>
<event>
 5   0  0.1361560E-06  0.3263725E+04  0.7818609E-02  0.8172187E-01
        2   -1    0    0  501    0  0.00000000000E+00  0.00000000000E+00  0.18277764976E+04  0.18277764976E+04  0.25500000920E-02 0.  1.
       -2   -1    0    0    0  501  0.00000000000E+00  0.00000000000E+00 -0.14569482137E+04  0.14569482137E+04  0.25500000920E-02 0. -1.
    10030    2    1    2    0    0  0.00000000000E+00  0.00000000000E+00  0.37082828397E+03  0.32847247113E+04  0.32637252968E+04 0.  0.
        3    1    3    3  502    0  0.10969588863E+04  0.11169382244E+04 -0.27809867988E+03  0.15900341762E+04  0.10100000352E+00 0. -1.
       -3    1    3    3    0  502 -0.10969588863E+04 -0.11169382244E+04  0.64892696385E+03  0.16946905352E+04  0.10100000352E+00 0.  1.
</event>
<event>
 5   0  0.4409125E-07  0.3405432E+04  0.7818609E-02  0.8136574E-01
       -1   -1    0    0    0  501  0.00000000000E+00  0.00000000000E+00  0.12640930064E+04  0.12640930064E+04  0.50400001928E-02 0. -1.
        1   -1    0    0  501    0  0.00000000000E+00  0.00000000000E+00 -0.22935349985E+04  0.22935349985E+04  0.50400001928E-02 0.  1.
    10030    2    1    2    0    0  0.00000000000E+00  0.00000000000E+00 -0.10294419921E+04  0.35576280050E+04  0.34054318678E+04 0.  0.
        5    1    3    3  502    0 -0.53969621641E+03 -0.63648492705E+03 -0.20652477476E+04  0.22274773663E+04  0.46999998093E+01 0.  1.
       -5    1    3    3    0  502  0.53969621641E+03  0.63648492705E+03  0.10358057555E+04  0.13301506387E+04  0.46999998093E+01 0. -1.
</event>
<event>
 5   0  0.4557237E-07  0.3514875E+04  0.7818609E-02  0.8110274E-01
       -1   -1    0    0    0  501  0.00000000000E+00  0.00000000000E+00  0.13177003020E+04  0.13177003020E+04  0.50400001928E-02 0. -1.
        1   -1    0    0  501    0  0.00000000000E+00  0.00000000000E+00 -0.23439212438E+04  0.23439212438E+04  0.50400001928E-02 0.  1.
    10030    2    1    2    0    0  0.00000000000E+00  0.00000000000E+00 -0.10262209418E+04  0.36616215458E+04  0.35148745246E+04 0.  0.
        2    1    3    3  502    0 -0.17553479402E+04 -0.83252854215E+02 -0.49206035697E+03  0.18249111824E+04  0.25500000920E-02 0.  1.
       -2    1    3    3    0  502  0.17553479402E+04  0.83252854215E+02 -0.53416058486E+03  0.18367103634E+04  0.25500000920E-02 0. -1.
</event>
<event>
 5   0  0.1442864E-06  0.3398235E+04  0.7818609E-02  0.8138340E-01
        2   -1    0    0  501    0  0.00000000000E+00  0.00000000000E+00  0.28590187898E+04  0.28590187898E+04  0.25500000920E-02 0.  1.
       -2   -1    0    0    0  501  0.00000000000E+00  0.00000000000E+00 -0.10097873664E+04  0.10097873664E+04  0.25500000920E-02 0. -1.
    10030    2    1    2    0    0  0.00000000000E+00  0.00000000000E+00  0.18492314234E+04  0.38688061562E+04  0.33982354563E+04 0.  0.
        1    1    3    3  502    0  0.11384544536E+04  0.12890706292E+03  0.23530754594E+04  0.26171854522E+04  0.50400001928E-02 0.  1.
       -1    1    3    3    0  502 -0.11384544536E+04 -0.12890706292E+03 -0.50384403594E+03  0.12516207039E+04  0.50400001928E-02 0. -1.
</event>
<event>
 5   0  0.1387133E-06  0.3351156E+04  0.7818609E-02  0.8149999E-01
       -2   -1    0    0    0  501  0.00000000000E+00  0.00000000000E+00  0.90041605746E+03  0.90041605746E+03  0.25500000920E-02 0. -1.
        2   -1    0    0  501    0  0.00000000000E+00  0.00000000000E+00 -0.31180716497E+04  0.31180716497E+04  0.25500000920E-02 0.  1.
    10030    2    1    2    0    0  0.00000000000E+00  0.00000000000E+00 -0.22176555922E+04  0.40184877071E+04  0.33511560881E+04 0.  0.
        4    1    3    3  502    0 -0.13000339967E+04 -0.54305846694E+03 -0.21271892791E+02  0.14090617436E+04  0.12699999809E+01 0. -1.
       -4    1    3    3    0  502  0.13000339967E+04  0.54305846694E+03 -0.21963836994E+04  0.26094259635E+04  0.12699999809E+01 0.  1.
</event>
<event>
 5   0  0.1361560E-06  0.4225992E+04  0.7818609E-02  0.7960446E-01
       -2   -1    0    0    0  501  0.00000000000E+00  0.00000000000E+00  0.17859046260E+04  0.17859046260E+04  0.25500000920E-02 0. -1.
        2   -1    0    0  501    0  0.00000000000E+00  0.00000000000E+00 -0.24999941464E+04  0.24999941464E+04  0.25500000920E-02 0.  1.
    10030    2    1    2    0    0  0.00000000000E+00  0.00000000000E+00 -0.71408952039E+03  0.42858987723E+04  0.42259915338E+04 0.  0.
        3    1    3    3  502    0 -0.12973768280E+03 -0.21086426964E+04 -0.31717831742E+03  0.21363070900E+04  0.10100000352E+00 0.  1.
       -3    1    3    3    0  502  0.12973768280E+03  0.21086426964E+04 -0.39691120298E+03  0.21495916823E+04  0.10100000352E+00 0. -1.
</event>
<event>
 5   0  0.4700769E-07  0.3030612E+04  0.7818609E-02  0.8235043E-01
        1   -1    0    0  501    0  0.00000000000E+00  0.00000000000E+00  0.20037926308E+04  0.20037926308E+04  0.50400001928E-02 0.  1.
       -1   -1    0    0    0  501  0.00000000000E+00  0.00000000000E+00 -0.11459028149E+04  0.11459028149E+04  0.50400001928E-02 0. -1.
    10030    2    1    2    0    0  0.00000000000E+00  0.00000000000E+00  0.85788981585E+03  0.31496954457E+04  0.30306115661E+04 0.  0.
        3    1    3    3  502    0  0.13227503768E+04 -0.26934795203E+02  0.11967273349E+04  0.17839703940E+04  0.10100000352E+00 0.  1.
       -3    1    3    3    0  502 -0.13227503768E+04  0.26934795203E+02 -0.33883751905E+03  0.13657250517E+04  0.10100000352E+00 0. -1.
</event>
<event>
 5   0  0.1378620E-06  0.3485036E+04  0.7818609E-02  0.8117345E-01
       -2   -1    0    0    0  501  0.00000000000E+00  0.00000000000E+00  0.10026191666E+04  0.10026191666E+04  0.25500000920E-02 0.  1.
        2   -1    0    0  501    0  0.00000000000E+00  0.00000000000E+00 -0.30284369961E+04  0.30284369961E+04  0.25500000920E-02 0. -1.
    10030    2    1    2    0    0  0.00000000000E+00  0.00000000000E+00 -0.20258178296E+04  0.40310561627E+04  0.34850359981E+04 0.  0.
        2    1    3    3  502    0  0.17338186754E+04 -0.16524666236E+03 -0.95024187502E+03  0.19840345964E+04  0.25500000920E-02 0. -1.
       -2    1    3    3    0  502 -0.17338186754E+04  0.16524666236E+03 -0.10755759546E+04  0.20470215663E+04  0.25500000920E-02 0.  1.
</event>
<event>
 5   0  0.4693374E-07  0.3527044E+04  0.7818609E-02  0.8107411E-01
       -1   -1    0    0    0  501  0.00000000000E+00  0.00000000000E+00  0.14513436436E+04  0.14513436436E+04  0.50400001928E-02 0. -1.
        1   -1    0    0  501    0  0.00000000000E+00  0.00000000000E+00 -0.21428487362E+04  0.21428487362E+04  0.50400001928E-02 0.  1.
    10030    2    1    2    0    0  0.00000000000E+00  0.00000000000E+00 -0.69150509262E+03  0.35941923798E+04  0.35270440272E+04 0.  0.
        1    1    3    3  502    0  0.50586992616E+03  0.12997444479E+04  0.75403932151E+03  0.15855015959E+04  0.50400001928E-02 0.  1.
       -1    1    3    3    0  502 -0.50586992616E+03 -0.12997444479E+04 -0.14455444141E+04  0.20086907839E+04  0.50400001928E-02 0. -1.
</event>
<event>
 5   0  0.4557237E-07  0.3511047E+04  0.7818609E-02  0.8111177E-01
       -1   -1    0    0    0  501  0.00000000000E+00  0.00000000000E+00  0.13098933788E+04  0.13098933788E+04  0.50400001928E-02 0. -1.
        1   -1    0    0  501    0  0.00000000000E+00  0.00000000000E+00 -0.23527586926E+04  0.23527586926E+04  0.50400001928E-02 0.  1.
    10030    2    1    2    0    0  0.00000000000E+00  0.00000000000E+00 -0.10428653138E+04  0.36626520714E+04  0.35110471562E+04 0.  0.
        2    1    3    3  502    0 -0.99818249548E+03 -0.85593257965E+03 -0.17347871525E+04  0.21768039277E+04  0.25500000920E-02 0. -1.
       -2    1    3    3    0  502  0.99818249548E+03  0.85593257965E+03  0.69192183866E+03  0.14858481437E+04  0.25500000920E-02 0.  1.
</event>
<event>
 5   0  0.1348388E-06  0.3510880E+04  0.7818609E-02  0.8111216E-01
        2   -1    0    0  501    0  0.00000000000E+00  0.00000000000E+00  0.23145225028E+04  0.23145225028E+04  0.25500000920E-02 0.  1.
       -2   -1    0    0    0  501  0.00000000000E+00  0.00000000000E+00 -0.13314060626E+04  0.13314060626E+04  0.25500000920E-02 0. -1.
    10030    2    1    2    0    0  0.00000000000E+00  0.00000000000E+00  0.98311644022E+03  0.36459285654E+04  0.35108798283E+04 0.  0.
        5    1    3    3  502    0 -0.45201941066E+03  0.14902341485E+04 -0.34980918978E+03  0.15960914523E+04  0.46999998093E+01 0. -1.
       -5    1    3    3    0  502  0.45201941066E+03 -0.14902341485E+04  0.13329256300E+04  0.20498371130E+04  0.46999998093E+01 0.  1.
</event>
<event>
 5   0  0.4693374E-07  0.3589385E+04  0.7818609E-02  0.8092928E-01
       -1   -1    0    0    0  501  0.00000000000E+00  0.00000000000E+00  0.16617381672E+04  0.16617381672E+04  0.50400001928E-02 0. -1.
        1   -1    0    0  501    0  0.00000000000E+00  0.00000000000E+00 -0.19382838629E+04  0.19382838629E+04  0.50400001928E-02 0.  1.
    10030    2    1    2    0    0  0.00000000000E+00  0.00000000000E+00 -0.27654569570E+03  0.36000220301E+04  0.35893845009E+04 0.  0.
        1    1    3    3  502    0 -0.14702381167E+04  0.37210211240E+03  0.82418566934E+03  0.17260770897E+04  0.50400001928E-02 0. -1.
       -1    1    3    3    0  502  0.14702381167E+04 -0.37210211240E+03 -0.11007313650E+04  0.18739449405E+04  0.50400001928E-02 0.  1.
</event>
<event>
 5   0  0.1387133E-06  0.3534985E+04  0.7818609E-02  0.8105549E-01
        2   -1    0    0  501    0  0.00000000000E+00  0.00000000000E+00  0.33112305561E+04  0.33112305561E+04  0.25500000920E-02 0.  1.
       -2   -1    0    0    0  501  0.00000000000E+00  0.00000000000E+00 -0.94346512287E+03  0.94346512287E+03  0.25500000920E-02 0. -1.
    10030    2    1    2    0    0  0.00000000000E+00  0.00000000000E+00  0.23677654333E+04  0.42546956790E+04  0.35349854560E+04 0.  0.
        4    1    3    3  502    0 -0.30195054522E+03 -0.17204929557E+04  0.15085388405E+04  0.23080210546E+04  0.12699999809E+01 0.  1.
       -4    1    3    3    0  502  0.30195054522E+03  0.17204929557E+04  0.85922659280E+03  0.19466746244E+04  0.12699999809E+01 0. -1.
</event>
<event>
 5   0  0.4409125E-07  0.3461111E+04  0.7818609E-02  0.8123069E-01
       -3   -1    0    0    0  501  0.00000000000E+00  0.00000000000E+00  0.15511690165E+04  0.15511690197E+04  0.10100000352E+00 0.  1.
        3   -1    0    0  501    0  0.00000000000E+00  0.00000000000E+00 -0.19306868775E+04  0.19306868802E+04  0.10100000352E+00 0. -1.
    10030    2    1    2    0    0  0.00000000000E+00  0.00000000000E+00 -0.37951786105E+03  0.34818558999E+04  0.34611106167E+04 0.  0.
        5    1    3    3  502    0 -0.17093335451E+04 -0.71091527158E+02  0.72426320206E+02  0.17123500914E+04  0.46999998093E+01 0. -1.
       -5    1    3    3    0  502  0.17093335451E+04  0.71091527158E+02 -0.45194418126E+03  0.17695058085E+04  0.46999998093E+01 0.  1.
</event>
<event>
 5   0  0.1361560E-06  0.3512470E+04  0.7818609E-02  0.8110841E-01
        2   -1    0    0  501    0  0.00000000000E+00  0.00000000000E+00  0.16061467251E+04  0.16061467251E+04  0.25500000920E-02 0.  1.
       -2   -1    0    0    0  501  0.00000000000E+00  0.00000000000E+00 -0.19203483394E+04  0.19203483394E+04  0.25500000920E-02 0. -1.
    10030    2    1    2    0    0  0.00000000000E+00  0.00000000000E+00 -0.31420161426E+03  0.35264950645E+04  0.35124698982E+04 0.  0.
        3    1    3    3  502    0 -0.81662072270E+03  0.89360476558E+03 -0.14345658883E+04  0.18770663760E+04  0.10100000352E+00 0. -1.
       -3    1    3    3    0  502  0.81662072270E+03 -0.89360476558E+03  0.11203642740E+04  0.16494286885E+04  0.10100000352E+00 0.  1.
</event>
<event>
 5   0  0.1361560E-06  0.3200480E+04  0.7818609E-02  0.8188690E-01
       -2   -1    0    0    0  501  0.00000000000E+00  0.00000000000E+00  0.17628973998E+04  0.17628973998E+04  0.25500000920E-02 0. -1.
        2   -1    0    0  501    0  0.00000000000E+00  0.00000000000E+00 -0.14525906360E+04  0.14525906360E+04  0.25500000920E-02 0.  1.
    10030    2    1    2    0    0  0.00000000000E+00  0.00000000000E+00  0.31030676383E+03  0.32154880358E+04  0.32004801234E+04 0.  0.
        3    1    3    3  502    0  0.95116975156E+03 -0.86216563587E+03 -0.80468762839E+03  0.15151157281E+04  0.10100000352E+00 0.  1.
       -3    1    3    3    0  502 -0.95116975156E+03  0.86216563587E+03  0.11149943922E+04  0.17003723077E+04  0.10100000352E+00 0. -1.
</event>
<event>
 5   0  0.4700769E-07  0.3491983E+04  0.7818609E-02  0.8115692E-01
        1   -1    0    0  501    0  0.00000000000E+00  0.00000000000E+00  0.24856101259E+04  0.24856101259E+04  0.50400001928E-02 0. -1.
       -1   -1    0    0    0  501  0.00000000000E+00  0.00000000000E+00 -0.12264540551E+04  0.12264540551E+04  0.50400001928E-02 0.  1.
    10030    2    1    2    0    0  0.00000000000E+00  0.00000000000E+00  0.12591560709E+04  0.37120641810E+04  0.34919831719E+04 0.  0.
        3    1    3    3  502    0 -0.89872899304E+03  0.89424585305E+02  0.22180001203E+04  0.23948350890E+04  0.10100000352E+00 0. -1.
       -3    1    3    3    0  502  0.89872899304E+03 -0.89424585305E+02 -0.95884404949E+03  0.13172290920E+04  0.10100000352E+00 0.  1.
</event>
<event>
 5   0  0.1378620E-06  0.3506298E+04  0.7818609E-02  0.8112299E-01
        2   -1    0    0  501    0  0.00000000000E+00  0.00000000000E+00  0.13598035882E+04  0.13598035882E+04  0.25500000920E-02 0. -1.
       -2   -1    0    0    0  501  0.00000000000E+00  0.00000000000E+00 -0.22602765120E+04  0.22602765120E+04  0.25500000920E-02 0.  1.
    10030    2    1    2    0    0  0.00000000000E+00  0.00000000000E+00 -0.90047292379E+03  0.36200801003E+04  0.35062983966E+04 0.  0.
        2    1    3    3  502    0  0.97842157951E+03  0.95675061015E+03  0.68115781225E+03  0.15286126005E+04  0.25500000920E-02 0. -1.
       -2    1    3    3    0  502 -0.97842157951E+03 -0.95675061015E+03 -0.15816307360E+04  0.20914674997E+04  0.25500000920E-02 0.  1.
</event>
<event>
 5   0  0.1387133E-06  0.3355401E+04  0.7818609E-02  0.8148940E-01
       -2   -1    0    0    0  501  0.00000000000E+00  0.00000000000E+00  0.10475822594E+04  0.10475822594E+04  0.25500000920E-02 0. -1.
        2   -1    0    0  501    0  0.00000000000E+00  0.00000000000E+00 -0.26868329495E+04  0.26868329495E+04  0.25500000920E-02 0.  1.
    10030    2    1    2    0    0  0.00000000000E+00  0.00000000000E+00 -0.16392506900E+04  0.37344152089E+04  0.33554007403E+04 0.  0.
        4    1    3    3  502    0  0.54240256167E+03  0.14946217239E+04 -0.22382208421E+03  0.16056751150E+04  0.12699999809E+01 0.  1.
       -4    1    3    3    0  502 -0.54240256167E+03 -0.14946217239E+04 -0.14154286058E+04  0.21287400940E+04  0.12699999809E+01 0. -1.
</event>
<event>
 5   0  0.1387133E-06  0.3388572E+04  0.7818609E-02  0.8140717E-01
       -2   -1    0    0    0  501  0.00000000000E+00  0.00000000000E+00  0.13032163163E+04  0.13032163163E+04  0.25500000920E-02 0. -1.
        2   -1    0    0  501    0  0.00000000000E+00  0.00000000000E+00 -0.22027077310E+04  0.22027077310E+04  0.25500000920E-02 0.  1.
    10030    2    1    2    0    0  0.00000000000E+00  0.00000000000E+00 -0.89949141464E+03  0.35059240473E+04  0.33885717670E+04 0.  0.
        4    1    3    3  502    0 -0.50842691305E+03  0.15798217848E+04 -0.80253579378E+03  0.18434750096E+04  0.12699999809E+01 0.  1.
       -4    1    3    3    0  502  0.50842691305E+03 -0.15798217848E+04 -0.96955620868E+02  0.16624490377E+04  0.12699999809E+01 0. -1.
</event>
<event>
 5   0  0.4591195E-07  0.3440832E+04  0.7818609E-02  0.8127957E-01
       -1   -1    0    0    0  501  0.00000000000E+00  0.00000000000E+00  0.11360565673E+04  0.11360565673E+04  0.50400001928E-02 0.  1.
        1   -1    0    0  501    0  0.00000000000E+00  0.00000000000E+00 -0.26053553542E+04  0.26053553542E+04  0.50400001928E-02 0. -1.
    10030    2    1    2    0    0  0.00000000000E+00  0.00000000000E+00 -0.14692987869E+04  0.37414119215E+04  0.34408319112E+04 0.  0.
        4    1    3    3  502    0 -0.73958938322E+03 -0.15420524877E+04 -0.53148203250E+03  0.17909196225E+04  0.12699999809E+01 0. -1.
       -4    1    3    3    0  502  0.73958938322E+03  0.15420524877E+04 -0.93781675441E+03  0.19504922990E+04  0.12699999809E+01 0.  1.
</event>
<event>
 5   0  0.4409125E-07  0.3560484E+04  0.7818609E-02  0.8099604E-01
        1   -1    0    0  501    0  0.00000000000E+00  0.00000000000E+00  0.19301499320E+04  0.19301499320E+04  0.50400001928E-02 0.  1.
       -1   -1    0    0    0  501  0.00000000000E+00  0.00000000000E+00 -0.16419765870E+04  0.16419765870E+04  0.50400001928E-02 0. -1.
    10030    2    1    2    0    0  0.00000000000E+00  0.00000000000E+00  0.28817334499E+03  0.35721265191E+04  0.35604836738E+04 0.  0.
        5    1    3    3  502    0  0.17587761048E+04  0.15272924388E+03 -0.86052402758E+02  0.17674973026E+04  0.46999998093E+01 0.  1.
       -5    1    3    3    0  502 -0.17587761048E+04 -0.15272924388E+03  0.37422574775E+03  0.18046292165E+04  0.46999998093E+01 0. -1.
</event>
<event>
 5   0  0.4693374E-07  0.3524975E+04  0.7818609E-02  0.8107897E-01
        1   -1    0    0  501    0  0.00000000000E+00  0.00000000000E+00  0.18894263421E+04  0.18894263421E+04  0.50400001928E-02 0. -1.
       -1   -1    0    0    0  501  0.00000000000E+00  0.00000000000E+00 -0.16440770686E+04  0.16440770686E+04  0.50400001928E-02 0.  1.
    10030    2    1    2    0    0  0.00000000000E+00  0.00000000000E+00  0.24534927348E+03  0.35335034106E+04  0.35249751896E+04 0.  0.
        1    1    3    3  502    0 -0.16569559199E+04 -0.56582244842E+03  0.32491646028E+03  0.17807943929E+04  0.50400001928E-02 0.  1.
       -1    1    3    3    0  502  0.16569559199E+04  0.56582244842E+03 -0.79567186805E+02  0.17527090177E+04  0.50400001928E-02 0. -1.
</event>
<event>
 5   0  0.4591195E-07  0.3507243E+04  0.7818609E-02  0.8112075E-01
        1   -1    0    0  501    0  0.00000000000E+00  0.00000000000E+00  0.25811499657E+04  0.25811499657E+04  0.50400001928E-02 0.  1.
       -1   -1    0    0    0  501  0.00000000000E+00  0.00000000000E+00 -0.11914027108E+04  0.11914027108E+04  0.50400001928E-02 0. -1.
    10030    2    1    2    0    0  0.00000000000E+00  0.00000000000E+00  0.13897472549E+04  0.37725526765E+04  0.35072433997E+04 0.  0.
        4    1    3    3  502    0  0.35269617480E+03  0.38706555959E+02 -0.11523883388E+04  0.12057749730E+04  0.12699999809E+01 0. -1.
       -4    1    3    3    0  502 -0.35269617480E+03 -0.38706555959E+02  0.25421355938E+04  0.25667777035E+04  0.12699999809E+01 0.  1.
</event>
<event>
 5   0  0.4693374E-07  0.3491177E+04  0.7818609E-02  0.8115884E-01
       -1   -1    0    0    0  501  0.00000000000E+00  0.00000000000E+00  0.10982651383E+04  0.10982651383E+04  0.50400001928E-02 0.  1.
        1   -1    0    0  501    0  0.00000000000E+00  0.00000000000E+00 -0.27744479173E+04  0.27744479173E+04  0.50400001928E-02 0. -1.
    10030    2    1    2    0    0  0.00000000000E+00  0.00000000000E+00 -0.16761827790E+04  0.38727130556E+04  0.34911771227E+04 0.  0.
        1    1    3    3  502    0 -0.13815124757E+04  0.10591572866E+04 -0.69478924068E+03  0.18743326725E+04  0.50400001928E-02 0. -1.
       -1    1    3    3    0  502  0.13815124757E+04 -0.10591572866E+04 -0.98139353828E+03  0.19983803830E+04  0.50400001928E-02 0.  1.
</event>
<event>
 5   0  0.1378620E-06  0.3482261E+04  0.7818609E-02  0.8118007E-01
        2   -1    0    0  501    0  0.00000000000E+00  0.00000000000E+00  0.18849048526E+04  0.18849048526E+04  0.25500000920E-02 0.  1.
       -2   -1    0    0    0  501  0.00000000000E+00  0.00000000000E+00 -0.16083224220E+04  0.16083224220E+04  0.25500000920E-02 0. -1.
    10030    2    1    2    0    0  0.00000000000E+00  0.00000000000E+00  0.27658243059E+03  0.34932272745E+04  0.34822606092E+04 0.  0.
        2    1    3    3  502    0  0.91939116080E+03  0.13037255511E+04  0.83802241386E+03  0.18020160891E+04  0.25500000920E-02 0.  1.
       -2    1    3    3    0  502 -0.91939116080E+03 -0.13037255511E+04 -0.56143998327E+03  0.16912111855E+04  0.25500000920E-02 0. -1.
</event>
<event>
 5   0  0.4591195E-07  0.3074029E+04  0.7818609E-02  0.8222902E-01
       -1   -1    0    0    0  501  0.00000000000E+00  0.00000000000E+00  0.17566701723E+04  0.17566701723E+04  0.50400001928E-02 0.  1.
        1   -1    0    0  501    0  0.00000000000E+00  0.00000000000E+00 -0.13448250064E+04  0.13448250064E+04  0.50400001928E-02 0. -1.
    10030    2    1    2    0    0  0.00000000000E+00  0.00000000000E+00  0.41184516588E+03  0.31014951787E+04  0.30740292619E+04 0.  0.
        4    1    3    3  502    0 -0.12231967678E+04 -0.52709358748E+03  0.97983174832E+03  0.16535143938E+04  0.12699999809E+01 0.  1.
       -4    1    3    3    0  502  0.12231967678E+04  0.52709358748E+03 -0.56798658244E+03  0.14479807849E+04  0.12699999809E+01 0. -1.
</event>
<event>
 5   0  0.1378620E-06  0.3616131E+04  0.7818609E-02  0.8086807E-01
        2   -1    0    0  501    0  0.00000000000E+00  0.00000000000E+00  0.26077347261E+04  0.26077347261E+04  0.25500000920E-02 0. -1.
       -2   -1    0    0    0  501  0.00000000000E+00  0.00000000000E+00 -0.12536168371E+04  0.12536168371E+04  0.25500000920E-02 0.  1.
    10030    2    1    2    0    0  0.00000000000E+00  0.00000000000E+00  0.13541178891E+04  0.38613515632E+04  0.36161306167E+04 0.  0.
        2    1    3    3  502    0 -0.42154167810E+03 -0.94305374918E+02 -0.11977086195E+04  0.12732230077E+04  0.25500000920E-02 0.  1.
       -2    1    3    3    0  502  0.42154167810E+03  0.94305374918E+02  0.25518265086E+04  0.25881285555E+04  0.25500000920E-02 0. -1.
</event>
<event>
 5   0  0.4693374E-07  0.3535563E+04  0.7818609E-02  0.8105413E-01
        1   -1    0    0  501    0  0.00000000000E+00  0.00000000000E+00  0.17675772805E+04  0.17675772805E+04  0.50400001928E-02 0.  1.
       -1   -1    0    0    0  501  0.00000000000E+00  0.00000000000E+00 -0.17679854583E+04  0.17679854583E+04  0.50400001928E-02 0. -1.
    10030    2    1    2    0    0  0.00000000000E+00  0.00000000000E+00 -0.40817775312E+00  0.35355627388E+04  0.35355627152E+04 0.  0.
        1    1    3    3  502    0  0.16343416686E+04  0.66862692598E+03  0.82960041617E+02  0.17677717682E+04  0.50400001928E-02 0.  1.
       -1    1    3    3    0  502 -0.16343416686E+04 -0.66862692598E+03 -0.83368219370E+02  0.17677909706E+04  0.50400001928E-02 0. -1.
</event>
<event>
 5   0  0.4700769E-07  0.2599733E+04  0.7818609E-02  0.8368292E-01
       -1   -1    0    0    0  501  0.00000000000E+00  0.00000000000E+00  0.74876249094E+03  0.74876249095E+03  0.50400001928E-02 0.  1.
        1   -1    0    0  501    0  0.00000000000E+00  0.00000000000E+00 -0.22565934027E+04  0.22565934027E+04  0.50400001928E-02 0. -1.
    10030    2    1    2    0    0  0.00000000000E+00  0.00000000000E+00 -0.15078309118E+04  0.30053558937E+04  0.25997326765E+04 0.  0.
        3    1    3    3  502    0 -0.65612887295E+03  0.71938422501E+03  0.24163196395E+03  0.10031972774E+04  0.10100000352E+00 0.  1.
       -3    1    3    3    0  502  0.65612887295E+03 -0.71938422501E+03 -0.17494628757E+04  0.20021586163E+04  0.10100000352E+00 0. -1.
</event>
<event>
 5   0  0.1378620E-06  0.3110219E+04  0.7818609E-02  0.8212939E-01
        2   -1    0    0  501    0  0.00000000000E+00  0.00000000000E+00  0.16229838712E+04  0.16229838712E+04  0.25500000920E-02 0. -1.
       -2   -1    0    0    0  501  0.00000000000E+00  0.00000000000E+00 -0.14900735095E+04  0.14900735095E+04  0.25500000920E-02 0.  1.
    10030    2    1    2    0    0  0.00000000000E+00  0.00000000000E+00  0.13291036168E+03  0.31130573807E+04  0.31102188172E+04 0.  0.
        2    1    3    3  502    0  0.89965275191E+03  0.12544306572E+04  0.25475961411E+03  0.15645682499E+04  0.25500000920E-02 0. -1.
       -2    1    3    3    0  502 -0.89965275191E+03 -0.12544306572E+04 -0.12184925244E+03  0.15484891307E+04  0.25500000920E-02 0.  1.
</event>
<event>
 5   0  0.1361560E-06  0.3500424E+04  0.7818609E-02  0.8113690E-01
       -2   -1    0    0    0  501  0.00000000000E+00  0.00000000000E+00  0.11949242155E+04  0.11949242155E+04  0.25500000920E-02 0. -1.
        2   -1    0    0  501    0  0.00000000000E+00  0.00000000000E+00 -0.25635447684E+04  0.25635447684E+04  0.25500000920E-02 0.  1.
    10030    2    1    2    0    0  0.00000000000E+00  0.00000000000E+00 -0.13686205530E+04  0.37584689839E+04  0.35004238151E+04 0.  0.
        3    1    3    3  502    0 -0.10723352206E+04  0.46177169943E+03 -0.20843111709E+04  0.23890351598E+04  0.10100000352E+00 0. -1.
       -3    1    3    3    0  502  0.10723352206E+04 -0.46177169943E+03  0.71569061791E+03  0.13694338241E+04  0.10100000352E+00 0.  1.
</event>
<event>
 5   0  0.1348388E-06  0.3292244E+04  0.7818609E-02  0.8164872E-01
        2   -1    0    0  501    0  0.00000000000E+00  0.00000000000E+00  0.15404029267E+04  0.15404029267E+04  0.25500000920E-02 0. -1.
       -2   -1    0    0    0  501  0.00000000000E+00  0.00000000000E+00 -0.17590963793E+04  0.17590963793E+04  0.25500000920E-02 0.  1.
    10030    2    1    2    0    0  0.00000000000E+00  0.00000000000E+00 -0.21869345261E+03  0.32994993060E+04  0.32922437401E+04 0.  0.
        5    1    3    3  502    0 -0.12116174302E+04  0.98421952906E+03 -0.63298287854E+03  0.16844566759E+04  0.46999998093E+01 0.  1.
       -5    1    3    3    0  502  0.12116174302E+04 -0.98421952906E+03  0.41428942592E+03  0.16150426301E+04  0.46999998093E+01 0. -1.
</event>
<event>
 5   0  0.4591195E-07  0.3451986E+04  0.7818609E-02  0.8125264E-01
       -1   -1    0    0    0  501  0.00000000000E+00  0.00000000000E+00  0.16579675093E+04  0.16579675093E+04  0.50400001928E-02 0. -1.
        1   -1    0    0  501    0  0.00000000000E+00  0.00000000000E+00 -0.17968091414E+04  0.17968091414E+04  0.50400001928E-02 0.  1.
    10030    2    1    2    0    0  0.00000000000E+00  0.00000000000E+00 -0.13884163210E+03  0.34547766506E+04  0.34519856180E+04 0.  0.
        4    1    3    3  502    0  0.16840234562E+04  0.70084621985E+02  0.30263600867E+03  0.17124359906E+04  0.12699999809E+01 0.  1.
       -4    1    3    3    0  502 -0.16840234562E+04 -0.70084621985E+02 -0.44147764077E+03  0.17423406600E+04  0.12699999809E+01 0. -1.
</event>
<event>
 5   0  0.4693374E-07  0.3208023E+04  0.7818609E-02  0.8186702E-01
       -1   -1    0    0    0  501  0.00000000000E+00  0.00000000000E+00  0.16398943985E+04  0.16398943985E+04  0.50400001928E-02 0. -1.
        1   -1    0    0  501    0  0.00000000000E+00  0.00000000000E+00 -0.15689138223E+04  0.15689138223E+04  0.50400001928E-02 0.  1.
    10030    2    1    2    0    0  0.00000000000E+00  0.00000000000E+00  0.70980576249E+02  0.32088082208E+04  0.32080230603E+04 0.  0.
        1    1    3    3  502    0  0.15931712269E+04 -0.11761305437E+02  0.22133162356E+03  0.16085150214E+04  0.50400001928E-02 0.  1.
       -1    1    3    3    0  502 -0.15931712269E+04  0.11761305437E+02 -0.15035104731E+03  0.16002931994E+04  0.50400001928E-02 0. -1.
</event>
<event>
 5   0  0.4409125E-07  0.3436691E+04  0.7818609E-02  0.8128959E-01
       -1   -1    0    0    0  501  0.00000000000E+00  0.00000000000E+00  0.22135386007E+04  0.22135386007E+04  0.50400001928E-02 0.  1.
        1   -1    0    0  501    0  0.00000000000E+00  0.00000000000E+00 -0.13339329449E+04  0.13339329449E+04  0.50400001928E-02 0. -1.
    10030    2    1    2    0    0  0.00000000000E+00  0.00000000000E+00  0.87960565584E+03  0.35474715456E+04  0.34366914696E+04 0.  0.
        5    1    3    3  502    0 -0.13717963470E+04  0.10346286627E+04  0.46066027319E+03  0.17789074357E+04  0.46999998093E+01 0.  1.
       -5    1    3    3    0  502  0.13717963470E+04 -0.10346286627E+04  0.41894538265E+03  0.17685641099E+04  0.46999998093E+01 0. -1.
</event>
<event>
 5   0  0.1361560E-06  0.3524783E+04  0.7818609E-02  0.8107942E-01
        2   -1    0    0  501    0  0.00000000000E+00  0.00000000000E+00  0.10659799697E+04  0.10659799697E+04  0.25500000920E-02 0. -1.
       -2   -1    0    0    0  501  0.00000000000E+00  0.00000000000E+00 -0.29137729635E+04  0.29137729635E+04  0.25500000920E-02 0.  1.
    10030    2    1    2    0    0  0.00000000000E+00  0.00000000000E+00 -0.18477929938E+04  0.39797529332E+04  0.35247828956E+04 0.  0.
        3    1    3    3  502    0  0.40461281788E+02  0.10962526185E+04 -0.24812936977E+04  0.27129735242E+04  0.10100000352E+00 0.  1.
       -3    1    3    3    0  502 -0.40461281788E+02 -0.10962526185E+04  0.63350070388E+03  0.12667794089E+04  0.10100000352E+00 0. -1.
</event>
<event>
 5   0  0.1378620E-06  0.3497585E+04  0.7818609E-02  0.8114362E-01
       -2   -1    0    0    0  501  0.00000000000E+00  0.00000000000E+00  0.13030874143E+04  0.13030874143E+04  0.25500000920E-02 0. -1.
        2   -1    0    0  501    0  0.00000000000E+00  0.00000000000E+00 -0.23469461527E+04  0.23469461527E+04  0.25500000920E-02 0.  1.
    10030    2    1    2    0    0  0.00000000000E+00  0.00000000000E+00 -0.10438587384E+04  0.36500335670E+04  0.34975854492E+04 0.  0.
        2    1    3    3  502    0  0.13380744029E+03  0.39450383711E+02  0.12972715721E+04  0.13047506641E+04  0.25500000920E-02 0. -1.
       -2    1    3    3    0  502 -0.13380744029E+03 -0.39450383711E+02 -0.23411303105E+04  0.23452829029E+04  0.25500000920E-02 0.  1.
</event>
<event>
 5   0  0.4557237E-07  0.3454419E+04  0.7818609E-02  0.8124678E-01
       -1   -1    0    0    0  501  0.00000000000E+00  0.00000000000E+00  0.18071367427E+04  0.18071367427E+04  0.50400001928E-02 0. -1.
        1   -1    0    0  501    0  0.00000000000E+00  0.00000000000E+00 -0.16508174126E+04  0.16508174126E+04  0.50400001928E-02 0.  1.
    10030    2    1    2    0    0  0.00000000000E+00  0.00000000000E+00  0.15631933008E+03  0.34579541553E+04  0.34544190839E+04 0.  0.
        2    1    3    3  502    0 -0.14287316375E+04 -0.81612735025E+02  0.10462678005E+04  0.17727411093E+04  0.25500000920E-02 0. -1.
       -2    1    3    3    0  502  0.14287316375E+04  0.81612735025E+02 -0.88994847039E+03  0.16852130460E+04  0.25500000920E-02 0.  1.
</event>
<event>
 5   0  0.4557237E-07  0.3487041E+04  0.7818609E-02  0.8116868E-01
        1   -1    0    0  501    0  0.00000000000E+00  0.00000000000E+00  0.15897264394E+04  0.15897264394E+04  0.50400001928E-02 0. -1.
       -1   -1    0    0    0  501  0.00000000000E+00  0.00000000000E+00 -0.19121931277E+04  0.19121931277E+04  0.50400001928E-02 0.  1.
    10030    2    1    2    0    0  0.00000000000E+00  0.00000000000E+00 -0.32246668827E+03  0.35019195671E+04  0.34870411367E+04 0.  0.
        2    1    3    3  502    0  0.19259006983E+03  0.12006137976E+04  0.10936178054E+04  0.16354095298E+04  0.25500000920E-02 0. -1.
       -2    1    3    3    0  502 -0.19259006983E+03 -0.12006137976E+04 -0.14160844936E+04  0.18665100373E+04  0.25500000920E-02 0.  1.
</event>
<event>
 5   0  0.1442864E-06  0.3464467E+04  0.7818609E-02  0.8122263E-01
        2   -1    0    0  501    0  0.00000000000E+00  0.00000000000E+00  0.17834233790E+04  0.17834233790E+04  0.25500000920E-02 0.  1.
       -2   -1    0    0    0  501  0.00000000000E+00  0.00000000000E+00 -0.16825130731E+04  0.16825130731E+04  0.25500000920E-02 0. -1.
    10030    2    1    2    0    0  0.00000000000E+00  0.00000000000E+00  0.10091030591E+03  0.34659364521E+04  0.34644671452E+04 0.  0.
        1    1    3    3  502    0  0.14210414303E+04  0.45672923305E+03 -0.82893574013E+03  0.17073648703E+04  0.50400001928E-02 0. -1.
       -1    1    3    3    0  502 -0.14210414303E+04 -0.45672923305E+03  0.92984604604E+03  0.17585715818E+04  0.50400001928E-02 0.  1.
</event>
<event>
 5   0  0.4700769E-07  0.3270985E+04  0.7818609E-02  0.8170318E-01
       -1   -1    0    0    0  501  0.00000000000E+00  0.00000000000E+00  0.15428801211E+04  0.15428801211E+04  0.50400001928E-02 0.  1.
        1   -1    0    0  501    0  0.00000000000E+00  0.00000000000E+00 -0.17336641984E+04  0.17336641984E+04  0.50400001928E-02 0. -1.
    10030    2    1    2    0    0  0.00000000000E+00  0.00000000000E+00 -0.19078407736E+03  0.32765443195E+04  0.32709851900E+04 0.  0.
        3    1    3    3  502    0  0.41042000183E+03  0.16066699942E+03  0.14822696298E+04  0.15464093017E+04  0.10100000352E+00 0.  1.
       -3    1    3    3    0  502 -0.41042000183E+03 -0.16066699942E+03 -0.16730537072E+04  0.17301350178E+04  0.10100000352E+00 0. -1.
</event>
<event>
 5   0  0.1442864E-06  0.3541816E+04  0.7818609E-02  0.8103951E-01
       -2   -1    0    0    0  501  0.00000000000E+00  0.00000000000E+00  0.25479231715E+04  0.25479231715E+04  0.25500000920E-02 0.  1.
        2   -1    0    0  501    0  0.00000000000E+00  0.00000000000E+00 -0.12308515288E+04  0.12308515288E+04  0.25500000920E-02 0. -1.
    10030    2    1    2    0    0  0.00000000000E+00  0.00000000000E+00  0.13170716427E+04  0.37787747003E+04  0.35418159924E+04 0.  0.
        1    1    3    3  502    0 -0.44018701111E+03 -0.14891114758E+04 -0.24983529625E+03  0.15727794720E+04  0.50400001928E-02 0. -1.
       -1    1    3    3    0  502  0.44018701111E+03  0.14891114758E+04  0.15669069389E+04  0.22059952283E+04  0.50400001928E-02 0.  1.
</event>
<event>
 5   0  0.4557237E-07  0.3518887E+04  0.7818609E-02  0.8109328E-01
        1   -1    0    0  501    0  0.00000000000E+00  0.00000000000E+00  0.12254516802E+04  0.12254516802E+04  0.50400001928E-02 0.  1.
       -1   -1    0    0    0  501  0.00000000000E+00  0.00000000000E+00 -0.25261229527E+04  0.25261229527E+04  0.50400001928E-02 0. -1.
    10030    2    1    2    0    0  0.00000000000E+00  0.00000000000E+00 -0.13006712725E+04  0.37515746329E+04  0.35188871063E+04 0.  0.
        2    1    3    3  502    0 -0.21519429389E+03  0.96404115142E+03 -0.22026220397E+04  0.24139651562E+04  0.25500000920E-02 0. -1.
       -2    1    3    3    0  502  0.21519429389E+03 -0.96404115142E+03  0.90195076715E+03  0.13376094767E+04  0.25500000920E-02 0.  1.
</event>
<event>
 5   0  0.4591195E-07  0.3528938E+04  0.7818609E-02  0.8106966E-01
        1   -1    0    0  501    0  0.00000000000E+00  0.00000000000E+00  0.18502420475E+04  0.18502420475E+04  0.50400001928E-02 0. -1.
       -1   -1    0    0    0  501  0.00000000000E+00  0.00000000000E+00 -0.16826724401E+04  0.16826724401E+04  0.50400001928E-02 0.  1.
    10030    2    1    2    0    0  0.00000000000E+00  0.00000000000E+00  0.16756960739E+03  0.35329144876E+04  0.35289382544E+04 0.  0.
        4    1    3    3  502    0 -0.13119744470E+04  0.11755935997E+04  0.18415956475E+03  0.17712181174E+04  0.12699999809E+01 0. -1.
       -4    1    3    3    0  502  0.13119744470E+04 -0.11755935997E+04 -0.16589957359E+02  0.17616963702E+04  0.12699999809E+01 0.  1.
</event>
<event>
 5   0  0.1387133E-06  0.3424130E+04  0.7818609E-02  0.8132009E-01
        2   -1    0    0  501    0  0.00000000000E+00  0.00000000000E+00  0.86091919449E+03  0.86091919449E+03  0.25500000920E-02 0. -1.
       -2   -1    0    0    0  501  0.00000000000E+00  0.00000000000E+00 -0.34046948397E+04  0.34046948397E+04  0.25500000920E-02 0.  1.
    10030    2    1    2    0    0  0.00000000000E+00  0.00000000000E+00 -0.25437756452E+04  0.42656140342E+04  0.34241303356E+04 0.  0.
        4    1    3    3  502    0 -0.78422321624E+03  0.11117276498E+04 -0.25666428277E+04  0.29049270969E+04  0.12699999809E+01 0.  1.
       -4    1    3    3    0  502  0.78422321624E+03 -0.11117276498E+04  0.22867182543E+02  0.13606869373E+04  0.12699999809E+01 0. -1.
</event>
<event>
 5   0  0.1378620E-06  0.3423853E+04  0.7818609E-02  0.8132077E-01
       -2   -1    0    0    0  501  0.00000000000E+00  0.00000000000E+00  0.12670706500E+04  0.12670706500E+04  0.25500000920E-02 0.  1.
        2   -1    0    0  501    0  0.00000000000E+00  0.00000000000E+00 -0.23129668539E+04  0.23129668539E+04  0.25500000920E-02 0. -1.
    10030    2    1    2    0    0  0.00000000000E+00  0.00000000000E+00 -0.10458962039E+04  0.35800375039E+04  0.34238530430E+04 0.  0.
        2    1    3    3  502    0  0.30537908109E+03  0.16818336230E+04 -0.62143439524E+03  0.18187911992E+04  0.25500000920E-02 0.  1.
       -2    1    3    3    0  502 -0.30537908109E+03 -0.16818336230E+04 -0.42446180865E+03  0.17612463047E+04  0.25500000920E-02 0. -1.
</event>
<event>
 5   0  0.4409125E-07  0.3487084E+04  0.7818609E-02  0.8116858E-01
        1   -1    0    0  501    0  0.00000000000E+00  0.00000000000E+00  0.99460729335E+03  0.99460729337E+03  0.50400001928E-02 0.  1.
       -1   -1    0    0    0  501  0.00000000000E+00  0.00000000000E+00 -0.30564209601E+04  0.30564209601E+04  0.50400001928E-02 0. -1.
    10030    2    1    2    0    0  0.00000000000E+00  0.00000000000E+00 -0.20618136668E+04  0.40510282535E+04  0.34870839270E+04 0.  0.
        5    1    3    3  502    0  0.51433980268E+02  0.14546915965E+04 -0.21458853329E+04  0.25929942243E+04  0.46999998093E+01 0. -1.
       -5    1    3    3    0  502 -0.51433980268E+02 -0.14546915965E+04  0.84071666106E+02  0.14580340292E+04  0.46999998093E+01 0.  1.
</event>
<event>
 5   0  0.1348388E-06  0.3499045E+04  0.7818609E-02  0.8114016E-01
       -2   -1    0    0    0  501  0.00000000000E+00  0.00000000000E+00  0.19757495681E+04  0.19757495682E+04  0.25500000920E-02 0. -1.
        2   -1    0    0  501    0  0.00000000000E+00  0.00000000000E+00 -0.15491985523E+04  0.15491985523E+04  0.25500000920E-02 0.  1.
    10030    2    1    2    0    0  0.00000000000E+00  0.00000000000E+00  0.42655101589E+03  0.35249481204E+04  0.34990446528E+04 0.  0.
        5    1    3    3  502    0  0.82593061862E+03  0.49528398240E+03  0.16846836255E+04  0.19405279225E+04  0.46999998093E+01 0. -1.
       -5    1    3    3    0  502 -0.82593061862E+03 -0.49528398240E+03 -0.12581326096E+04  0.15844201979E+04  0.46999998093E+01 0.  1.
</event>
<event>
 5   0  0.1378620E-06  0.3496657E+04  0.7818609E-02  0.8114583E-01
       -2   -1    0    0    0  501  0.00000000000E+00  0.00000000000E+00  0.16386207989E+04  0.16386207989E+04  0.25500000920E-02 0. -1.
        2   -1    0    0  501    0  0.00000000000E+00  0.00000000000E+00 -0.18653815584E+04  0.18653815584E+04  0.25500000920E-02 0.  1.
    10030    2    1    2    0    0  0.00000000000E+00  0.00000000000E+00 -0.22676075950E+03  0.35040023574E+04  0.34966572721E+04 0.  0.
        2    1    3    3  502    0  0.12638963706E+03  0.80947481474E+02  0.16321529358E+04  0.16390393653E+04  0.25500000920E-02 0. -1.
       -2    1    3    3    0  502 -0.12638963706E+03 -0.80947481474E+02 -0.18589136953E+04  0.18649629921E+04  0.25500000920E-02 0.  1.
</event>
<event>
 5   0  0.4557237E-07  0.3521860E+04  0.7818609E-02  0.8108629E-01
       -1   -1    0    0    0  501  0.00000000000E+00  0.00000000000E+00  0.22494403712E+04  0.22494403712E+04  0.50400001928E-02 0.  1.
        1   -1    0    0  501    0  0.00000000000E+00  0.00000000000E+00 -0.13785096675E+04  0.13785096675E+04  0.50400001928E-02 0. -1.
    10030    2    1    2    0    0  0.00000000000E+00  0.00000000000E+00  0.87093070374E+03  0.36279500387E+04  0.35218604732E+04 0.  0.
        2    1    3    3  502    0 -0.14643204059E+04 -0.97658338774E+03  0.49118667202E+03  0.18273515565E+04  0.25500000920E-02 0. -1.
       -2    1    3    3    0  502  0.14643204059E+04  0.97658338774E+03  0.37974403172E+03  0.18005984822E+04  0.25500000920E-02 0.  1.
</event>
<event>
 5   0  0.4700769E-07  0.3404033E+04  0.7818609E-02  0.8136917E-01
        1   -1    0    0  501    0  0.00000000000E+00  0.00000000000E+00  0.17448274947E+04  0.17448274947E+04  0.50400001928E-02 0.  1.
       -1   -1    0    0    0  501  0.00000000000E+00  0.00000000000E+00 -0.16602557365E+04  0.16602557365E+04  0.50400001928E-02 0. -1.
    10030    2    1    2    0    0  0.00000000000E+00  0.00000000000E+00  0.84571758155E+02  0.34050832312E+04  0.34040328185E+04 0.  0.
        3    1    3    3  502    0 -0.18586199492E+03 -0.25218454687E+03  0.17157390865E+04  0.17441050284E+04  0.10100000352E+00 0.  1.
       -3    1    3    3    0  502  0.18586199492E+03  0.25218454687E+03 -0.16311673284E+04  0.16609782028E+04  0.10100000352E+00 0. -1.
</event>
<event>
 5   0  0.1442864E-06  0.3419830E+04  0.7818609E-02  0.8133056E-01
       -2   -1    0    0    0  501  0.00000000000E+00  0.00000000000E+00  0.13349288398E+04  0.13349288398E+04  0.25500000920E-02 0.  1.
        2   -1    0    0  501    0  0.00000000000E+00  0.00000000000E+00 -0.21902365974E+04  0.21902365974E+04  0.25500000920E-02 0. -1.
    10030    2    1    2    0    0  0.00000000000E+00  0.00000000000E+00 -0.85530775762E+03  0.35251654372E+04  0.34198304051E+04 0.  0.
        1    1    3    3  502    0 -0.59681616774E+03  0.72874966438E+03 -0.18986850461E+04  0.21194977036E+04  0.50400001928E-02 0. -1.
       -1    1    3    3    0  502  0.59681616774E+03 -0.72874966438E+03  0.10433772884E+04  0.14056677337E+04  0.50400001928E-02 0.  1.
</event>
<event>
 5   0  0.4700769E-07  0.3505191E+04  0.7818609E-02  0.8112561E-01
        1   -1    0    0  501    0  0.00000000000E+00  0.00000000000E+00  0.24957665118E+04  0.24957665118E+04  0.50400001928E-02 0.  1.
       -1   -1    0    0    0  501  0.00000000000E+00  0.00000000000E+00 -0.12307207067E+04  0.12307207067E+04  0.50400001928E-02 0. -1.
    10030    2    1    2    0    0  0.00000000000E+00  0.00000000000E+00  0.12650458051E+04  0.37264872186E+04  0.35051913074E+04 0.  0.
        3    1    3    3  502    0 -0.75464310379E+03 -0.75381344341E+03  0.21109557900E+04  0.23651332476E+04  0.10100000352E+00 0.  1.
       -3    1    3    3    0  502  0.75464310379E+03  0.75381344341E+03 -0.84590998485E+03  0.13613539710E+04  0.10100000352E+00 0. -1.
</event>
<event>
 5   0  0.1378620E-06  0.3358941E+04  0.7818609E-02  0.8148058E-01
       -2   -1    0    0    0  501  0.00000000000E+00  0.00000000000E+00  0.81715018311E+03  0.81715018312E+03  0.25500000920E-02 0. -1.
        2   -1    0    0  501    0  0.00000000000E+00  0.00000000000E+00 -0.34517789488E+04  0.34517789488E+04  0.25500000920E-02 0.  1.
    10030    2    1    2    0    0  0.00000000000E+00  0.00000000000E+00 -0.26346287657E+04  0.42689291319E+04  0.33589413809E+04 0.  0.
        2    1    3    3  502    0  0.11790870210E+04  0.22409520578E+03 -0.28103864015E+04  0.30559346509E+04  0.25500000920E-02 0.  1.
       -2    1    3    3    0  502 -0.11790870210E+04 -0.22409520578E+03  0.17575763586E+03  0.12129944810E+04  0.25500000920E-02 0. -1.
</event>
<event>
 5   0  0.1361560E-06  0.2871608E+04  0.7818609E-02  0.8281375E-01
        2   -1    0    0  501    0  0.00000000000E+00  0.00000000000E+00  0.15582129757E+04  0.15582129757E+04  0.25500000920E-02 0.  1.
       -2   -1    0    0    0  501  0.00000000000E+00  0.00000000000E+00 -0.13230113243E+04  0.13230113243E+04  0.25500000920E-02 0. -1.
    10030    2    1    2    0    0  0.00000000000E+00  0.00000000000E+00  0.23520165142E+03  0.28812243000E+04  0.28716081992E+04 0.  0.
        3    1    3    3  502    0 -0.78482260083E+03 -0.45693199901E+02 -0.10878795110E+04  0.13422057309E+04  0.10100000352E+00 0. -1.
       -3    1    3    3    0  502  0.78482260083E+03  0.45693199901E+02  0.13230811625E+04  0.15390185691E+04  0.10100000352E+00 0.  1.
</event>
<event>
 5   0  0.1442864E-06  0.3490268E+04  0.7818609E-02  0.8116100E-01
        2   -1    0    0  501    0  0.00000000000E+00  0.00000000000E+00  0.25751775924E+04  0.25751775924E+04  0.25500000920E-02 0. -1.
       -2   -1    0    0    0  501  0.00000000000E+00  0.00000000000E+00 -0.11826342040E+04  0.11826342040E+04  0.25500000920E-02 0.  1.
    10030    2    1    2    0    0  0.00000000000E+00  0.00000000000E+00  0.13925433884E+04  0.37578117963E+04  0.34902682430E+04 0.  0.
        1    1    3    3  502    0  0.30732824384E+03 -0.44465323900E+03  0.24827799752E+04  0.25409375351E+04  0.50400001928E-02 0. -1.
       -1    1    3    3    0  502 -0.30732824384E+03  0.44465323900E+03 -0.10902365867E+04  0.12168742612E+04  0.50400001928E-02 0.  1.
</event>
<event>
 5   0  0.1348388E-06  0.3450376E+04  0.7818609E-02  0.8125652E-01
        2   -1    0    0  501    0  0.00000000000E+00  0.00000000000E+00  0.15389295678E+04  0.15389295678E+04  0.25500000920E-02 0.  1.
       -2   -1    0    0    0  501  0.00000000000E+00  0.00000000000E+00 -0.19339889985E+04  0.19339889985E+04  0.25500000920E-02 0. -1.
    10030    2    1    2    0    0  0.00000000000E+00  0.00000000000E+00 -0.39505943071E+03  0.34729185663E+04  0.34503755468E+04 0.  0.
        5    1    3    3  502    0  0.15228442394E+04 -0.79891275105E+03 -0.59027625431E+02  0.17207040744E+04  0.46999998093E+01 0. -1.
       -5    1    3    3    0  502 -0.15228442394E+04  0.79891275105E+03 -0.33603180528E+03  0.17522144918E+04  0.46999998093E+01 0.  1.
</event>
<event>
 5   0  0.4591195E-07  0.3492129E+04  0.7818609E-02  0.8115658E-01
        1   -1    0    0  501    0  0.00000000000E+00  0.00000000000E+00  0.23076366756E+04  0.23076366756E+04  0.50400001928E-02 0. -1.
       -1   -1    0    0    0  501  0.00000000000E+00  0.00000000000E+00 -0.13211531248E+04  0.13211531248E+04  0.50400001928E-02 0.  1.
    10030    2    1    2    0    0  0.00000000000E+00  0.00000000000E+00  0.98648355084E+03  0.36287898004E+04  0.34921290954E+04 0.  0.
        4    1    3    3  502    0 -0.17299696189E+04 -0.14498501100E+03  0.68743546151E+03  0.18671862955E+04  0.12699999809E+01 0. -1.
       -4    1    3    3    0  502  0.17299696189E+04  0.14498501100E+03  0.29904808933E+03  0.17616035048E+04  0.12699999809E+01 0.  1.
</event>
<event>
 5   0  0.4409125E-07  0.3450019E+04  0.7818609E-02  0.8125738E-01
        1   -1    0    0  501    0  0.00000000000E+00  0.00000000000E+00  0.16777563673E+04  0.16777563673E+04  0.50400001928E-02 0. -1.
       -1   -1    0    0    0  501  0.00000000000E+00  0.00000000000E+00 -0.17735939620E+04  0.17735939620E+04  0.50400001928E-02 0.  1.
    10030    2    1    2    0    0  0.00000000000E+00  0.00000000000E+00 -0.95837594716E+02  0.34513503294E+04  0.34500194567E+04 0.  0.
        5    1    3    3  502    0  0.11129541840E+04 -0.12407855354E+04  0.39657310898E+03  0.17133324492E+04  0.46999998093E+01 0. -1.
       -5    1    3    3    0  502 -0.11129541840E+04  0.12407855354E+04 -0.49241070370E+03  0.17380178802E+04  0.46999998093E+01 0.  1.
</event>
<event>
 5   0  0.1387133E-06  0.2563327E+04  0.7818609E-02  0.8380766E-01
       -2   -1    0    0    0  501  0.00000000000E+00  0.00000000000E+00  0.63173388176E+03  0.63173388177E+03  0.25500000920E-02 0.  1.
        2   -1    0    0  501    0  0.00000000000E+00  0.00000000000E+00 -0.26002419126E+04  0.26002419126E+04  0.25500000920E-02 0. -1.
    10030    2    1    2    0    0  0.00000000000E+00  0.00000000000E+00 -0.19685080308E+04  0.32319757944E+04  0.25633266799E+04 0.  0.
        4    1    3    3  502    0 -0.10376353593E+04  0.67713994468E+03 -0.13975629076E+04  0.18677230354E+04  0.12699999809E+01 0. -1.
       -4    1    3    3    0  502  0.10376353593E+04 -0.67713994468E+03 -0.57094512326E+03  0.13642527589E+04  0.12699999809E+01 0.  1.
</event>
<event>
 5   0  0.4591195E-07  0.3478804E+04  0.7818609E-02  0.8118832E-01
        1   -1    0    0  501    0  0.00000000000E+00  0.00000000000E+00  0.12094770990E+04  0.12094770990E+04  0.50400001928E-02 0.  1.
       -1   -1    0    0    0  501  0.00000000000E+00  0.00000000000E+00 -0.25015104597E+04  0.25015104598E+04  0.50400001928E-02 0. -1.
    10030    2    1    2    0    0  0.00000000000E+00  0.00000000000E+00 -0.12920333608E+04  0.37109875587E+04  0.34788041704E+04 0.  0.
        4    1    3    3  502    0 -0.50934912401E+03  0.11327245937E+04  0.65305316790E+03  0.14032040437E+04  0.12699999809E+01 0.  1.
       -4    1    3    3    0  502  0.50934912401E+03 -0.11327245937E+04 -0.19450865287E+04  0.23077835150E+04  0.12699999809E+01 0. -1.
</event>
<event>
 5   0  0.4700769E-07  0.3307300E+04  0.7818609E-02  0.8161040E-01
        1   -1    0    0  501    0  0.00000000000E+00  0.00000000000E+00  0.17735957495E+04  0.17735957495E+04  0.50400001928E-02 0.  1.
       -1   -1    0    0    0  501  0.00000000000E+00  0.00000000000E+00 -0.15418161265E+04  0.15418161265E+04  0.50400001928E-02 0. -1.
    10030    2    1    2    0    0  0.00000000000E+00  0.00000000000E+00  0.23177962302E+03  0.33154118759E+04  0.33073001245E+04 0.  0.
        3    1    3    3  502    0  0.10607618481E+03  0.10906235693E+04  0.13574130253E+04  0.17445005183E+04  0.10100000352E+00 0.  1.
       -3    1    3    3    0  502 -0.10607618481E+03 -0.10906235693E+04 -0.11256334023E+04  0.15709113576E+04  0.10100000352E+00 0. -1.
</event>
<event>
 5   0  0.1442864E-06  0.3473414E+04  0.7818609E-02  0.8120120E-01
       -2   -1    0    0    0  501  0.00000000000E+00  0.00000000000E+00  0.15608588137E+04  0.15608588137E+04  0.25500000920E-02 0. -1.
        2   -1    0    0  501    0  0.00000000000E+00  0.00000000000E+00 -0.19323660942E+04  0.19323660942E+04  0.25500000920E-02 0.  1.
    10030    2    1    2    0    0  0.00000000000E+00  0.00000000000E+00 -0.37150728048E+03  0.34932249078E+04  0.34734136807E+04 0.  0.
        1    1    3    3  502    0  0.69489868190E+03  0.16816850671E+02  0.14148589628E+04  0.15763860153E+04  0.50400001928E-02 0. -1.
       -1    1    3    3    0  502 -0.69489868190E+03 -0.16816850671E+02 -0.17863662433E+04  0.19168388925E+04  0.50400001928E-02 0.  1.
</event>
<event>
 5   0  0.4409125E-07  0.3474021E+04  0.7818609E-02  0.8119974E-01
       -1   -1    0    0    0  501  0.00000000000E+00  0.00000000000E+00  0.25870859674E+04  0.25870859674E+04  0.50400001928E-02 0.  1.
        1   -1    0    0  501    0  0.00000000000E+00  0.00000000000E+00 -0.11662561886E+04  0.11662561886E+04  0.50400001928E-02 0. -1.
    10030    2    1    2    0    0  0.00000000000E+00  0.00000000000E+00  0.14208297788E+04  0.37533421560E+04  0.34740207368E+04 0.  0.
        5    1    3    3  502    0  0.12651597834E+04  0.36498492561E+03  0.19343448260E+04  0.23399904421E+04  0.46999998093E+01 0.  1.
       -5    1    3    3    0  502 -0.12651597834E+04 -0.36498492561E+03 -0.51351504717E+03  0.14133517139E+04  0.46999998093E+01 0. -1.
</event>
<event>
 5   0  0.1387133E-06  0.3498029E+04  0.7818609E-02  0.8114257E-01
        2   -1    0    0  501    0  0.00000000000E+00  0.00000000000E+00  0.16575211721E+04  0.16575211721E+04  0.25500000920E-02 0. -1.
       -2   -1    0    0    0  501  0.00000000000E+00  0.00000000000E+00 -0.18455577449E+04  0.18455577449E+04  0.25500000920E-02 0.  1.
    10030    2    1    2    0    0  0.00000000000E+00  0.00000000000E+00 -0.18803657277E+03  0.35030789170E+04  0.34980286085E+04 0.  0.
        4    1    3    3  502    0 -0.81844877081E+02 -0.28628204645E+03  0.16319529424E+04  0.16588936112E+04  0.12699999809E+01 0. -1.
       -4    1    3    3    0  502  0.81844877081E+02  0.28628204645E+03 -0.18199895152E+04  0.18441853058E+04  0.12699999809E+01 0.  1.
</event>
<event>
 5   0  0.1442864E-06  0.3519805E+04  0.7818609E-02  0.8109112E-01
       -2   -1    0    0    0  501  0.00000000000E+00  0.00000000000E+00  0.27079379776E+04  0.27079379776E+04  0.25500000920E-02 0.  1.
        2   -1    0    0  501    0  0.00000000000E+00  0.00000000000E+00 -0.11437693166E+04  0.11437693166E+04  0.25500000920E-02 0. -1.
    10030    2    1    2    0    0  0.00000000000E+00  0.00000000000E+00  0.15641686610E+04  0.38517072942E+04  0.35198047503E+04 0.  0.
        1    1    3    3  502    0 -0.30325320305E+03 -0.13342872964E+04  0.19932335550E+04  0.24176983061E+04  0.50400001928E-02 0.  1.
       -1    1    3    3    0  502  0.30325320305E+03  0.13342872964E+04 -0.42906489400E+03  0.14340089881E+04  0.50400001928E-02 0. -1.
</event>
<event>
 5   0  0.1361560E-06  0.3932186E+04  0.7818609E-02  0.8018368E-01
       -2   -1    0    0    0  501  0.00000000000E+00  0.00000000000E+00  0.29922047626E+04  0.29922047626E+04  0.25500000920E-02 0. -1.
        2   -1    0    0  501    0  0.00000000000E+00  0.00000000000E+00 -0.12918641759E+04  0.12918641759E+04  0.25500000920E-02 0.  1.
    10030    2    1    2    0    0  0.00000000000E+00  0.00000000000E+00  0.17003405867E+04  0.42840689385E+04  0.39321862315E+04 0.  0.
        3    1    3    3  502    0  0.18854015753E+03  0.51896851534E+02  0.29815831111E+04  0.29879890449E+04  0.10100000352E+00 0. -1.
       -3    1    3    3    0  502 -0.18854015753E+03 -0.51896851534E+02 -0.12812425243E+04  0.12960798936E+04  0.10100000352E+00 0.  1.
</event>
<event>
 5   0  0.1378620E-06  0.3427365E+04  0.7818609E-02  0.8131223E-01
       -2   -1    0    0    0  501  0.00000000000E+00  0.00000000000E+00  0.12729817153E+04  0.12729817153E+04  0.25500000920E-02 0. -1.
        2   -1    0    0  501    0  0.00000000000E+00  0.00000000000E+00 -0.23069513929E+04  0.23069513929E+04  0.25500000920E-02 0.  1.
    10030    2    1    2    0    0  0.00000000000E+00  0.00000000000E+00 -0.10339696775E+04  0.35799331082E+04  0.34273645509E+04 0.  0.
        2    1    3    3  502    0  0.15983011666E+04 -0.12807965761E+03  0.11469704418E+03  0.16075218287E+04  0.25500000920E-02 0. -1.
       -2    1    3    3    0  502 -0.15983011666E+04  0.12807965761E+03 -0.11486667217E+04  0.19724112795E+04  0.25500000920E-02 0.  1.
</event>
<event>
 5   0  0.1442864E-06  0.3576876E+04  0.7818609E-02  0.8095809E-01
        2   -1    0    0  501    0  0.00000000000E+00  0.00000000000E+00  0.14406161801E+04  0.14406161801E+04  0.25500000920E-02 0.  1.
       -2   -1    0    0    0  501  0.00000000000E+00  0.00000000000E+00 -0.22202382759E+04  0.22202382759E+04  0.25500000920E-02 0. -1.
    10030    2    1    2    0    0  0.00000000000E+00  0.00000000000E+00 -0.77962209579E+03  0.36608544560E+04  0.35768763937E+04 0.  0.
        1    1    3    3  502    0 -0.13180212467E+04 -0.31827244156E+03  0.80377404542E+03  0.15762392172E+04  0.50400001928E-02 0.  1.
       -1    1    3    3    0  502  0.13180212467E+04  0.31827244156E+03 -0.15833961412E+04  0.20846152388E+04  0.50400001928E-02 0. -1.
</event>
<event>
 5   0  0.1348388E-06  0.3533683E+04  0.7818609E-02  0.8105854E-01
        2   -1    0    0  501    0  0.00000000000E+00  0.00000000000E+00  0.17912883785E+04  0.17912883785E+04  0.25500000920E-02 0.  1.
       -2   -1    0    0    0  501  0.00000000000E+00  0.00000000000E+00 -0.17427280845E+04  0.17427280845E+04  0.25500000920E-02 0. -1.
    10030    2    1    2    0    0  0.00000000000E+00  0.00000000000E+00  0.48560293983E+02  0.35340164631E+04  0.35336828181E+04 0.  0.
        5    1    3    3  502    0  0.71471686734E+03  0.76117944633E+03  0.14497189439E+04  0.17865949335E+04  0.46999998093E+01 0.  1.
       -5    1    3    3    0  502 -0.71471686734E+03 -0.76117944633E+03 -0.14011586499E+04  0.17474215296E+04  0.46999998093E+01 0. -1.
</event>
<event>
 5   0  0.1378620E-06  0.3392915E+04  0.7818609E-02  0.8139647E-01
       -2   -1    0    0    0  501  0.00000000000E+00  0.00000000000E+00  0.14563550331E+04  0.14563550331E+04  0.25500000920E-02 0. -1.
        2   -1    0    0  501    0  0.00000000000E+00  0.00000000000E+00 -0.19761449771E+04  0.19761449771E+04  0.25500000920E-02 0.  1.
    10030    2    1    2    0    0  0.00000000000E+00  0.00000000000E+00 -0.51978994391E+03  0.34325000102E+04  0.33929153739E+04 0.  0.
        2    1    3    3  502    0  0.46297169143E+03 -0.11438835524E+04  0.91779836029E+03  0.15379096848E+04  0.25500000920E-02 0. -1.
       -2    1    3    3    0  502 -0.46297169143E+03  0.11438835524E+04 -0.14375883042E+04  0.18945903254E+04  0.25500000920E-02 0.  1.
</event>
<event>
 5   0  0.4700769E-07  0.3535014E+04  0.7818609E-02  0.8105542E-01
       -1   -1    0    0    0  501  0.00000000000E+00  0.00000000000E+00  0.14559128539E+04  0.14559128539E+04  0.50400001928E-02 0.  1.
        1   -1    0    0  501    0  0.00000000000E+00  0.00000000000E+00 -0.21457879493E+04  0.21457879493E+04  0.50400001928E-02 0. -1.
    10030    2    1    2    0    0  0.00000000000E+00  0.00000000000E+00 -0.68987509536E+03  0.36017008032E+04  0.35350135825E+04 0.  0.
        3    1    3    3  502    0 -0.72797753938E+03 -0.12538252261E+04  0.68509958934E+03  0.16035555659E+04  0.10100000352E+00 0.  1.
       -3    1    3    3    0  502  0.72797753938E+03  0.12538252261E+04 -0.13749746847E+04  0.19981452373E+04  0.10100000352E+00 0. -1.
</event>
<event>
 5   0  0.4693374E-07  0.3509397E+04  0.7818609E-02  0.8111567E-01
       -1   -1    0    0    0  501  0.00000000000E+00  0.00000000000E+00  0.26231824060E+04  0.26231824061E+04  0.50400001928E-02 0. -1.
        1   -1    0    0  501    0  0.00000000000E+00  0.00000000000E+00 -0.11737525316E+04  0.11737525316E+04  0.50400001928E-02 0.  1.
    10030    2    1    2    0    0  0.00000000000E+00  0.00000000000E+00  0.14494298745E+04  0.37969349376E+04  0.35093970934E+04 0.  0.
        1    1    3    3  502    0  0.16132788193E+04 -0.68985324179E+03  0.74637917616E+03  0.19067375065E+04  0.50400001928E-02 0.  1.
       -1    1    3    3    0  502 -0.16132788193E+04  0.68985324179E+03  0.70305069832E+03  0.18901974311E+04  0.50400001928E-02 0. -1.
</event>
<event>
 5   0  0.1378620E-06  0.3461481E+04  0.7818609E-02  0.8122980E-01
       -2   -1    0    0    0  501  0.00000000000E+00  0.00000000000E+00  0.10620773982E+04  0.10620773982E+04  0.25500000920E-02 0. -1.
        2   -1    0    0  501    0  0.00000000000E+00  0.00000000000E+00 -0.28203808796E+04  0.28203808796E+04  0.25500000920E-02 0.  1.
    10030    2    1    2    0    0  0.00000000000E+00  0.00000000000E+00 -0.17583034814E+04  0.38824582778E+04  0.34614810626E+04 0.  0.
        2    1    3    3  502    0  0.81855587745E+01  0.26519318359E+03 -0.27974354885E+04  0.28099892777E+04  0.25500000920E-02 0.  1.
       -2    1    3    3    0  502 -0.81855587745E+01 -0.26519318359E+03  0.10391320072E+04  0.10724690002E+04  0.25500000920E-02 0. -1.
</event>
<event>
 5   0  0.1348388E-06  0.3381732E+04  0.7818609E-02  0.8142404E-01
       -2   -1    0    0    0  501  0.00000000000E+00  0.00000000000E+00  0.96749917122E+03  0.96749917122E+03  0.25500000920E-02 0. -1.
        2   -1    0    0  501    0  0.00000000000E+00  0.00000000000E+00 -0.29550709014E+04  0.29550709014E+04  0.25500000920E-02 0.  1.
    10030    2    1    2    0    0  0.00000000000E+00  0.00000000000E+00 -0.19875717302E+04  0.39225700726E+04  0.33817324838E+04 0.  0.
        5    1    3    3  502    0  0.36753804636E+03 -0.15734188476E+04 -0.41582508318E+03  0.16684315015E+04  0.46999998093E+01 0. -1.
       -5    1    3    3    0  502 -0.36753804636E+03  0.15734188476E+04 -0.15717466470E+04  0.22541385711E+04  0.46999998093E+01 0.  1.
</event>
<event>
 5   0  0.1348388E-06  0.3416109E+04  0.7818609E-02  0.8133964E-01
        2   -1    0    0  501    0  0.00000000000E+00  0.00000000000E+00  0.20544528881E+04  0.20544528881E+04  0.25500000920E-02 0. -1.
       -2   -1    0    0    0  501  0.00000000000E+00  0.00000000000E+00 -0.14200621021E+04  0.14200621021E+04  0.25500000920E-02 0.  1.
    10030    2    1    2    0    0  0.00000000000E+00  0.00000000000E+00  0.63439078593E+03  0.34745149902E+04  0.34161092997E+04 0.  0.
        5    1    3    3  502    0  0.12779392319E+03 -0.19063136317E+03 -0.14043018290E+04  0.14229396756E+04  0.46999998093E+01 0.  1.
       -5    1    3    3    0  502 -0.12779392319E+03  0.19063136317E+03  0.20386926149E+04  0.20515753146E+04  0.46999998093E+01 0. -1.
</event>
<event>
 5   0  0.4591195E-07  0.3517025E+04  0.7818609E-02  0.8109767E-01
        1   -1    0    0  501    0  0.00000000000E+00  0.00000000000E+00  0.21767489271E+04  0.21767489271E+04  0.50400001928E-02 0. -1.
       -1   -1    0    0    0  501  0.00000000000E+00  0.00000000000E+00 -0.14206355069E+04  0.14206355070E+04  0.50400001928E-02 0.  1.
    10030    2    1    2    0    0  0.00000000000E+00  0.00000000000E+00  0.75611342014E+03  0.35973844340E+04  0.35170253428E+04 0.  0.
        4    1    3    3  502    0 -0.11769150912E+04  0.92447649968E+03  0.13225062043E+04  0.19972005917E+04  0.12699999809E+01 0. -1.
       -4    1    3    3    0  502  0.11769150912E+04 -0.92447649968E+03 -0.56639278414E+03  0.16001838423E+04  0.12699999809E+01 0.  1.
</event>
<event>
 5   0  0.4409125E-07  0.3498024E+04  0.7818609E-02  0.8114258E-01
        3   -1    0    0  501    0  0.00000000000E+00  0.00000000000E+00  0.26067478348E+04  0.26067478368E+04  0.10100000352E+00 0. -1.
       -3   -1    0    0    0  501  0.00000000000E+00  0.00000000000E+00 -0.11735093573E+04  0.11735093617E+04  0.10100000352E+00 0.  1.
    10030    2    1    2    0    0  0.00000000000E+00  0.00000000000E+00  0.14332384775E+04  0.37802571985E+04  0.34980240069E+04 0.  0.
        2    1    3    3  502    0  0.12417195903E+04  0.10559159441E+04  0.14019950239E+04  0.21499804811E+04  0.25500000920E-02 0. -1.
       -2    1    3    3    0  502 -0.12417195903E+04 -0.10559159441E+04  0.31243453628E+02  0.16302767174E+04  0.25500000920E-02 0.  1.
</event>
<event>
 5   0  0.1442864E-06  0.3482254E+04  0.7818609E-02  0.8118008E-01
       -2   -1    0    0    0  501  0.00000000000E+00  0.00000000000E+00  0.15468790120E+04  0.15468790120E+04  0.25500000920E-02 0.  1.
        2   -1    0    0  501    0  0.00000000000E+00  0.00000000000E+00 -0.19597677120E+04  0.19597677120E+04  0.25500000920E-02 0. -1.
    10030    2    1    2    0    0  0.00000000000E+00  0.00000000000E+00 -0.41288870007E+03  0.35066467240E+04  0.34822541792E+04 0.  0.
        1    1    3    3  502    0  0.13125904423E+04 -0.92617903226E+03  0.46969191325E+03  0.16737119712E+04  0.50400001928E-02 0.  1.
       -1    1    3    3    0  502 -0.13125904423E+04  0.92617903226E+03 -0.88258061332E+03  0.18329347528E+04  0.50400001928E-02 0. -1.
</event>
<event>
 5   0  0.1387133E-06  0.3432740E+04  0.7818609E-02  0.8129917E-01
       -2   -1    0    0    0  501  0.00000000000E+00  0.00000000000E+00  0.15282159849E+04  0.15282159849E+04  0.25500000920E-02 0.  1.
        2   -1    0    0  501    0  0.00000000000E+00  0.00000000000E+00 -0.19276897339E+04  0.19276897339E+04  0.25500000920E-02 0. -1.
    10030    2    1    2    0    0  0.00000000000E+00  0.00000000000E+00 -0.39947374904E+03  0.34559057188E+04  0.34327401680E+04 0.  0.
        4    1    3    3  502    0 -0.23308640910E+03  0.16472949312E+04 -0.62450213899E+03  0.17770521655E+04  0.12699999809E+01 0. -1.
       -4    1    3    3    0  502  0.23308640910E+03 -0.16472949312E+04  0.22502838995E+03  0.16788535533E+04  0.12699999809E+01 0.  1.
</event>
<event>
 5   0  0.1378620E-06  0.3535455E+04  0.7818609E-02  0.8105439E-01
        2   -1    0    0  501    0  0.00000000000E+00  0.00000000000E+00  0.18145240225E+04  0.18145240225E+04  0.25500000920E-02 0.  1.
       -2   -1    0    0    0  501  0.00000000000E+00  0.00000000000E+00 -0.17221376661E+04  0.17221376661E+04  0.25500000920E-02 0. -1.
    10030    2    1    2    0    0  0.00000000000E+00  0.00000000000E+00  0.92386356413E+02  0.35366616887E+04  0.35354548026E+04 0.  0.
        2    1    3    3  502    0  0.49708334289E+03  0.15238717017E+04  0.79182226305E+03  0.17878085214E+04  0.25500000920E-02 0.  1.
       -2    1    3    3    0  502 -0.49708334289E+03 -0.15238717017E+04 -0.69943590663E+03  0.17488531672E+04  0.25500000920E-02 0. -1.
</event>
<event>
 5   0  0.1378620E-06  0.3472788E+04  0.7818609E-02  0.8120269E-01
        2   -1    0    0  501    0  0.00000000000E+00  0.00000000000E+00  0.23678334908E+04  0.23678334908E+04  0.25500000920E-02 0.  1.
       -2   -1    0    0    0  501  0.00000000000E+00  0.00000000000E+00 -0.12733428259E+04  0.12733428259E+04  0.25500000920E-02 0. -1.
    10030    2    1    2    0    0  0.00000000000E+00  0.00000000000E+00  0.10944906648E+04  0.36411763167E+04  0.34727878072E+04 0.  0.
        2    1    3    3  502    0 -0.41504936938E+02  0.96529668615E+03  0.20599571517E+04  0.22752898319E+04  0.25500000920E-02 0.  1.
       -2    1    3    3    0  502  0.41504936938E+02 -0.96529668615E+03 -0.96546648689E+03  0.13658864848E+04  0.25500000920E-02 0. -1.
</event>
<event>
 5   0  0.4557237E-07  0.3433013E+04  0.7818609E-02  0.8129851E-01
       -1   -1    0    0    0  501  0.00000000000E+00  0.00000000000E+00  0.14780557394E+04  0.14780557394E+04  0.50400001928E-02 0. -1.
        1   -1    0    0  501    0  0.00000000000E+00  0.00000000000E+00 -0.19934260272E+04  0.19934260272E+04  0.50400001928E-02 0.  1.
    10030    2    1    2    0    0  0.00000000000E+00  0.00000000000E+00 -0.51537028784E+03  0.34714817666E+04  0.34330131259E+04 0.  0.
        2    1    3    3  502    0 -0.53134582306E+03  0.14727072474E+04  0.45390453038E+03  0.16300994887E+04  0.25500000920E-02 0. -1.
       -2    1    3    3    0  502  0.53134582306E+03 -0.14727072474E+04 -0.96927481822E+03  0.18413822779E+04  0.25500000920E-02 0.  1.
</event>
<event>
 5   0  0.4700769E-07  0.3525936E+04  0.7818609E-02  0.8107671E-01
       -1   -1    0    0    0  501  0.00000000000E+00  0.00000000000E+00  0.17592221667E+04  0.17592221667E+04  0.50400001928E-02 0.  1.
        1   -1    0    0  501    0  0.00000000000E+00  0.00000000000E+00 -0.17667216374E+04  0.17667216374E+04  0.50400001928E-02 0. -1.
    10030    2    1    2    0    0  0.00000000000E+00  0.00000000000E+00 -0.74994707605E+01  0.35259438041E+04  0.35259358287E+04 0.  0.
        3    1    3    3  502    0  0.14211194094E+04 -0.10401247420E+04  0.77589260252E+02  0.17627988989E+04  0.10100000352E+00 0.  1.
       -3    1    3    3    0  502 -0.14211194094E+04  0.10401247420E+04 -0.85088731012E+02  0.17631449052E+04  0.10100000352E+00 0. -1.
</event>
<event>
 5   0  0.1348388E-06  0.3526123E+04  0.7818609E-02  0.8107627E-01
        2   -1    0    0  501    0  0.00000000000E+00  0.00000000000E+00  0.30141640544E+04  0.30141640544E+04  0.25500000920E-02 0. -1.
       -2   -1    0    0    0  501  0.00000000000E+00  0.00000000000E+00 -0.10312594863E+04  0.10312594863E+04  0.25500000920E-02 0.  1.
    10030    2    1    2    0    0  0.00000000000E+00  0.00000000000E+00  0.19829045681E+04  0.40454235408E+04  0.35261226720E+04 0.  0.
        5    1    3    3  502    0 -0.15824470878E+04  0.12887749224E+03  0.18709060513E+04  0.24537847779E+04  0.46999998093E+01 0.  1.
       -5    1    3    3    0  502  0.15824470878E+04 -0.12887749224E+03  0.11199851678E+03  0.15916387628E+04  0.46999998093E+01 0. -1.
</event>
<event>
 5   0  0.1442864E-06  0.3514998E+04  0.7818609E-02  0.8110245E-01
        2   -1    0    0  501    0  0.00000000000E+00  0.00000000000E+00  0.22830926084E+04  0.22830926084E+04  0.25500000920E-02 0. -1.
       -2   -1    0    0    0  501  0.00000000000E+00  0.00000000000E+00 -0.13529030489E+04  0.13529030489E+04  0.25500000920E-02 0.  1.
    10030    2    1    2    0    0  0.00000000000E+00  0.00000000000E+00  0.93018955953E+03  0.36359956573E+04  0.35149981228E+04 0.  0.
        1    1    3    3  502    0 -0.14437108001E+04 -0.71728557896E+03  0.11891935974E+04  0.20032425934E+04  0.50400001928E-02 0. -1.
       -1    1    3    3    0  502  0.14437108001E+04  0.71728557896E+03 -0.25900403786E+03  0.16327530639E+04  0.50400001928E-02 0.  1.
</event>
<event>
 5   0  0.4591195E-07  0.3558837E+04  0.7818609E-02  0.8099986E-01
        1   -1    0    0  501    0  0.00000000000E+00  0.00000000000E+00  0.22365924303E+04  0.22365924303E+04  0.50400001928E-02 0. -1.
       -1   -1    0    0    0  501  0.00000000000E+00  0.00000000000E+00 -0.14156942307E+04  0.14156942307E+04  0.50400001928E-02 0.  1.
    10030    2    1    2    0    0  0.00000000000E+00  0.00000000000E+00  0.82089819957E+03  0.36522866610E+04  0.35588374506E+04 0.  0.
        4    1    3    3  502    0  0.10408624516E+04 -0.21846625811E+03  0.18745163442E+04  0.21552111930E+04  0.12699999809E+01 0. -1.
       -4    1    3    3    0  502 -0.10408624516E+04  0.21846625811E+03 -0.10536181447E+04  0.14970754679E+04  0.12699999809E+01 0.  1.
</event>
<event>
 5   0  0.4700769E-07  0.3340176E+04  0.7818609E-02  0.8152747E-01
       -1   -1    0    0    0  501  0.00000000000E+00  0.00000000000E+00  0.28012075733E+04  0.28012075733E+04  0.50400001928E-02 0.  1.
        1   -1    0    0  501    0  0.00000000000E+00  0.00000000000E+00 -0.99571149824E+03  0.99571149825E+03  0.50400001928E-02 0. -1.
    10030    2    1    2    0    0  0.00000000000E+00  0.00000000000E+00  0.18054960751E+04  0.37969190716E+04  0.33401763964E+04 0.  0.
        3    1    3    3  502    0  0.10013001587E+04 -0.11755707556E+04  0.16258321424E+04  0.22422976552E+04  0.10100000352E+00 0.  1.
       -3    1    3    3    0  502 -0.10013001587E+04  0.11755707556E+04  0.17966393266E+03  0.15546214163E+04  0.10100000352E+00 0. -1.
</event>
<event>
 5   0  0.1348388E-06  0.3377004E+04  0.7818609E-02  0.8143573E-01
        2   -1    0    0  501    0  0.00000000000E+00  0.00000000000E+00  0.13932567603E+04  0.13932567603E+04  0.25500000920E-02 0.  1.
       -2   -1    0    0    0  501  0.00000000000E+00  0.00000000000E+00 -0.20463125752E+04  0.20463125752E+04  0.25500000920E-02 0. -1.
    10030    2    1    2    0    0  0.00000000000E+00  0.00000000000E+00 -0.65305581493E+03  0.34395693355E+04  0.33770038964E+04 0.  0.
        5    1    3    3  502    0  0.35347076691E+03  0.31153182295E+03 -0.19779941702E+04  0.20333412619E+04  0.46999998093E+01 0. -1.
       -5    1    3    3    0  502 -0.35347076691E+03 -0.31153182295E+03  0.13249383553E+04  0.14062280736E+04  0.46999998093E+01 0.  1.
</event>
<event>
 5   0  0.1348388E-06  0.3429279E+04  0.7818609E-02  0.8130757E-01
       -2   -1    0    0    0  501  0.00000000000E+00  0.00000000000E+00  0.15896317485E+04  0.15896317485E+04  0.25500000920E-02 0. -1.
        2   -1    0    0  501    0  0.00000000000E+00  0.00000000000E+00 -0.18494778026E+04  0.18494778026E+04  0.25500000920E-02 0.  1.
    10030    2    1    2    0    0  0.00000000000E+00  0.00000000000E+00 -0.25984605410E+03  0.34391095511E+04  0.34292790106E+04 0.  0.
        5    1    3    3  502    0  0.27136520444E+03  0.36030039311E+03 -0.17889054920E+04  0.18449011889E+04  0.46999998093E+01 0.  1.
       -5    1    3    3    0  502 -0.27136520444E+03 -0.36030039311E+03  0.15290594379E+04  0.15942083622E+04  0.46999998093E+01 0. -1.
</event>
<event>
 5   0  0.1378620E-06  0.3506471E+04  0.7818609E-02  0.8112258E-01
        2   -1    0    0  501    0  0.00000000000E+00  0.00000000000E+00  0.26756796947E+04  0.26756796947E+04  0.25500000920E-02 0. -1.
       -2   -1    0    0    0  501  0.00000000000E+00  0.00000000000E+00 -0.11488054264E+04  0.11488054264E+04  0.25500000920E-02 0.  1.
    10030    2    1    2    0    0  0.00000000000E+00  0.00000000000E+00  0.15268742683E+04  0.38244851211E+04  0.35064713617E+04 0.  0.
        2    1    3    3  502    0 -0.91572922887E+03  0.10555743964E+04  0.19182532912E+04  0.23732873859E+04  0.25500000920E-02 0. -1.
       -2    1    3    3    0  502  0.91572922887E+03 -0.10555743964E+04 -0.39137902294E+03  0.14511977352E+04  0.25500000920E-02 0.  1.
</event>
<event>
 5   0  0.1387133E-06  0.3543675E+04  0.7818609E-02  0.8103517E-01
        2   -1    0    0  501    0  0.00000000000E+00  0.00000000000E+00  0.30531398083E+04  0.30531398083E+04  0.25500000920E-02 0. -1.
       -2   -1    0    0    0  501  0.00000000000E+00  0.00000000000E+00 -0.10282555327E+04  0.10282555327E+04  0.25500000920E-02 0.  1.
    10030    2    1    2    0    0  0.00000000000E+00  0.00000000000E+00  0.20248842756E+04  0.40813953410E+04  0.35436748723E+04 0.  0.
        4    1    3    3  502    0 -0.12868133889E+04 -0.90192583688E+03  0.19552160360E+04  0.25084318355E+04  0.12699999809E+01 0. -1.
       -4    1    3    3    0  502  0.12868133889E+04  0.90192583688E+03  0.69668239571E+02  0.15729635055E+04  0.12699999809E+01 0.  1.
</event>
<event>
 5   0  0.4693374E-07  0.3502748E+04  0.7818609E-02  0.8113139E-01
       -1   -1    0    0    0  501  0.00000000000E+00  0.00000000000E+00  0.15854345332E+04  0.15854345333E+04  0.50400001928E-02 0.  1.
        1   -1    0    0  501    0  0.00000000000E+00  0.00000000000E+00 -0.19346819784E+04  0.19346819784E+04  0.50400001928E-02 0. -1.
    10030    2    1    2    0    0  0.00000000000E+00  0.00000000000E+00 -0.34924744511E+03  0.35201165116E+04  0.35027484177E+04 0.  0.
        1    1    3    3  502    0 -0.17456978370E+04  0.20628637373E+02 -0.31468890105E+03  0.17739547861E+04  0.50400001928E-02 0.  1.
       -1    1    3    3    0  502  0.17456978370E+04 -0.20628637373E+02 -0.34558544055E+02  0.17461617255E+04  0.50400001928E-02 0. -1.
</event>
<event>
 5   0  0.4693374E-07  0.3446989E+04  0.7818609E-02  0.8126469E-01
       -1   -1    0    0    0  501  0.00000000000E+00  0.00000000000E+00  0.12529912693E+04  0.12529912693E+04  0.50400001928E-02 0. -1.
        1   -1    0    0  501    0  0.00000000000E+00  0.00000000000E+00 -0.23706737252E+04  0.23706737252E+04  0.50400001928E-02 0.  1.
    10030    2    1    2    0    0  0.00000000000E+00  0.00000000000E+00 -0.11176824558E+04  0.36236649945E+04  0.34469891094E+04 0.  0.
        1    1    3    3  502    0  0.43643056570E+03 -0.87687949472E+03 -0.20496396917E+04  0.22716540565E+04  0.50400001928E-02 0.  1.
       -1    1    3    3    0  502 -0.43643056570E+03  0.87687949472E+03  0.93195723582E+03  0.13520109380E+04  0.50400001928E-02 0. -1.
</event>
<event>
 5   0  0.4409125E-07  0.3491165E+04  0.7818609E-02  0.8115887E-01
       -1   -1    0    0    0  501  0.00000000000E+00  0.00000000000E+00  0.31345146269E+04  0.31345146269E+04  0.50400001928E-02 0.  1.
        1   -1    0    0  501    0  0.00000000000E+00  0.00000000000E+00 -0.97209888061E+03  0.97209888063E+03  0.50400001928E-02 0. -1.
    10030    2    1    2    0    0  0.00000000000E+00  0.00000000000E+00  0.21624157463E+04  0.41066135076E+04  0.34911649403E+04 0.  0.
        5    1    3    3  502    0 -0.27289104449E+03 -0.67758776628E+03  0.29460747834E+04  0.30352880296E+04  0.46999998093E+01 0.  1.
       -5    1    3    3    0  502  0.27289104449E+03  0.67758776628E+03 -0.78365903713E+03  0.10713254779E+04  0.46999998093E+01 0. -1.
</event>
<event>
 5   0  0.1442864E-06  0.3471499E+04  0.7818609E-02  0.8120578E-01
       -2   -1    0    0    0  501  0.00000000000E+00  0.00000000000E+00  0.19694898394E+04  0.19694898394E+04  0.25500000920E-02 0.  1.
        2   -1    0    0  501    0  0.00000000000E+00  0.00000000000E+00 -0.15297493080E+04  0.15297493080E+04  0.25500000920E-02 0. -1.
    10030    2    1    2    0    0  0.00000000000E+00  0.00000000000E+00  0.43974053134E+03  0.34992391474E+04  0.34714986498E+04 0.  0.
        1    1    3    3  502    0  0.15608182411E+03  0.44920487788E+03  0.19025447475E+04  0.19610770190E+04  0.50400001928E-02 0.  1.
       -1    1    3    3    0  502 -0.15608182411E+03 -0.44920487788E+03 -0.14628042162E+04  0.15381621283E+04  0.50400001928E-02 0. -1.
</event>
<event>
 5   0  0.1387133E-06  0.3478664E+04  0.7818609E-02  0.8118865E-01
        2   -1    0    0  501    0  0.00000000000E+00  0.00000000000E+00  0.20551692565E+04  0.20551692565E+04  0.25500000920E-02 0.  1.
       -2   -1    0    0    0  501  0.00000000000E+00  0.00000000000E+00 -0.14720320563E+04  0.14720320563E+04  0.25500000920E-02 0. -1.
    10030    2    1    2    0    0  0.00000000000E+00  0.00000000000E+00  0.58313720018E+03  0.35272013127E+04  0.34786635518E+04 0.  0.
        4    1    3    3  502    0  0.10162802209E+04  0.51147953527E+03 -0.10424007683E+04  0.15430611709E+04  0.12699999809E+01 0. -1.
       -4    1    3    3    0  502 -0.10162802209E+04 -0.51147953527E+03  0.16255379685E+04  0.19841401418E+04  0.12699999809E+01 0.  1.
</event>
<event>
 5   0  0.4591195E-07  0.3290929E+04  0.7818609E-02  0.8165207E-01
       -1   -1    0    0    0  501  0.00000000000E+00  0.00000000000E+00  0.16414290064E+04  0.16414290064E+04  0.50400001928E-02 0.  1.
        1   -1    0    0  501    0  0.00000000000E+00  0.00000000000E+00 -0.16495102434E+04  0.16495102434E+04  0.50400001928E-02 0. -1.
    10030    2    1    2    0    0  0.00000000000E+00  0.00000000000E+00 -0.80812370024E+01  0.32909392497E+04  0.32909293276E+04 0.  0.
        4    1    3    3  502    0  0.12793216560E+04 -0.85710056081E+03  0.57584652895E+03  0.16440456528E+04  0.12699999809E+01 0.  1.
       -4    1    3    3    0  502 -0.12793216560E+04  0.85710056081E+03 -0.58392776595E+03  0.16468935969E+04  0.12699999809E+01 0. -1.
</event>
<event>
 5   0  0.4409125E-07  0.3491264E+04  0.7818609E-02  0.8115863E-01
        1   -1    0    0  501    0  0.00000000000E+00  0.00000000000E+00  0.33638132882E+04  0.33638132882E+04  0.50400001928E-02 0. -1.
       -1   -1    0    0    0  501  0.00000000000E+00  0.00000000000E+00 -0.90588615702E+03  0.90588615703E+03  0.50400001928E-02 0.  1.
    10030    2    1    2    0    0  0.00000000000E+00  0.00000000000E+00  0.24579271312E+04  0.42696994453E+04  0.34912644659E+04 0.  0.
        5    1    3    3  502    0 -0.10327838302E+04  0.78589677518E+03 -0.19878558137E+03  0.13129409654E+04  0.46999998093E+01 0. -1.
       -5    1    3    3    0  502  0.10327838302E+04 -0.78589677518E+03  0.26567127126E+04  0.29567584799E+04  0.46999998093E+01 0.  1.
</event>
<event>
 5   0  0.1442864E-06  0.3482999E+04  0.7818609E-02  0.8117831E-01
        2   -1    0    0  501    0  0.00000000000E+00  0.00000000000E+00  0.22631307109E+04  0.22631307109E+04  0.25500000920E-02 0.  1.
       -2   -1    0    0    0  501  0.00000000000E+00  0.00000000000E+00 -0.13400992274E+04  0.13400992274E+04  0.25500000920E-02 0. -1.
    10030    2    1    2    0    0  0.00000000000E+00  0.00000000000E+00  0.92303148350E+03  0.36032299384E+04  0.34829985457E+04 0.  0.
        1    1    3    3  502    0  0.14530864163E+04  0.40291916815E+03  0.13628047442E+04  0.20324961894E+04  0.50400001928E-02 0.  1.
       -1    1    3    3    0  502 -0.14530864163E+04 -0.40291916815E+03 -0.43977326068E+03  0.15707337489E+04  0.50400001928E-02 0. -1.
</event>
<event>
 5   0  0.4700769E-07  0.3503949E+04  0.7818609E-02  0.8112855E-01
        1   -1    0    0  501    0  0.00000000000E+00  0.00000000000E+00  0.24356651552E+04  0.24356651552E+04  0.50400001928E-02 0. -1.
       -1   -1    0    0    0  501  0.00000000000E+00  0.00000000000E+00 -0.12601958714E+04  0.12601958714E+04  0.50400001928E-02 0.  1.
    10030    2    1    2    0    0  0.00000000000E+00  0.00000000000E+00  0.11754692838E+04  0.36958610266E+04  0.35039492991E+04 0.  0.
        3    1    3    3  502    0  0.83796103873E+03 -0.58366619649E+03  0.20892806658E+04  0.23254975042E+04  0.10100000352E+00 0. -1.
       -3    1    3    3    0  502 -0.83796103873E+03  0.58366619649E+03 -0.91381138203E+03  0.13703635224E+04  0.10100000352E+00 0.  1.
</event>
<event>
 5   0  0.1378620E-06  0.3512287E+04  0.7818609E-02  0.8110884E-01
       -2   -1    0    0    0  501  0.00000000000E+00  0.00000000000E+00  0.26467800570E+04  0.26467800570E+04  0.25500000920E-02 0. -1.
        2   -1    0    0  501    0  0.00000000000E+00  0.00000000000E+00 -0.11652046446E+04  0.11652046446E+04  0.25500000920E-02 0.  1.
    10030    2    1    2    0    0  0.00000000000E+00  0.00000000000E+00  0.14815754124E+04  0.38119847017E+04  0.35122872410E+04 0.  0.
        2    1    3    3  502    0 -0.13518930447E+04  0.16568294775E+03 -0.46239784240E+03  0.14383592765E+04  0.25500000920E-02 0.  1.
       -2    1    3    3    0  502  0.13518930447E+04 -0.16568294775E+03  0.19439732548E+04  0.23736254252E+04  0.25500000920E-02 0. -1.
</event>
<event>
 5   0  0.1378620E-06  0.3558525E+04  0.7818609E-02  0.8100059E-01
        2   -1    0    0  501    0  0.00000000000E+00  0.00000000000E+00  0.20051655870E+04  0.20051655870E+04  0.25500000920E-02 0. -1.
       -2   -1    0    0    0  501  0.00000000000E+00  0.00000000000E+00 -0.15788093957E+04  0.15788093957E+04  0.25500000920E-02 0.  1.
    10030    2    1    2    0    0  0.00000000000E+00  0.00000000000E+00  0.42635619130E+03  0.35839749827E+04  0.35585245643E+04 0.  0.
        2    1    3    3  502    0 -0.89498206053E+03  0.11088220077E+04 -0.85994462451E+03  0.16643268581E+04  0.25500000920E-02 0.  1.
       -2    1    3    3    0  502  0.89498206053E+03 -0.11088220077E+04  0.12863008158E+04  0.19196481246E+04  0.25500000920E-02 0. -1.
</event>
<event>
 5   0  0.1387133E-06  0.3495181E+04  0.7818609E-02  0.8114933E-01
        2   -1    0    0  501    0  0.00000000000E+00  0.00000000000E+00  0.21664951955E+04  0.21664951955E+04  0.25500000920E-02 0.  1.
       -2   -1    0    0    0  501  0.00000000000E+00  0.00000000000E+00 -0.14096834025E+04  0.14096834025E+04  0.25500000920E-02 0. -1.
    10030    2    1    2    0    0  0.00000000000E+00  0.00000000000E+00  0.75681179302E+03  0.35761785980E+04  0.34951808644E+04 0.  0.
        4    1    3    3  502    0 -0.15988805179E+04 -0.45300439038E+03  0.93171403150E+03  0.19051835968E+04  0.12699999809E+01 0.  1.
       -4    1    3    3    0  502  0.15988805179E+04  0.45300439038E+03 -0.17490223849E+03  0.16709950012E+04  0.12699999809E+01 0. -1.
</event>
<event>
 5   0  0.1348388E-06  0.3621095E+04  0.7818609E-02  0.8085677E-01
        2   -1    0    0  501    0  0.00000000000E+00  0.00000000000E+00  0.21792788268E+04  0.21792788268E+04  0.25500000920E-02 0.  1.
       -2   -1    0    0    0  501  0.00000000000E+00  0.00000000000E+00 -0.15042054782E+04  0.15042054782E+04  0.25500000920E-02 0. -1.
    10030    2    1    2    0    0  0.00000000000E+00  0.00000000000E+00  0.67507334855E+03  0.36834843050E+04  0.36210954971E+04 0.  0.
        5    1    3    3  502    0 -0.94623583328E+03 -0.10575702712E+04 -0.80622169182E+03  0.16321251903E+04  0.46999998093E+01 0.  1.
       -5    1    3    3    0  502  0.94623583328E+03  0.10575702712E+04  0.14812950404E+04  0.20513591146E+04  0.46999998093E+01 0. -1.
</event>
<event>
 5   0  0.1442864E-06  0.3494988E+04  0.7818609E-02  0.8114979E-01
        2   -1    0    0  501    0  0.00000000000E+00  0.00000000000E+00  0.29731617383E+04  0.29731617383E+04  0.25500000920E-02 0. -1.
       -2   -1    0    0    0  501  0.00000000000E+00  0.00000000000E+00 -0.10271005091E+04  0.10271005091E+04  0.25500000920E-02 0.  1.
    10030    2    1    2    0    0  0.00000000000E+00  0.00000000000E+00  0.19460612293E+04  0.40002622474E+04  0.34949883748E+04 0.  0.
        1    1    3    3  502    0 -0.45955993034E+03 -0.15890291723E+04  0.16179909199E+04  0.23138936140E+04  0.50400001928E-02 0. -1.
       -1    1    3    3    0  502  0.45955993034E+03  0.15890291723E+04  0.32807030933E+03  0.16863686334E+04  0.50400001928E-02 0.  1.
</event>
<event>
 5   0  0.1348388E-06  0.3387716E+04  0.7818609E-02  0.8140928E-01
       -2   -1    0    0    0  501  0.00000000000E+00  0.00000000000E+00  0.16078282066E+04  0.16078282066E+04  0.25500000920E-02 0. -1.
        2   -1    0    0  501    0  0.00000000000E+00  0.00000000000E+00 -0.17844914680E+04  0.17844914680E+04  0.25500000920E-02 0.  1.
    10030    2    1    2    0    0  0.00000000000E+00  0.00000000000E+00 -0.17666326144E+03  0.33923196746E+04  0.33877164679E+04 0.  0.
        5    1    3    3  502    0  0.15519396795E+04 -0.65798605691E+03  0.78241046201E+02  0.16874851618E+04  0.46999998093E+01 0. -1.
       -5    1    3    3    0  502 -0.15519396795E+04  0.65798605691E+03 -0.25490430764E+03  0.17048345128E+04  0.46999998093E+01 0.  1.
</event>
<event>
 5   0  0.4591195E-07  0.2700163E+04  0.7818609E-02  0.8334952E-01
        1   -1    0    0  501    0  0.00000000000E+00  0.00000000000E+00  0.16412462748E+04  0.16412462748E+04  0.50400001928E-02 0.  1.
       -1   -1    0    0    0  501  0.00000000000E+00  0.00000000000E+00 -0.11105710788E+04  0.11105710788E+04  0.50400001928E-02 0. -1.
    10030    2    1    2    0    0  0.00000000000E+00  0.00000000000E+00  0.53067519599E+03  0.27518173536E+04  0.27001634365E+04 0.  0.
        4    1    3    3  502    0 -0.13222681176E+04  0.10468043380E+03  0.52188331938E+03  0.14253823276E+04  0.12699999809E+01 0.  1.
       -4    1    3    3    0  502  0.13222681176E+04 -0.10468043380E+03  0.87918766082E+01  0.13264350259E+04  0.12699999809E+01 0. -1.
</event>
<event>
 5   0  0.4409125E-07  0.3552696E+04  0.7818609E-02  0.8101414E-01
       -1   -1    0    0    0  501  0.00000000000E+00  0.00000000000E+00  0.12223815874E+04  0.12223815874E+04  0.50400001928E-02 0. -1.
        1   -1    0    0  501    0  0.00000000000E+00  0.00000000000E+00 -0.25813646857E+04  0.25813646857E+04  0.50400001928E-02 0.  1.
    10030    2    1    2    0    0  0.00000000000E+00  0.00000000000E+00 -0.13589830983E+04  0.38037462731E+04  0.35526962505E+04 0.  0.
        5    1    3    3  502    0 -0.15131646916E+04  0.79623540729E+03 -0.16408870747E+03  0.17177326339E+04  0.46999998093E+01 0. -1.
       -5    1    3    3    0  502  0.15131646916E+04 -0.79623540729E+03 -0.11948943908E+04  0.20860136392E+04  0.46999998093E+01 0.  1.
</event>
<event>
 5   0  0.1387133E-06  0.3496292E+04  0.7818609E-02  0.8114669E-01
        2   -1    0    0  501    0  0.00000000000E+00  0.00000000000E+00  0.25857156120E+04  0.25857156120E+04  0.25500000920E-02 0. -1.
       -2   -1    0    0    0  501  0.00000000000E+00  0.00000000000E+00 -0.11818837484E+04  0.11818837484E+04  0.25500000920E-02 0.  1.
    10030    2    1    2    0    0  0.00000000000E+00  0.00000000000E+00  0.14038318636E+04  0.37675993604E+04  0.34962924705E+04 0.  0.
        4    1    3    3  502    0 -0.14986033157E+03 -0.12647080850E+04 -0.58853644434E+03  0.14029687874E+04  0.12699999809E+01 0.  1.
       -4    1    3    3    0  502  0.14986033157E+03  0.12647080850E+04  0.19923683079E+04  0.23646305730E+04  0.12699999809E+01 0. -1.
</event>
<event>
 5   0  0.1378620E-06  0.3518221E+04  0.7818609E-02  0.8109485E-01
       -2   -1    0    0    0  501  0.00000000000E+00  0.00000000000E+00  0.11490843545E+04  0.11490843545E+04  0.25500000920E-02 0.  1.
        2   -1    0    0  501    0  0.00000000000E+00  0.00000000000E+00 -0.26929879050E+04  0.26929879050E+04  0.25500000920E-02 0. -1.
    10030    2    1    2    0    0  0.00000000000E+00  0.00000000000E+00 -0.15439035505E+04  0.38420722596E+04  0.35182212942E+04 0.  0.
        2    1    3    3  502    0  0.70685089480E+02  0.11058127942E+04 -0.22639697320E+04  0.25205906580E+04  0.25500000920E-02 0. -1.
       -2    1    3    3    0  502 -0.70685089480E+02 -0.11058127942E+04  0.72006618147E+03  0.13214816016E+04  0.25500000920E-02 0.  1.
</event>
<event>
 5   0  0.4409125E-07  0.2759129E+04  0.7818609E-02  0.8316071E-01
       -1   -1    0    0    0  501  0.00000000000E+00  0.00000000000E+00  0.11076619070E+04  0.11076619070E+04  0.50400001928E-02 0.  1.
        1   -1    0    0  501    0  0.00000000000E+00  0.00000000000E+00 -0.17182118415E+04  0.17182118415E+04  0.50400001928E-02 0. -1.
    10030    2    1    2    0    0  0.00000000000E+00  0.00000000000E+00 -0.61054993452E+03  0.28258737486E+04  0.27591287067E+04 0.  0.
        5    1    3    3  502    0 -0.33922848790E+03 -0.22681512086E+03  0.10444258998E+04  0.11213244919E+04  0.46999998093E+01 0.  1.
       -5    1    3    3    0  502  0.33922848790E+03  0.22681512086E+03 -0.16549758343E+04  0.17045492566E+04  0.46999998093E+01 0. -1.
</event>
<event>
 5   0  0.4591195E-07  0.3545649E+04  0.7818609E-02  0.8103056E-01
       -1   -1    0    0    0  501  0.00000000000E+00  0.00000000000E+00  0.20359720421E+04  0.20359720422E+04  0.50400001928E-02 0.  1.
        1   -1    0    0  501    0  0.00000000000E+00  0.00000000000E+00 -0.15436883444E+04  0.15436883444E+04  0.50400001928E-02 0. -1.
    10030    2    1    2    0    0  0.00000000000E+00  0.00000000000E+00  0.49228369774E+03  0.35796603866E+04  0.35456487762E+04 0.  0.
        4    1    3    3  502    0  0.64601248985E+03  0.12724820079E+04  0.13080690802E+04  0.19358690371E+04  0.12699999809E+01 0.  1.
       -4    1    3    3    0  502 -0.64601248985E+03 -0.12724820079E+04 -0.81578538249E+03  0.16437913495E+04  0.12699999809E+01 0. -1.
</event>
<event>
 5   0  0.1348388E-06  0.3455844E+04  0.7818609E-02  0.8124335E-01
        2   -1    0    0  501    0  0.00000000000E+00  0.00000000000E+00  0.17789732038E+04  0.17789732038E+04  0.25500000920E-02 0.  1.
       -2   -1    0    0    0  501  0.00000000000E+00  0.00000000000E+00 -0.16783358145E+04  0.16783358145E+04  0.25500000920E-02 0. -1.
    10030    2    1    2    0    0  0.00000000000E+00  0.00000000000E+00  0.10063738930E+03  0.34573090184E+04  0.34558440018E+04 0.  0.
        5    1    3    3  502    0  0.12468774028E+04  0.10586962564E+04 -0.50682971222E+03  0.17124367049E+04  0.46999998093E+01 0. -1.
       -5    1    3    3    0  502 -0.12468774028E+04 -0.10586962564E+04  0.60746710152E+03  0.17448723135E+04  0.46999998093E+01 0.  1.
</event>
<event>
 5   0  0.4557237E-07  0.3262359E+04  0.7818609E-02  0.8172540E-01
        1   -1    0    0  501    0  0.00000000000E+00  0.00000000000E+00  0.17297757125E+04  0.17297757125E+04  0.50400001928E-02 0.  1.
       -1   -1    0    0    0  501  0.00000000000E+00  0.00000000000E+00 -0.15382033608E+04  0.15382033608E+04  0.50400001928E-02 0. -1.
    10030    2    1    2    0    0  0.00000000000E+00  0.00000000000E+00  0.19157235167E+03  0.32679790733E+04  0.32623591552E+04 0.  0.
        2    1    3    3  502    0 -0.64831102566E+03  0.60666810052E+03 -0.12749253091E+04  0.15536369956E+04  0.25500000920E-02 0. -1.
       -2    1    3    3    0  502  0.64831102566E+03 -0.60666810052E+03  0.14664976608E+04  0.17143420777E+04  0.25500000920E-02 0.  1.
</event>
<event>
 5   0  0.4700769E-07  0.3386831E+04  0.7818609E-02  0.8141146E-01
       -1   -1    0    0    0  501  0.00000000000E+00  0.00000000000E+00  0.16227903004E+04  0.16227903004E+04  0.50400001928E-02 0.  1.
        1   -1    0    0  501    0  0.00000000000E+00  0.00000000000E+00 -0.17671148114E+04  0.17671148114E+04  0.50400001928E-02 0. -1.
    10030    2    1    2    0    0  0.00000000000E+00  0.00000000000E+00 -0.14432451105E+03  0.33899051118E+04  0.33868314252E+04 0.  0.
        3    1    3    3  502    0 -0.68051184052E+03  0.15489360902E+04 -0.14542286697E+03  0.16980716113E+04  0.10100000352E+00 0. -1.
       -3    1    3    3    0  502  0.68051184052E+03 -0.15489360902E+04  0.10983559288E+01  0.16918335005E+04  0.10100000352E+00 0.  1.
</event>
<event>
 5   0  0.4693374E-07  0.3695547E+04  0.7818609E-02  0.8068949E-01
        1   -1    0    0  501    0  0.00000000000E+00  0.00000000000E+00  0.19871355547E+04  0.19871355547E+04  0.50400001928E-02 0. -1.
       -1   -1    0    0    0  501  0.00000000000E+00  0.00000000000E+00 -0.17181847613E+04  0.17181847613E+04  0.50400001928E-02 0.  1.
    10030    2    1    2    0    0  0.00000000000E+00  0.00000000000E+00  0.26895079343E+03  0.37053203160E+04  0.36955465245E+04 0.  0.
        1    1    3    3  502    0 -0.15243163644E+04  0.44529248113E+03 -0.81271363346E+03  0.17839084120E+04  0.50400001928E-02 0.  1.
       -1    1    3    3    0  502  0.15243163644E+04 -0.44529248113E+03  0.10816644269E+04  0.19214119040E+04  0.50400001928E-02 0. -1.
</event>
<event>
 5   0  0.1442864E-06  0.3439188E+04  0.7818609E-02  0.8128355E-01
        2   -1    0    0  501    0  0.00000000000E+00  0.00000000000E+00  0.20262490964E+04  0.20262490964E+04  0.25500000920E-02 0.  1.
       -2   -1    0    0    0  501  0.00000000000E+00  0.00000000000E+00 -0.14593481461E+04  0.14593481461E+04  0.25500000920E-02 0. -1.
    10030    2    1    2    0    0  0.00000000000E+00  0.00000000000E+00  0.56690095032E+03  0.34855972425E+04  0.34391876147E+04 0.  0.
        1    1    3    3  502    0 -0.63577775779E+03  0.60234601054E+03 -0.12163735215E+04  0.14988657771E+04  0.50400001928E-02 0. -1.
       -1    1    3    3    0  502  0.63577775779E+03 -0.60234601054E+03  0.17832744718E+04  0.19867314654E+04  0.50400001928E-02 0.  1.
</event>
<event>
 5   0  0.1361560E-06  0.3537255E+04  0.7818609E-02  0.8105017E-01
       -2   -1    0    0    0  501  0.00000000000E+00  0.00000000000E+00  0.15283782431E+04  0.15283782431E+04  0.25500000920E-02 0. -1.
        2   -1    0    0  501    0  0.00000000000E+00  0.00000000000E+00 -0.20466420196E+04  0.20466420196E+04  0.25500000920E-02 0.  1.
    10030    2    1    2    0    0  0.00000000000E+00  0.00000000000E+00 -0.51826377649E+03  0.35750202627E+04  0.35372549437E+04 0.  0.
        3    1    3    3  502    0  0.78036951717E+03  0.13988508906E+04  0.49872903840E+03  0.16776444979E+04  0.10100000352E+00 0. -1.
       -3    1    3    3    0  502 -0.78036951717E+03 -0.13988508906E+04 -0.10169928149E+04  0.18973757649E+04  0.10100000352E+00 0.  1.
</event>
<event>
 5   0  0.1348388E-06  0.3313014E+04  0.7818609E-02  0.8159592E-01
        2   -1    0    0  501    0  0.00000000000E+00  0.00000000000E+00  0.20450981278E+04  0.20450981278E+04  0.25500000920E-02 0. -1.
       -2   -1    0    0    0  501  0.00000000000E+00  0.00000000000E+00 -0.13417526694E+04  0.13417526694E+04  0.25500000920E-02 0.  1.
    10030    2    1    2    0    0  0.00000000000E+00  0.00000000000E+00  0.70334545842E+03  0.33868507972E+04  0.33130142603E+04 0.  0.
        5    1    3    3  502    0 -0.14110863872E+04  0.33443223599E+02  0.12380080974E+04  0.18774901813E+04  0.46999998093E+01 0. -1.
       -5    1    3    3    0  502  0.14110863872E+04 -0.33443223599E+02 -0.53466263898E+03  0.15093606160E+04  0.46999998093E+01 0.  1.
</event>
<event>
 5   0  0.1387133E-06  0.3495189E+04  0.7818609E-02  0.8114931E-01
        2   -1    0    0  501    0  0.00000000000E+00  0.00000000000E+00  0.19376286068E+04  0.19376286068E+04  0.25500000920E-02 0.  1.
       -2   -1    0    0    0  501  0.00000000000E+00  0.00000000000E+00 -0.15761979123E+04  0.15761979123E+04  0.25500000920E-02 0. -1.
    10030    2    1    2    0    0  0.00000000000E+00  0.00000000000E+00  0.36143069456E+03  0.35138265191E+04  0.34951887874E+04 0.  0.
        4    1    3    3  502    0 -0.15005535619E+04 -0.82366053752E+03  0.53473923402E+03  0.17933280053E+04  0.12699999809E+01 0.  1.
       -4    1    3    3    0  502  0.15005535619E+04  0.82366053752E+03 -0.17330853946E+03  0.17204985138E+04  0.12699999809E+01 0. -1.
</event>
<event>
 5   0  0.1442864E-06  0.3548574E+04  0.7818609E-02  0.8102374E-01
       -2   -1    0    0    0  501  0.00000000000E+00  0.00000000000E+00  0.27220744333E+04  0.27220744333E+04  0.25500000920E-02 0.  1.
        2   -1    0    0  501    0  0.00000000000E+00  0.00000000000E+00 -0.11565056510E+04  0.11565056510E+04  0.25500000920E-02 0. -1.
    10030    2    1    2    0    0  0.00000000000E+00  0.00000000000E+00  0.15655687823E+04  0.38785800842E+04  0.35485740598E+04 0.  0.
        1    1    3    3  502    0 -0.17064863818E+04 -0.23749330609E+03  0.12459824846E+04  0.21262575558E+04  0.50400001928E-02 0. -1.
       -1    1    3    3    0  502  0.17064863818E+04  0.23749330609E+03  0.31958629774E+03  0.17523225284E+04  0.50400001928E-02 0.  1.
</event>
<event>
 5   0  0.4557237E-07  0.3457395E+04  0.7818609E-02  0.8123962E-01
       -1   -1    0    0    0  501  0.00000000000E+00  0.00000000000E+00  0.18505743697E+04  0.18505743697E+04  0.50400001928E-02 0.  1.
        1   -1    0    0  501    0  0.00000000000E+00  0.00000000000E+00 -0.16148469602E+04  0.16148469602E+04  0.50400001928E-02 0. -1.
    10030    2    1    2    0    0  0.00000000000E+00  0.00000000000E+00  0.23572740948E+03  0.34654213300E+04  0.34573946235E+04 0.  0.
        2    1    3    3  502    0 -0.12332401676E+03  0.16238541022E+04 -0.46338209927E+03  0.16931727403E+04  0.25500000920E-02 0. -1.
       -2    1    3    3    0  502  0.12332401676E+03 -0.16238541022E+04  0.69910950875E+03  0.17722485897E+04  0.25500000920E-02 0.  1.
</event>
<event>
 5   0  0.4700769E-07  0.3552860E+04  0.7818609E-02  0.8101376E-01
        1   -1    0    0  501    0  0.00000000000E+00  0.00000000000E+00  0.19062438388E+04  0.19062438388E+04  0.50400001928E-02 0.  1.
       -1   -1    0    0    0  501  0.00000000000E+00  0.00000000000E+00 -0.16554562592E+04  0.16554562592E+04  0.50400001928E-02 0. -1.
    10030    2    1    2    0    0  0.00000000000E+00  0.00000000000E+00  0.25078757964E+03  0.35617000980E+04  0.35528598591E+04 0.  0.
        3    1    3    3  502    0 -0.15364557932E+03  0.16845360168E+04 -0.41857475572E+03  0.17425479598E+04  0.10100000352E+00 0.  1.
       -3    1    3    3    0  502  0.15364557932E+03 -0.16845360168E+04  0.66936233536E+03  0.18191521382E+04  0.10100000352E+00 0. -1.
</event>
<event>
 5   0  0.1361560E-06  0.3460637E+04  0.7818609E-02  0.8123182E-01
        2   -1    0    0  501    0  0.00000000000E+00  0.00000000000E+00  0.27843414751E+04  0.27843414751E+04  0.25500000920E-02 0.  1.
       -2   -1    0    0    0  501  0.00000000000E+00  0.00000000000E+00 -0.10753000365E+04  0.10753000365E+04  0.25500000920E-02 0. -1.
    10030    2    1    2    0    0  0.00000000000E+00  0.00000000000E+00  0.17090414386E+04  0.38596415116E+04  0.34606372186E+04 0.  0.
        3    1    3    3  502    0 -0.30040757463E+03  0.12212032076E+04  0.21799998669E+04  0.25167402359E+04  0.10100000352E+00 0.  1.
       -3    1    3    3    0  502  0.30040757463E+03 -0.12212032076E+04 -0.47095842822E+03  0.13429012757E+04  0.10100000352E+00 0. -1.
</event>
<event>
 5   0  0.1361560E-06  0.3510517E+04  0.7818609E-02  0.8111302E-01
       -2   -1    0    0    0  501  0.00000000000E+00  0.00000000000E+00  0.24885234453E+04  0.24885234453E+04  0.25500000920E-02 0. -1.
        2   -1    0    0  501    0  0.00000000000E+00  0.00000000000E+00 -0.12380562552E+04  0.12380562552E+04  0.25500000920E-02 0.  1.
    10030    2    1    2    0    0  0.00000000000E+00  0.00000000000E+00  0.12504671901E+04  0.37265797004E+04  0.35105167811E+04 0.  0.
        3    1    3    3  502    0 -0.14731437026E+04  0.85814193887E+03  0.18195394022E+03  0.17145457715E+04  0.10100000352E+00 0. -1.
       -3    1    3    3    0  502  0.14731437026E+04 -0.85814193887E+03  0.10685132499E+04  0.20120339290E+04  0.10100000352E+00 0.  1.
</event>
<event>
 5   0  0.4591195E-07  0.3026679E+04  0.7818609E-02  0.8236153E-01
       -1   -1    0    0    0  501  0.00000000000E+00  0.00000000000E+00  0.16240402310E+04  0.16240402311E+04  0.50400001928E-02 0. -1.
        1   -1    0    0  501    0  0.00000000000E+00  0.00000000000E+00 -0.14101842484E+04  0.14101842484E+04  0.50400001928E-02 0.  1.
    10030    2    1    2    0    0  0.00000000000E+00  0.00000000000E+00  0.21385598263E+03  0.30342244795E+04  0.30266786765E+04 0.  0.
        4    1    3    3  502    0  0.42373729141E+03  0.12476290650E+04 -0.63928167881E+03  0.14645184375E+04  0.12699999809E+01 0. -1.
       -4    1    3    3    0  502 -0.42373729141E+03 -0.12476290650E+04  0.85313766144E+03  0.15697060420E+04  0.12699999809E+01 0.  1.
</event>
<event>
 5   0  0.4693374E-07  0.3248544E+04  0.7818609E-02  0.8176113E-01
        1   -1    0    0  501    0  0.00000000000E+00  0.00000000000E+00  0.11825962764E+04  0.11825962764E+04  0.50400001928E-02 0. -1.
       -1   -1    0    0    0  501  0.00000000000E+00  0.00000000000E+00 -0.22309052042E+04  0.22309052042E+04  0.50400001928E-02 0.  1.
    10030    2    1    2    0    0  0.00000000000E+00  0.00000000000E+00 -0.10483089278E+04  0.34135014806E+04  0.32485444048E+04 0.  0.
        1    1    3    3  502    0  0.40812915072E+03  0.66701236238E+03 -0.20200978571E+04  0.21661648708E+04  0.50400001928E-02 0.  1.
       -1    1    3    3    0  502 -0.40812915072E+03 -0.66701236238E+03  0.97178892927E+03  0.12473366099E+04  0.50400001928E-02 0. -1.
</event>
<event>
 5   0  0.1348388E-06  0.3482807E+04  0.7818609E-02  0.8117877E-01
        2   -1    0    0  501    0  0.00000000000E+00  0.00000000000E+00  0.19546333034E+04  0.19546333034E+04  0.25500000920E-02 0. -1.
       -2   -1    0    0    0  501  0.00000000000E+00  0.00000000000E+00 -0.15514350086E+04  0.15514350086E+04  0.25500000920E-02 0.  1.
    10030    2    1    2    0    0  0.00000000000E+00  0.00000000000E+00  0.40319829482E+03  0.35060683120E+04  0.34828072217E+04 0.  0.
        5    1    3    3  502    0  0.23701978440E+03  0.11771078035E+04 -0.10680552656E+04  0.16070237396E+04  0.46999998093E+01 0.  1.
       -5    1    3    3    0  502 -0.23701978440E+03 -0.11771078035E+04  0.14712535604E+04  0.18990445725E+04  0.46999998093E+01 0. -1.
</event>
<event>
 5   0  0.4693374E-07  0.3530968E+04  0.7818609E-02  0.8106490E-01
       -1   -1    0    0    0  501  0.00000000000E+00  0.00000000000E+00  0.14193530700E+04  0.14193530700E+04  0.50400001928E-02 0. -1.
        1   -1    0    0  501    0  0.00000000000E+00  0.00000000000E+00 -0.21960248022E+04  0.21960248022E+04  0.50400001928E-02 0.  1.
    10030    2    1    2    0    0  0.00000000000E+00  0.00000000000E+00 -0.77667173217E+03  0.36153778722E+04  0.35309684478E+04 0.  0.
        1    1    3    3  502    0  0.16848245598E+03 -0.17425503305E+04 -0.62197160099E+03  0.18578796153E+04  0.50400001928E-02 0. -1.
       -1    1    3    3    0  502 -0.16848245598E+03  0.17425503305E+04 -0.15470013118E+03  0.17574982569E+04  0.50400001928E-02 0.  1.
</event>
<event>
 5   0  0.4693374E-07  0.3143852E+04  0.7818609E-02  0.8203805E-01
       -1   -1    0    0    0  501  0.00000000000E+00  0.00000000000E+00  0.12618023882E+04  0.12618023882E+04  0.50400001928E-02 0.  1.
        1   -1    0    0  501    0  0.00000000000E+00  0.00000000000E+00 -0.19582718249E+04  0.19582718249E+04  0.50400001928E-02 0. -1.
    10030    2    1    2    0    0  0.00000000000E+00  0.00000000000E+00 -0.69646943666E+03  0.32200742131E+04  0.31438524554E+04 0.  0.
        1    1    3    3  502    0  0.12027250025E+04  0.22155675221E+03  0.66329040864E+03  0.13912544672E+04  0.50400001928E-02 0.  1.
       -1    1    3    3    0  502 -0.12027250025E+04 -0.22155675221E+03 -0.13597598453E+04  0.18288197459E+04  0.50400001928E-02 0. -1.
</event>
<event>
 5   0  0.1387133E-06  0.2502566E+04  0.7818609E-02  0.8402072E-01
        2   -1    0    0  501    0  0.00000000000E+00  0.00000000000E+00  0.21596583442E+04  0.21596583442E+04  0.25500000920E-02 0. -1.
       -2   -1    0    0    0  501  0.00000000000E+00  0.00000000000E+00 -0.72497977690E+03  0.72497977690E+03  0.25500000920E-02 0.  1.
    10030    2    1    2    0    0  0.00000000000E+00  0.00000000000E+00  0.14346785673E+04  0.28846381211E+04  0.25025655832E+04 0.  0.
        4    1    3    3  502    0  0.44417460794E+02  0.11159607392E+04  0.66956514556E+02  0.11188503341E+04  0.12699999809E+01 0.  1.
       -4    1    3    3    0  502 -0.44417460794E+02 -0.11159607392E+04  0.13677220528E+04  0.17657877871E+04  0.12699999809E+01 0. -1.
</event>
<event>
 5   0  0.4700769E-07  0.2725262E+04  0.7818609E-02  0.8326855E-01
        1   -1    0    0  501    0  0.00000000000E+00  0.00000000000E+00  0.16333246761E+04  0.16333246761E+04  0.50400001928E-02 0. -1.
       -1   -1    0    0    0  501  0.00000000000E+00  0.00000000000E+00 -0.11367998895E+04  0.11367998895E+04  0.50400001928E-02 0.  1.
    10030    2    1    2    0    0  0.00000000000E+00  0.00000000000E+00  0.49652478662E+03  0.27701245656E+04  0.27252620507E+04 0.  0.
        3    1    3    3  502    0  0.28746768546E+03 -0.18578070599E+03 -0.10923928854E+04  0.11447595237E+04  0.10100000352E+00 0.  1.
       -3    1    3    3    0  502 -0.28746768546E+03  0.18578070599E+03  0.15889176720E+04  0.16253650419E+04  0.10100000352E+00 0. -1.
</event>
<event>
 5   0  0.4700769E-07  0.3489186E+04  0.7818609E-02  0.8116358E-01
        1   -1    0    0  501    0  0.00000000000E+00  0.00000000000E+00  0.24353647343E+04  0.24353647343E+04  0.50400001928E-02 0. -1.
       -1   -1    0    0    0  501  0.00000000000E+00  0.00000000000E+00 -0.12497531146E+04  0.12497531146E+04  0.50400001928E-02 0.  1.
    10030    2    1    2    0    0  0.00000000000E+00  0.00000000000E+00  0.11856116197E+04  0.36851178489E+04  0.34891859578E+04 0.  0.
        3    1    3    3  502    0  0.58168458121E+03  0.50708446267E+03 -0.10597000162E+04  0.13108988286E+04  0.10100000352E+00 0.  1.
       -3    1    3    3    0  502 -0.58168458121E+03 -0.50708446267E+03  0.22453116358E+04  0.23742190203E+04  0.10100000352E+00 0. -1.
</event>
<event>
 5   0  0.4693374E-07  0.3502219E+04  0.7818609E-02  0.8113264E-01
       -1   -1    0    0    0  501  0.00000000000E+00  0.00000000000E+00  0.23255426219E+04  0.23255426219E+04  0.50400001928E-02 0. -1.
        1   -1    0    0  501    0  0.00000000000E+00  0.00000000000E+00 -0.13185673409E+04  0.13185673409E+04  0.50400001928E-02 0.  1.
    10030    2    1    2    0    0  0.00000000000E+00  0.00000000000E+00  0.10069752811E+04  0.36441099628E+04  0.35022190401E+04 0.  0.
        1    1    3    3  502    0  0.16840879027E+04  0.28820077254E+03  0.10431391483E+03  0.17117514838E+04  0.50400001928E-02 0. -1.
       -1    1    3    3    0  502 -0.16840879027E+04 -0.28820077254E+03  0.90266136622E+03  0.19323584790E+04  0.50400001928E-02 0.  1.
</event>
<event>
 5   0  0.4409125E-07  0.3336784E+04  0.7818609E-02  0.8153598E-01
        1   -1    0    0  501    0  0.00000000000E+00  0.00000000000E+00  0.19701235318E+04  0.19701235318E+04  0.50400001928E-02 0. -1.
       -1   -1    0    0    0  501  0.00000000000E+00  0.00000000000E+00 -0.14128713196E+04  0.14128713197E+04  0.50400001928E-02 0.  1.
    10030    2    1    2    0    0  0.00000000000E+00  0.00000000000E+00  0.55725221213E+03  0.33829948514E+04  0.33367835017E+04 0.  0.
        5    1    3    3  502    0  0.16294151584E+04  0.26544301071E+03  0.52290944470E+03  0.17317361600E+04  0.46999998093E+01 0.  1.
       -5    1    3    3    0  502 -0.16294151584E+04 -0.26544301071E+03  0.34342767427E+02  0.16512586915E+04  0.46999998093E+01 0. -1.
</event>
<event>
 5   0  0.4409125E-07  0.3435780E+04  0.7818609E-02  0.8129180E-01
        1   -1    0    0  501    0  0.00000000000E+00  0.00000000000E+00  0.17993603243E+04  0.17993603243E+04  0.50400001928E-02 0. -1.
       -1   -1    0    0    0  501  0.00000000000E+00  0.00000000000E+00 -0.16401085680E+04  0.16401085680E+04  0.50400001928E-02 0.  1.
    10030    2    1    2    0    0  0.00000000000E+00  0.00000000000E+00  0.15925175633E+03  0.34394688923E+04  0.34357801354E+04 0.  0.
        5    1    3    3  502    0 -0.10838003156E+04  0.43352085747E+03  0.13413602484E+04  0.17781543420E+04  0.46999998093E+01 0. -1.
       -5    1    3    3    0  502  0.10838003156E+04 -0.43352085747E+03 -0.11821084920E+04  0.16613145503E+04  0.46999998093E+01 0.  1.
</event>
<event>
 5   0  0.4557237E-07  0.2884176E+04  0.7818609E-02  0.8277601E-01
       -1   -1    0    0    0  501  0.00000000000E+00  0.00000000000E+00  0.88827815852E+03  0.88827815853E+03  0.50400001928E-02 0.  1.
        1   -1    0    0  501    0  0.00000000000E+00  0.00000000000E+00 -0.23411790260E+04  0.23411790260E+04  0.50400001928E-02 0. -1.
    10030    2    1    2    0    0  0.00000000000E+00  0.00000000000E+00 -0.14529008674E+04  0.32294571845E+04  0.28841762734E+04 0.  0.
        2    1    3    3  502    0 -0.47268679923E+03  0.79596782223E+02 -0.22493664611E+04  0.22998734605E+04  0.25500000920E-02 0. -1.
       -2    1    3    3    0  502  0.47268679923E+03 -0.79596782223E+02  0.79646559371E+03  0.92958372397E+03  0.25500000920E-02 0.  1.
</event>
<event>
 5   0  0.4557237E-07  0.3510794E+04  0.7818609E-02  0.8111237E-01
        1   -1    0    0  501    0  0.00000000000E+00  0.00000000000E+00  0.16668701791E+04  0.16668701792E+04  0.50400001928E-02 0.  1.
       -1   -1    0    0    0  501  0.00000000000E+00  0.00000000000E+00 -0.18486251212E+04  0.18486251212E+04  0.50400001928E-02 0. -1.
    10030    2    1    2    0    0  0.00000000000E+00  0.00000000000E+00 -0.18175494202E+03  0.35154953003E+04  0.35107936920E+04 0.  0.
        2    1    3    3  502    0 -0.86885625787E+03  0.14149622440E+04 -0.66119155475E+03  0.17872335104E+04  0.25500000920E-02 0. -1.
       -2    1    3    3    0  502  0.86885625787E+03 -0.14149622440E+04  0.47943661273E+03  0.17282617899E+04  0.25500000920E-02 0.  1.
</event>
<event>
 5   0  0.4557237E-07  0.3343689E+04  0.7818609E-02  0.8151867E-01
       -1   -1    0    0    0  501  0.00000000000E+00  0.00000000000E+00  0.11626019818E+04  0.11626019818E+04  0.50400001928E-02 0.  1.
        1   -1    0    0  501    0  0.00000000000E+00  0.00000000000E+00 -0.24041450220E+04  0.24041450220E+04  0.50400001928E-02 0. -1.
    10030    2    1    2    0    0  0.00000000000E+00  0.00000000000E+00 -0.12415430402E+04  0.35667470039E+04  0.33436888415E+04 0.  0.
        2    1    3    3  502    0 -0.12718017182E+04  0.47696321939E+03 -0.16605213992E+04  0.21452983103E+04  0.25500000920E-02 0. -1.
       -2    1    3    3    0  502  0.12718017182E+04 -0.47696321939E+03  0.41897835904E+03  0.14214486935E+04  0.25500000920E-02 0.  1.
</event>
<event>
 5   0  0.1348388E-06  0.3425272E+04  0.7818609E-02  0.8131732E-01
        2   -1    0    0  501    0  0.00000000000E+00  0.00000000000E+00  0.25670360090E+04  0.25670360090E+04  0.25500000920E-02 0.  1.
       -2   -1    0    0    0  501  0.00000000000E+00  0.00000000000E+00 -0.11426102002E+04  0.11426102002E+04  0.25500000920E-02 0. -1.
    10030    2    1    2    0    0  0.00000000000E+00  0.00000000000E+00  0.14244258088E+04  0.37096462093E+04  0.34252716845E+04 0.  0.
        5    1    3    3  502    0  0.55916811801E+03  0.14183602835E+04 -0.13274215577E+03  0.15303782042E+04  0.46999998093E+01 0. -1.
       -5    1    3    3    0  502 -0.55916811801E+03 -0.14183602835E+04  0.15571679646E+04  0.21792680051E+04  0.46999998093E+01 0.  1.
</event>
<event>
 5   0  0.4693374E-07  0.3510704E+04  0.7818609E-02  0.8111258E-01
       -1   -1    0    0    0  501  0.00000000000E+00  0.00000000000E+00  0.15491676978E+04  0.15491676978E+04  0.50400001928E-02 0. -1.
        1   -1    0    0  501    0  0.00000000000E+00  0.00000000000E+00 -0.19889779014E+04  0.19889779014E+04  0.50400001928E-02 0.  1.
    10030    2    1    2    0    0  0.00000000000E+00  0.00000000000E+00 -0.43981020355E+03  0.35381455992E+04  0.35107038135E+04 0.  0.
        1    1    3    3  502    0 -0.14454109983E+04  0.47678105344E+03  0.66141723129E+03  0.16595197742E+04  0.50400001928E-02 0. -1.
       -1    1    3    3    0  502  0.14454109983E+04 -0.47678105344E+03 -0.11012274348E+04  0.18786258250E+04  0.50400001928E-02 0.  1.
</event>
<event>
 5   0  0.1348388E-06  0.3523907E+04  0.7818609E-02  0.8108148E-01
       -2   -1    0    0    0  501  0.00000000000E+00  0.00000000000E+00  0.16202156599E+04  0.16202156599E+04  0.25500000920E-02 0.  1.
        2   -1    0    0  501    0  0.00000000000E+00  0.00000000000E+00 -0.19160906822E+04  0.19160906822E+04  0.25500000920E-02 0. -1.
    10030    2    1    2    0    0  0.00000000000E+00  0.00000000000E+00 -0.29587502229E+03  0.35363063421E+04  0.35239069960E+04 0.  0.
        5    1    3    3  502    0 -0.54786307363E+03  0.14547805971E+04 -0.98026382069E+03  0.18377920942E+04  0.46999998093E+01 0.  1.
       -5    1    3    3    0  502  0.54786307363E+03 -0.14547805971E+04  0.68438879841E+03  0.16985142480E+04  0.46999998093E+01 0. -1.
</event>
<event>
 5   0  0.4591195E-07  0.3513046E+04  0.7818609E-02  0.8110705E-01
       -1   -1    0    0    0  501  0.00000000000E+00  0.00000000000E+00  0.19571728758E+04  0.19571728758E+04  0.50400001928E-02 0. -1.
        1   -1    0    0  501    0  0.00000000000E+00  0.00000000000E+00 -0.15764434870E+04  0.15764434870E+04  0.50400001928E-02 0.  1.
    10030    2    1    2    0    0  0.00000000000E+00  0.00000000000E+00  0.38072938875E+03  0.35336163628E+04  0.35130456490E+04 0.  0.
        4    1    3    3  502    0  0.12564393739E+04  0.84273294568E+03 -0.70734775090E+03  0.16700841810E+04  0.12699999809E+01 0.  1.
       -4    1    3    3    0  502 -0.12564393739E+04 -0.84273294568E+03  0.10880771397E+04  0.18635321818E+04  0.12699999809E+01 0. -1.
</event>
<event>
 5   0  0.1387133E-06  0.2556552E+04  0.7818609E-02  0.8383111E-01
        2   -1    0    0  501    0  0.00000000000E+00  0.00000000000E+00  0.12875866253E+04  0.12875866253E+04  0.25500000920E-02 0.  1.
       -2   -1    0    0    0  501  0.00000000000E+00  0.00000000000E+00 -0.12690330590E+04  0.12690330590E+04  0.25500000920E-02 0. -1.
    10030    2    1    2    0    0  0.00000000000E+00  0.00000000000E+00  0.18553566243E+02  0.25566196843E+04  0.25565523612E+04 0.  0.
        4    1    3    3  502    0  0.87368155863E+03  0.17391370581E+03 -0.90749319961E+03  0.12716567789E+04  0.12699999809E+01 0. -1.
       -4    1    3    3    0  502 -0.87368155863E+03 -0.17391370581E+03  0.92604676585E+03  0.12849629055E+04  0.12699999809E+01 0.  1.
</event>
<event>
 5   0  0.1442864E-06  0.3509700E+04  0.7818609E-02  0.8111495E-01
       -2   -1    0    0    0  501  0.00000000000E+00  0.00000000000E+00  0.17525306715E+04  0.17525306715E+04  0.25500000920E-02 0. -1.
        2   -1    0    0  501    0  0.00000000000E+00  0.00000000000E+00 -0.17571719153E+04  0.17571719153E+04  0.25500000920E-02 0.  1.
    10030    2    1    2    0    0  0.00000000000E+00  0.00000000000E+00 -0.46412438513E+01  0.35097025868E+04  0.35096995180E+04 0.  0.
        1    1    3    3  502    0 -0.10122888445E+04  0.13201055051E+04 -0.56097165166E+03  0.17555900556E+04  0.50400001928E-02 0.  1.
       -1    1    3    3    0  502  0.10122888445E+04 -0.13201055051E+04  0.55633040781E+03  0.17541125312E+04  0.50400001928E-02 0. -1.
</event>
<event>
 5   0  0.4700769E-07  0.3421158E+04  0.7818609E-02  0.8132733E-01
        1   -1    0    0  501    0  0.00000000000E+00  0.00000000000E+00  0.21171092224E+04  0.21171092224E+04  0.50400001928E-02 0.  1.
       -1   -1    0    0    0  501  0.00000000000E+00  0.00000000000E+00 -0.13821109152E+04  0.13821109152E+04  0.50400001928E-02 0. -1.
    10030    2    1    2    0    0  0.00000000000E+00  0.00000000000E+00  0.73499830722E+03  0.34992201376E+04  0.34211575613E+04 0.  0.
        3    1    3    3  502    0 -0.15281721613E+04  0.74963908125E+03  0.54110974170E+03  0.17860763336E+04  0.10100000352E+00 0. -1.
       -3    1    3    3    0  502  0.15281721613E+04 -0.74963908125E+03  0.19388856552E+03  0.17131438039E+04  0.10100000352E+00 0.  1.
</event>
<event>
 5   0  0.1361560E-06  0.3471491E+04  0.7818609E-02  0.8120580E-01
        2   -1    0    0  501    0  0.00000000000E+00  0.00000000000E+00  0.17983152806E+04  0.17983152806E+04  0.25500000920E-02 0.  1.
       -2   -1    0    0    0  501  0.00000000000E+00  0.00000000000E+00 -0.16753531447E+04  0.16753531447E+04  0.25500000920E-02 0. -1.
    10030    2    1    2    0    0  0.00000000000E+00  0.00000000000E+00  0.12296213595E+03  0.34736684253E+04  0.34714914147E+04 0.  0.
        3    1    3    3  502    0  0.80623595770E+03 -0.76835234399E+03 -0.12706807563E+04  0.16896778801E+04  0.10100000352E+00 0. -1.
       -3    1    3    3    0  502 -0.80623595770E+03  0.76835234399E+03  0.13936428922E+04  0.17839905452E+04  0.10100000352E+00 0.  1.
</event>
<event>
 5   0  0.4591195E-07  0.2923317E+04  0.7818609E-02  0.8265974E-01
       -1   -1    0    0    0  501  0.00000000000E+00  0.00000000000E+00  0.14393733613E+04  0.14393733613E+04  0.50400001928E-02 0.  1.
        1   -1    0    0  501    0  0.00000000000E+00  0.00000000000E+00 -0.14842886752E+04  0.14842886752E+04  0.50400001928E-02 0. -1.
    10030    2    1    2    0    0  0.00000000000E+00  0.00000000000E+00 -0.44915313855E+02  0.29236620365E+04  0.29233170061E+04 0.  0.
        4    1    3    3  502    0  0.13674858183E+03 -0.23362009843E+03  0.14140841938E+04  0.14397618710E+04  0.12699999809E+01 0.  1.
       -4    1    3    3    0  502 -0.13674858183E+03  0.23362009843E+03 -0.14589995076E+04  0.14839001655E+04  0.12699999809E+01 0. -1.
</event>
<event>
 5   0  0.1378620E-06  0.3224735E+04  0.7818609E-02  0.8182315E-01
       -2   -1    0    0    0  501  0.00000000000E+00  0.00000000000E+00  0.11809619626E+04  0.11809619626E+04  0.25500000920E-02 0.  1.
        2   -1    0    0  501    0  0.00000000000E+00  0.00000000000E+00 -0.22013658186E+04  0.22013658186E+04  0.25500000920E-02 0. -1.
    10030    2    1    2    0    0  0.00000000000E+00  0.00000000000E+00 -0.10204038559E+04  0.33823277812E+04  0.32247352124E+04 0.  0.
        2    1    3    3  502    0  0.55800671366E+03  0.10040734043E+04 -0.16969528971E+04  0.20491910670E+04  0.25500000920E-02 0. -1.
       -2    1    3    3    0  502 -0.55800671366E+03 -0.10040734043E+04  0.67654904120E+03  0.13331367143E+04  0.25500000920E-02 0.  1.
</event>
<event>
 5   0  0.4591195E-07  0.3417459E+04  0.7818609E-02  0.8133634E-01
        1   -1    0    0  501    0  0.00000000000E+00  0.00000000000E+00  0.23429353263E+04  0.23429353263E+04  0.50400001928E-02 0.  1.
       -1   -1    0    0    0  501  0.00000000000E+00  0.00000000000E+00 -0.12461962818E+04  0.12461962818E+04  0.50400001928E-02 0. -1.
    10030    2    1    2    0    0  0.00000000000E+00  0.00000000000E+00  0.10967390446E+04  0.35891316081E+04  0.34174594611E+04 0.  0.
        4    1    3    3  502    0  0.10585813064E+04  0.12516757951E+04  0.41998859279E+02  0.16398329779E+04  0.12699999809E+01 0. -1.
       -4    1    3    3    0  502 -0.10585813064E+04 -0.12516757951E+04  0.10547401853E+04  0.19492986302E+04  0.12699999809E+01 0.  1.
</event>
<event>
 5   0  0.4591195E-07  0.3514443E+04  0.7818609E-02  0.8110376E-01
        1   -1    0    0  501    0  0.00000000000E+00  0.00000000000E+00  0.17274230755E+04  0.17274230755E+04  0.50400001928E-02 0. -1.
       -1   -1    0    0    0  501  0.00000000000E+00  0.00000000000E+00 -0.17875338179E+04  0.17875338180E+04  0.50400001928E-02 0.  1.
    10030    2    1    2    0    0  0.00000000000E+00  0.00000000000E+00 -0.60110742467E+02  0.35149568934E+04  0.35144428664E+04 0.  0.
        4    1    3    3  502    0  0.34337084657E+03  0.39617430240E+03  0.16473804258E+04  0.17287919182E+04  0.12699999809E+01 0. -1.
       -4    1    3    3    0  502 -0.34337084657E+03 -0.39617430240E+03 -0.17074911683E+04  0.17861649753E+04  0.12699999809E+01 0.  1.
</event>
<event>
 5   0  0.4557237E-07  0.3449650E+04  0.7818609E-02  0.8125827E-01
       -1   -1    0    0    0  501  0.00000000000E+00  0.00000000000E+00  0.15044984972E+04  0.15044984972E+04  0.50400001928E-02 0. -1.
        1   -1    0    0  501    0  0.00000000000E+00  0.00000000000E+00 -0.19774174491E+04  0.19774174491E+04  0.50400001928E-02 0.  1.
    10030    2    1    2    0    0  0.00000000000E+00  0.00000000000E+00 -0.47291895191E+03  0.34819159463E+04  0.34496501739E+04 0.  0.
        2    1    3    3  502    0 -0.60149034009E+03 -0.73259711030E+03 -0.16909556583E+04  0.19385097868E+04  0.25500000920E-02 0.  1.
       -2    1    3    3    0  502  0.60149034009E+03  0.73259711030E+03  0.12180367063E+04  0.15434061595E+04  0.25500000920E-02 0. -1.
</event>
<event>
 5   0  0.1378620E-06  0.3511746E+04  0.7818609E-02  0.8111012E-01
        2   -1    0    0  501    0  0.00000000000E+00  0.00000000000E+00  0.29573557561E+04  0.29573557561E+04  0.25500000920E-02 0.  1.
       -2   -1    0    0    0  501  0.00000000000E+00  0.00000000000E+00 -0.10425154979E+04  0.10425154979E+04  0.25500000920E-02 0. -1.
    10030    2    1    2    0    0  0.00000000000E+00  0.00000000000E+00  0.19148402582E+04  0.39998712541E+04  0.35117455538E+04 0.  0.
        2    1    3    3  502    0  0.53731088074E+03 -0.15861263323E+04  0.35623901232E+03  0.17121349125E+04  0.25500000920E-02 0. -1.
       -2    1    3    3    0  502 -0.53731088074E+03  0.15861263323E+04  0.15586012459E+04  0.22877363415E+04  0.25500000920E-02 0.  1.
</event>
<event>
 5   0  0.1442864E-06  0.3540634E+04  0.7818609E-02  0.8104227E-01
       -2   -1    0    0    0  501  0.00000000000E+00  0.00000000000E+00  0.34323564634E+04  0.34323564634E+04  0.25500000920E-02 0.  1.
        2   -1    0    0  501    0  0.00000000000E+00  0.00000000000E+00 -0.91308194510E+03  0.91308194511E+03  0.25500000920E-02 0. -1.
    10030    2    1    2    0    0  0.00000000000E+00  0.00000000000E+00  0.25192745183E+04  0.43454384085E+04  0.35406342460E+04 0.  0.
        1    1    3    3  502    0  0.10035390541E+04 -0.65870579621E+03  0.28565676394E+04  0.30985420180E+04  0.50400001928E-02 0.  1.
       -1    1    3    3    0  502 -0.10035390541E+04  0.65870579621E+03 -0.33729312105E+03  0.12468963905E+04  0.50400001928E-02 0. -1.
</event>
<event>
 5   0  0.4409125E-07  0.3439250E+04  0.7818609E-02  0.8128340E-01
       -4   -1    0    0    0  501  0.00000000000E+00  0.00000000000E+00  0.12180395120E+04  0.12180401741E+04  0.12699999809E+01 0.  1.
        4   -1    0    0  501    0  0.00000000000E+00  0.00000000000E+00 -0.24277604837E+04  0.24277608159E+04  0.12699999809E+01 0. -1.
    10030    2    1    2    0    0  0.00000000000E+00  0.00000000000E+00 -0.12097209717E+04  0.36458009899E+04  0.34392499224E+04 0.  0.
        1    1    3    3  502    0 -0.29539020384E+03 -0.16110615635E+04 -0.49634162236E+02  0.16386696690E+04  0.50400001928E-02 0.  1.
       -1    1    3    3    0  502  0.29539020384E+03  0.16110615635E+04 -0.11600868095E+04  0.20071313209E+04  0.50400001928E-02 0. -1.
</event>
<event>
 5   0  0.1442864E-06  0.3496162E+04  0.7818609E-02  0.8114700E-01
        2   -1    0    0  501    0  0.00000000000E+00  0.00000000000E+00  0.26249801138E+04  0.26249801138E+04  0.25500000920E-02 0. -1.
       -2   -1    0    0    0  501  0.00000000000E+00  0.00000000000E+00 -0.11641183949E+04  0.11641183949E+04  0.25500000920E-02 0.  1.
    10030    2    1    2    0    0  0.00000000000E+00  0.00000000000E+00  0.14608617189E+04  0.37890985088E+04  0.34961622599E+04 0.  0.
        1    1    3    3  502    0  0.81925390474E+03 -0.12483504766E+04  0.17155647487E+04  0.22743610707E+04  0.50400001928E-02 0. -1.
       -1    1    3    3    0  502 -0.81925390474E+03  0.12483504766E+04 -0.25470302975E+03  0.15147374381E+04  0.50400001928E-02 0.  1.
</event>
<event>
 5   0  0.4693374E-07  0.3258711E+04  0.7818609E-02  0.8173481E-01
       -1   -1    0    0    0  501  0.00000000000E+00  0.00000000000E+00  0.10597880130E+04  0.10597880130E+04  0.50400001928E-02 0.  1.
        1   -1    0    0  501    0  0.00000000000E+00  0.00000000000E+00 -0.25050292048E+04  0.25050292048E+04  0.50400001928E-02 0. -1.
    10030    2    1    2    0    0  0.00000000000E+00  0.00000000000E+00 -0.14452411919E+04  0.35648172178E+04  0.32587113548E+04 0.  0.
        1    1    3    3  502    0 -0.66559223670E+03 -0.96553345122E+03  0.51479890981E+03  0.12807364243E+04  0.50400001928E-02 0.  1.
       -1    1    3    3    0  502  0.66559223670E+03  0.96553345122E+03 -0.19600401017E+04  0.22840807935E+04  0.50400001928E-02 0. -1.
</event>
<event>
 5   0  0.1348388E-06  0.3481313E+04  0.7818609E-02  0.8118233E-01
        2   -1    0    0  501    0  0.00000000000E+00  0.00000000000E+00  0.29323879154E+04  0.29323879154E+04  0.25500000920E-02 0.  1.
       -2   -1    0    0    0  501  0.00000000000E+00  0.00000000000E+00 -0.10332484631E+04  0.10332484631E+04  0.25500000920E-02 0. -1.
    10030    2    1    2    0    0  0.00000000000E+00  0.00000000000E+00  0.18991394523E+04  0.39656363785E+04  0.34813131470E+04 0.  0.
        5    1    3    3  502    0 -0.21816889226E+03  0.42559452225E+03  0.28560697208E+04  0.28958392053E+04  0.46999998093E+01 0.  1.
       -5    1    3    3    0  502  0.21816889226E+03 -0.42559452225E+03 -0.95693026854E+03  0.10697971732E+04  0.46999998093E+01 0. -1.
</event>
<event>
 5   0  0.1387133E-06  0.3443613E+04  0.7818609E-02  0.8127285E-01
        2   -1    0    0  501    0  0.00000000000E+00  0.00000000000E+00  0.11771875140E+04  0.11771875140E+04  0.25500000920E-02 0.  1.
       -2   -1    0    0    0  501  0.00000000000E+00  0.00000000000E+00 -0.25183899582E+04  0.25183899582E+04  0.25500000920E-02 0. -1.
    10030    2    1    2    0    0  0.00000000000E+00  0.00000000000E+00 -0.13412024442E+04  0.36955774722E+04  0.34436127623E+04 0.  0.
        4    1    3    3  502    0 -0.12919141476E+04  0.95725580732E+03 -0.97220445959E+01  0.16079418448E+04  0.12699999809E+01 0.  1.
       -4    1    3    3    0  502  0.12919141476E+04 -0.95725580732E+03 -0.13314803996E+04  0.20876356274E+04  0.12699999809E+01 0. -1.
</event>
<event>
 5   0  0.1387133E-06  0.3559926E+04  0.7818609E-02  0.8099733E-01
        2   -1    0    0  501    0  0.00000000000E+00  0.00000000000E+00  0.31462210980E+04  0.31462210980E+04  0.25500000920E-02 0. -1.
       -2   -1    0    0    0  501  0.00000000000E+00  0.00000000000E+00 -0.10070073926E+04  0.10070073926E+04  0.25500000920E-02 0.  1.
    10030    2    1    2    0    0  0.00000000000E+00  0.00000000000E+00  0.21392137054E+04  0.41532284905E+04  0.35599257881E+04 0.  0.
        4    1    3    3  502    0 -0.67505092706E+03 -0.80295234283E+03 -0.60805084382E+03  0.12124989322E+04  0.12699999809E+01 0.  1.
       -4    1    3    3    0  502  0.67505092706E+03  0.80295234283E+03  0.27472645492E+04  0.29407295583E+04  0.12699999809E+01 0. -1.
</event>
<event>
 5   0  0.4557237E-07  0.3485155E+04  0.7818609E-02  0.8117317E-01
        1   -1    0    0  501    0  0.00000000000E+00  0.00000000000E+00  0.17165756763E+04  0.17165756763E+04  0.50400001928E-02 0.  1.
       -1   -1    0    0    0  501  0.00000000000E+00  0.00000000000E+00 -0.17689727890E+04  0.17689727890E+04  0.50400001928E-02 0. -1.
    10030    2    1    2    0    0  0.00000000000E+00  0.00000000000E+00 -0.52397112666E+02  0.34855484653E+04  0.34851546087E+04 0.  0.
        2    1    3    3  502    0 -0.36678626897E+03 -0.56403403498E+03  0.15814373319E+04  0.17186071670E+04  0.25500000920E-02 0.  1.
       -2    1    3    3    0  502  0.36678626897E+03  0.56403403498E+03 -0.16338344445E+04  0.17669412984E+04  0.25500000920E-02 0. -1.
</event>
<event>
 5   0  0.4700769E-07  0.3500000E+04  0.7818609E-02  0.8113790E-01
       -1   -1    0    0    0  501  0.00000000000E+00  0.00000000000E+00  0.15289547257E+04  0.15289547257E+04  0.50400001928E-02 0.  1.
        1   -1    0    0  501    0  0.00000000000E+00  0.00000000000E+00 -0.20030027437E+04  0.20030027437E+04  0.50400001928E-02 0. -1.
    10030    2    1    2    0    0  0.00000000000E+00  0.00000000000E+00 -0.47404801802E+03  0.35319574693E+04  0.35000002917E+04 0.  0.
        3    1    3    3  502    0 -0.15461740716E+04  0.79696874674E+03 -0.43031153374E+03  0.17919211671E+04  0.10100000352E+00 0.  1.
       -3    1    3    3    0  502  0.15461740716E+04 -0.79696874674E+03 -0.43736484281E+02  0.17400363022E+04  0.10100000352E+00 0. -1.
</event>
<event>
 5   0  0.4409125E-07  0.3516322E+04  0.7818609E-02  0.8109933E-01
       -1   -1    0    0    0  501  0.00000000000E+00  0.00000000000E+00  0.16489004290E+04  0.16489004290E+04  0.50400001928E-02 0.  1.
        1   -1    0    0  501    0  0.00000000000E+00  0.00000000000E+00 -0.18746614656E+04  0.18746614656E+04  0.50400001928E-02 0. -1.
    10030    2    1    2    0    0  0.00000000000E+00  0.00000000000E+00 -0.22576103654E+03  0.35235618946E+04  0.35163219960E+04 0.  0.
        5    1    3    3  502    0  0.16862682955E+04  0.38403384258E+03  0.20419672221E+03  0.17414652303E+04  0.46999998093E+01 0.  1.
       -5    1    3    3    0  502 -0.16862682955E+04 -0.38403384258E+03 -0.42995775874E+03  0.17820966644E+04  0.46999998093E+01 0. -1.
</event>
<event>
 5   0  0.1387133E-06  0.3525523E+04  0.7818609E-02  0.8107768E-01
       -2   -1    0    0    0  501  0.00000000000E+00  0.00000000000E+00  0.10414740586E+04  0.10414740586E+04  0.25500000920E-02 0. -1.
        2   -1    0    0  501    0  0.00000000000E+00  0.00000000000E+00 -0.29835868907E+04  0.29835868907E+04  0.25500000920E-02 0.  1.
    10030    2    1    2    0    0  0.00000000000E+00  0.00000000000E+00 -0.19421128321E+04  0.40250609492E+04  0.35255231374E+04 0.  0.
        4    1    3    3  502    0 -0.15473471208E+04 -0.72568886982E+03 -0.14639967028E+04  0.22503767255E+04  0.12699999809E+01 0. -1.
       -4    1    3    3    0  502  0.15473471208E+04  0.72568886982E+03 -0.47811612933E+03  0.17746842237E+04  0.12699999809E+01 0.  1.
</event>
<event>
 5   0  0.1348388E-06  0.3377656E+04  0.7818609E-02  0.8143412E-01
        2   -1    0    0  501    0  0.00000000000E+00  0.00000000000E+00  0.28873979380E+04  0.28873979380E+04  0.25500000920E-02 0.  1.
       -2   -1    0    0    0  501  0.00000000000E+00  0.00000000000E+00 -0.98778926925E+03  0.98778926925E+03  0.25500000920E-02 0. -1.
    10030    2    1    2    0    0  0.00000000000E+00  0.00000000000E+00  0.18996086687E+04  0.38751872072E+04  0.33776564060E+04 0.  0.
        5    1    3    3  502    0  0.51544378489E+03  0.65056314598E+03  0.26372350435E+04  0.27647686100E+04  0.46999998093E+01 0.  1.
       -5    1    3    3    0  502 -0.51544378489E+03 -0.65056314598E+03 -0.73762637477E+03  0.11104185972E+04  0.46999998093E+01 0. -1.
</event>
<event>
 5   0  0.1442864E-06  0.3235205E+04  0.7818609E-02  0.8179581E-01
       -2   -1    0    0    0  501  0.00000000000E+00  0.00000000000E+00  0.12975817982E+04  0.12975817982E+04  0.25500000920E-02 0. -1.
        2   -1    0    0  501    0  0.00000000000E+00  0.00000000000E+00 -0.20165491900E+04  0.20165491900E+04  0.25500000920E-02 0.  1.
    10030    2    1    2    0    0  0.00000000000E+00  0.00000000000E+00 -0.71896739176E+03  0.33141309882E+04  0.32352047997E+04 0.  0.
        1    1    3    3  502    0  0.12030191320E+04 -0.86442069770E+03  0.30610524487E+03  0.15126726664E+04  0.50400001928E-02 0.  1.
       -1    1    3    3    0  502 -0.12030191320E+04  0.86442069770E+03 -0.10250726366E+04  0.18014583218E+04  0.50400001928E-02 0. -1.
</event>
<event>
 5   0  0.1442864E-06  0.3356919E+04  0.7818609E-02  0.8148561E-01
        2   -1    0    0  501    0  0.00000000000E+00  0.00000000000E+00  0.17850928753E+04  0.17850928753E+04  0.25500000920E-02 0. -1.
       -2   -1    0    0    0  501  0.00000000000E+00  0.00000000000E+00 -0.15781960655E+04  0.15781960655E+04  0.25500000920E-02 0.  1.
    10030    2    1    2    0    0  0.00000000000E+00  0.00000000000E+00  0.20689680983E+03  0.33632889408E+04  0.33569191544E+04 0.  0.
        1    1    3    3  502    0 -0.54809118909E+03  0.20046515814E+03 -0.14732710124E+04  0.15846506577E+04  0.50400001928E-02 0.  1.
       -1    1    3    3    0  502  0.54809118909E+03 -0.20046515814E+03  0.16801678222E+04  0.17786382830E+04  0.50400001928E-02 0. -1.
</event>
<event>
 5   0  0.4409125E-07  0.3500817E+04  0.7818609E-02  0.8113596E-01
        3   -1    0    0  501    0  0.00000000000E+00  0.00000000000E+00  0.87253771617E+03  0.87253772202E+03  0.10100000352E+00 0. -1.
       -3   -1    0    0    0  501  0.00000000000E+00  0.00000000000E+00 -0.35115160280E+04  0.35115160294E+04  0.10100000352E+00 0.  1.
    10030    2    1    2    0    0  0.00000000000E+00  0.00000000000E+00 -0.26389783118E+04  0.43840537515E+04  0.35008171568E+04 0.  0.
        3    1    3    3  502    0  0.96036009524E+03 -0.27253580929E+02  0.51284306202E+03  0.10890556858E+04  0.10100000352E+00 0. -1.
       -3    1    3    3    0  502 -0.96036009524E+03  0.27253580929E+02 -0.31518213738E+04  0.32949980657E+04  0.10100000352E+00 0.  1.
</event>
<event>
 5   0  0.4409125E-07  0.3411688E+04  0.7818609E-02  0.8135044E-01
        3   -1    0    0  501    0  0.00000000000E+00  0.00000000000E+00  0.34367671285E+04  0.34367671300E+04  0.10100000352E+00 0. -1.
       -3   -1    0    0    0  501  0.00000000000E+00  0.00000000000E+00 -0.84669810205E+03  0.84669810808E+03  0.10100000352E+00 0.  1.
    10030    2    1    2    0    0  0.00000000000E+00  0.00000000000E+00  0.25900690265E+04  0.42834652381E+04  0.34116882748E+04 0.  0.
        3    1    3    3  502    0 -0.66193439513E+02 -0.17040008974E+04  0.12402558277E+04  0.21086097690E+04  0.10100000352E+00 0.  1.
       -3    1    3    3    0  502  0.66193439513E+02  0.17040008974E+04  0.13498131988E+04  0.21748554691E+04  0.10100000352E+00 0. -1.
</event>
<event>
 5   0  0.1387133E-06  0.3518621E+04  0.7818609E-02  0.8109391E-01
        2   -1    0    0  501    0  0.00000000000E+00  0.00000000000E+00  0.13272821527E+04  0.13272821527E+04  0.25500000920E-02 0. -1.
       -2   -1    0    0    0  501  0.00000000000E+00  0.00000000000E+00 -0.23319633423E+04  0.23319633423E+04  0.25500000920E-02 0.  1.
    10030    2    1    2    0    0  0.00000000000E+00  0.00000000000E+00 -0.10046811895E+04  0.36592454950E+04  0.35186209373E+04 0.  0.
        4    1    3    3  502    0  0.67380537345E+03 -0.28366157764E+03 -0.21665114736E+04  0.22865369339E+04  0.12699999809E+01 0.  1.
       -4    1    3    3    0  502 -0.67380537345E+03  0.28366157764E+03  0.11618302841E+04  0.13727085611E+04  0.12699999809E+01 0. -1.
</event>
<event>
 5   0  0.4591195E-07  0.3384723E+04  0.7818609E-02  0.8141666E-01
        1   -1    0    0  501    0  0.00000000000E+00  0.00000000000E+00  0.20541042496E+04  0.20541042496E+04  0.50400001928E-02 0.  1.
       -1   -1    0    0    0  501  0.00000000000E+00  0.00000000000E+00 -0.13943241051E+04  0.13943241051E+04  0.50400001928E-02 0. -1.
    10030    2    1    2    0    0  0.00000000000E+00  0.00000000000E+00  0.65978014450E+03  0.34484283547E+04  0.33847227772E+04 0.  0.
        4    1    3    3  502    0 -0.11342309219E+04  0.10981135784E+04  0.95108070960E+03  0.18430652035E+04  0.12699999809E+01 0.  1.
       -4    1    3    3    0  502  0.11342309219E+04 -0.10981135784E+04 -0.29130056510E+03  0.16053631512E+04  0.12699999809E+01 0. -1.
</event>
<event>
 5   0  0.1387133E-06  0.3413945E+04  0.7818609E-02  0.8134492E-01
        2   -1    0    0  501    0  0.00000000000E+00  0.00000000000E+00  0.16364819289E+04  0.16364819289E+04  0.25500000920E-02 0. -1.
       -2   -1    0    0    0  501  0.00000000000E+00  0.00000000000E+00 -0.17804990580E+04  0.17804990580E+04  0.25500000920E-02 0.  1.
    10030    2    1    2    0    0  0.00000000000E+00  0.00000000000E+00 -0.14401712911E+03  0.34169809869E+04  0.34139446585E+04 0.  0.
        4    1    3    3  502    0 -0.33889713358E+03  0.80112733771E+03  0.13980034587E+04  0.16465331948E+04  0.12699999809E+01 0. -1.
       -4    1    3    3    0  502  0.33889713358E+03 -0.80112733771E+03 -0.15420205878E+04  0.17704477920E+04  0.12699999809E+01 0.  1.
</event>
<event>
 5   0  0.4700769E-07  0.3434445E+04  0.7818609E-02  0.8129504E-01
        1   -1    0    0  501    0  0.00000000000E+00  0.00000000000E+00  0.11582874768E+04  0.11582874768E+04  0.50400001928E-02 0.  1.
       -1   -1    0    0    0  501  0.00000000000E+00  0.00000000000E+00 -0.25458733164E+04  0.25458733164E+04  0.50400001928E-02 0. -1.
    10030    2    1    2    0    0  0.00000000000E+00  0.00000000000E+00 -0.13875858396E+04  0.37041607932E+04  0.34344450380E+04 0.  0.
        3    1    3    3  502    0  0.46287088324E+03  0.30978411070E+03  0.10581628057E+04  0.11957943733E+04  0.10100000352E+00 0.  1.
       -3    1    3    3    0  502 -0.46287088324E+03 -0.30978411070E+03 -0.24457486453E+04  0.25083664198E+04  0.10100000352E+00 0. -1.
</event>
<event>
 5   0  0.4591195E-07  0.3516014E+04  0.7818609E-02  0.8110005E-01
        1   -1    0    0  501    0  0.00000000000E+00  0.00000000000E+00  0.21012775597E+04  0.21012775597E+04  0.50400001928E-02 0. -1.
       -1   -1    0    0    0  501  0.00000000000E+00  0.00000000000E+00 -0.14708137710E+04  0.14708137710E+04  0.50400001928E-02 0.  1.
    10030    2    1    2    0    0  0.00000000000E+00  0.00000000000E+00  0.63046378870E+03  0.35720913308E+04  0.35160136357E+04 0.  0.
        4    1    3    3  502    0 -0.17374524873E+04  0.25267486152E+03  0.40610471906E+03  0.18020844561E+04  0.12699999809E+01 0.  1.
       -4    1    3    3    0  502  0.17374524873E+04 -0.25267486152E+03  0.22435906964E+03  0.17700068746E+04  0.12699999809E+01 0. -1.
</event>
<event>
 5   0  0.4557237E-07  0.3476285E+04  0.7818609E-02  0.8119433E-01
        1   -1    0    0  501    0  0.00000000000E+00  0.00000000000E+00  0.10219888149E+04  0.10219888149E+04  0.50400001928E-02 0. -1.
       -1   -1    0    0    0  501  0.00000000000E+00  0.00000000000E+00 -0.29561377576E+04  0.29561377576E+04  0.50400001928E-02 0.  1.
    10030    2    1    2    0    0  0.00000000000E+00  0.00000000000E+00 -0.19341489427E+04  0.39781265726E+04  0.34762852148E+04 0.  0.
        2    1    3    3  502    0 -0.96190766545E+03  0.14448532404E+04 -0.10711577766E+04  0.20396681655E+04  0.25500000920E-02 0.  1.
       -2    1    3    3    0  502  0.96190766545E+03 -0.14448532404E+04 -0.86299116614E+03  0.19384584071E+04  0.25500000920E-02 0. -1.
</event>
<event>
 5   0  0.1442864E-06  0.3405967E+04  0.7818609E-02  0.8136443E-01
        2   -1    0    0  501    0  0.00000000000E+00  0.00000000000E+00  0.18141157442E+04  0.18141157442E+04  0.25500000920E-02 0. -1.
       -2   -1    0    0    0  501  0.00000000000E+00  0.00000000000E+00 -0.15986592493E+04  0.15986592493E+04  0.25500000920E-02 0.  1.
    10030    2    1    2    0    0  0.00000000000E+00  0.00000000000E+00  0.21545649490E+03  0.34127749936E+04  0.34059670661E+04 0.  0.
        1    1    3    3  502    0  0.15364465242E+04  0.36930514998E+02  0.84276191852E+03  0.17527918975E+04  0.50400001928E-02 0. -1.
       -1    1    3    3    0  502 -0.15364465242E+04 -0.36930514998E+02 -0.62730542362E+03  0.16599830961E+04  0.50400001928E-02 0.  1.
</event>
<event>
 5   0  0.4700769E-07  0.3492484E+04  0.7818609E-02  0.8115573E-01
        1   -1    0    0  501    0  0.00000000000E+00  0.00000000000E+00  0.25551252826E+04  0.25551252826E+04  0.50400001928E-02 0. -1.
       -1   -1    0    0    0  501  0.00000000000E+00  0.00000000000E+00 -0.11934291243E+04  0.11934291243E+04  0.50400001928E-02 0.  1.
    10030    2    1    2    0    0  0.00000000000E+00  0.00000000000E+00  0.13616961583E+04  0.37485544068E+04  0.34924838888E+04 0.  0.
        3    1    3    3  502    0  0.10238299916E+04  0.16176492933E+03 -0.82752623475E+03  0.13263466453E+04  0.10100000352E+00 0.  1.
       -3    1    3    3    0  502 -0.10238299916E+04 -0.16176492933E+03  0.21892223930E+04  0.24222077616E+04  0.10100000352E+00 0. -1.
</event>
<event>
 5   0  0.1442864E-06  0.3532550E+04  0.7818609E-02  0.8106119E-01
       -2   -1    0    0    0  501  0.00000000000E+00  0.00000000000E+00  0.16394909310E+04  0.16394909310E+04  0.25500000920E-02 0.  1.
        2   -1    0    0  501    0  0.00000000000E+00  0.00000000000E+00 -0.19028635557E+04  0.19028635557E+04  0.25500000920E-02 0. -1.
    10030    2    1    2    0    0  0.00000000000E+00  0.00000000000E+00 -0.26337262467E+03  0.35423544867E+04  0.35325500944E+04 0.  0.
        1    1    3    3  502    0  0.11877311763E+03 -0.15382944233E+04 -0.99388121999E+03  0.18352810863E+04  0.50400001928E-02 0. -1.
       -1    1    3    3    0  502 -0.11877311763E+03  0.15382944233E+04  0.73050859532E+03  0.17070734004E+04  0.50400001928E-02 0.  1.
</event>
<event>
 5   0  0.1378620E-06  0.2702498E+04  0.7818609E-02  0.8334195E-01
       -2   -1    0    0    0  501  0.00000000000E+00  0.00000000000E+00  0.61893647100E+03  0.61893647101E+03  0.25500000920E-02 0. -1.
        2   -1    0    0  501    0  0.00000000000E+00  0.00000000000E+00 -0.29500181013E+04  0.29500181013E+04  0.25500000920E-02 0.  1.
    10030    2    1    2    0    0  0.00000000000E+00  0.00000000000E+00 -0.23310816303E+04  0.35689545724E+04  0.27024979505E+04 0.  0.
        2    1    3    3  502    0 -0.57365160254E+03  0.14652519285E+03  0.43851671068E+03  0.73677859550E+03  0.25500000920E-02 0. -1.
       -2    1    3    3    0  502  0.57365160254E+03 -0.14652519285E+03 -0.27695983410E+04  0.28321759768E+04  0.25500000920E-02 0.  1.
</event>
<event>
 5   0  0.1387133E-06  0.3512319E+04  0.7818609E-02  0.8110877E-01
       -2   -1    0    0    0  501  0.00000000000E+00  0.00000000000E+00  0.14278668424E+04  0.14278668424E+04  0.25500000920E-02 0. -1.
        2   -1    0    0  501    0  0.00000000000E+00  0.00000000000E+00 -0.21599325396E+04  0.21599325396E+04  0.25500000920E-02 0.  1.
    10030    2    1    2    0    0  0.00000000000E+00  0.00000000000E+00 -0.73206569718E+03  0.35877993820E+04  0.35123189236E+04 0.  0.
        4    1    3    3  502    0  0.56182474277E+03  0.23656928894E+03 -0.20483879499E+04  0.21371726361E+04  0.12699999809E+01 0.  1.
       -4    1    3    3    0  502 -0.56182474277E+03 -0.23656928894E+03  0.13163222528E+04  0.14506267460E+04  0.12699999809E+01 0. -1.
</event>
<event>
 5   0  0.4591195E-07  0.3065151E+04  0.7818609E-02  0.8225368E-01
       -1   -1    0    0    0  501  0.00000000000E+00  0.00000000000E+00  0.14192171393E+04  0.14192171393E+04  0.50400001928E-02 0. -1.
        1   -1    0    0  501    0  0.00000000000E+00  0.00000000000E+00 -0.16549877003E+04  0.16549877003E+04  0.50400001928E-02 0.  1.
    10030    2    1    2    0    0  0.00000000000E+00  0.00000000000E+00 -0.23577056099E+03  0.30742048396E+04  0.30651505083E+04 0.  0.
        4    1    3    3  502    0  0.11983755489E+04  0.95512114975E+03 -0.13855999711E+03  0.15386880297E+04  0.12699999809E+01 0.  1.
       -4    1    3    3    0  502 -0.11983755489E+04 -0.95512114975E+03 -0.97210563871E+02  0.15355168099E+04  0.12699999809E+01 0. -1.
</event>
<event>
 5   0  0.4693374E-07  0.3220702E+04  0.7818609E-02  0.8183371E-01
        1   -1    0    0  501    0  0.00000000000E+00  0.00000000000E+00  0.18282326974E+04  0.18282326974E+04  0.50400001928E-02 0.  1.
       -1   -1    0    0    0  501  0.00000000000E+00  0.00000000000E+00 -0.14184353545E+04  0.14184353545E+04  0.50400001928E-02 0. -1.
    10030    2    1    2    0    0  0.00000000000E+00  0.00000000000E+00  0.40979734291E+03  0.32466680519E+04  0.32207017212E+04 0.  0.
        1    1    3    3  502    0 -0.45428577486E+03  0.14194850668E+04 -0.40986768177E+03  0.15457376674E+04  0.50400001928E-02 0.  1.
       -1    1    3    3    0  502  0.45428577486E+03 -0.14194850668E+04  0.81966502468E+03  0.17009303844E+04  0.50400001928E-02 0. -1.
</event>
<event>
 5   0  0.1387133E-06  0.3552294E+04  0.7818609E-02  0.8101507E-01
       -2   -1    0    0    0  501  0.00000000000E+00  0.00000000000E+00  0.12049904524E+04  0.12049904524E+04  0.25500000920E-02 0.  1.
        2   -1    0    0  501    0  0.00000000000E+00  0.00000000000E+00 -0.26180279545E+04  0.26180279545E+04  0.25500000920E-02 0. -1.
    10030    2    1    2    0    0  0.00000000000E+00  0.00000000000E+00 -0.14130375021E+04  0.38230184069E+04  0.35522942949E+04 0.  0.
        4    1    3    3  502    0  0.17354551087E+04  0.31673168984E+03 -0.92857757726E+03  0.19935850440E+04  0.12699999809E+01 0. -1.
       -4    1    3    3    0  502 -0.17354551087E+04 -0.31673168984E+03 -0.48445992485E+03  0.18294333629E+04  0.12699999809E+01 0.  1.
</event>
<event>
 5   0  0.1348388E-06  0.3484434E+04  0.7818609E-02  0.8117489E-01
        2   -1    0    0  501    0  0.00000000000E+00  0.00000000000E+00  0.22721117944E+04  0.22721117944E+04  0.25500000920E-02 0.  1.
       -2   -1    0    0    0  501  0.00000000000E+00  0.00000000000E+00 -0.13359025515E+04  0.13359025515E+04  0.25500000920E-02 0. -1.
    10030    2    1    2    0    0  0.00000000000E+00  0.00000000000E+00  0.93620924288E+03  0.36080143459E+04  0.34844339244E+04 0.  0.
        5    1    3    3  502    0  0.10552051768E+04 -0.53992401280E+03 -0.85402096500E+03  0.14609414100E+04  0.46999998093E+01 0. -1.
       -5    1    3    3    0  502 -0.10552051768E+04  0.53992401280E+03  0.17902302079E+04  0.21470729359E+04  0.46999998093E+01 0.  1.
</event>
<event>
 5   0  0.4557237E-07  0.3473416E+04  0.7818609E-02  0.8120119E-01
        1   -1    0    0  501    0  0.00000000000E+00  0.00000000000E+00  0.29990347302E+04  0.29990347302E+04  0.50400001928E-02 0. -1.
       -1   -1    0    0    0  501  0.00000000000E+00  0.00000000000E+00 -0.10057086104E+04  0.10057086104E+04  0.50400001928E-02 0.  1.
    10030    2    1    2    0    0  0.00000000000E+00  0.00000000000E+00  0.19933261198E+04  0.40047433406E+04  0.34734162153E+04 0.  0.
        2    1    3    3  502    0  0.86077262031E+02 -0.13576757134E+04  0.22413696715E+04  0.26219135459E+04  0.25500000920E-02 0. -1.
       -2    1    3    3    0  502 -0.86077262031E+02  0.13576757134E+04 -0.24804355171E+03  0.13828297948E+04  0.25500000920E-02 0.  1.
</event>
<event>
 5   0  0.4700769E-07  0.3322373E+04  0.7818609E-02  0.8157226E-01
        1   -1    0    0  501    0  0.00000000000E+00  0.00000000000E+00  0.16194471806E+04  0.16194471806E+04  0.50400001928E-02 0. -1.
       -1   -1    0    0    0  501  0.00000000000E+00  0.00000000000E+00 -0.17040011134E+04  0.17040011134E+04  0.50400001928E-02 0.  1.
    10030    2    1    2    0    0  0.00000000000E+00  0.00000000000E+00 -0.84553932876E+02  0.33234482940E+04  0.33223725251E+04 0.  0.
        3    1    3    3  502    0  0.53931355588E+01  0.15219390640E+04 -0.70823436348E+03  0.16786671869E+04  0.10100000352E+00 0.  1.
       -3    1    3    3    0  502 -0.53931355588E+01 -0.15219390640E+04  0.62368043060E+03  0.16447811071E+04  0.10100000352E+00 0. -1.
</event>
<event>
 5   0  0.1378620E-06  0.3637455E+04  0.7818609E-02  0.8081966E-01
       -2   -1    0    0    0  501  0.00000000000E+00  0.00000000000E+00  0.20842506824E+04  0.20842506824E+04  0.25500000920E-02 0. -1.
        2   -1    0    0  501    0  0.00000000000E+00  0.00000000000E+00 -0.15870308600E+04  0.15870308600E+04  0.25500000920E-02 0.  1.
    10030    2    1    2    0    0  0.00000000000E+00  0.00000000000E+00  0.49721982238E+03  0.36712815424E+04  0.36374552385E+04 0.  0.
        2    1    3    3  502    0  0.12679838584E+04  0.11122115248E+04  0.93535835379E+03  0.19286505104E+04  0.25500000920E-02 0. -1.
       -2    1    3    3    0  502 -0.12679838584E+04 -0.11122115248E+04 -0.43813853141E+03  0.17426310321E+04  0.25500000920E-02 0.  1.
</event>
<event>
 5   0  0.1387133E-06  0.3461308E+04  0.7818609E-02  0.8123021E-01
        2   -1    0    0  501    0  0.00000000000E+00  0.00000000000E+00  0.17235818275E+04  0.17235818275E+04  0.25500000920E-02 0. -1.
       -2   -1    0    0    0  501  0.00000000000E+00  0.00000000000E+00 -0.17377555877E+04  0.17377555877E+04  0.25500000920E-02 0.  1.
    10030    2    1    2    0    0  0.00000000000E+00  0.00000000000E+00 -0.14173760133E+02  0.34613374152E+04  0.34613083952E+04 0.  0.
        4    1    3    3  502    0  0.80985873330E+03 -0.22337840393E+03 -0.15201736749E+04  0.17368646159E+04  0.12699999809E+01 0.  1.
       -4    1    3    3    0  502 -0.80985873330E+03  0.22337840393E+03  0.15059999148E+04  0.17244727993E+04  0.12699999809E+01 0. -1.
</event>
<event>
 5   0  0.4693374E-07  0.3488325E+04  0.7818609E-02  0.8116562E-01
        1   -1    0    0  501    0  0.00000000000E+00  0.00000000000E+00  0.23460530168E+04  0.23460530168E+04  0.50400001928E-02 0.  1.
       -1   -1    0    0    0  501  0.00000000000E+00  0.00000000000E+00 -0.12966897949E+04  0.12966897949E+04  0.50400001928E-02 0. -1.
    10030    2    1    2    0    0  0.00000000000E+00  0.00000000000E+00  0.10493632219E+04  0.36427428117E+04  0.34883251025E+04 0.  0.
        1    1    3    3  502    0  0.24940895062E+03  0.16573216151E+04  0.20414983619E+02  0.16761075538E+04  0.50400001928E-02 0. -1.
       -1    1    3    3    0  502 -0.24940895062E+03 -0.16573216151E+04  0.10289482383E+04  0.19666352579E+04  0.50400001928E-02 0.  1.
</event>
<event>
 5   0  0.4693374E-07  0.3482018E+04  0.7818609E-02  0.8118065E-01
        1   -1    0    0  501    0  0.00000000000E+00  0.00000000000E+00  0.18332860307E+04  0.18332860308E+04  0.50400001928E-02 0. -1.
       -1   -1    0    0    0  501  0.00000000000E+00  0.00000000000E+00 -0.16533763116E+04  0.16533763116E+04  0.50400001928E-02 0.  1.
    10030    2    1    2    0    0  0.00000000000E+00  0.00000000000E+00  0.17990971917E+03  0.34866623423E+04  0.34820176310E+04 0.  0.
        1    1    3    3  502    0  0.88636949371E+03 -0.71726895659E+03  0.14073792834E+04  0.18113094939E+04  0.50400001928E-02 0. -1.
       -1    1    3    3    0  502 -0.88636949371E+03  0.71726895659E+03 -0.12274695642E+04  0.16753528484E+04  0.50400001928E-02 0.  1.
</event>
<event>
 5   0  0.1361560E-06  0.3539302E+04  0.7818609E-02  0.8104538E-01
        2   -1    0    0  501    0  0.00000000000E+00  0.00000000000E+00  0.16627599902E+04  0.16627599902E+04  0.25500000920E-02 0.  1.
       -2   -1    0    0    0  501  0.00000000000E+00  0.00000000000E+00 -0.18834137341E+04  0.18834137341E+04  0.25500000920E-02 0. -1.
    10030    2    1    2    0    0  0.00000000000E+00  0.00000000000E+00 -0.22065374387E+03  0.35461737243E+04  0.35393021923E+04 0.  0.
        3    1    3    3  502    0  0.55451916837E+03 -0.14150321669E+03 -0.17881377589E+04  0.18774853723E+04  0.10100000352E+00 0. -1.
       -3    1    3    3    0  502 -0.55451916837E+03  0.14150321669E+03  0.15674840150E+04  0.16686883520E+04  0.10100000352E+00 0.  1.
</event>
<event>
 5   0  0.4591195E-07  0.3083767E+04  0.7818609E-02  0.8220207E-01
        1   -1    0    0  501    0  0.00000000000E+00  0.00000000000E+00  0.14784495441E+04  0.14784495441E+04  0.50400001928E-02 0.  1.
       -1   -1    0    0    0  501  0.00000000000E+00  0.00000000000E+00 -0.16080389945E+04  0.16080389945E+04  0.50400001928E-02 0. -1.
    10030    2    1    2    0    0  0.00000000000E+00  0.00000000000E+00 -0.12958945045E+03  0.30864885386E+04  0.30837668643E+04 0.  0.
        4    1    3    3  502    0 -0.19569881478E+03 -0.79229247913E+03 -0.13741455944E+04  0.15982187354E+04  0.12699999809E+01 0. -1.
       -4    1    3    3    0  502  0.19569881478E+03  0.79229247913E+03  0.12445561440E+04  0.14882698032E+04  0.12699999809E+01 0.  1.
</event>
<event>
 5   0  0.4700769E-07  0.3610698E+04  0.7818609E-02  0.8088046E-01
       -1   -1    0    0    0  501  0.00000000000E+00  0.00000000000E+00  0.19367482726E+04  0.19367482726E+04  0.50400001928E-02 0. -1.
        1   -1    0    0  501    0  0.00000000000E+00  0.00000000000E+00 -0.16828645750E+04  0.16828645750E+04  0.50400001928E-02 0.  1.
    10030    2    1    2    0    0  0.00000000000E+00  0.00000000000E+00  0.25388369752E+03  0.36196128476E+04  0.36106980260E+04 0.  0.
        3    1    3    3  502    0 -0.97605399437E+03 -0.14434782845E+04 -0.34642534181E+03  0.17766039191E+04  0.10100000352E+00 0.  1.
       -3    1    3    3    0  502  0.97605399437E+03  0.14434782845E+04  0.60030903933E+03  0.18430089285E+04  0.10100000352E+00 0. -1.
</event>
<event>
 5   0  0.4693374E-07  0.2597806E+04  0.7818609E-02  0.8368947E-01
        1   -1    0    0  501    0  0.00000000000E+00  0.00000000000E+00  0.18945725890E+04  0.18945725890E+04  0.50400001928E-02 0.  1.
       -1   -1    0    0    0  501  0.00000000000E+00  0.00000000000E+00 -0.89051697001E+03  0.89051697002E+03  0.50400001928E-02 0. -1.
    10030    2    1    2    0    0  0.00000000000E+00  0.00000000000E+00  0.10040556190E+04  0.27850895590E+04  0.25978060293E+04 0.  0.
        1    1    3    3  502    0  0.27317869096E+03 -0.24421217927E+03  0.18380134565E+04  0.18741823956E+04  0.50400001928E-02 0.  1.
       -1    1    3    3    0  502 -0.27317869096E+03  0.24421217927E+03 -0.83395783748E+03  0.91090716345E+03  0.50400001928E-02 0. -1.
</event>
<event>
 5   0  0.4700769E-07  0.3733447E+04  0.7818609E-02  0.8060590E-01
        1   -1    0    0  501    0  0.00000000000E+00  0.00000000000E+00  0.19246910332E+04  0.19246910332E+04  0.50400001928E-02 0.  1.
       -1   -1    0    0    0  501  0.00000000000E+00  0.00000000000E+00 -0.18105014851E+04  0.18105014851E+04  0.50400001928E-02 0. -1.
    10030    2    1    2    0    0  0.00000000000E+00  0.00000000000E+00  0.11418954809E+03  0.37351925182E+04  0.37334466509E+04 0.  0.
        3    1    3    3  502    0 -0.32159250575E+03  0.18343765785E+04 -0.70623812901E+02  0.18636917408E+04  0.10100000352E+00 0.  1.
       -3    1    3    3    0  502  0.32159250575E+03 -0.18343765785E+04  0.18481336100E+03  0.18715007775E+04  0.10100000352E+00 0. -1.
</event>
<event>
 5   0  0.1348388E-06  0.3511529E+04  0.7818609E-02  0.8111063E-01
        2   -1    0    0  501    0  0.00000000000E+00  0.00000000000E+00  0.20908761944E+04  0.20908761944E+04  0.25500000920E-02 0. -1.
       -2   -1    0    0    0  501  0.00000000000E+00  0.00000000000E+00 -0.14743626595E+04  0.14743626595E+04  0.25500000920E-02 0.  1.
    10030    2    1    2    0    0  0.00000000000E+00  0.00000000000E+00  0.61651353493E+03  0.35652388539E+04  0.35115294597E+04 0.  0.
        5    1    3    3  502    0  0.12226256378E+04  0.10965151543E+04  0.93866330296E+03  0.18916315233E+04  0.46999998093E+01 0. -1.
       -5    1    3    3    0  502 -0.12226256378E+04 -0.10965151543E+04 -0.32214976803E+03  0.16736073305E+04  0.46999998093E+01 0.  1.
</event>
<event>
 5   0  0.4591195E-07  0.3511631E+04  0.7818609E-02  0.8111039E-01
       -1   -1    0    0    0  501  0.00000000000E+00  0.00000000000E+00  0.12696405645E+04  0.12696405645E+04  0.50400001928E-02 0.  1.
        1   -1    0    0  501    0  0.00000000000E+00  0.00000000000E+00 -0.24281587231E+04  0.24281587231E+04  0.50400001928E-02 0. -1.
    10030    2    1    2    0    0  0.00000000000E+00  0.00000000000E+00 -0.11585181586E+04  0.36977992875E+04  0.35116314224E+04 0.  0.
        4    1    3    3  502    0 -0.77278878012E+03 -0.55554323080E+03 -0.21329665357E+04  0.23356751990E+04  0.12699999809E+01 0. -1.
       -4    1    3    3    0  502  0.77278878012E+03  0.55554323080E+03  0.97444837711E+03  0.13621240885E+04  0.12699999809E+01 0.  1.
</event>
<event>
 5   0  0.4693374E-07  0.3483266E+04  0.7818609E-02  0.8117767E-01
        1   -1    0    0  501    0  0.00000000000E+00  0.00000000000E+00  0.12580630633E+04  0.12580630633E+04  0.50400001928E-02 0.  1.
       -1   -1    0    0    0  501  0.00000000000E+00  0.00000000000E+00 -0.24110758794E+04  0.24110758794E+04  0.50400001928E-02 0. -1.
    10030    2    1    2    0    0  0.00000000000E+00  0.00000000000E+00 -0.11530128161E+04  0.36691389428E+04  0.34832660001E+04 0.  0.
        1    1    3    3  502    0  0.55508776380E+02  0.17397461396E+04 -0.63871410185E+03  0.18541180002E+04  0.50400001928E-02 0. -1.
       -1    1    3    3    0  502 -0.55508776380E+02 -0.17397461396E+04 -0.51429871426E+03  0.18150209426E+04  0.50400001928E-02 0.  1.
</event>
<event>
 5   0  0.4700769E-07  0.3477138E+04  0.7818609E-02  0.8119229E-01
       -1   -1    0    0    0  501  0.00000000000E+00  0.00000000000E+00  0.27277745922E+04  0.27277745922E+04  0.50400001928E-02 0.  1.
        1   -1    0    0  501    0  0.00000000000E+00  0.00000000000E+00 -0.11080911650E+04  0.11080911650E+04  0.50400001928E-02 0. -1.
    10030    2    1    2    0    0  0.00000000000E+00  0.00000000000E+00  0.16196834272E+04  0.38358657571E+04  0.34771384359E+04 0.  0.
        3    1    3    3  502    0  0.80475497949E+03  0.55798059185E+03  0.23945868911E+04  0.25870870312E+04  0.10100000352E+00 0.  1.
       -3    1    3    3    0  502 -0.80475497949E+03 -0.55798059185E+03 -0.77490346385E+03  0.12487787259E+04  0.10100000352E+00 0. -1.
</event>
<event>
 5   0  0.1348388E-06  0.3507318E+04  0.7818609E-02  0.8112058E-01
       -2   -1    0    0    0  501  0.00000000000E+00  0.00000000000E+00  0.12268952697E+04  0.12268952697E+04  0.25500000920E-02 0. -1.
        2   -1    0    0  501    0  0.00000000000E+00  0.00000000000E+00 -0.25065870458E+04  0.25065870458E+04  0.25500000920E-02 0.  1.
    10030    2    1    2    0    0  0.00000000000E+00  0.00000000000E+00 -0.12796917762E+04  0.37334823155E+04  0.35073179437E+04 0.  0.
        5    1    3    3  502    0  0.34644028648E+03  0.11995091287E+04 -0.19506979422E+04  0.23160499937E+04  0.46999998093E+01 0.  1.
       -5    1    3    3    0  502 -0.34644028648E+03 -0.11995091287E+04  0.67100616600E+03  0.14174323218E+04  0.46999998093E+01 0. -1.
</event>
<event>
 5   0  0.1387133E-06  0.3020272E+04  0.7818609E-02  0.8237966E-01
       -2   -1    0    0    0  501  0.00000000000E+00  0.00000000000E+00  0.11359097590E+04  0.11359097590E+04  0.25500000920E-02 0. -1.
        2   -1    0    0  501    0  0.00000000000E+00  0.00000000000E+00 -0.20076509361E+04  0.20076509361E+04  0.25500000920E-02 0.  1.
    10030    2    1    2    0    0  0.00000000000E+00  0.00000000000E+00 -0.87174117711E+03  0.31435606951E+04  0.30202717036E+04 0.  0.
        4    1    3    3  502    0 -0.11235179386E+04  0.10014217767E+04 -0.56490943443E+03  0.16075641247E+04  0.12699999809E+01 0.  1.
       -4    1    3    3    0  502  0.11235179386E+04 -0.10014217767E+04 -0.30683174268E+03  0.15359965704E+04  0.12699999809E+01 0. -1.
</event>
<event>
 5   0  0.4409125E-07  0.3475607E+04  0.7818609E-02  0.8119595E-01
       -1   -1    0    0    0  501  0.00000000000E+00  0.00000000000E+00  0.18225989949E+04  0.18225989949E+04  0.50400001928E-02 0.  1.
        1   -1    0    0  501    0  0.00000000000E+00  0.00000000000E+00 -0.16569531098E+04  0.16569531098E+04  0.50400001928E-02 0. -1.
    10030    2    1    2    0    0  0.00000000000E+00  0.00000000000E+00  0.16564588512E+03  0.34795521048E+04  0.34756070391E+04 0.  0.
        5    1    3    3  502    0  0.72509936299E+03  0.61204893440E+03  0.15403483972E+04  0.18091623086E+04  0.46999998093E+01 0.  1.
       -5    1    3    3    0  502 -0.72509936299E+03 -0.61204893440E+03 -0.13747025121E+04  0.16703897961E+04  0.46999998093E+01 0. -1.
</event>
<event>
 5   0  0.1387133E-06  0.3374151E+04  0.7818609E-02  0.8144280E-01
        2   -1    0    0  501    0  0.00000000000E+00  0.00000000000E+00  0.23020791969E+04  0.23020791969E+04  0.25500000920E-02 0.  1.
       -2   -1    0    0    0  501  0.00000000000E+00  0.00000000000E+00 -0.12363711615E+04  0.12363711615E+04  0.25500000920E-02 0. -1.
    10030    2    1    2    0    0  0.00000000000E+00  0.00000000000E+00  0.10657080354E+04  0.35384503585E+04  0.33741513485E+04 0.  0.
        4    1    3    3  502    0  0.73329222980E+03  0.76380445649E+03 -0.84453523380E+03  0.13543840357E+04  0.12699999809E+01 0. -1.
       -4    1    3    3    0  502 -0.73329222980E+03 -0.76380445649E+03  0.19102432692E+04  0.21840663228E+04  0.12699999809E+01 0.  1.
</event>
<event>
 5   0  0.4409125E-07  0.3554108E+04  0.7818609E-02  0.8101085E-01
        1   -1    0    0  501    0  0.00000000000E+00  0.00000000000E+00  0.24124252578E+04  0.24124252578E+04  0.50400001928E-02 0. -1.
       -1   -1    0    0    0  501  0.00000000000E+00  0.00000000000E+00 -0.13090235872E+04  0.13090235872E+04  0.50400001928E-02 0.  1.
    10030    2    1    2    0    0  0.00000000000E+00  0.00000000000E+00  0.11034016706E+04  0.37214488450E+04  0.35541083635E+04 0.  0.
        5    1    3    3  502    0  0.68622483499E+03 -0.78604843743E+03  0.20578726699E+04  0.23073011693E+04  0.46999998093E+01 0. -1.
       -5    1    3    3    0  502 -0.68622483499E+03  0.78604843743E+03 -0.95447099935E+03  0.14141476757E+04  0.46999998093E+01 0.  1.
</event>
<event>
 5   0  0.1378620E-06  0.3488403E+04  0.7818609E-02  0.8116544E-01
       -2   -1    0    0    0  501  0.00000000000E+00  0.00000000000E+00  0.11499764588E+04  0.11499764588E+04  0.25500000920E-02 0.  1.
        2   -1    0    0  501    0  0.00000000000E+00  0.00000000000E+00 -0.26454794482E+04  0.26454794482E+04  0.25500000920E-02 0. -1.
    10030    2    1    2    0    0  0.00000000000E+00  0.00000000000E+00 -0.14955029893E+04  0.37954559070E+04  0.34884031233E+04 0.  0.
        2    1    3    3  502    0 -0.25585813431E+03  0.63518268239E+03 -0.24931076769E+04  0.25854412222E+04  0.25500000920E-02 0. -1.
       -2    1    3    3    0  502  0.25585813431E+03 -0.63518268239E+03  0.99760468752E+03  0.12100146848E+04  0.25500000920E-02 0.  1.
</event>
<event>
 5   0  0.1442864E-06  0.3411980E+04  0.7818609E-02  0.8134972E-01
       -2   -1    0    0    0  501  0.00000000000E+00  0.00000000000E+00  0.14678471989E+04  0.14678471989E+04  0.25500000920E-02 0. -1.
        2   -1    0    0  501    0  0.00000000000E+00  0.00000000000E+00 -0.19827694273E+04  0.19827694273E+04  0.25500000920E-02 0.  1.
    10030    2    1    2    0    0  0.00000000000E+00  0.00000000000E+00 -0.51492222840E+03  0.34506166261E+04  0.34119803926E+04 0.  0.
        1    1    3    3  502    0  0.37745008055E+03  0.86335778984E+03 -0.16957281562E+04  0.19399353640E+04  0.50400001928E-02 0.  1.
       -1    1    3    3    0  502 -0.37745008055E+03 -0.86335778984E+03  0.11808059278E+04  0.15106812621E+04  0.50400001928E-02 0. -1.
</event>
<event>
 5   0  0.4591195E-07  0.3447977E+04  0.7818609E-02  0.8126231E-01
        1   -1    0    0  501    0  0.00000000000E+00  0.00000000000E+00  0.12961204294E+04  0.12961204294E+04  0.50400001928E-02 0. -1.
       -1   -1    0    0    0  501  0.00000000000E+00  0.00000000000E+00 -0.22931016904E+04  0.22931016904E+04  0.50400001928E-02 0.  1.
    10030    2    1    2    0    0  0.00000000000E+00  0.00000000000E+00 -0.99698126100E+03  0.35892221198E+04  0.34479767677E+04 0.  0.
        4    1    3    3  502    0  0.67389467698E+03 -0.18817859396E+03 -0.21386589844E+04  0.22502020095E+04  0.12699999809E+01 0.  1.
       -4    1    3    3    0  502 -0.67389467698E+03  0.18817859396E+03  0.11416777234E+04  0.13390201104E+04  0.12699999809E+01 0. -1.
</event>
<event>
 5   0  0.1442864E-06  0.3501749E+04  0.7818609E-02  0.8113376E-01
       -2   -1    0    0    0  501  0.00000000000E+00  0.00000000000E+00  0.13162690223E+04  0.13162690223E+04  0.25500000920E-02 0.  1.
        2   -1    0    0  501    0  0.00000000000E+00  0.00000000000E+00 -0.23289778764E+04  0.23289778764E+04  0.25500000920E-02 0. -1.
    10030    2    1    2    0    0  0.00000000000E+00  0.00000000000E+00 -0.10127088541E+04  0.36452468987E+04  0.35017489529E+04 0.  0.
        1    1    3    3  502    0  0.17146048005E+03  0.25798082230E+03  0.12875179817E+04  0.13242565288E+04  0.50400001928E-02 0.  1.
       -1    1    3    3    0  502 -0.17146048005E+03 -0.25798082230E+03 -0.23002268358E+04  0.23209903699E+04  0.50400001928E-02 0. -1.
</event>
<event>
 5   0  0.4557237E-07  0.3567899E+04  0.7818609E-02  0.8097885E-01
       -1   -1    0    0    0  501  0.00000000000E+00  0.00000000000E+00  0.23295328979E+04  0.23295328979E+04  0.50400001928E-02 0. -1.
        1   -1    0    0  501    0  0.00000000000E+00  0.00000000000E+00 -0.13661435100E+04  0.13661435100E+04  0.50400001928E-02 0.  1.
    10030    2    1    2    0    0  0.00000000000E+00  0.00000000000E+00  0.96338938795E+03  0.36956764079E+04  0.35678992417E+04 0.  0.
        2    1    3    3  502    0  0.46145652823E+03 -0.49763418943E+03 -0.12272066336E+04  0.14023615923E+04  0.25500000920E-02 0.  1.
       -2    1    3    3    0  502 -0.46145652823E+03  0.49763418943E+03  0.21905960215E+04  0.22933148156E+04  0.25500000920E-02 0. -1.
</event>
<event>
 5   0  0.1387133E-06  0.3500818E+04  0.7818609E-02  0.8113596E-01
        2   -1    0    0  501    0  0.00000000000E+00  0.00000000000E+00  0.17452915933E+04  0.17452915933E+04  0.25500000920E-02 0.  1.
       -2   -1    0    0    0  501  0.00000000000E+00  0.00000000000E+00 -0.17555418439E+04  0.17555418439E+04  0.25500000920E-02 0. -1.
    10030    2    1    2    0    0  0.00000000000E+00  0.00000000000E+00 -0.10250250626E+02  0.35008334372E+04  0.35008184311E+04 0.  0.
        4    1    3    3  502    0 -0.64736486920E+03  0.13821159938E+04 -0.86221975984E+03  0.17529262453E+04  0.12699999809E+01 0. -1.
       -4    1    3    3    0  502  0.64736486920E+03 -0.13821159938E+04  0.85196950921E+03  0.17479071920E+04  0.12699999809E+01 0.  1.
</event>
<event>
 5   0  0.1361560E-06  0.3137722E+04  0.7818609E-02  0.8205461E-01
        2   -1    0    0  501    0  0.00000000000E+00  0.00000000000E+00  0.23338532502E+04  0.23338532502E+04  0.25500000920E-02 0. -1.
       -2   -1    0    0    0  501  0.00000000000E+00  0.00000000000E+00 -0.10546186303E+04  0.10546186303E+04  0.25500000920E-02 0.  1.
    10030    2    1    2    0    0  0.00000000000E+00  0.00000000000E+00  0.12792346199E+04  0.33884718806E+04  0.31377221790E+04 0.  0.
        3    1    3    3  502    0  0.20042444055E+03  0.58767008444E+03  0.21955186330E+04  0.22816284015E+04  0.10100000352E+00 0. -1.
       -3    1    3    3    0  502 -0.20042444055E+03 -0.58767008444E+03 -0.91628401305E+03  0.11068434791E+04  0.10100000352E+00 0.  1.
</event>
<event>
 5   0  0.4557237E-07  0.3495699E+04  0.7818609E-02  0.8114810E-01
       -1   -1    0    0    0  501  0.00000000000E+00  0.00000000000E+00  0.16638364002E+04  0.16638364002E+04  0.50400001928E-02 0.  1.
        1   -1    0    0  501    0  0.00000000000E+00  0.00000000000E+00 -0.18361047249E+04  0.18361047249E+04  0.50400001928E-02 0. -1.
    10030    2    1    2    0    0  0.00000000000E+00  0.00000000000E+00 -0.17226832465E+03  0.34999411251E+04  0.34956990007E+04 0.  0.
        2    1    3    3  502    0 -0.39803444179E+03  0.15207721810E+04  0.67886008749E+03  0.17123172784E+04  0.25500000920E-02 0.  1.
       -2    1    3    3    0  502  0.39803444179E+03 -0.15207721810E+04 -0.85112841214E+03  0.17876238467E+04  0.25500000920E-02 0. -1.
</event>
<event>
 5   0  0.4591195E-07  0.3507420E+04  0.7818609E-02  0.8112034E-01
        1   -1    0    0  501    0  0.00000000000E+00  0.00000000000E+00  0.27833737833E+04  0.27833737833E+04  0.50400001928E-02 0.  1.
       -1   -1    0    0    0  501  0.00000000000E+00  0.00000000000E+00 -0.11049536234E+04  0.11049536234E+04  0.50400001928E-02 0. -1.
    10030    2    1    2    0    0  0.00000000000E+00  0.00000000000E+00  0.16784201600E+04  0.38883274067E+04  0.35074201043E+04 0.  0.
        4    1    3    3  502    0  0.10079861383E+03 -0.16321459535E+04  0.15416084592E+04  0.22473582332E+04  0.12699999809E+01 0. -1.
       -4    1    3    3    0  502 -0.10079861383E+03  0.16321459535E+04  0.13681170078E+03  0.16409691735E+04  0.12699999809E+01 0.  1.
</event>
<event>
 5   0  0.4700769E-07  0.2644866E+04  0.7818609E-02  0.8353119E-01
       -1   -1    0    0    0  501  0.00000000000E+00  0.00000000000E+00  0.15482162297E+04  0.15482162297E+04  0.50400001928E-02 0. -1.
        1   -1    0    0  501    0  0.00000000000E+00  0.00000000000E+00 -0.11295768018E+04  0.11295768018E+04  0.50400001928E-02 0.  1.
    10030    2    1    2    0    0  0.00000000000E+00  0.00000000000E+00  0.41863942797E+03  0.26777930315E+04  0.26448660739E+04 0.  0.
        3    1    3    3  502    0 -0.59183518263E+03 -0.11314324067E+04  0.55772729531E+03  0.13933656808E+04  0.10100000352E+00 0.  1.
       -3    1    3    3    0  502  0.59183518263E+03  0.11314324067E+04 -0.13908786734E+03  0.12844273507E+04  0.10100000352E+00 0. -1.
</event>
<event>
 5   0  0.4700769E-07  0.3481946E+04  0.7818609E-02  0.8118082E-01
       -1   -1    0    0    0  501  0.00000000000E+00  0.00000000000E+00  0.24971619154E+04  0.24971619154E+04  0.50400001928E-02 0. -1.
        1   -1    0    0  501    0  0.00000000000E+00  0.00000000000E+00 -0.12137729805E+04  0.12137729805E+04  0.50400001928E-02 0.  1.
    10030    2    1    2    0    0  0.00000000000E+00  0.00000000000E+00  0.12833889349E+04  0.37109348959E+04  0.34819463872E+04 0.  0.
        3    1    3    3  502    0  0.80199182947E+03 -0.10639901609E+03 -0.10012692480E+04  0.12872652261E+04  0.10100000352E+00 0.  1.
       -3    1    3    3    0  502 -0.80199182947E+03  0.10639901609E+03  0.22846581830E+04  0.24236696698E+04  0.10100000352E+00 0. -1.
</event>
<event>
 5   0  0.1361560E-06  0.3460088E+04  0.7818609E-02  0.8123314E-01
       -2   -1    0    0    0  501  0.00000000000E+00  0.00000000000E+00  0.92274328309E+03  0.92274328309E+03  0.25500000920E-02 0. -1.
        2   -1    0    0  501    0  0.00000000000E+00  0.00000000000E+00 -0.32436460596E+04  0.32436460596E+04  0.25500000920E-02 0.  1.
    10030    2    1    2    0    0  0.00000000000E+00  0.00000000000E+00 -0.23209027765E+04  0.41663893427E+04  0.34600882152E+04 0.  0.
        3    1    3    3  502    0 -0.35036979657E+03 -0.68232009691E+03 -0.30277170144E+04  0.31233619768E+04  0.10100000352E+00 0.  1.
       -3    1    3    3    0  502  0.35036979657E+03  0.68232009691E+03  0.70681423783E+03  0.10430273659E+04  0.10100000352E+00 0. -1.
</event>
<event>
 5   0  0.1348388E-06  0.3487724E+04  0.7818609E-02  0.8116705E-01
       -2   -1    0    0    0  501  0.00000000000E+00  0.00000000000E+00  0.14702139039E+04  0.14702139039E+04  0.25500000920E-02 0.  1.
        2   -1    0    0  501    0  0.00000000000E+00  0.00000000000E+00 -0.20684441668E+04  0.20684441668E+04  0.25500000920E-02 0. -1.
    10030    2    1    2    0    0  0.00000000000E+00  0.00000000000E+00 -0.59823026290E+03  0.35386580706E+04  0.34877244005E+04 0.  0.
        5    1    3    3  502    0  0.97922005831E+03 -0.19825722444E+03  0.11510426506E+04  0.15241716186E+04  0.46999998093E+01 0.  1.
       -5    1    3    3    0  502 -0.97922005831E+03  0.19825722444E+03 -0.17492729135E+04  0.20144864520E+04  0.46999998093E+01 0. -1.
</event>
<event>
 5   0  0.1378620E-06  0.3572193E+04  0.7818609E-02  0.8096891E-01
       -2   -1    0    0    0  501  0.00000000000E+00  0.00000000000E+00  0.14045680848E+04  0.14045680848E+04  0.25500000920E-02 0.  1.
        2   -1    0    0  501    0  0.00000000000E+00  0.00000000000E+00 -0.22712610612E+04  0.22712610612E+04  0.25500000920E-02 0. -1.
    10030    2    1    2    0    0  0.00000000000E+00  0.00000000000E+00 -0.86669297644E+03  0.36758291460E+04  0.35721930513E+04 0.  0.
        2    1    3    3  502    0  0.57641547765E+03  0.15959295045E+04 -0.10071025320E+04  0.19731957065E+04  0.25500000920E-02 0. -1.
       -2    1    3    3    0  502 -0.57641547765E+03 -0.15959295045E+04  0.14040955559E+03  0.17026334395E+04  0.25500000920E-02 0.  1.
</event>
<event>
 5   0  0.4700769E-07  0.3446738E+04  0.7818609E-02  0.8126530E-01
        1   -1    0    0  501    0  0.00000000000E+00  0.00000000000E+00  0.21691285573E+04  0.21691285573E+04  0.50400001928E-02 0.  1.
       -1   -1    0    0    0  501  0.00000000000E+00  0.00000000000E+00 -0.13692138436E+04  0.13692138436E+04  0.50400001928E-02 0. -1.
    10030    2    1    2    0    0  0.00000000000E+00  0.00000000000E+00  0.79991471370E+03  0.35383424008E+04  0.34467380806E+04 0.  0.
        3    1    3    3  502    0  0.79397657249E+03 -0.14999230873E+04  0.70764423696E+03  0.18387301166E+04  0.10100000352E+00 0.  1.
       -3    1    3    3    0  502 -0.79397657249E+03  0.14999230873E+04  0.92270476738E+02  0.16996122842E+04  0.10100000352E+00 0. -1.
</event>
<event>
 5   0  0.1378620E-06  0.3559921E+04  0.7818609E-02  0.8099735E-01
        2   -1    0    0  501    0  0.00000000000E+00  0.00000000000E+00  0.22275432277E+04  0.22275432277E+04  0.25500000920E-02 0.  1.
       -2   -1    0    0    0  501  0.00000000000E+00  0.00000000000E+00 -0.14223108180E+04  0.14223108180E+04  0.25500000920E-02 0. -1.
    10030    2    1    2    0    0  0.00000000000E+00  0.00000000000E+00  0.80523240966E+03  0.36498540457E+04  0.35599206903E+04 0.  0.
        2    1    3    3  502    0 -0.11461966831E+04  0.10314962593E+04 -0.50894988635E+03  0.16238169097E+04  0.25500000920E-02 0. -1.
       -2    1    3    3    0  502  0.11461966831E+04 -0.10314962593E+04  0.13141822960E+04  0.20260371360E+04  0.25500000920E-02 0.  1.
</event>
<event>
 5   0  0.4693374E-07  0.3471046E+04  0.7818609E-02  0.8120686E-01
        1   -1    0    0  501    0  0.00000000000E+00  0.00000000000E+00  0.22158259092E+04  0.22158259092E+04  0.50400001928E-02 0.  1.
       -1   -1    0    0    0  501  0.00000000000E+00  0.00000000000E+00 -0.13593303135E+04  0.13593303135E+04  0.50400001928E-02 0. -1.
    10030    2    1    2    0    0  0.00000000000E+00  0.00000000000E+00  0.85649559572E+03  0.35751562227E+04  0.34710455646E+04 0.  0.
        1    1    3    3  502    0 -0.14293247734E+02 -0.40411212629E+03  0.21666288815E+04  0.22040398403E+04  0.50400001928E-02 0.  1.
       -1    1    3    3    0  502  0.14293247734E+02  0.40411212629E+03 -0.13101332858E+04  0.13711163824E+04  0.50400001928E-02 0. -1.
</event>
<event>
 5   0  0.4409125E-07  0.3492057E+04  0.7818609E-02  0.8115675E-01
        1   -1    0    0  501    0  0.00000000000E+00  0.00000000000E+00  0.23077096511E+04  0.23077096511E+04  0.50400001928E-02 0. -1.
       -1   -1    0    0    0  501  0.00000000000E+00  0.00000000000E+00 -0.13210571693E+04  0.13210571693E+04  0.50400001928E-02 0.  1.
    10030    2    1    2    0    0  0.00000000000E+00  0.00000000000E+00  0.98665248176E+03  0.36287668204E+04  0.34920574906E+04 0.  0.
        5    1    3    3  502    0 -0.12469567789E+04 -0.52605729028E+03 -0.65301854335E+03  0.15026951750E+04  0.46999998093E+01 0.  1.
       -5    1    3    3    0  502  0.12469567789E+04  0.52605729028E+03  0.16396710251E+04  0.21260716454E+04  0.46999998093E+01 0. -1.
</event>
<event>
 5   0  0.1387133E-06  0.3321414E+04  0.7818609E-02  0.8157468E-01
        2   -1    0    0  501    0  0.00000000000E+00  0.00000000000E+00  0.16635805058E+04  0.16635805058E+04  0.25500000920E-02 0. -1.
       -2   -1    0    0    0  501  0.00000000000E+00  0.00000000000E+00 -0.16578383307E+04  0.16578383307E+04  0.25500000920E-02 0.  1.
    10030    2    1    2    0    0  0.00000000000E+00  0.00000000000E+00  0.57421751202E+01  0.33214188365E+04  0.33214138729E+04 0.  0.
        4    1    3    3  502    0 -0.44008322580E+03  0.15212129637E+04 -0.49731341544E+03  0.16598446833E+04  0.12699999809E+01 0.  1.
       -4    1    3    3    0  502  0.44008322580E+03 -0.15212129637E+04  0.50305559056E+03  0.16615741532E+04  0.12699999809E+01 0. -1.
</event>
<event>
 5   0  0.4700769E-07  0.3477043E+04  0.7818609E-02  0.8119252E-01
        1   -1    0    0  501    0  0.00000000000E+00  0.00000000000E+00  0.20595710519E+04  0.20595710519E+04  0.50400001928E-02 0.  1.
       -1   -1    0    0    0  501  0.00000000000E+00  0.00000000000E+00 -0.14675179614E+04  0.14675179614E+04  0.50400001928E-02 0. -1.
    10030    2    1    2    0    0  0.00000000000E+00  0.00000000000E+00  0.59205309055E+03  0.35270890133E+04  0.34770432908E+04 0.  0.
        3    1    3    3  502    0  0.62048153881E+03 -0.12964791473E+04 -0.69611117256E+03  0.15970054146E+04  0.10100000352E+00 0. -1.
       -3    1    3    3    0  502 -0.62048153881E+03  0.12964791473E+04  0.12881642631E+04  0.19300835988E+04  0.10100000352E+00 0.  1.
</event>
<event>
 5   0  0.4693374E-07  0.3455012E+04  0.7818609E-02  0.8124535E-01
       -1   -1    0    0    0  501  0.00000000000E+00  0.00000000000E+00  0.11730481580E+04  0.11730481580E+04  0.50400001928E-02 0. -1.
        1   -1    0    0  501    0  0.00000000000E+00  0.00000000000E+00 -0.25440356724E+04  0.25440356724E+04  0.50400001928E-02 0.  1.
    10030    2    1    2    0    0  0.00000000000E+00  0.00000000000E+00 -0.13709875144E+04  0.37170838304E+04  0.34550116407E+04 0.  0.
        1    1    3    3  502    0  0.11877116572E+04 -0.71379989199E+03 -0.17952957741E+04  0.22678748165E+04  0.50400001928E-02 0. -1.
       -1    1    3    3    0  502 -0.11877116572E+04  0.71379989199E+03  0.42430825976E+03  0.14492090139E+04  0.50400001928E-02 0.  1.
</event>
<event>
 5   0  0.4557237E-07  0.3540639E+04  0.7818609E-02  0.8104226E-01
       -1   -1    0    0    0  501  0.00000000000E+00  0.00000000000E+00  0.12952296746E+04  0.12952296746E+04  0.50400001928E-02 0.  1.
        1   -1    0    0  501    0  0.00000000000E+00  0.00000000000E+00 -0.24196717226E+04  0.24196717226E+04  0.50400001928E-02 0. -1.
    10030    2    1    2    0    0  0.00000000000E+00  0.00000000000E+00 -0.11244420479E+04  0.37149013972E+04  0.35406387096E+04 0.  0.
        2    1    3    3  502    0  0.14240250776E+04  0.69113032943E+03 -0.13940344806E+04  0.21092275095E+04  0.25500000920E-02 0. -1.
       -2    1    3    3    0  502 -0.14240250776E+04 -0.69113032943E+03  0.26959243268E+03  0.16056738877E+04  0.25500000920E-02 0.  1.
</event>
<event>
 5   0  0.4591195E-07  0.3522466E+04  0.7818609E-02  0.8108486E-01
       -1   -1    0    0    0  501  0.00000000000E+00  0.00000000000E+00  0.11071145471E+04  0.11071145471E+04  0.50400001928E-02 0. -1.
        1   -1    0    0  501    0  0.00000000000E+00  0.00000000000E+00 -0.28018254802E+04  0.28018254802E+04  0.50400001928E-02 0.  1.
    10030    2    1    2    0    0  0.00000000000E+00  0.00000000000E+00 -0.16947109331E+04  0.39089400273E+04  0.35224660382E+04 0.  0.
        4    1    3    3  502    0  0.11963029901E+04  0.61553946036E+03 -0.21086845235E+04  0.25013159944E+04  0.12699999809E+01 0.  1.
       -4    1    3    3    0  502 -0.11963029901E+04 -0.61553946036E+03  0.41397359040E+03  0.14076240329E+04  0.12699999809E+01 0. -1.
</event>
<event>
 5   0  0.4409125E-07  0.3484701E+04  0.7818609E-02  0.8117425E-01
       -3   -1    0    0    0  501  0.00000000000E+00  0.00000000000E+00  0.10535490897E+04  0.10535490946E+04  0.10100000352E+00 0.  1.
        3   -1    0    0  501    0  0.00000000000E+00  0.00000000000E+00 -0.28814848679E+04  0.28814848697E+04  0.10100000352E+00 0. -1.
    10030    2    1    2    0    0  0.00000000000E+00  0.00000000000E+00 -0.18279357782E+04  0.39350339643E+04  0.34847012914E+04 0.  0.
        1    1    3    3  502    0  0.17026890007E+04 -0.27179367777E+03 -0.63106413746E+03  0.18361001013E+04  0.50400001928E-02 0.  1.
       -1    1    3    3    0  502 -0.17026890007E+04  0.27179367777E+03 -0.11968716408E+04  0.20989338629E+04  0.50400001928E-02 0. -1.
</event>
<event>
 5   0  0.1442864E-06  0.3519485E+04  0.7818609E-02  0.8109188E-01
        2   -1    0    0  501    0  0.00000000000E+00  0.00000000000E+00  0.29175108470E+04  0.29175108470E+04  0.25500000920E-02 0.  1.
       -2   -1    0    0    0  501  0.00000000000E+00  0.00000000000E+00 -0.10614162811E+04  0.10614162811E+04  0.25500000920E-02 0. -1.
    10030    2    1    2    0    0  0.00000000000E+00  0.00000000000E+00  0.18560945659E+04  0.39789271282E+04  0.35194849131E+04 0.  0.
        1    1    3    3  502    0 -0.28226741752E+03  0.11691017140E+04  0.23803520885E+04  0.26669364031E+04  0.50400001928E-02 0.  1.
       -1    1    3    3    0  502  0.28226741752E+03 -0.11691017140E+04 -0.52425752261E+03  0.13119907251E+04  0.50400001928E-02 0. -1.
</event>
<event>
 5   0  0.4557237E-07  0.3311079E+04  0.7818609E-02  0.8160082E-01
        1   -1    0    0  501    0  0.00000000000E+00  0.00000000000E+00  0.20850769584E+04  0.20850769584E+04  0.50400001928E-02 0.  1.
       -1   -1    0    0    0  501  0.00000000000E+00  0.00000000000E+00 -0.13144893982E+04  0.13144893982E+04  0.50400001928E-02 0. -1.
    10030    2    1    2    0    0  0.00000000000E+00  0.00000000000E+00  0.77058756013E+03  0.33995663566E+04  0.33110793142E+04 0.  0.
        2    1    3    3  502    0  0.86459497193E+03  0.54742555476E+03 -0.95087384562E+03  0.13969109756E+04  0.25500000920E-02 0. -1.
       -2    1    3    3    0  502 -0.86459497193E+03 -0.54742555476E+03  0.17214614057E+04  0.20026553810E+04  0.25500000920E-02 0.  1.
</event>
<event>
 5   0  0.1361560E-06  0.3474840E+04  0.7818609E-02  0.8119778E-01
       -2   -1    0    0    0  501  0.00000000000E+00  0.00000000000E+00  0.20880727891E+04  0.20880727891E+04  0.25500000920E-02 0.  1.
        2   -1    0    0  501    0  0.00000000000E+00  0.00000000000E+00 -0.14456529337E+04  0.14456529337E+04  0.25500000920E-02 0. -1.
    10030    2    1    2    0    0  0.00000000000E+00  0.00000000000E+00  0.64241985544E+03  0.35337257228E+04  0.34748401709E+04 0.  0.
        3    1    3    3  502    0 -0.80386531730E+02  0.15683417810E+04 -0.43466961687E+03  0.16294464160E+04  0.10100000352E+00 0. -1.
       -3    1    3    3    0  502  0.80386531730E+02 -0.15683417810E+04  0.10770894723E+04  0.19042793068E+04  0.10100000352E+00 0.  1.
</event>
<event>
 5   0  0.4591195E-07  0.3806193E+04  0.7818609E-02  0.8044827E-01
        1   -1    0    0  501    0  0.00000000000E+00  0.00000000000E+00  0.11822980898E+04  0.11822980898E+04  0.50400001928E-02 0.  1.
       -1   -1    0    0    0  501  0.00000000000E+00  0.00000000000E+00 -0.30633360976E+04  0.30633360976E+04  0.50400001928E-02 0. -1.
    10030    2    1    2    0    0  0.00000000000E+00  0.00000000000E+00 -0.18810380078E+04  0.42456341874E+04  0.38061930674E+04 0.  0.
        4    1    3    3  502    0  0.13872694302E+04 -0.34324191013E+03  0.46133821029E+03  0.15017210254E+04  0.12699999809E+01 0.  1.
       -4    1    3    3    0  502 -0.13872694302E+04  0.34324191013E+03 -0.23423762181E+04  0.27439131621E+04  0.12699999809E+01 0. -1.
</event>
<event>
 5   0  0.1442864E-06  0.3061601E+04  0.7818609E-02  0.8226356E-01
       -2   -1    0    0    0  501  0.00000000000E+00  0.00000000000E+00  0.17996391557E+04  0.17996391557E+04  0.25500000920E-02 0. -1.
        2   -1    0    0  501    0  0.00000000000E+00  0.00000000000E+00 -0.13021222781E+04  0.13021222781E+04  0.25500000920E-02 0.  1.
    10030    2    1    2    0    0  0.00000000000E+00  0.00000000000E+00  0.49751687767E+03  0.31017614338E+04  0.30616010434E+04 0.  0.
        1    1    3    3  502    0  0.37787245914E+03 -0.76788622093E+03 -0.10371080871E+04  0.13446300710E+04  0.50400001928E-02 0. -1.
       -1    1    3    3    0  502 -0.37787245914E+03  0.76788622093E+03  0.15346249647E+04  0.17571313628E+04  0.50400001928E-02 0.  1.
</event>
<event>
 5   0  0.4700769E-07  0.3546469E+04  0.7818609E-02  0.8102865E-01
        1   -1    0    0  501    0  0.00000000000E+00  0.00000000000E+00  0.24766952182E+04  0.24766952182E+04  0.50400001928E-02 0.  1.
       -1   -1    0    0    0  501  0.00000000000E+00  0.00000000000E+00 -0.12695790532E+04  0.12695790532E+04  0.50400001928E-02 0. -1.
    10030    2    1    2    0    0  0.00000000000E+00  0.00000000000E+00  0.12071161651E+04  0.37462742714E+04  0.35464688749E+04 0.  0.
        3    1    3    3  502    0  0.12430332774E+04  0.59302202299E+03 -0.57630879270E+03  0.14929630549E+04  0.10100000352E+00 0. -1.
       -3    1    3    3    0  502 -0.12430332774E+04 -0.59302202299E+03  0.17834249578E+04  0.22533112165E+04  0.10100000352E+00 0.  1.
</event>
<event>
 5   0  0.1387133E-06  0.3460250E+04  0.7818609E-02  0.8123275E-01
        2   -1    0    0  501    0  0.00000000000E+00  0.00000000000E+00  0.21415056363E+04  0.21415056363E+04  0.25500000920E-02 0.  1.
       -2   -1    0    0    0  501  0.00000000000E+00  0.00000000000E+00 -0.13977697604E+04  0.13977697604E+04  0.25500000920E-02 0. -1.
    10030    2    1    2    0    0  0.00000000000E+00  0.00000000000E+00  0.74373587593E+03  0.35392753967E+04  0.34602495980E+04 0.  0.
        4    1    3    3  502    0  0.73352217781E+02  0.53298629456E+03 -0.13100323968E+04  0.14162067051E+04  0.12699999809E+01 0. -1.
       -4    1    3    3    0  502 -0.73352217781E+02 -0.53298629456E+03  0.20537682727E+04  0.21230686916E+04  0.12699999809E+01 0.  1.
</event>
<event>
 5   0  0.1387133E-06  0.3502425E+04  0.7818609E-02  0.8113216E-01
        2   -1    0    0  501    0  0.00000000000E+00  0.00000000000E+00  0.27128172248E+04  0.27128172248E+04  0.25500000920E-02 0.  1.
       -2   -1    0    0    0  501  0.00000000000E+00  0.00000000000E+00 -0.11304649113E+04  0.11304649113E+04  0.25500000920E-02 0. -1.
    10030    2    1    2    0    0  0.00000000000E+00  0.00000000000E+00  0.15823523136E+04  0.38432821361E+04  0.35024246934E+04 0.  0.
        4    1    3    3  502    0  0.11376615689E+04 -0.93316485397E+03 -0.25080026732E+03  0.14926395670E+04  0.12699999809E+01 0. -1.
       -4    1    3    3    0  502 -0.11376615689E+04  0.93316485397E+03  0.18331525809E+04  0.23506425691E+04  0.12699999809E+01 0.  1.
</event>
<event>
 5   0  0.1348388E-06  0.3541120E+04  0.7818609E-02  0.8104114E-01
        2   -1    0    0  501    0  0.00000000000E+00  0.00000000000E+00  0.18442426864E+04  0.18442426864E+04  0.25500000920E-02 0.  1.
       -2   -1    0    0    0  501  0.00000000000E+00  0.00000000000E+00 -0.16998207157E+04  0.16998207157E+04  0.25500000920E-02 0. -1.
    10030    2    1    2    0    0  0.00000000000E+00  0.00000000000E+00  0.14442197071E+03  0.35440634021E+04  0.35411195536E+04 0.  0.
        5    1    3    3  502    0  0.52183243257E+03 -0.16690569617E+04  0.34956878514E+03  0.17833341399E+04  0.46999998093E+01 0.  1.
       -5    1    3    3    0  502 -0.52183243257E+03  0.16690569617E+04 -0.20514681442E+03  0.17607292622E+04  0.46999998093E+01 0. -1.
</event>
<event>
 5   0  0.1378620E-06  0.3540736E+04  0.7818609E-02  0.8104203E-01
       -2   -1    0    0    0  501  0.00000000000E+00  0.00000000000E+00  0.18922674928E+04  0.18922674928E+04  0.25500000920E-02 0. -1.
        2   -1    0    0  501    0  0.00000000000E+00  0.00000000000E+00 -0.16563210161E+04  0.16563210161E+04  0.25500000920E-02 0.  1.
    10030    2    1    2    0    0  0.00000000000E+00  0.00000000000E+00  0.23594647663E+03  0.35485885089E+04  0.35407357520E+04 0.  0.
        2    1    3    3  502    0 -0.11358089059E+04 -0.13184160126E+04 -0.20820172839E+03  0.17526068049E+04  0.25500000920E-02 0. -1.
       -2    1    3    3    0  502  0.11358089059E+04  0.13184160126E+04  0.44414820502E+03  0.17959817040E+04  0.25500000920E-02 0.  1.
</event>
<event>
 5   0  0.1361560E-06  0.3484065E+04  0.7818609E-02  0.8117577E-01
       -2   -1    0    0    0  501  0.00000000000E+00  0.00000000000E+00  0.11080835075E+04  0.11080835075E+04  0.25500000920E-02 0. -1.
        2   -1    0    0  501    0  0.00000000000E+00  0.00000000000E+00 -0.27386721740E+04  0.27386721740E+04  0.25500000920E-02 0.  1.
    10030    2    1    2    0    0  0.00000000000E+00  0.00000000000E+00 -0.16305886665E+04  0.38467556816E+04  0.34840651364E+04 0.  0.
        3    1    3    3  502    0 -0.20272271296E+03  0.17064516868E+04 -0.11306952848E+04  0.20570721171E+04  0.10100000352E+00 0. -1.
       -3    1    3    3    0  502  0.20272271296E+03 -0.17064516868E+04 -0.49989338173E+03  0.17896835645E+04  0.10100000352E+00 0.  1.
</event>
<event>
 5   0  0.1361560E-06  0.3501469E+04  0.7818609E-02  0.8113442E-01
        2   -1    0    0  501    0  0.00000000000E+00  0.00000000000E+00  0.28736430283E+04  0.28736430283E+04  0.25500000920E-02 0.  1.
       -2   -1    0    0    0  501  0.00000000000E+00  0.00000000000E+00 -0.10666150516E+04  0.10666150516E+04  0.25500000920E-02 0. -1.
    10030    2    1    2    0    0  0.00000000000E+00  0.00000000000E+00  0.18070279767E+04  0.39402580799E+04  0.35014687815E+04 0.  0.
        3    1    3    3  502    0 -0.33985903905E+03  0.92018895461E+03 -0.72831768258E+03  0.12217604248E+04  0.10100000352E+00 0. -1.
       -3    1    3    3    0  502  0.33985903905E+03 -0.92018895461E+03  0.25353456593E+04  0.27184976551E+04  0.10100000352E+00 0.  1.
</event>
<event>
 5   0  0.1378620E-06  0.3603984E+04  0.7818609E-02  0.8089580E-01
        2   -1    0    0  501    0  0.00000000000E+00  0.00000000000E+00  0.23815167341E+04  0.23815167341E+04  0.25500000920E-02 0. -1.
       -2   -1    0    0    0  501  0.00000000000E+00  0.00000000000E+00 -0.13634901593E+04  0.13634901593E+04  0.25500000920E-02 0.  1.
    10030    2    1    2    0    0  0.00000000000E+00  0.00000000000E+00  0.10180265748E+04  0.37450068934E+04  0.36039837020E+04 0.  0.
        2    1    3    3  502    0 -0.14655472570E+04 -0.10414013986E+04  0.38247391663E+03  0.18381055281E+04  0.25500000920E-02 0.  1.
       -2    1    3    3    0  502  0.14655472570E+04  0.10414013986E+04  0.63555265817E+03  0.19069013653E+04  0.25500000920E-02 0. -1.
</event>
<event>
 5   0  0.4409125E-07  0.3469773E+04  0.7818609E-02  0.8120991E-01
        4   -1    0    0  501    0  0.00000000000E+00  0.00000000000E+00  0.15028658015E+04  0.15028663381E+04  0.12699999809E+01 0.  1.
       -4   -1    0    0    0  501  0.00000000000E+00  0.00000000000E+00 -0.20027262142E+04  0.20027266169E+04  0.12699999809E+01 0. -1.
    10030    2    1    2    0    0  0.00000000000E+00  0.00000000000E+00 -0.49986041273E+03  0.35055929551E+04  0.34697725479E+04 0.  0.
        3    1    3    3  502    0 -0.40121066389E+03  0.27414983056E+03 -0.19325670725E+04  0.19927226667E+04  0.10100000352E+00 0. -1.
       -3    1    3    3    0  502  0.40121066389E+03 -0.27414983056E+03  0.14327066597E+04  0.15128702884E+04  0.10100000352E+00 0.  1.
</event>
<event>
 5   0  0.1361560E-06  0.3620454E+04  0.7818609E-02  0.8085822E-01
       -2   -1    0    0    0  501  0.00000000000E+00  0.00000000000E+00  0.16579549787E+04  0.16579549787E+04  0.25500000920E-02 0.  1.
        2   -1    0    0  501    0  0.00000000000E+00  0.00000000000E+00 -0.19764847029E+04  0.19764847029E+04  0.25500000920E-02 0. -1.
    10030    2    1    2    0    0  0.00000000000E+00  0.00000000000E+00 -0.31852972420E+03  0.36344396817E+04  0.36204544763E+04 0.  0.
        3    1    3    3  502    0  0.11653593044E+04 -0.58800126647E+02  0.12300620317E+04  0.16954563914E+04  0.10100000352E+00 0.  1.
       -3    1    3    3    0  502 -0.11653593044E+04  0.58800126647E+02 -0.15485917559E+04  0.19389832903E+04  0.10100000352E+00 0. -1.
</event>
<event>
 5   0  0.4693374E-07  0.3476612E+04  0.7818609E-02  0.8119355E-01
       -1   -1    0    0    0  501  0.00000000000E+00  0.00000000000E+00  0.15298615436E+04  0.15298615436E+04  0.50400001928E-02 0.  1.
        1   -1    0    0  501    0  0.00000000000E+00  0.00000000000E+00 -0.19751510685E+04  0.19751510685E+04  0.50400001928E-02 0. -1.
    10030    2    1    2    0    0  0.00000000000E+00  0.00000000000E+00 -0.44528952485E+03  0.35050126121E+04  0.34766119499E+04 0.  0.
        1    1    3    3  502    0 -0.67838997929E+03 -0.14211274016E+04  0.51950162658E+03  0.16582213349E+04  0.50400001928E-02 0.  1.
       -1    1    3    3    0  502  0.67838997929E+03  0.14211274016E+04 -0.96479115143E+03  0.18467912772E+04  0.50400001928E-02 0. -1.
</event>
<event>
 5   0  0.1442864E-06  0.3526448E+04  0.7818609E-02  0.8107550E-01
       -2   -1    0    0    0  501  0.00000000000E+00  0.00000000000E+00  0.15985025598E+04  0.15985025598E+04  0.25500000920E-02 0.  1.
        2   -1    0    0  501    0  0.00000000000E+00  0.00000000000E+00 -0.19449199147E+04  0.19449199147E+04  0.25500000920E-02 0. -1.
    10030    2    1    2    0    0  0.00000000000E+00  0.00000000000E+00 -0.34641735492E+03  0.35434224746E+04  0.35264483336E+04 0.  0.
        1    1    3    3  502    0  0.10840156012E+03  0.62038179055E+03  0.14816353771E+04  0.16099279037E+04  0.50400001928E-02 0.  1.
       -1    1    3    3    0  502 -0.10840156012E+03 -0.62038179055E+03 -0.18280527321E+04  0.19334945709E+04  0.50400001928E-02 0. -1.
</event>
<event>
 5   0  0.1378620E-06  0.2597618E+04  0.7818609E-02  0.8369011E-01
        2   -1    0    0  501    0  0.00000000000E+00  0.00000000000E+00  0.14031437021E+04  0.14031437021E+04  0.25500000920E-02 0. -1.
       -2   -1    0    0    0  501  0.00000000000E+00  0.00000000000E+00 -0.12022326727E+04  0.12022326727E+04  0.25500000920E-02 0.  1.
    10030    2    1    2    0    0  0.00000000000E+00  0.00000000000E+00  0.20091102939E+03  0.26053763748E+04  0.25976182962E+04 0.  0.
        2    1    3    3  502    0  0.51966427607E+02  0.12430927270E+04  0.47429536828E+03  0.13315164790E+04  0.25500000920E-02 0. -1.
       -2    1    3    3    0  502 -0.51966427607E+02 -0.12430927270E+04 -0.27338433888E+03  0.12738598958E+04  0.25500000920E-02 0.  1.
</event>
<event>
 5   0  0.4557237E-07  0.3611969E+04  0.7818609E-02  0.8087755E-01
       -1   -1    0    0    0  501  0.00000000000E+00  0.00000000000E+00  0.21399718533E+04  0.21399718533E+04  0.50400001928E-02 0. -1.
        1   -1    0    0  501    0  0.00000000000E+00  0.00000000000E+00 -0.15241230466E+04  0.15241230466E+04  0.50400001928E-02 0.  1.
    10030    2    1    2    0    0  0.00000000000E+00  0.00000000000E+00  0.61584880676E+03  0.36640948999E+04  0.36119692251E+04 0.  0.
        2    1    3    3  502    0 -0.84699616588E+03 -0.11869791254E+04  0.13887859035E+04  0.20137150332E+04  0.25500000920E-02 0. -1.
       -2    1    3    3    0  502  0.84699616588E+03  0.11869791254E+04 -0.77293709675E+03  0.16503798668E+04  0.25500000920E-02 0.  1.
</event>
<event>
 5   0  0.1348388E-06  0.3483111E+04  0.7818609E-02  0.8117804E-01
       -2   -1    0    0    0  501  0.00000000000E+00  0.00000000000E+00  0.35655962704E+04  0.35655962704E+04  0.25500000920E-02 0. -1.
        2   -1    0    0  501    0  0.00000000000E+00  0.00000000000E+00 -0.85063325427E+03  0.85063325428E+03  0.25500000920E-02 0.  1.
    10030    2    1    2    0    0  0.00000000000E+00  0.00000000000E+00  0.27149630161E+04  0.44162295247E+04  0.34831105403E+04 0.  0.
        5    1    3    3  502    0 -0.69527398063E+03 -0.86416733586E+02 -0.66405835621E+03  0.96533380259E+03  0.46999998093E+01 0.  1.
       -5    1    3    3    0  502  0.69527398063E+03  0.86416733586E+02  0.33790213723E+04  0.34508957221E+04  0.46999998093E+01 0. -1.
</event>
<event>
 5   0  0.4700769E-07  0.3472829E+04  0.7818609E-02  0.8120259E-01
       -1   -1    0    0    0  501  0.00000000000E+00  0.00000000000E+00  0.28588097790E+04  0.28588097791E+04  0.50400001928E-02 0. -1.
        1   -1    0    0  501    0  0.00000000000E+00  0.00000000000E+00 -0.10546822572E+04  0.10546822573E+04  0.50400001928E-02 0.  1.
    10030    2    1    2    0    0  0.00000000000E+00  0.00000000000E+00  0.18041275218E+04  0.39134920363E+04  0.34728293657E+04 0.  0.
        3    1    3    3  502    0  0.37012330163E+02 -0.16211997097E+04  0.20241423752E+03  0.16342062125E+04  0.10100000352E+00 0.  1.
       -3    1    3    3    0  502 -0.37012330163E+02  0.16211997097E+04  0.16017132843E+04  0.22792858238E+04  0.10100000352E+00 0. -1.
</event>
<event>
 5   0  0.4700769E-07  0.3512840E+04  0.7818609E-02  0.8110754E-01
        1   -1    0    0  501    0  0.00000000000E+00  0.00000000000E+00  0.28228613686E+04  0.28228613686E+04  0.50400001928E-02 0.  1.
       -1   -1    0    0    0  501  0.00000000000E+00  0.00000000000E+00 -0.10928666152E+04  0.10928666152E+04  0.50400001928E-02 0. -1.
    10030    2    1    2    0    0  0.00000000000E+00  0.00000000000E+00  0.17299947534E+04  0.39157279839E+04  0.35128398479E+04 0.  0.
        3    1    3    3  502    0 -0.23932401393E+03 -0.14086708544E+04 -0.27361448841E+03  0.14548176718E+04  0.10100000352E+00 0. -1.
       -3    1    3    3    0  502  0.23932401393E+03  0.14086708544E+04  0.20036092418E+04  0.24609103120E+04  0.10100000352E+00 0.  1.
</event>
<event>
 5   0  0.4591195E-07  0.3603655E+04  0.7818609E-02  0.8089655E-01
       -1   -1    0    0    0  501  0.00000000000E+00  0.00000000000E+00  0.12704002036E+04  0.12704002036E+04  0.50400001928E-02 0. -1.
        1   -1    0    0  501    0  0.00000000000E+00  0.00000000000E+00 -0.25555581597E+04  0.25555581597E+04  0.50400001928E-02 0.  1.
    10030    2    1    2    0    0  0.00000000000E+00  0.00000000000E+00 -0.12851579561E+04  0.38259583633E+04  0.36036545930E+04 0.  0.
        4    1    3    3  502    0 -0.65726240388E+03 -0.20676740094E+03 -0.24101653364E+04  0.25067200057E+04  0.12699999809E+01 0.  1.
       -4    1    3    3    0  502  0.65726240388E+03  0.20676740094E+03  0.11250073802E+04  0.13192383576E+04  0.12699999809E+01 0. -1.
</event>
<event>
 5   0  0.1387133E-06  0.3603519E+04  0.7818609E-02  0.8089686E-01
       -2   -1    0    0    0  501  0.00000000000E+00  0.00000000000E+00  0.24860759790E+04  0.24860759790E+04  0.25500000920E-02 0. -1.
        2   -1    0    0  501    0  0.00000000000E+00  0.00000000000E+00 -0.13058076305E+04  0.13058076305E+04  0.25500000920E-02 0.  1.
    10030    2    1    2    0    0  0.00000000000E+00  0.00000000000E+00  0.11802683485E+04  0.37918836095E+04  0.36035188265E+04 0.  0.
        4    1    3    3  502    0 -0.10130330984E+04 -0.69747234210E+03 -0.79536609898E+03  0.14646885576E+04  0.12699999809E+01 0.  1.
       -4    1    3    3    0  502  0.10130330984E+04  0.69747234210E+03  0.19756344475E+04  0.23271950519E+04  0.12699999809E+01 0. -1.
</event>
<event>
 5   0  0.1378620E-06  0.3454125E+04  0.7818609E-02  0.8124749E-01
       -2   -1    0    0    0  501  0.00000000000E+00  0.00000000000E+00  0.13321679017E+04  0.13321679017E+04  0.25500000920E-02 0. -1.
        2   -1    0    0  501    0  0.00000000000E+00  0.00000000000E+00 -0.22390159251E+04  0.22390159251E+04  0.25500000920E-02 0.  1.
    10030    2    1    2    0    0  0.00000000000E+00  0.00000000000E+00 -0.90684802345E+03  0.35711838268E+04  0.34541251552E+04 0.  0.
        2    1    3    3  502    0  0.84160574255E+02  0.13916978670E+04 -0.15072000024E+04  0.20531823598E+04  0.25500000920E-02 0.  1.
       -2    1    3    3    0  502 -0.84160574255E+02 -0.13916978670E+04  0.60035197892E+03  0.15180014671E+04  0.25500000920E-02 0. -1.
</event>
<event>
 5   0  0.1387133E-06  0.3532971E+04  0.7818609E-02  0.8106020E-01
       -2   -1    0    0    0  501  0.00000000000E+00  0.00000000000E+00  0.24009297329E+04  0.24009297329E+04  0.25500000920E-02 0. -1.
        2   -1    0    0  501    0  0.00000000000E+00  0.00000000000E+00 -0.12996930015E+04  0.12996930015E+04  0.25500000920E-02 0.  1.
    10030    2    1    2    0    0  0.00000000000E+00  0.00000000000E+00  0.11012367314E+04  0.37006227345E+04  0.35329713110E+04 0.  0.
        4    1    3    3  502    0 -0.25679295006E+03 -0.77434554774E+03  0.21917863927E+04  0.23386925515E+04  0.12699999809E+01 0. -1.
       -4    1    3    3    0  502  0.25679295006E+03  0.77434554774E+03 -0.10905496613E+04  0.13619301829E+04  0.12699999809E+01 0.  1.
</event>
<event>
 5   0  0.1442864E-06  0.3314255E+04  0.7818609E-02  0.8159278E-01
       -2   -1    0    0    0  501  0.00000000000E+00  0.00000000000E+00  0.13999540190E+04  0.13999540190E+04  0.25500000920E-02 0. -1.
        2   -1    0    0  501    0  0.00000000000E+00  0.00000000000E+00 -0.19615441497E+04  0.19615441497E+04  0.25500000920E-02 0.  1.
    10030    2    1    2    0    0  0.00000000000E+00  0.00000000000E+00 -0.56159013068E+03  0.33614981688E+04  0.33142550390E+04 0.  0.
        1    1    3    3  502    0  0.53019817408E+03 -0.15589299212E+04 -0.91863068464E+02  0.16491850794E+04  0.50400001928E-02 0. -1.
       -1    1    3    3    0  502 -0.53019817408E+03  0.15589299212E+04 -0.46972706222E+03  0.17123130893E+04  0.50400001928E-02 0.  1.
</event>
<event>
 5   0  0.1361560E-06  0.3483375E+04  0.7818609E-02  0.8117741E-01
        2   -1    0    0  501    0  0.00000000000E+00  0.00000000000E+00  0.16311677133E+04  0.16311677133E+04  0.25500000920E-02 0. -1.
       -2   -1    0    0    0  501  0.00000000000E+00  0.00000000000E+00 -0.18596959607E+04  0.18596959607E+04  0.25500000920E-02 0.  1.
    10030    2    1    2    0    0  0.00000000000E+00  0.00000000000E+00 -0.22852824742E+03  0.34908636739E+04  0.34833753789E+04 0.  0.
        3    1    3    3  502    0  0.11931905013E+04 -0.85709138234E+03  0.82325044443E+03  0.16840577527E+04  0.10100000352E+00 0. -1.
       -3    1    3    3    0  502 -0.11931905013E+04  0.85709138234E+03 -0.10517786918E+04  0.18068059212E+04  0.10100000352E+00 0.  1.
</event>
<event>
 5   0  0.4693374E-07  0.3514364E+04  0.7818609E-02  0.8110394E-01
       -1   -1    0    0    0  501  0.00000000000E+00  0.00000000000E+00  0.12388110187E+04  0.12388110187E+04  0.50400001928E-02 0.  1.
        1   -1    0    0  501    0  0.00000000000E+00  0.00000000000E+00 -0.24924612795E+04  0.24924612795E+04  0.50400001928E-02 0. -1.
    10030    2    1    2    0    0  0.00000000000E+00  0.00000000000E+00 -0.12536502608E+04  0.37312722983E+04  0.35143639521E+04 0.  0.
        1    1    3    3  502    0 -0.11353198448E+04  0.54308350822E+03  0.67515665688E+03  0.14281902388E+04  0.50400001928E-02 0.  1.
       -1    1    3    3    0  502  0.11353198448E+04 -0.54308350822E+03 -0.19288069177E+04  0.23030820595E+04  0.50400001928E-02 0. -1.
</event>
<event>
 5   0  0.1378620E-06  0.3206109E+04  0.7818609E-02  0.8187206E-01
        2   -1    0    0  501    0  0.00000000000E+00  0.00000000000E+00  0.17277957745E+04  0.17277957745E+04  0.25500000920E-02 0.  1.
       -2   -1    0    0    0  501  0.00000000000E+00  0.00000000000E+00 -0.14873190008E+04  0.14873190008E+04  0.25500000920E-02 0. -1.
    10030    2    1    2    0    0  0.00000000000E+00  0.00000000000E+00  0.24047677365E+03  0.32151147753E+04  0.32061088471E+04 0.  0.
        2    1    3    3  502    0 -0.86833306119E+03 -0.44283733971E+03 -0.11560015434E+04  0.15121001234E+04  0.25500000920E-02 0. -1.
       -2    1    3    3    0  502  0.86833306119E+03  0.44283733971E+03  0.13964783171E+04  0.17030146519E+04  0.25500000920E-02 0.  1.
</event>
<event>
 5   0  0.4591195E-07  0.3496883E+04  0.7818609E-02  0.8114529E-01
        1   -1    0    0  501    0  0.00000000000E+00  0.00000000000E+00  0.27020571823E+04  0.27020571823E+04  0.50400001928E-02 0. -1.
       -1   -1    0    0    0  501  0.00000000000E+00  0.00000000000E+00 -0.11313778750E+04  0.11313778750E+04  0.50400001928E-02 0.  1.
    10030    2    1    2    0    0  0.00000000000E+00  0.00000000000E+00  0.15706793073E+04  0.38334350572E+04  0.34968830194E+04 0.  0.
        4    1    3    3  502    0  0.14117521092E+02 -0.14085196383E+04  0.19208484934E+04  0.23819713313E+04  0.12699999809E+01 0. -1.
       -4    1    3    3    0  502 -0.14117521092E+02  0.14085196383E+04 -0.35016918612E+03  0.14514637259E+04  0.12699999809E+01 0.  1.
</event>
<event>
 5   0  0.1387133E-06  0.3493417E+04  0.7818609E-02  0.8115352E-01
       -2   -1    0    0    0  501  0.00000000000E+00  0.00000000000E+00  0.24967589581E+04  0.24967589581E+04  0.25500000920E-02 0.  1.
        2   -1    0    0  501    0  0.00000000000E+00  0.00000000000E+00 -0.12219805915E+04  0.12219805915E+04  0.25500000920E-02 0. -1.
    10030    2    1    2    0    0  0.00000000000E+00  0.00000000000E+00  0.12747783666E+04  0.37187395496E+04  0.34934172316E+04 0.  0.
        4    1    3    3  502    0  0.27520893713E+03  0.46203118744E+03 -0.11316586550E+04  0.12529428165E+04  0.12699999809E+01 0. -1.
       -4    1    3    3    0  502 -0.27520893713E+03 -0.46203118744E+03  0.24064370216E+04  0.24657967331E+04  0.12699999809E+01 0.  1.
</event>
<event>
 5   0  0.1387133E-06  0.3483071E+04  0.7818609E-02  0.8117814E-01
        2   -1    0    0  501    0  0.00000000000E+00  0.00000000000E+00  0.19304381555E+04  0.19304381555E+04  0.25500000920E-02 0. -1.
       -2   -1    0    0    0  501  0.00000000000E+00  0.00000000000E+00 -0.15711174900E+04  0.15711174900E+04  0.25500000920E-02 0.  1.
    10030    2    1    2    0    0  0.00000000000E+00  0.00000000000E+00  0.35932066556E+03  0.35015556455E+04  0.34830705703E+04 0.  0.
        4    1    3    3  502    0 -0.29839407435E+03  0.51247733783E+03 -0.14664887104E+04  0.15818542272E+04  0.12699999809E+01 0.  1.
       -4    1    3    3    0  502  0.29839407435E+03 -0.51247733783E+03  0.18258093760E+04  0.19197014183E+04  0.12699999809E+01 0. -1.
</event>
<event>
 5   0  0.4693374E-07  0.3529913E+04  0.7818609E-02  0.8106737E-01
       -1   -1    0    0    0  501  0.00000000000E+00  0.00000000000E+00  0.17482188170E+04  0.17482188170E+04  0.50400001928E-02 0.  1.
        1   -1    0    0  501    0  0.00000000000E+00  0.00000000000E+00 -0.17818541625E+04  0.17818541625E+04  0.50400001928E-02 0. -1.
    10030    2    1    2    0    0  0.00000000000E+00  0.00000000000E+00 -0.33635345519E+02  0.35300729794E+04  0.35299127332E+04 0.  0.
        1    1    3    3  502    0 -0.91939732158E+02  0.15929795852E+04  0.73756006315E+03  0.17578486055E+04  0.50400001928E-02 0.  1.
       -1    1    3    3    0  502  0.91939732158E+02 -0.15929795852E+04 -0.77119540867E+03  0.17722243739E+04  0.50400001928E-02 0. -1.
</event>
<event>
 5   0  0.4409125E-07  0.3408972E+04  0.7818609E-02  0.8135708E-01
       -1   -1    0    0    0  501  0.00000000000E+00  0.00000000000E+00  0.13271905520E+04  0.13271905520E+04  0.50400001928E-02 0.  1.
        1   -1    0    0  501    0  0.00000000000E+00  0.00000000000E+00 -0.21890391595E+04  0.21890391595E+04  0.50400001928E-02 0. -1.
    10030    2    1    2    0    0  0.00000000000E+00  0.00000000000E+00 -0.86184860749E+03  0.35162297114E+04  0.34089717455E+04 0.  0.
        5    1    3    3  502    0  0.54170417943E+03 -0.10227066743E+03  0.12326913795E+04  0.13503528556E+04  0.46999998093E+01 0.  1.
       -5    1    3    3    0  502 -0.54170417943E+03  0.10227066743E+03 -0.20945399870E+04  0.21658768558E+04  0.46999998093E+01 0. -1.
</event>
<event>
 5   0  0.1361560E-06  0.3375201E+04  0.7818609E-02  0.8144020E-01
       -2   -1    0    0    0  501  0.00000000000E+00  0.00000000000E+00  0.14872958065E+04  0.14872958065E+04  0.25500000920E-02 0.  1.
        2   -1    0    0  501    0  0.00000000000E+00  0.00000000000E+00 -0.19148814684E+04  0.19148814684E+04  0.25500000920E-02 0. -1.
    10030    2    1    2    0    0  0.00000000000E+00  0.00000000000E+00 -0.42758566186E+03  0.34021772749E+04  0.33752008402E+04 0.  0.
        3    1    3    3  502    0 -0.16726325090E+04 -0.21904291168E+03 -0.26230084597E+03  0.17071851251E+04  0.10100000352E+00 0. -1.
       -3    1    3    3    0  502  0.16726325090E+04  0.21904291168E+03 -0.16528481589E+03  0.16949921498E+04  0.10100000352E+00 0.  1.
</event>
<event>
 5   0  0.4409125E-07  0.2890500E+04  0.7818609E-02  0.8275710E-01
       -1   -1    0    0    0  501  0.00000000000E+00  0.00000000000E+00  0.11845810805E+04  0.11845810805E+04  0.50400001928E-02 0. -1.
        1   -1    0    0  501    0  0.00000000000E+00  0.00000000000E+00 -0.17632793144E+04  0.17632793144E+04  0.50400001928E-02 0.  1.
    10030    2    1    2    0    0  0.00000000000E+00  0.00000000000E+00 -0.57869823390E+03  0.29478603948E+04  0.28904998290E+04 0.  0.
        5    1    3    3  502    0 -0.30303853322E+03  0.13685248176E+04  0.69822538946E+02  0.14034207516E+04  0.46999998093E+01 0. -1.
       -5    1    3    3    0  502  0.30303853322E+03 -0.13685248176E+04 -0.64852077284E+03  0.15444396433E+04  0.46999998093E+01 0.  1.
</event>
<event>
 5   0  0.4591195E-07  0.3479815E+04  0.7818609E-02  0.8118590E-01
       -1   -1    0    0    0  501  0.00000000000E+00  0.00000000000E+00  0.14132174908E+04  0.14132174908E+04  0.50400001928E-02 0. -1.
        1   -1    0    0  501    0  0.00000000000E+00  0.00000000000E+00 -0.21421171762E+04  0.21421171762E+04  0.50400001928E-02 0.  1.
    10030    2    1    2    0    0  0.00000000000E+00  0.00000000000E+00 -0.72889968535E+03  0.35553346670E+04  0.34798146277E+04 0.  0.
        4    1    3    3  502    0 -0.10617189765E+04  0.11945038593E+04  0.33836639504E+03  0.16335789192E+04  0.12699999809E+01 0. -1.
       -4    1    3    3    0  502  0.10617189765E+04 -0.11945038593E+04 -0.10672660804E+04  0.19217557478E+04  0.12699999809E+01 0.  1.
</event>
<event>
 5   0  0.1387133E-06  0.3527570E+04  0.7818609E-02  0.8107287E-01
       -2   -1    0    0    0  501  0.00000000000E+00  0.00000000000E+00  0.15750860950E+04  0.15750860950E+04  0.25500000920E-02 0. -1.
        2   -1    0    0  501    0  0.00000000000E+00  0.00000000000E+00 -0.19750901025E+04  0.19750901025E+04  0.25500000920E-02 0.  1.
    10030    2    1    2    0    0  0.00000000000E+00  0.00000000000E+00 -0.40000400748E+03  0.35501761974E+04  0.35275696771E+04 0.  0.
        4    1    3    3  502    0 -0.22638820163E+03  0.37332412473E+03  0.15198417558E+04  0.15813105627E+04  0.12699999809E+01 0. -1.
       -4    1    3    3    0  502  0.22638820163E+03 -0.37332412473E+03 -0.19198457633E+04  0.19688656348E+04  0.12699999809E+01 0.  1.
</event>
<event>
 5   0  0.1442864E-06  0.3504737E+04  0.7818609E-02  0.8112668E-01
       -2   -1    0    0    0  501  0.00000000000E+00  0.00000000000E+00  0.12911317104E+04  0.12911317104E+04  0.25500000920E-02 0.  1.
        2   -1    0    0  501    0  0.00000000000E+00  0.00000000000E+00 -0.23783745306E+04  0.23783745306E+04  0.25500000920E-02 0. -1.
    10030    2    1    2    0    0  0.00000000000E+00  0.00000000000E+00 -0.10872428202E+04  0.36695062410E+04  0.35047366667E+04 0.  0.
        1    1    3    3  502    0 -0.16279855948E+04  0.60509033498E+03 -0.78765273193E+03  0.19070574811E+04  0.50400001928E-02 0. -1.
       -1    1    3    3    0  502  0.16279855948E+04 -0.60509033498E+03 -0.29959008827E+03  0.17624487599E+04  0.50400001928E-02 0.  1.
</event>
<event>
 5   0  0.4557237E-07  0.3460910E+04  0.7818609E-02  0.8123117E-01
        1   -1    0    0  501    0  0.00000000000E+00  0.00000000000E+00  0.18789380840E+04  0.18789380840E+04  0.50400001928E-02 0.  1.
       -1   -1    0    0    0  501  0.00000000000E+00  0.00000000000E+00 -0.15937060289E+04  0.15937060289E+04  0.50400001928E-02 0. -1.
    10030    2    1    2    0    0  0.00000000000E+00  0.00000000000E+00  0.28523205511E+03  0.34726441130E+04  0.34609102575E+04 0.  0.
        2    1    3    3  502    0  0.14311440705E+04 -0.95614461215E+03  0.32235762224E+03  0.17510854652E+04  0.25500000920E-02 0. -1.
       -2    1    3    3    0  502 -0.14311440705E+04  0.95614461215E+03 -0.37125567128E+02  0.17215586478E+04  0.25500000920E-02 0.  1.
</event>
<event>
 5   0  0.1378620E-06  0.3400022E+04  0.7818609E-02  0.8137901E-01
        2   -1    0    0  501    0  0.00000000000E+00  0.00000000000E+00  0.30351001010E+04  0.30351001010E+04  0.25500000920E-02 0. -1.
       -2   -1    0    0    0  501  0.00000000000E+00  0.00000000000E+00 -0.95220491772E+03  0.95220491772E+03  0.25500000920E-02 0.  1.
    10030    2    1    2    0    0  0.00000000000E+00  0.00000000000E+00  0.20828951833E+04  0.39873050188E+04  0.34000219070E+04 0.  0.
        2    1    3    3  502    0  0.82974231157E+03 -0.13796960772E+04  0.40125808338E+03  0.16592292242E+04  0.25500000920E-02 0.  1.
       -2    1    3    3    0  502 -0.82974231157E+03  0.13796960772E+04  0.16816370999E+04  0.23280757945E+04  0.25500000920E-02 0. -1.
</event>
<event>
 5   0  0.1442864E-06  0.3508853E+04  0.7818609E-02  0.8111695E-01
        2   -1    0    0  501    0  0.00000000000E+00  0.00000000000E+00  0.18400484242E+04  0.18400484242E+04  0.25500000920E-02 0. -1.
       -2   -1    0    0    0  501  0.00000000000E+00  0.00000000000E+00 -0.16727887466E+04  0.16727887466E+04  0.25500000920E-02 0.  1.
    10030    2    1    2    0    0  0.00000000000E+00  0.00000000000E+00  0.16725967767E+03  0.35128371708E+04  0.35088529734E+04 0.  0.
        1    1    3    3  502    0 -0.29388693141E+03 -0.17259293367E+04 -0.29683011896E+02  0.17510233251E+04  0.50400001928E-02 0.  1.
       -1    1    3    3    0  502  0.29388693141E+03  0.17259293367E+04  0.19694268957E+03  0.17618138457E+04  0.50400001928E-02 0. -1.
</event>
<event>
 5   0  0.1361560E-06  0.3456102E+04  0.7818609E-02  0.8124273E-01
       -2   -1    0    0    0  501  0.00000000000E+00  0.00000000000E+00  0.14721151991E+04  0.14721151991E+04  0.25500000920E-02 0.  1.
        2   -1    0    0  501    0  0.00000000000E+00  0.00000000000E+00 -0.20284830898E+04  0.20284830898E+04  0.25500000920E-02 0. -1.
    10030    2    1    2    0    0  0.00000000000E+00  0.00000000000E+00 -0.55636789063E+03  0.35005982889E+04  0.34561023061E+04 0.  0.
        3    1    3    3  502    0  0.19845322576E+03 -0.88679225459E+03 -0.17669292947E+04  0.19869130148E+04  0.10100000352E+00 0. -1.
       -3    1    3    3    0  502 -0.19845322576E+03  0.88679225459E+03  0.12105614041E+04  0.15136852741E+04  0.10100000352E+00 0.  1.
</event>
<event>
 5   0  0.1378620E-06  0.3504573E+04  0.7818609E-02  0.8112707E-01
       -2   -1    0    0    0  501  0.00000000000E+00  0.00000000000E+00  0.11167170593E+04  0.11167170593E+04  0.25500000920E-02 0. -1.
        2   -1    0    0  501    0  0.00000000000E+00  0.00000000000E+00 -0.27495844068E+04  0.27495844068E+04  0.25500000920E-02 0.  1.
    10030    2    1    2    0    0  0.00000000000E+00  0.00000000000E+00 -0.16328673475E+04  0.38663014662E+04  0.35045729059E+04 0.  0.
        2    1    3    3  502    0 -0.41252714823E+03 -0.11773826457E+04 -0.21739272721E+04  0.25064653053E+04  0.25500000920E-02 0.  1.
       -2    1    3    3    0  502  0.41252714823E+03  0.11773826457E+04  0.54105992458E+03  0.13598361609E+04  0.25500000920E-02 0. -1.
</event>
<event>
 5   0  0.4409125E-07  0.3442029E+04  0.7818609E-02  0.8127667E-01
       -1   -1    0    0    0  501  0.00000000000E+00  0.00000000000E+00  0.10564061937E+04  0.10564061937E+04  0.50400001928E-02 0.  1.
        1   -1    0    0  501    0  0.00000000000E+00  0.00000000000E+00 -0.28037423938E+04  0.28037423938E+04  0.50400001928E-02 0. -1.
    10030    2    1    2    0    0  0.00000000000E+00  0.00000000000E+00 -0.17473362001E+04  0.38601485875E+04  0.34420289542E+04 0.  0.
        5    1    3    3  502    0  0.14283496853E+04  0.95953676369E+03 -0.90868821922E+03  0.19459265131E+04  0.46999998093E+01 0.  1.
       -5    1    3    3    0  502 -0.14283496853E+04 -0.95953676369E+03 -0.83864798087E+03  0.19142220745E+04  0.46999998093E+01 0. -1.
</event>
<event>
 5   0  0.1387133E-06  0.3413786E+04  0.7818609E-02  0.8134531E-01
        2   -1    0    0  501    0  0.00000000000E+00  0.00000000000E+00  0.24928028196E+04  0.24928028196E+04  0.25500000920E-02 0.  1.
       -2   -1    0    0    0  501  0.00000000000E+00  0.00000000000E+00 -0.11687583116E+04  0.11687583116E+04  0.25500000920E-02 0. -1.
    10030    2    1    2    0    0  0.00000000000E+00  0.00000000000E+00  0.13240445080E+04  0.36615611312E+04  0.34137861764E+04 0.  0.
        4    1    3    3  502    0 -0.16212048991E+04  0.14188473603E+03  0.12142146679E+04  0.20304569623E+04  0.12699999809E+01 0. -1.
       -4    1    3    3    0  502  0.16212048991E+04 -0.14188473603E+03  0.10982984013E+03  0.16311041689E+04  0.12699999809E+01 0.  1.
</event>
<event>
 5   0  0.4700769E-07  0.3531904E+04  0.7818609E-02  0.8106271E-01
       -1   -1    0    0    0  501  0.00000000000E+00  0.00000000000E+00  0.15333504983E+04  0.15333504983E+04  0.50400001928E-02 0.  1.
        1   -1    0    0  501    0  0.00000000000E+00  0.00000000000E+00 -0.20338374235E+04  0.20338374235E+04  0.50400001928E-02 0. -1.
    10030    2    1    2    0    0  0.00000000000E+00  0.00000000000E+00 -0.50048692522E+03  0.35671879219E+04  0.35319035247E+04 0.  0.
        3    1    3    3  502    0  0.13724449384E+02 -0.12097720047E+04 -0.15495042654E+04  0.19658840613E+04  0.10100000352E+00 0. -1.
       -3    1    3    3    0  502 -0.13724449384E+02  0.12097720047E+04  0.10490173401E+04  0.16013038606E+04  0.10100000352E+00 0.  1.
</event>
<event>
 5   0  0.4700769E-07  0.3873468E+04  0.7818609E-02  0.8030570E-01
        1   -1    0    0  501    0  0.00000000000E+00  0.00000000000E+00  0.25597581762E+04  0.25597581762E+04  0.50400001928E-02 0. -1.
       -1   -1    0    0    0  501  0.00000000000E+00  0.00000000000E+00 -0.14653491343E+04  0.14653491343E+04  0.50400001928E-02 0.  1.
    10030    2    1    2    0    0  0.00000000000E+00  0.00000000000E+00  0.10944090418E+04  0.40251073105E+04  0.38734684341E+04 0.  0.
        3    1    3    3  502    0 -0.97005597933E+03  0.73370589000E+03 -0.10189838382E+04  0.15867139026E+04  0.10100000352E+00 0.  1.
       -3    1    3    3    0  502  0.97005597933E+03 -0.73370589000E+03  0.21133928800E+04  0.24383934079E+04  0.10100000352E+00 0. -1.
</event>
<event>
 5   0  0.1361560E-06  0.3042185E+04  0.7818609E-02  0.8231786E-01
       -2   -1    0    0    0  501  0.00000000000E+00  0.00000000000E+00  0.13251542018E+04  0.13251542018E+04  0.25500000920E-02 0.  1.
        2   -1    0    0  501    0  0.00000000000E+00  0.00000000000E+00 -0.17460018761E+04  0.17460018761E+04  0.25500000920E-02 0. -1.
    10030    2    1    2    0    0  0.00000000000E+00  0.00000000000E+00 -0.42084767429E+03  0.30711560780E+04  0.30421845589E+04 0.  0.
        3    1    3    3  502    0 -0.34129688056E+03  0.97041886605E+03  0.92074928658E+03  0.13805707498E+04  0.10100000352E+00 0.  1.
       -3    1    3    3    0  502  0.34129688056E+03 -0.97041886605E+03 -0.13415969609E+04  0.16905853282E+04  0.10100000352E+00 0. -1.
</event>
<event>
 5   0  0.4700769E-07  0.3498243E+04  0.7818609E-02  0.8114206E-01
       -1   -1    0    0    0  501  0.00000000000E+00  0.00000000000E+00  0.16330388723E+04  0.16330388723E+04  0.50400001928E-02 0.  1.
        1   -1    0    0  501    0  0.00000000000E+00  0.00000000000E+00 -0.18734557283E+04  0.18734557283E+04  0.50400001928E-02 0. -1.
    10030    2    1    2    0    0  0.00000000000E+00  0.00000000000E+00 -0.24041685599E+03  0.35064946006E+04  0.34982430046E+04 0.  0.
        3    1    3    3  502    0 -0.60961109925E+03 -0.79696374171E+03 -0.15562947937E+04  0.18517101266E+04  0.10100000352E+00 0. -1.
       -3    1    3    3    0  502  0.60961109925E+03  0.79696374171E+03  0.13158779377E+04  0.16547844739E+04  0.10100000352E+00 0.  1.
</event>
<event>
 5   0  0.4591195E-07  0.3506128E+04  0.7818609E-02  0.8112339E-01
       -1   -1    0    0    0  501  0.00000000000E+00  0.00000000000E+00  0.20491189824E+04  0.20491189824E+04  0.50400001928E-02 0. -1.
        1   -1    0    0  501    0  0.00000000000E+00  0.00000000000E+00 -0.14997830182E+04  0.14997830183E+04  0.50400001928E-02 0.  1.
    10030    2    1    2    0    0  0.00000000000E+00  0.00000000000E+00  0.54933596418E+03  0.35489020007E+04  0.35061282648E+04 0.  0.
        4    1    3    3  502    0  0.54216202932E+03  0.16662965005E+04  0.32773414520E+03  0.17826651330E+04  0.12699999809E+01 0. -1.
       -4    1    3    3    0  502 -0.54216202932E+03 -0.16662965005E+04  0.22160181897E+03  0.17662368677E+04  0.12699999809E+01 0.  1.
</event>
<event>
 5   0  0.4409125E-07  0.3385738E+04  0.7818609E-02  0.8141415E-01
       -1   -1    0    0    0  501  0.00000000000E+00  0.00000000000E+00  0.21982315675E+04  0.21982315675E+04  0.50400001928E-02 0.  1.
        1   -1    0    0  501    0  0.00000000000E+00  0.00000000000E+00 -0.13036870145E+04  0.13036870145E+04  0.50400001928E-02 0. -1.
    10030    2    1    2    0    0  0.00000000000E+00  0.00000000000E+00  0.89454455305E+03  0.35019185820E+04  0.33857382943E+04 0.  0.
        5    1    3    3  502    0  0.14201105399E+04 -0.87860723061E+03  0.16003946308E+03  0.16775873542E+04  0.46999998093E+01 0.  1.
       -5    1    3    3    0  502 -0.14201105399E+04  0.87860723061E+03  0.73450508996E+03  0.18243312277E+04  0.46999998093E+01 0. -1.
</event>
<event>
 5   0  0.4591195E-07  0.3427683E+04  0.7818609E-02  0.8131145E-01
        1   -1    0    0  501    0  0.00000000000E+00  0.00000000000E+00  0.19523779211E+04  0.19523779211E+04  0.50400001928E-02 0.  1.
       -1   -1    0    0    0  501  0.00000000000E+00  0.00000000000E+00 -0.15044488665E+04  0.15044488666E+04  0.50400001928E-02 0. -1.
    10030    2    1    2    0    0  0.00000000000E+00  0.00000000000E+00  0.44792905457E+03  0.34568267877E+04  0.34276830370E+04 0.  0.
        4    1    3    3  502    0 -0.89104124734E+03 -0.51140925185E+03  0.16073995243E+04  0.19076762752E+04  0.12699999809E+01 0.  1.
       -4    1    3    3    0  502  0.89104124734E+03  0.51140925185E+03 -0.11594704697E+04  0.15491505125E+04  0.12699999809E+01 0. -1.
</event>
<event>
 5   0  0.1361560E-06  0.3319194E+04  0.7818609E-02  0.8158029E-01
        2   -1    0    0  501    0  0.00000000000E+00  0.00000000000E+00  0.16933834757E+04  0.16933834757E+04  0.25500000920E-02 0. -1.
       -2   -1    0    0    0  501  0.00000000000E+00  0.00000000000E+00 -0.16264849053E+04  0.16264849053E+04  0.25500000920E-02 0.  1.
    10030    2    1    2    0    0  0.00000000000E+00  0.00000000000E+00  0.66898570375E+02  0.33198683811E+04  0.33191942771E+04 0.  0.
        3    1    3    3  502    0 -0.27535998009E+02 -0.81868104963E+03 -0.14101961137E+04  0.16308433344E+04  0.10100000352E+00 0.  1.
       -3    1    3    3    0  502  0.27535998009E+02  0.81868104963E+03  0.14770946841E+04  0.16890250466E+04  0.10100000352E+00 0. -1.
</event>
<event>
 5   0  0.4693374E-07  0.3389933E+04  0.7818609E-02  0.8140381E-01
        1   -1    0    0  501    0  0.00000000000E+00  0.00000000000E+00  0.27582377733E+04  0.27582377734E+04  0.50400001928E-02 0.  1.
       -1   -1    0    0    0  501  0.00000000000E+00  0.00000000000E+00 -0.10415751400E+04  0.10415751400E+04  0.50400001928E-02 0. -1.
    10030    2    1    2    0    0  0.00000000000E+00  0.00000000000E+00  0.17166626334E+04  0.37998129133E+04  0.33899332707E+04 0.  0.
        1    1    3    3  502    0  0.12778149840E+04  0.19037729049E+03  0.20881994846E+04  0.24555308455E+04  0.50400001928E-02 0.  1.
       -1    1    3    3    0  502 -0.12778149840E+04 -0.19037729049E+03 -0.37153685119E+03  0.13442820678E+04  0.50400001928E-02 0. -1.
</event>
<event>
 5   0  0.1361560E-06  0.3492063E+04  0.7818609E-02  0.8115673E-01
       -2   -1    0    0    0  501  0.00000000000E+00  0.00000000000E+00  0.18890586591E+04  0.18890586591E+04  0.25500000920E-02 0.  1.
        2   -1    0    0  501    0  0.00000000000E+00  0.00000000000E+00 -0.16138333765E+04  0.16138333766E+04  0.25500000920E-02 0. -1.
    10030    2    1    2    0    0  0.00000000000E+00  0.00000000000E+00  0.27522528257E+03  0.35028920357E+04  0.34920629515E+04 0.  0.
        3    1    3    3  502    0 -0.15325073491E+04  0.47724949573E+03 -0.55174483037E+03  0.16972826000E+04  0.10100000352E+00 0. -1.
       -3    1    3    3    0  502  0.15325073491E+04 -0.47724949573E+03  0.82697011294E+03  0.18056094357E+04  0.10100000352E+00 0.  1.
</event>
<event>
 5   0  0.1387133E-06  0.3499052E+04  0.7818609E-02  0.8114015E-01
       -2   -1    0    0    0  501  0.00000000000E+00  0.00000000000E+00  0.31417989988E+04  0.31417989988E+04  0.25500000920E-02 0.  1.
        2   -1    0    0  501    0  0.00000000000E+00  0.00000000000E+00 -0.97423183249E+03  0.97423183250E+03  0.25500000920E-02 0. -1.
    10030    2    1    2    0    0  0.00000000000E+00  0.00000000000E+00  0.21675671663E+04  0.41160308313E+04  0.34990516406E+04 0.  0.
        4    1    3    3  502    0  0.13173881302E+04  0.21361125043E+03  0.24144891299E+04  0.27587860778E+04  0.12699999809E+01 0.  1.
       -4    1    3    3    0  502 -0.13173881302E+04 -0.21361125043E+03 -0.24692196363E+03  0.13572447535E+04  0.12699999809E+01 0. -1.
</event>
<event>
 5   0  0.4591195E-07  0.3534130E+04  0.7818609E-02  0.8105749E-01
       -1   -1    0    0    0  501  0.00000000000E+00  0.00000000000E+00  0.22969631526E+04  0.22969631526E+04  0.50400001928E-02 0.  1.
        1   -1    0    0  501    0  0.00000000000E+00  0.00000000000E+00 -0.13594118342E+04  0.13594118342E+04  0.50400001928E-02 0. -1.
    10030    2    1    2    0    0  0.00000000000E+00  0.00000000000E+00  0.93755131839E+03  0.36563749867E+04  0.35341301008E+04 0.  0.
        4    1    3    3  502    0 -0.14802558683E+04 -0.25278383544E+02 -0.52933321549E+03  0.15722568805E+04  0.12699999809E+01 0. -1.
       -4    1    3    3    0  502  0.14802558683E+04  0.25278383544E+02  0.14668845339E+04  0.20841181063E+04  0.12699999809E+01 0.  1.
</event>
<event>
 5   0  0.4693374E-07  0.3418243E+04  0.7818609E-02  0.8133443E-01
        1   -1    0    0  501    0  0.00000000000E+00  0.00000000000E+00  0.13826145342E+04  0.13826145342E+04  0.50400001928E-02 0. -1.
       -1   -1    0    0    0  501  0.00000000000E+00  0.00000000000E+00 -0.21127339358E+04  0.21127339358E+04  0.50400001928E-02 0.  1.
    10030    2    1    2    0    0  0.00000000000E+00  0.00000000000E+00 -0.73011940159E+03  0.34953484700E+04  0.34182432018E+04 0.  0.
        1    1    3    3  502    0 -0.39785340079E+03 -0.27540614664E+03  0.13111107635E+04  0.13975504672E+04  0.50400001928E-02 0. -1.
       -1    1    3    3    0  502  0.39785340079E+03  0.27540614664E+03 -0.20412301651E+04  0.20977980029E+04  0.50400001928E-02 0.  1.
</event>
<event>
 5   0  0.1378620E-06  0.3557220E+04  0.7818609E-02  0.8100362E-01
       -2   -1    0    0    0  501  0.00000000000E+00  0.00000000000E+00  0.12419824692E+04  0.12419824692E+04  0.25500000920E-02 0. -1.
        2   -1    0    0  501    0  0.00000000000E+00  0.00000000000E+00 -0.25470995202E+04  0.25470995202E+04  0.25500000920E-02 0.  1.
    10030    2    1    2    0    0  0.00000000000E+00  0.00000000000E+00 -0.13051170510E+04  0.37890819894E+04  0.35572196735E+04 0.  0.
        2    1    3    3  502    0 -0.11290205020E+04 -0.61588616595E+03 -0.19612361199E+04  0.23453038569E+04  0.25500000920E-02 0.  1.
       -2    1    3    3    0  502  0.11290205020E+04  0.61588616595E+03  0.65611906888E+03  0.14437781325E+04  0.25500000920E-02 0. -1.
</event>
<event>
 5   0  0.1361560E-06  0.3475994E+04  0.7818609E-02  0.8119503E-01
        2   -1    0    0  501    0  0.00000000000E+00  0.00000000000E+00  0.24997274266E+04  0.24997274266E+04  0.25500000920E-02 0. -1.
       -2   -1    0    0    0  501  0.00000000000E+00  0.00000000000E+00 -0.12083850139E+04  0.12083850139E+04  0.25500000920E-02 0.  1.
    10030    2    1    2    0    0  0.00000000000E+00  0.00000000000E+00  0.12913424127E+04  0.37081124404E+04  0.34759937635E+04 0.  0.
        3    1    3    3  502    0 -0.61441366561E+03 -0.14386188600E+04  0.14535429620E+04  0.21353958718E+04  0.10100000352E+00 0. -1.
       -3    1    3    3    0  502  0.61441366561E+03  0.14386188600E+04 -0.16220054932E+03  0.15727165686E+04  0.10100000352E+00 0.  1.
</event>
<event>
 5   0  0.4591195E-07  0.3525414E+04  0.7818609E-02  0.8107793E-01
        1   -1    0    0  501    0  0.00000000000E+00  0.00000000000E+00  0.17938755519E+04  0.17938755519E+04  0.50400001928E-02 0. -1.
       -1   -1    0    0    0  501  0.00000000000E+00  0.00000000000E+00 -0.17320803254E+04  0.17320803254E+04  0.50400001928E-02 0.  1.
    10030    2    1    2    0    0  0.00000000000E+00  0.00000000000E+00  0.61795226452E+02  0.35259558773E+04  0.35254143301E+04 0.  0.
        4    1    3    3  502    0  0.12140504272E+04 -0.10458735662E+04 -0.70362992157E+03  0.17501047500E+04  0.12699999809E+01 0.  1.
       -4    1    3    3    0  502 -0.12140504272E+04  0.10458735662E+04  0.76542514802E+03  0.17758511274E+04  0.12699999809E+01 0. -1.
</event>
<event>
 5   0  0.4557237E-07  0.3479420E+04  0.7818609E-02  0.8118684E-01
        1   -1    0    0  501    0  0.00000000000E+00  0.00000000000E+00  0.88964883722E+03  0.88964883724E+03  0.50400001928E-02 0. -1.
       -1   -1    0    0    0  501  0.00000000000E+00  0.00000000000E+00 -0.34020063698E+04  0.34020063698E+04  0.50400001928E-02 0.  1.
    10030    2    1    2    0    0  0.00000000000E+00  0.00000000000E+00 -0.25123575326E+04  0.42916552071E+04  0.34794200731E+04 0.  0.
        2    1    3    3  502    0  0.17329389053E+04  0.71594511266E+02 -0.10889214750E+04  0.20479143054E+04  0.25500000920E-02 0. -1.
       -2    1    3    3    0  502 -0.17329389053E+04 -0.71594511266E+02 -0.14234360577E+04  0.22437409017E+04  0.25500000920E-02 0.  1.
</event>
<event>
 5   0  0.4693374E-07  0.3494436E+04  0.7818609E-02  0.8115110E-01
       -1   -1    0    0    0  501  0.00000000000E+00  0.00000000000E+00  0.13602183728E+04  0.13602183728E+04  0.50400001928E-02 0.  1.
        1   -1    0    0  501    0  0.00000000000E+00  0.00000000000E+00 -0.22443243755E+04  0.22443243755E+04  0.50400001928E-02 0. -1.
    10030    2    1    2    0    0  0.00000000000E+00  0.00000000000E+00 -0.88410600275E+03  0.36045427483E+04  0.34944362922E+04 0.  0.
        1    1    3    3  502    0 -0.71257725395E+03  0.77519603198E+03  0.99618140769E+03  0.14495077192E+04  0.50400001928E-02 0.  1.
       -1    1    3    3    0  502  0.71257725395E+03 -0.77519603198E+03 -0.18802874104E+04  0.21550350291E+04  0.50400001928E-02 0. -1.
</event>
<event>
 5   0  0.1378620E-06  0.3488699E+04  0.7818609E-02  0.8116473E-01
       -2   -1    0    0    0  501  0.00000000000E+00  0.00000000000E+00  0.18513501266E+04  0.18513501266E+04  0.25500000920E-02 0. -1.
        2   -1    0    0  501    0  0.00000000000E+00  0.00000000000E+00 -0.16435330074E+04  0.16435330074E+04  0.25500000920E-02 0.  1.
    10030    2    1    2    0    0  0.00000000000E+00  0.00000000000E+00  0.20781711920E+03  0.34948831340E+04  0.34886989216E+04 0.  0.
        2    1    3    3  502    0 -0.16606329906E+04  0.23159419287E+03  0.58581976360E+03  0.17760975748E+04  0.25500000920E-02 0. -1.
       -2    1    3    3    0  502  0.16606329906E+04 -0.23159419287E+03 -0.37800264440E+03  0.17187855593E+04  0.25500000920E-02 0.  1.
</event>
<event>
 5   0  0.4409125E-07  0.3490199E+04  0.7818609E-02  0.8116117E-01
        1   -1    0    0  501    0  0.00000000000E+00  0.00000000000E+00  0.18011064013E+04  0.18011064013E+04  0.50400001928E-02 0. -1.
       -1   -1    0    0    0  501  0.00000000000E+00  0.00000000000E+00 -0.16908343256E+04  0.16908343256E+04  0.50400001928E-02 0.  1.
    10030    2    1    2    0    0  0.00000000000E+00  0.00000000000E+00  0.11027207564E+03  0.34919407269E+04  0.34901991504E+04 0.  0.
        5    1    3    3  502    0 -0.11577822460E+04  0.35895690143E+03 -0.12008949739E+04  0.17063061316E+04  0.46999998093E+01 0.  1.
       -5    1    3    3    0  502  0.11577822460E+04 -0.35895690143E+03  0.13111670495E+04  0.17856345953E+04  0.46999998093E+01 0. -1.
</event>
<event>
 5   0  0.4700769E-07  0.3408500E+04  0.7818609E-02  0.8135823E-01
       -1   -1    0    0    0  501  0.00000000000E+00  0.00000000000E+00  0.14224930918E+04  0.14224930918E+04  0.50400001928E-02 0. -1.
        1   -1    0    0  501    0  0.00000000000E+00  0.00000000000E+00 -0.20418153965E+04  0.20418153965E+04  0.50400001928E-02 0.  1.
    10030    2    1    2    0    0  0.00000000000E+00  0.00000000000E+00 -0.61932230467E+03  0.34643084883E+04  0.34085001372E+04 0.  0.
        3    1    3    3  502    0  0.74570003200E+03  0.14739994579E+04 -0.73572084165E+03  0.18083219035E+04  0.10100000352E+00 0.  1.
       -3    1    3    3    0  502 -0.74570003200E+03 -0.14739994579E+04  0.11639853698E+03  0.16559865848E+04  0.10100000352E+00 0. -1.
</event>
<event>
 5   0  0.1361560E-06  0.3465449E+04  0.7818609E-02  0.8122027E-01
        2   -1    0    0  501    0  0.00000000000E+00  0.00000000000E+00  0.17158666000E+04  0.17158666000E+04  0.25500000920E-02 0.  1.
       -2   -1    0    0    0  501  0.00000000000E+00  0.00000000000E+00 -0.17497481042E+04  0.17497481042E+04  0.25500000920E-02 0. -1.
    10030    2    1    2    0    0  0.00000000000E+00  0.00000000000E+00 -0.33881504204E+02  0.34656147042E+04  0.34654490794E+04 0.  0.
        3    1    3    3  502    0 -0.31733479060E+02  0.40646635915E+03 -0.17010973676E+04  0.17492724714E+04  0.10100000352E+00 0. -1.
       -3    1    3    3    0  502  0.31733479060E+02 -0.40646635915E+03  0.16672158634E+04  0.17163422328E+04  0.10100000352E+00 0.  1.
</event>
<event>
 5   0  0.1361560E-06  0.3234767E+04  0.7818609E-02  0.8179695E-01
       -2   -1    0    0    0  501  0.00000000000E+00  0.00000000000E+00  0.23172152264E+04  0.23172152264E+04  0.25500000920E-02 0.  1.
        2   -1    0    0  501    0  0.00000000000E+00  0.00000000000E+00 -0.11289106371E+04  0.11289106371E+04  0.25500000920E-02 0. -1.
    10030    2    1    2    0    0  0.00000000000E+00  0.00000000000E+00  0.11883045893E+04  0.34461258635E+04  0.32347667103E+04 0.  0.
        3    1    3    3  502    0 -0.29779136310E+02 -0.47774629905E+03  0.22400249804E+04  0.22905982289E+04  0.10100000352E+00 0.  1.
       -3    1    3    3    0  502  0.29779136310E+02  0.47774629905E+03 -0.10517203910E+04  0.11555276346E+04  0.10100000352E+00 0. -1.
</event>
<event>
 5   0  0.4693374E-07  0.3541576E+04  0.7818609E-02  0.8104007E-01
        1   -1    0    0  501    0  0.00000000000E+00  0.00000000000E+00  0.93491963274E+03  0.93491963275E+03  0.50400001928E-02 0. -1.
       -1   -1    0    0    0  501  0.00000000000E+00  0.00000000000E+00 -0.33539684285E+04  0.33539684285E+04  0.50400001928E-02 0.  1.
    10030    2    1    2    0    0  0.00000000000E+00  0.00000000000E+00 -0.24190487958E+04  0.42888880613E+04  0.35415764464E+04 0.  0.
        1    1    3    3  502    0 -0.28661797392E+03  0.77387917563E+03 -0.31068552284E+04  0.32145899042E+04  0.50400001928E-02 0.  1.
       -1    1    3    3    0  502  0.28661797392E+03 -0.77387917563E+03  0.68780643269E+03  0.10742981571E+04  0.50400001928E-02 0. -1.
</event>
<event>
 5   0  0.1442864E-06  0.3510599E+04  0.7818609E-02  0.8111283E-01
       -2   -1    0    0    0  501  0.00000000000E+00  0.00000000000E+00  0.15820315188E+04  0.15820315188E+04  0.25500000920E-02 0.  1.
        2   -1    0    0  501    0  0.00000000000E+00  0.00000000000E+00 -0.19475438937E+04  0.19475438937E+04  0.25500000920E-02 0. -1.
    10030    2    1    2    0    0  0.00000000000E+00  0.00000000000E+00 -0.36551237492E+03  0.35295754125E+04  0.35105987091E+04 0.  0.
        1    1    3    3  502    0  0.15975385606E+04  0.67388423616E+03  0.92266628476E+02  0.17363071581E+04  0.50400001928E-02 0.  1.
       -1    1    3    3    0  502 -0.15975385606E+04 -0.67388423616E+03 -0.45777900340E+03  0.17932682544E+04  0.50400001928E-02 0. -1.
</event>
<event>
 5   0  0.4591195E-07  0.3468755E+04  0.7818609E-02  0.8121235E-01
       -1   -1    0    0    0  501  0.00000000000E+00  0.00000000000E+00  0.13123830096E+04  0.13123830097E+04  0.50400001928E-02 0. -1.
        1   -1    0    0  501    0  0.00000000000E+00  0.00000000000E+00 -0.22920629735E+04  0.22920629735E+04  0.50400001928E-02 0.  1.
    10030    2    1    2    0    0  0.00000000000E+00  0.00000000000E+00 -0.97967996383E+03  0.36044459831E+04  0.34687545335E+04 0.  0.
        4    1    3    3  502    0 -0.58858736435E+03  0.42011715279E+03 -0.21279363807E+04  0.22474537505E+04  0.12699999809E+01 0.  1.
       -4    1    3    3    0  502  0.58858736435E+03 -0.42011715279E+03  0.11482564169E+04  0.13569922326E+04  0.12699999809E+01 0. -1.
</event>
<event>
 5   0  0.4693374E-07  0.3412606E+04  0.7818609E-02  0.8134819E-01
        1   -1    0    0  501    0  0.00000000000E+00  0.00000000000E+00  0.13339203124E+04  0.13339203124E+04  0.50400001928E-02 0.  1.
       -1   -1    0    0    0  501  0.00000000000E+00  0.00000000000E+00 -0.21826418242E+04  0.21826418243E+04  0.50400001928E-02 0. -1.
    10030    2    1    2    0    0  0.00000000000E+00  0.00000000000E+00 -0.84872151186E+03  0.35165621367E+04  0.34126061971E+04 0.  0.
        1    1    3    3  502    0 -0.72087914524E+03  0.21201658551E+03  0.11542498529E+04  0.13772837390E+04  0.50400001928E-02 0.  1.
       -1    1    3    3    0  502  0.72087914524E+03 -0.21201658551E+03 -0.20029713648E+04  0.21392783977E+04  0.50400001928E-02 0. -1.
</event>
<event>
 5   0  0.4557237E-07  0.2958520E+04  0.7818609E-02  0.8255676E-01
        1   -1    0    0  501    0  0.00000000000E+00  0.00000000000E+00  0.13682572262E+04  0.13682572262E+04  0.50400001928E-02 0. -1.
       -1   -1    0    0    0  501  0.00000000000E+00  0.00000000000E+00 -0.15992677724E+04  0.15992677724E+04  0.50400001928E-02 0.  1.
    10030    2    1    2    0    0  0.00000000000E+00  0.00000000000E+00 -0.23101054616E+03  0.29675249986E+04  0.29585196881E+04 0.  0.
        2    1    3    3  502    0  0.95537713097E+03  0.20631486378E+03 -0.12292446305E+04  0.15704628767E+04  0.25500000920E-02 0.  1.
       -2    1    3    3    0  502 -0.95537713097E+03 -0.20631486378E+03  0.99823408435E+03  0.13970621219E+04  0.25500000920E-02 0. -1.
</event>
<event>
 5   0  0.1442864E-06  0.3511033E+04  0.7818609E-02  0.8111180E-01
       -2   -1    0    0    0  501  0.00000000000E+00  0.00000000000E+00  0.14424490296E+04  0.14424490296E+04  0.25500000920E-02 0. -1.
        2   -1    0    0  501    0  0.00000000000E+00  0.00000000000E+00 -0.21365316339E+04  0.21365316339E+04  0.25500000920E-02 0.  1.
    10030    2    1    2    0    0  0.00000000000E+00  0.00000000000E+00 -0.69408260432E+03  0.35789806634E+04  0.35110328862E+04 0.  0.
        1    1    3    3  502    0 -0.12740555114E+04  0.21213576706E+03 -0.15590078539E+04  0.20245306909E+04  0.50400001928E-02 0.  1.
       -1    1    3    3    0  502  0.12740555114E+04 -0.21213576706E+03  0.86492524954E+03  0.15544499726E+04  0.50400001928E-02 0. -1.
</event>
<event>
 5   0  0.4591195E-07  0.3489101E+04  0.7818609E-02  0.8116378E-01
       -1   -1    0    0    0  501  0.00000000000E+00  0.00000000000E+00  0.14604943516E+04  0.14604943516E+04  0.50400001928E-02 0. -1.
        1   -1    0    0  501    0  0.00000000000E+00  0.00000000000E+00 -0.20838541498E+04  0.20838541498E+04  0.50400001928E-02 0.  1.
    10030    2    1    2    0    0  0.00000000000E+00  0.00000000000E+00 -0.62335979819E+03  0.35443485014E+04  0.34891014404E+04 0.  0.
        4    1    3    3  502    0  0.55903094610E+03  0.10040645859E+04  0.10216558889E+04  0.15376747574E+04  0.12699999809E+01 0. -1.
       -4    1    3    3    0  502 -0.55903094610E+03 -0.10040645859E+04 -0.16450156871E+04  0.20066737440E+04  0.12699999809E+01 0.  1.
</event>
<event>
 5   0  0.4557237E-07  0.3448556E+04  0.7818609E-02  0.8126091E-01
       -1   -1    0    0    0  501  0.00000000000E+00  0.00000000000E+00  0.18871494650E+04  0.18871494650E+04  0.50400001928E-02 0. -1.
        1   -1    0    0  501    0  0.00000000000E+00  0.00000000000E+00 -0.15754634788E+04  0.15754634788E+04  0.50400001928E-02 0.  1.
    10030    2    1    2    0    0  0.00000000000E+00  0.00000000000E+00  0.31168598621E+03  0.34626129438E+04  0.34485562551E+04 0.  0.
        2    1    3    3  502    0 -0.12807410616E+04 -0.91364982856E+03  0.86446851323E+03  0.17950931693E+04  0.25500000920E-02 0. -1.
       -2    1    3    3    0  502  0.12807410616E+04  0.91364982856E+03 -0.55278252702E+03  0.16675197745E+04  0.25500000920E-02 0.  1.
</event>
<event>
 5   0  0.1378620E-06  0.3596771E+04  0.7818609E-02  0.8091232E-01
       -2   -1    0    0    0  501  0.00000000000E+00  0.00000000000E+00  0.21233130507E+04  0.21233130507E+04  0.25500000920E-02 0.  1.
        2   -1    0    0  501    0  0.00000000000E+00  0.00000000000E+00 -0.15231815131E+04  0.15231815131E+04  0.25500000920E-02 0. -1.
    10030    2    1    2    0    0  0.00000000000E+00  0.00000000000E+00  0.60013153761E+03  0.36464945638E+04  0.35967714331E+04 0.  0.
        2    1    3    3  502    0 -0.90886702562E+03 -0.54443817410E+03  0.17733374786E+04  0.20657148905E+04  0.25500000920E-02 0.  1.
       -2    1    3    3    0  502  0.90886702562E+03  0.54443817410E+03 -0.11732059410E+04  0.15807796734E+04  0.25500000920E-02 0. -1.
</event>
<event>
 5   0  0.4700769E-07  0.2579834E+04  0.7818609E-02  0.8375084E-01
        1   -1    0    0  501    0  0.00000000000E+00  0.00000000000E+00  0.16536452440E+04  0.16536452440E+04  0.50400001928E-02 0. -1.
       -1   -1    0    0    0  501  0.00000000000E+00  0.00000000000E+00 -0.10061927501E+04  0.10061927501E+04  0.50400001928E-02 0.  1.
    10030    2    1    2    0    0  0.00000000000E+00  0.00000000000E+00  0.64745249391E+03  0.26598379942E+04  0.25798339915E+04 0.  0.
        3    1    3    3  502    0  0.60388494839E+03 -0.45560392503E+02 -0.85051056104E+03  0.10440886001E+04  0.10100000352E+00 0.  1.
       -3    1    3    3    0  502 -0.60388494839E+03  0.45560392503E+02  0.14979630549E+04  0.16157493941E+04  0.10100000352E+00 0. -1.
</event>
<event>
 5   0  0.1348388E-06  0.3400718E+04  0.7818609E-02  0.8137730E-01
       -2   -1    0    0    0  501  0.00000000000E+00  0.00000000000E+00  0.17525648301E+04  0.17525648301E+04  0.25500000920E-02 0. -1.
        2   -1    0    0  501    0  0.00000000000E+00  0.00000000000E+00 -0.16497086396E+04  0.16497086396E+04  0.25500000920E-02 0.  1.
    10030    2    1    2    0    0  0.00000000000E+00  0.00000000000E+00  0.10285619044E+03  0.34022734697E+04  0.34007183604E+04 0.  0.
        5    1    3    3  502    0 -0.61237760177E+03 -0.10747404129E+03  0.16347579619E+04  0.17490033393E+04  0.46999998093E+01 0. -1.
       -5    1    3    3    0  502  0.61237760177E+03  0.10747404129E+03 -0.15319017715E+04  0.16532701304E+04  0.46999998093E+01 0.  1.
</event>
<event>
 5   0  0.4700769E-07  0.3505809E+04  0.7818609E-02  0.8112415E-01
        1   -1    0    0  501    0  0.00000000000E+00  0.00000000000E+00  0.16255659495E+04  0.16255659495E+04  0.50400001928E-02 0. -1.
       -1   -1    0    0    0  501  0.00000000000E+00  0.00000000000E+00 -0.18902181723E+04  0.18902181723E+04  0.50400001928E-02 0.  1.
    10030    2    1    2    0    0  0.00000000000E+00  0.00000000000E+00 -0.26465222280E+03  0.35157841217E+04  0.35058090638E+04 0.  0.
        3    1    3    3  502    0  0.93237286266E+01  0.24773457684E+03  0.16078965461E+04  0.16268960217E+04  0.10100000352E+00 0. -1.
       -3    1    3    3    0  502 -0.93237286266E+01 -0.24773457684E+03 -0.18725487689E+04  0.18888881000E+04  0.10100000352E+00 0.  1.
</event>
<event>
 5   0  0.1378620E-06  0.3545885E+04  0.7818609E-02  0.8103001E-01
        2   -1    0    0  501    0  0.00000000000E+00  0.00000000000E+00  0.25778258627E+04  0.25778258627E+04  0.25500000920E-02 0.  1.
       -2   -1    0    0    0  501  0.00000000000E+00  0.00000000000E+00 -0.12193704470E+04  0.12193704470E+04  0.25500000920E-02 0. -1.
    10030    2    1    2    0    0  0.00000000000E+00  0.00000000000E+00  0.13584554157E+04  0.37971963097E+04  0.35458847553E+04 0.  0.
        2    1    3    3  502    0  0.53683701214E+03 -0.11697111105E+04 -0.62658316481E+03  0.14314414141E+04  0.25500000920E-02 0. -1.
       -2    1    3    3    0  502 -0.53683701214E+03  0.11697111105E+04  0.19850385805E+04  0.23657548955E+04  0.25500000920E-02 0.  1.
</event>
<event>
 5   0  0.1378620E-06  0.3491741E+04  0.7818609E-02  0.8115750E-01
        2   -1    0    0  501    0  0.00000000000E+00  0.00000000000E+00  0.16111851267E+04  0.16111851267E+04  0.25500000920E-02 0. -1.
       -2   -1    0    0    0  501  0.00000000000E+00  0.00000000000E+00 -0.18918147768E+04  0.18918147768E+04  0.25500000920E-02 0.  1.
    10030    2    1    2    0    0  0.00000000000E+00  0.00000000000E+00 -0.28062965018E+03  0.35029999035E+04  0.34917410161E+04 0.  0.
        2    1    3    3  502    0  0.15700562746E+04  0.69085456071E+03  0.18585980835E+03  0.17253696989E+04  0.25500000920E-02 0. -1.
       -2    1    3    3    0  502 -0.15700562746E+04 -0.69085456071E+03 -0.46648945852E+03  0.17776302046E+04  0.25500000920E-02 0.  1.
</event>
<event>
 5   0  0.4693374E-07  0.3121402E+04  0.7818609E-02  0.8209889E-01
       -1   -1    0    0    0  501  0.00000000000E+00  0.00000000000E+00  0.10814643018E+04  0.10814643018E+04  0.50400001928E-02 0.  1.
        1   -1    0    0  501    0  0.00000000000E+00  0.00000000000E+00 -0.22523054399E+04  0.22523054399E+04  0.50400001928E-02 0. -1.
    10030    2    1    2    0    0  0.00000000000E+00  0.00000000000E+00 -0.11708411381E+04  0.33337697417E+04  0.31214022041E+04 0.  0.
        1    1    3    3  502    0  0.16345559345E+03  0.12586649655E+04  0.38457288554E+03  0.13262169998E+04  0.50400001928E-02 0.  1.
       -1    1    3    3    0  502 -0.16345559345E+03 -0.12586649655E+04 -0.15554140236E+04  0.20075527418E+04  0.50400001928E-02 0. -1.
</event>
<event>
 5   0  0.1361560E-06  0.3491165E+04  0.7818609E-02  0.8115887E-01
       -2   -1    0    0    0  501  0.00000000000E+00  0.00000000000E+00  0.16179518000E+04  0.16179518000E+04  0.25500000920E-02 0.  1.
        2   -1    0    0  501    0  0.00000000000E+00  0.00000000000E+00 -0.18832815913E+04  0.18832815913E+04  0.25500000920E-02 0. -1.
    10030    2    1    2    0    0  0.00000000000E+00  0.00000000000E+00 -0.26532979132E+03  0.35012333914E+04  0.34911653302E+04 0.  0.
        3    1    3    3  502    0 -0.26345999049E+03 -0.15900363503E+04 -0.80499518085E+03  0.18015670992E+04  0.10100000352E+00 0. -1.
       -3    1    3    3    0  502  0.26345999049E+03  0.15900363503E+04  0.53966538953E+03  0.16996662921E+04  0.10100000352E+00 0.  1.
</event>
<event>
 5   0  0.1378620E-06  0.3497960E+04  0.7818609E-02  0.8114274E-01
       -2   -1    0    0    0  501  0.00000000000E+00  0.00000000000E+00  0.16410247346E+04  0.16410247346E+04  0.25500000920E-02 0. -1.
        2   -1    0    0  501    0  0.00000000000E+00  0.00000000000E+00 -0.18640370154E+04  0.18640370154E+04  0.25500000920E-02 0.  1.
    10030    2    1    2    0    0  0.00000000000E+00  0.00000000000E+00 -0.22301228074E+03  0.35050617500E+04  0.34979598903E+04 0.  0.
        2    1    3    3  502    0 -0.12107997122E+02  0.11028793440E+04  0.12486153097E+04  0.16659920896E+04  0.25500000920E-02 0. -1.
       -2    1    3    3    0  502  0.12107997122E+02 -0.11028793440E+04 -0.14716275904E+04  0.18390696604E+04  0.25500000920E-02 0.  1.
</event>
<event>
 5   0  0.4700769E-07  0.3451681E+04  0.7818609E-02  0.8125337E-01
        1   -1    0    0  501    0  0.00000000000E+00  0.00000000000E+00  0.11687019289E+04  0.11687019289E+04  0.50400001928E-02 0.  1.
       -1   -1    0    0    0  501  0.00000000000E+00  0.00000000000E+00 -0.25485750582E+04  0.25485750582E+04  0.50400001928E-02 0. -1.
    10030    2    1    2    0    0  0.00000000000E+00  0.00000000000E+00 -0.13798731293E+04  0.37172769871E+04  0.34516805104E+04 0.  0.
        3    1    3    3  502    0 -0.12207315760E+04  0.17601361766E+03  0.61016561835E+03  0.13760335992E+04  0.10100000352E+00 0.  1.
       -3    1    3    3    0  502  0.12207315760E+04 -0.17601361766E+03 -0.19900387476E+04  0.23412433879E+04  0.10100000352E+00 0. -1.
</event>
<event>
 5   0  0.4409125E-07  0.3667607E+04  0.7818609E-02  0.8075179E-01
        1   -1    0    0  501    0  0.00000000000E+00  0.00000000000E+00  0.11320991338E+04  0.11320991338E+04  0.50400001928E-02 0.  1.
       -1   -1    0    0    0  501  0.00000000000E+00  0.00000000000E+00 -0.29704428941E+04  0.29704428941E+04  0.50400001928E-02 0. -1.
    10030    2    1    2    0    0  0.00000000000E+00  0.00000000000E+00 -0.18383437603E+04  0.41025420279E+04  0.36676073004E+04 0.  0.
        5    1    3    3  502    0 -0.35537145530E+03  0.12457865125E+04  0.53264212451E+03  0.14007150420E+04  0.46999998093E+01 0.  1.
       -5    1    3    3    0  502  0.35537145530E+03 -0.12457865125E+04 -0.23709858848E+04  0.27018269859E+04  0.46999998093E+01 0. -1.
</event>
<event>
 5   0  0.4591195E-07  0.3496801E+04  0.7818609E-02  0.8114549E-01
       -1   -1    0    0    0  501  0.00000000000E+00  0.00000000000E+00  0.15471938565E+04  0.15471938565E+04  0.50400001928E-02 0.  1.
        1   -1    0    0  501    0  0.00000000000E+00  0.00000000000E+00 -0.19757729404E+04  0.19757729405E+04  0.50400001928E-02 0. -1.
    10030    2    1    2    0    0  0.00000000000E+00  0.00000000000E+00 -0.42857908397E+03  0.35229667969E+04  0.34968006836E+04 0.  0.
        4    1    3    3  502    0 -0.33430949884E+03  0.10427784422E+04 -0.15874825700E+04  0.19285362956E+04  0.12699999809E+01 0. -1.
       -4    1    3    3    0  502  0.33430949884E+03 -0.10427784422E+04  0.11589034861E+04  0.15944305013E+04  0.12699999809E+01 0.  1.
</event>
<event>
 5   0  0.1361560E-06  0.3430182E+04  0.7818609E-02  0.8130538E-01
        2   -1    0    0  501    0  0.00000000000E+00  0.00000000000E+00  0.15505991617E+04  0.15505991617E+04  0.25500000920E-02 0.  1.
       -2   -1    0    0    0  501  0.00000000000E+00  0.00000000000E+00 -0.18970321075E+04  0.18970321075E+04  0.25500000920E-02 0. -1.
    10030    2    1    2    0    0  0.00000000000E+00  0.00000000000E+00 -0.34643294588E+03  0.34476312692E+04  0.34301815670E+04 0.  0.
        3    1    3    3  502    0  0.21409051989E+03  0.91013239445E+03  0.12719298627E+04  0.15786010617E+04  0.10100000352E+00 0.  1.
       -3    1    3    3    0  502 -0.21409051989E+03 -0.91013239445E+03 -0.16183628086E+04  0.18690302075E+04  0.10100000352E+00 0. -1.
</event>
<event>
 5   0  0.1378620E-06  0.3500758E+04  0.7818609E-02  0.8113610E-01
        2   -1    0    0  501    0  0.00000000000E+00  0.00000000000E+00  0.13854307494E+04  0.13854307494E+04  0.25500000920E-02 0.  1.
       -2   -1    0    0    0  501  0.00000000000E+00  0.00000000000E+00 -0.22114612988E+04  0.22114612988E+04  0.25500000920E-02 0. -1.
    10030    2    1    2    0    0  0.00000000000E+00  0.00000000000E+00 -0.82603054933E+03  0.35968920482E+04  0.35007579091E+04 0.  0.
        2    1    3    3  502    0 -0.11052892224E+02  0.14835276478E+04  0.54139034080E+03  0.15792656361E+04  0.25500000920E-02 0.  1.
       -2    1    3    3    0  502  0.11052892224E+02 -0.14835276478E+04 -0.13674208901E+04  0.20176264121E+04  0.25500000920E-02 0. -1.
</event>
<event>
 5   0  0.1387133E-06  0.3530237E+04  0.7818609E-02  0.8106661E-01
        2   -1    0    0  501    0  0.00000000000E+00  0.00000000000E+00  0.28095834395E+04  0.28095834395E+04  0.25500000920E-02 0. -1.
       -2   -1    0    0    0  501  0.00000000000E+00  0.00000000000E+00 -0.11089339422E+04  0.11089339422E+04  0.25500000920E-02 0.  1.
    10030    2    1    2    0    0  0.00000000000E+00  0.00000000000E+00  0.17006494973E+04  0.39185173817E+04  0.35302365018E+04 0.  0.
        4    1    3    3  502    0 -0.76694107025E+03 -0.18700006592E+03  0.26027246691E+04  0.27198060493E+04  0.12699999809E+01 0. -1.
       -4    1    3    3    0  502  0.76694107025E+03  0.18700006592E+03 -0.90207517184E+03  0.11987113324E+04  0.12699999809E+01 0.  1.
</event>
<event>
 5   0  0.4557237E-07  0.3468218E+04  0.7818609E-02  0.8121363E-01
        1   -1    0    0  501    0  0.00000000000E+00  0.00000000000E+00  0.28617516798E+04  0.28617516798E+04  0.50400001928E-02 0. -1.
       -1   -1    0    0    0  501  0.00000000000E+00  0.00000000000E+00 -0.10508019737E+04  0.10508019737E+04  0.50400001928E-02 0.  1.
    10030    2    1    2    0    0  0.00000000000E+00  0.00000000000E+00  0.18109497061E+04  0.39125536535E+04  0.34682181669E+04 0.  0.
        2    1    3    3  502    0  0.40212592807E+03  0.14254497883E+04 -0.11203479440E+03  0.14853161805E+04  0.25500000920E-02 0.  1.
       -2    1    3    3    0  502 -0.40212592807E+03 -0.14254497883E+04  0.19229845005E+04  0.24272374730E+04  0.25500000920E-02 0. -1.
</event>
<event>
 5   0  0.1361560E-06  0.3501634E+04  0.7818609E-02  0.8113403E-01
       -2   -1    0    0    0  501  0.00000000000E+00  0.00000000000E+00  0.12305917884E+04  0.12305917884E+04  0.25500000920E-02 0. -1.
        2   -1    0    0  501    0  0.00000000000E+00  0.00000000000E+00 -0.24909641834E+04  0.24909641834E+04  0.25500000920E-02 0.  1.
    10030    2    1    2    0    0  0.00000000000E+00  0.00000000000E+00 -0.12603723950E+04  0.37215559717E+04  0.35016339438E+04 0.  0.
        3    1    3    3  502    0 -0.59159176204E+03 -0.11586957573E+04 -0.18754403044E+04  0.22825058634E+04  0.10100000352E+00 0.  1.
       -3    1    3    3    0  502  0.59159176204E+03  0.11586957573E+04  0.61506790940E+03  0.14390501083E+04  0.10100000352E+00 0. -1.
</event>
<event>
 5   0  0.1378620E-06  0.3496784E+04  0.7818609E-02  0.8114553E-01
       -2   -1    0    0    0  501  0.00000000000E+00  0.00000000000E+00  0.20608360379E+04  0.20608360379E+04  0.25500000920E-02 0.  1.
        2   -1    0    0  501    0  0.00000000000E+00  0.00000000000E+00 -0.14833176213E+04  0.14833176213E+04  0.25500000920E-02 0. -1.
    10030    2    1    2    0    0  0.00000000000E+00  0.00000000000E+00  0.57751841659E+03  0.35441536591E+04  0.34967838992E+04 0.  0.
        2    1    3    3  502    0  0.45100377271E+03 -0.25037798191E+02  0.20006761649E+04  0.20510330107E+04  0.25500000920E-02 0.  1.
       -2    1    3    3    0  502 -0.45100377271E+03  0.25037798191E+02 -0.14231577483E+04  0.14931206484E+04  0.25500000920E-02 0. -1.
</event>
<event>
 5   0  0.4693374E-07  0.2786615E+04  0.7818609E-02  0.8307436E-01
        1   -1    0    0  501    0  0.00000000000E+00  0.00000000000E+00  0.15072386426E+04  0.15072386426E+04  0.50400001928E-02 0.  1.
       -1   -1    0    0    0  501  0.00000000000E+00  0.00000000000E+00 -0.12879880507E+04  0.12879880508E+04  0.50400001928E-02 0. -1.
    10030    2    1    2    0    0  0.00000000000E+00  0.00000000000E+00  0.21925059186E+03  0.27952266934E+04  0.27866146926E+04 0.  0.
        1    1    3    3  502    0  0.16088227652E+03 -0.13118866574E+04 -0.33261778257E+03  0.13629249055E+04  0.50400001928E-02 0. -1.
       -1    1    3    3    0  502 -0.16088227652E+03  0.13118866574E+04  0.55186837443E+03  0.14323017879E+04  0.50400001928E-02 0.  1.
</event>
<event>
 5   0  0.4409125E-07  0.3496636E+04  0.7818609E-02  0.8114588E-01
        1   -1    0    0  501    0  0.00000000000E+00  0.00000000000E+00  0.16188409634E+04  0.16188409634E+04  0.50400001928E-02 0.  1.
       -1   -1    0    0    0  501  0.00000000000E+00  0.00000000000E+00 -0.18881507046E+04  0.18881507046E+04  0.50400001928E-02 0. -1.
    10030    2    1    2    0    0  0.00000000000E+00  0.00000000000E+00 -0.26930974116E+03  0.35069916680E+04  0.34966359294E+04 0.  0.
        5    1    3    3  502    0 -0.11303376768E+03 -0.65178415138E+03  0.14884687707E+04  0.16288525359E+04  0.46999998093E+01 0.  1.
       -5    1    3    3    0  502  0.11303376768E+03  0.65178415138E+03 -0.17577785118E+04  0.18781391320E+04  0.46999998093E+01 0. -1.
</event>
<event>
 5   0  0.4591195E-07  0.3463998E+04  0.7818609E-02  0.8122375E-01
       -1   -1    0    0    0  501  0.00000000000E+00  0.00000000000E+00  0.20579267446E+04  0.20579267446E+04  0.50400001928E-02 0.  1.
        1   -1    0    0  501    0  0.00000000000E+00  0.00000000000E+00 -0.14576905518E+04  0.14576905518E+04  0.50400001928E-02 0. -1.
    10030    2    1    2    0    0  0.00000000000E+00  0.00000000000E+00  0.60023619280E+03  0.35156172964E+04  0.34639979053E+04 0.  0.
        4    1    3    3  502    0 -0.11455364468E+04 -0.88799791781E+03  0.12624165439E+04  0.19221059274E+04  0.12699999809E+01 0.  1.
       -4    1    3    3    0  502  0.11455364468E+04  0.88799791781E+03 -0.66218035108E+03  0.15935113690E+04  0.12699999809E+01 0. -1.
</event>
<event>
 5   0  0.4700769E-07  0.3663222E+04  0.7818609E-02  0.8076161E-01
        1   -1    0    0  501    0  0.00000000000E+00  0.00000000000E+00  0.20938988716E+04  0.20938988716E+04  0.50400001928E-02 0.  1.
       -1   -1    0    0    0  501  0.00000000000E+00  0.00000000000E+00 -0.16021782282E+04  0.16021782282E+04  0.50400001928E-02 0. -1.
    10030    2    1    2    0    0  0.00000000000E+00  0.00000000000E+00  0.49172064336E+03  0.36960770998E+04  0.36632221795E+04 0.  0.
        3    1    3    3  502    0 -0.91670211115E+02 -0.14643018986E+04  0.13521502507E+04  0.19952177296E+04  0.10100000352E+00 0.  1.
       -3    1    3    3    0  502  0.91670211115E+02  0.14643018986E+04 -0.86042960733E+03  0.17008593702E+04  0.10100000352E+00 0. -1.
</event>
<event>
 5   0  0.1361560E-06  0.3529144E+04  0.7818609E-02  0.8106918E-01
       -2   -1    0    0    0  501  0.00000000000E+00  0.00000000000E+00  0.12438103008E+04  0.12438103008E+04  0.25500000920E-02 0. -1.
        2   -1    0    0  501    0  0.00000000000E+00  0.00000000000E+00 -0.25033680476E+04  0.25033680476E+04  0.25500000920E-02 0.  1.
    10030    2    1    2    0    0  0.00000000000E+00  0.00000000000E+00 -0.12595577468E+04  0.37471783485E+04  0.35291443521E+04 0.  0.
        3    1    3    3  502    0 -0.16070092344E+04  0.55358505666E+03 -0.12637837704E+03  0.17043786548E+04  0.10100000352E+00 0. -1.
       -3    1    3    3    0  502  0.16070092344E+04 -0.55358505666E+03 -0.11331793698E+04  0.20427996937E+04  0.10100000352E+00 0.  1.
</event>
<event>
 5   0  0.4591195E-07  0.2836101E+04  0.7818609E-02  0.8292147E-01
       -1   -1    0    0    0  501  0.00000000000E+00  0.00000000000E+00  0.15645386225E+04  0.15645386225E+04  0.50400001928E-02 0.  1.
        1   -1    0    0  501    0  0.00000000000E+00  0.00000000000E+00 -0.12852783068E+04  0.12852783068E+04  0.50400001928E-02 0. -1.
    10030    2    1    2    0    0  0.00000000000E+00  0.00000000000E+00  0.27926031569E+03  0.28498169294E+04  0.28361012336E+04 0.  0.
        4    1    3    3  502    0 -0.13033145660E+03 -0.54175022475E+03 -0.11706647027E+04  0.12965095656E+04  0.12699999809E+01 0. -1.
       -4    1    3    3    0  502  0.13033145660E+03  0.54175022475E+03  0.14499250184E+04  0.15533073638E+04  0.12699999809E+01 0.  1.
</event>
<event>
 5   0  0.1442864E-06  0.3417847E+04  0.7818609E-02  0.8133540E-01
       -2   -1    0    0    0  501  0.00000000000E+00  0.00000000000E+00  0.33532623339E+04  0.33532623339E+04  0.25500000920E-02 0.  1.
        2   -1    0    0  501    0  0.00000000000E+00  0.00000000000E+00 -0.87091904060E+03  0.87091904060E+03  0.25500000920E-02 0. -1.
    10030    2    1    2    0    0  0.00000000000E+00  0.00000000000E+00  0.24823432933E+04  0.42241813745E+04  0.34178472843E+04 0.  0.
        1    1    3    3  502    0  0.10367861618E+04 -0.96521179026E+03  0.59682063625E+02  0.14177874643E+04  0.50400001928E-02 0. -1.
       -1    1    3    3    0  502 -0.10367861618E+04  0.96521179026E+03  0.24226612297E+04  0.28063939102E+04  0.50400001928E-02 0.  1.
</event>
<event>
 5   0  0.4557237E-07  0.3489210E+04  0.7818609E-02  0.8116352E-01
        1   -1    0    0  501    0  0.00000000000E+00  0.00000000000E+00  0.95628009336E+03  0.95628009337E+03  0.50400001928E-02 0. -1.
       -1   -1    0    0    0  501  0.00000000000E+00  0.00000000000E+00 -0.31827982677E+04  0.31827982677E+04  0.50400001928E-02 0.  1.
    10030    2    1    2    0    0  0.00000000000E+00  0.00000000000E+00 -0.22265181744E+04  0.41390783611E+04  0.34892100107E+04 0.  0.
        2    1    3    3  502    0  0.16527987574E+04 -0.98881287943E+02 -0.17652929422E+04  0.24202851925E+04  0.25500000920E-02 0.  1.
       -2    1    3    3    0  502 -0.16527987574E+04  0.98881287943E+02 -0.46122523218E+03  0.17187931686E+04  0.25500000920E-02 0. -1.
</event>
<event>
 5   0  0.4700769E-07  0.3499372E+04  0.7818609E-02  0.8113939E-01
       -1   -1    0    0    0  501  0.00000000000E+00  0.00000000000E+00  0.22829289093E+04  0.22829289093E+04  0.50400001928E-02 0. -1.
        1   -1    0    0  501    0  0.00000000000E+00  0.00000000000E+00 -0.13409974150E+04  0.13409974150E+04  0.50400001928E-02 0.  1.
    10030    2    1    2    0    0  0.00000000000E+00  0.00000000000E+00  0.94193149437E+03  0.36239263243E+04  0.34993723815E+04 0.  0.
        3    1    3    3  502    0  0.11866029677E+04  0.97777301896E+03  0.13357543460E+04  0.20367391494E+04  0.10100000352E+00 0. -1.
       -3    1    3    3    0  502 -0.11866029677E+04 -0.97777301896E+03 -0.39382285163E+03  0.15871871749E+04  0.10100000352E+00 0.  1.
</event>
<event>
 5   0  0.1387133E-06  0.2635517E+04  0.7818609E-02  0.8356236E-01
        2   -1    0    0  501    0  0.00000000000E+00  0.00000000000E+00  0.15365651223E+04  0.15365651223E+04  0.25500000920E-02 0. -1.
       -2   -1    0    0    0  501  0.00000000000E+00  0.00000000000E+00 -0.11301101392E+04  0.11301101392E+04  0.25500000920E-02 0.  1.
    10030    2    1    2    0    0  0.00000000000E+00  0.00000000000E+00  0.40645498314E+03  0.26666752616E+04  0.26355172732E+04 0.  0.
        4    1    3    3  502    0 -0.37489387322E+03 -0.10022411105E+04 -0.57492477568E+03  0.12147315631E+04  0.12699999809E+01 0.  1.
       -4    1    3    3    0  502  0.37489387322E+03  0.10022411105E+04  0.98137975882E+03  0.14519436985E+04  0.12699999809E+01 0. -1.
</event>
<event>
 5   0  0.4591195E-07  0.2930999E+04  0.7818609E-02  0.8263714E-01
       -1   -1    0    0    0  501  0.00000000000E+00  0.00000000000E+00  0.89881306267E+03  0.89881306268E+03  0.50400001928E-02 0. -1.
        1   -1    0    0  501    0  0.00000000000E+00  0.00000000000E+00 -0.23894721178E+04  0.23894721179E+04  0.50400001928E-02 0.  1.
    10030    2    1    2    0    0  0.00000000000E+00  0.00000000000E+00 -0.14906590552E+04  0.32882851805E+04  0.29309989781E+04 0.  0.
        4    1    3    3  502    0 -0.16926381568E+03 -0.68215318494E+03  0.69739258334E+03  0.99012182847E+03  0.12699999809E+01 0. -1.
       -4    1    3    3    0  502  0.16926381568E+03  0.68215318494E+03 -0.21880516385E+04  0.22981633521E+04  0.12699999809E+01 0.  1.
</event>
<event>
 5   0  0.1378620E-06  0.3030103E+04  0.7818609E-02  0.8235187E-01
        2   -1    0    0  501    0  0.00000000000E+00  0.00000000000E+00  0.13685943798E+04  0.13685943798E+04  0.25500000920E-02 0. -1.
       -2   -1    0    0    0  501  0.00000000000E+00  0.00000000000E+00 -0.16771816363E+04  0.16771816363E+04  0.25500000920E-02 0.  1.
    10030    2    1    2    0    0  0.00000000000E+00  0.00000000000E+00 -0.30858725653E+03  0.30457760161E+04  0.30301032071E+04 0.  0.
        2    1    3    3  502    0  0.11943961484E+04 -0.92947647738E+03 -0.22445926876E+03  0.15299969427E+04  0.25500000920E-02 0.  1.
       -2    1    3    3    0  502 -0.11943961484E+04  0.92947647738E+03 -0.84127987779E+02  0.15157790735E+04  0.25500000920E-02 0. -1.
</event>
<event>
 5   0  0.4409125E-07  0.3511320E+04  0.7818609E-02  0.8111112E-01
        1   -1    0    0  501    0  0.00000000000E+00  0.00000000000E+00  0.15638884744E+04  0.15638884744E+04  0.50400001928E-02 0.  1.
       -1   -1    0    0    0  501  0.00000000000E+00  0.00000000000E+00 -0.19709479281E+04  0.19709479281E+04  0.50400001928E-02 0. -1.
    10030    2    1    2    0    0  0.00000000000E+00  0.00000000000E+00 -0.40705945365E+03  0.35348364025E+04  0.35113204060E+04 0.  0.
        5    1    3    3  502    0  0.10531508391E+04 -0.11125035994E+04  0.65984427765E+03  0.16679950567E+04  0.46999998093E+01 0.  1.
       -5    1    3    3    0  502 -0.10531508391E+04  0.11125035994E+04 -0.10669037313E+04  0.18668413458E+04  0.46999998093E+01 0. -1.
</event>
<event>
 5   0  0.1361560E-06  0.3484230E+04  0.7818609E-02  0.8117537E-01
        2   -1    0    0  501    0  0.00000000000E+00  0.00000000000E+00  0.22699540395E+04  0.22699540395E+04  0.25500000920E-02 0.  1.
       -2   -1    0    0    0  501  0.00000000000E+00  0.00000000000E+00 -0.13370160527E+04  0.13370160527E+04  0.25500000920E-02 0. -1.
    10030    2    1    2    0    0  0.00000000000E+00  0.00000000000E+00  0.93293798681E+03  0.36069700923E+04  0.34842301817E+04 0.  0.
        3    1    3    3  502    0 -0.14576417978E+04  0.94684241020E+03  0.34514486633E+03  0.17721047230E+04  0.10100000352E+00 0.  1.
       -3    1    3    3    0  502  0.14576417978E+04 -0.94684241020E+03  0.58779312048E+03  0.18348653692E+04  0.10100000352E+00 0. -1.
</event>
<event>
 5   0  0.4557237E-07  0.3489189E+04  0.7818609E-02  0.8116357E-01
        1   -1    0    0  501    0  0.00000000000E+00  0.00000000000E+00  0.12589329659E+04  0.12589329659E+04  0.50400001928E-02 0.  1.
       -1   -1    0    0    0  501  0.00000000000E+00  0.00000000000E+00 -0.24176113631E+04  0.24176113631E+04  0.50400001928E-02 0. -1.
    10030    2    1    2    0    0  0.00000000000E+00  0.00000000000E+00 -0.11586783972E+04  0.36765443291E+04  0.34891893866E+04 0.  0.
        2    1    3    3  502    0 -0.90948858392E+03  0.73964417521E+03 -0.19407564862E+04  0.22673285445E+04  0.25500000920E-02 0. -1.
       -2    1    3    3    0  502  0.90948858392E+03 -0.73964417521E+03  0.78207808896E+03  0.14092157846E+04  0.25500000920E-02 0.  1.
</event>
<event>
 5   0  0.1378620E-06  0.3563585E+04  0.7818609E-02  0.8098884E-01
       -2   -1    0    0    0  501  0.00000000000E+00  0.00000000000E+00  0.16793022675E+04  0.16793022675E+04  0.25500000920E-02 0.  1.
        2   -1    0    0  501    0  0.00000000000E+00  0.00000000000E+00 -0.18905374088E+04  0.18905374088E+04  0.25500000920E-02 0. -1.
    10030    2    1    2    0    0  0.00000000000E+00  0.00000000000E+00 -0.21123514130E+03  0.35698396764E+04  0.35635845760E+04 0.  0.
        2    1    3    3  502    0 -0.10044301812E+04 -0.27810677436E+03 -0.15533395245E+04  0.18705846801E+04  0.25500000920E-02 0. -1.
       -2    1    3    3    0  502  0.10044301812E+04  0.27810677436E+03  0.13421043832E+04  0.16992549963E+04  0.25500000920E-02 0.  1.
</event>
<event>
 5   0  0.1442864E-06  0.3564890E+04  0.7818609E-02  0.8098582E-01
        2   -1    0    0  501    0  0.00000000000E+00  0.00000000000E+00  0.17881676390E+04  0.17881676390E+04  0.25500000920E-02 0. -1.
       -2   -1    0    0    0  501  0.00000000000E+00  0.00000000000E+00 -0.17767410104E+04  0.17767410104E+04  0.25500000920E-02 0.  1.
    10030    2    1    2    0    0  0.00000000000E+00  0.00000000000E+00  0.11426628637E+02  0.35649086494E+04  0.35648903365E+04 0.  0.
        1    1    3    3  502    0 -0.23835134888E+03  0.17205698467E+04  0.40563888014E+03  0.17837362092E+04  0.50400001928E-02 0.  1.
       -1    1    3    3    0  502  0.23835134888E+03 -0.17205698467E+04 -0.39421225150E+03  0.17811724403E+04  0.50400001928E-02 0. -1.
</event>
<event>
 5   0  0.4700769E-07  0.3484868E+04  0.7818609E-02  0.8117385E-01
       -1   -1    0    0    0  501  0.00000000000E+00  0.00000000000E+00  0.14563018169E+04  0.14563018169E+04  0.50400001928E-02 0.  1.
        1   -1    0    0  501    0  0.00000000000E+00  0.00000000000E+00 -0.20847855277E+04  0.20847855277E+04  0.50400001928E-02 0. -1.
    10030    2    1    2    0    0  0.00000000000E+00  0.00000000000E+00 -0.62848371073E+03  0.35410873446E+04  0.34848684061E+04 0.  0.
        3    1    3    3  502    0 -0.11645653230E+04  0.71028912195E+03  0.78738517845E+03  0.15750233198E+04  0.10100000352E+00 0.  1.
       -3    1    3    3    0  502  0.11645653230E+04 -0.71028912195E+03 -0.14158688892E+04  0.19660640249E+04  0.10100000352E+00 0. -1.
</event>
<event>
 5   0  0.4591195E-07  0.3515705E+04  0.7818609E-02  0.8110078E-01
       -1   -1    0    0    0  501  0.00000000000E+00  0.00000000000E+00  0.12675118131E+04  0.12675118131E+04  0.50400001928E-02 0. -1.
        1   -1    0    0  501    0  0.00000000000E+00  0.00000000000E+00 -0.24378834544E+04  0.24378834545E+04  0.50400001928E-02 0.  1.
    10030    2    1    2    0    0  0.00000000000E+00  0.00000000000E+00 -0.11703716413E+04  0.37053952676E+04  0.35157053787E+04 0.  0.
        4    1    3    3  502    0 -0.28107179846E+03 -0.14017277493E+04 -0.16632135460E+04  0.21931992502E+04  0.12699999809E+01 0.  1.
       -4    1    3    3    0  502  0.28107179846E+03  0.14017277493E+04  0.49284190460E+03  0.15121960173E+04  0.12699999809E+01 0. -1.
</event>
<event>
 5   0  0.1378620E-06  0.3363258E+04  0.7818609E-02  0.8146983E-01
        2   -1    0    0  501    0  0.00000000000E+00  0.00000000000E+00  0.24492399693E+04  0.24492399693E+04  0.25500000920E-02 0. -1.
       -2   -1    0    0    0  501  0.00000000000E+00  0.00000000000E+00 -0.11545934459E+04  0.11545934459E+04  0.25500000920E-02 0.  1.
    10030    2    1    2    0    0  0.00000000000E+00  0.00000000000E+00  0.12946465234E+04  0.36038334152E+04  0.33632581917E+04 0.  0.
        2    1    3    3  502    0 -0.65741044456E+03 -0.59467597928E+03 -0.88389646383E+03  0.12518390359E+04  0.25500000920E-02 0.  1.
       -2    1    3    3    0  502  0.65741044456E+03  0.59467597928E+03  0.21785429873E+04  0.23519943793E+04  0.25500000920E-02 0. -1.
</event>
<event>
 5   0  0.1387133E-06  0.3496680E+04  0.7818609E-02  0.8114577E-01
        2   -1    0    0  501    0  0.00000000000E+00  0.00000000000E+00  0.20439650515E+04  0.20439650515E+04  0.25500000920E-02 0.  1.
       -2   -1    0    0    0  501  0.00000000000E+00  0.00000000000E+00 -0.14954717788E+04  0.14954717788E+04  0.25500000920E-02 0. -1.
    10030    2    1    2    0    0  0.00000000000E+00  0.00000000000E+00  0.54849327272E+03  0.35394368303E+04  0.34966795972E+04 0.  0.
        4    1    3    3  502    0 -0.64708747936E+03 -0.41506460060E+03  0.18636990449E+04  0.20160299034E+04  0.12699999809E+01 0.  1.
       -4    1    3    3    0  502  0.64708747936E+03  0.41506460060E+03 -0.13152057722E+04  0.15234069268E+04  0.12699999809E+01 0. -1.
</event>
<event>
 5   0  0.1361560E-06  0.3472892E+04  0.7818609E-02  0.8120244E-01
        2   -1    0    0  501    0  0.00000000000E+00  0.00000000000E+00  0.20783997663E+04  0.20783997663E+04  0.25500000920E-02 0. -1.
       -2   -1    0    0    0  501  0.00000000000E+00  0.00000000000E+00 -0.14507532870E+04  0.14507532870E+04  0.25500000920E-02 0.  1.
    10030    2    1    2    0    0  0.00000000000E+00  0.00000000000E+00  0.62764647928E+03  0.35291530533E+04  0.34728923351E+04 0.  0.
        3    1    3    3  502    0 -0.81927773992E+03  0.33278663211E+03  0.18324497885E+04  0.20346584960E+04  0.10100000352E+00 0. -1.
       -3    1    3    3    0  502  0.81927773992E+03 -0.33278663211E+03 -0.12048033093E+04  0.14944945573E+04  0.10100000352E+00 0.  1.
</event>
<event>
 5   0  0.1348388E-06  0.3575356E+04  0.7818609E-02  0.8096160E-01
       -2   -1    0    0    0  501  0.00000000000E+00  0.00000000000E+00  0.12162488722E+04  0.12162488722E+04  0.25500000920E-02 0.  1.
        2   -1    0    0  501    0  0.00000000000E+00  0.00000000000E+00 -0.26275809280E+04  0.26275809280E+04  0.25500000920E-02 0. -1.
    10030    2    1    2    0    0  0.00000000000E+00  0.00000000000E+00 -0.14113320559E+04  0.38438298002E+04  0.35753558370E+04 0.  0.
        5    1    3    3  502    0 -0.27782820580E+03 -0.13408957273E+04  0.52979001918E+03  0.14682947313E+04  0.46999998093E+01 0.  1.
       -5    1    3    3    0  502  0.27782820580E+03  0.13408957273E+04 -0.19411220750E+04  0.23755350689E+04  0.46999998093E+01 0. -1.
</event>
<event>
 5   0  0.4591195E-07  0.3448357E+04  0.7818609E-02  0.8126139E-01
        1   -1    0    0  501    0  0.00000000000E+00  0.00000000000E+00  0.24193006906E+04  0.24193006906E+04  0.50400001928E-02 0. -1.
       -1   -1    0    0    0  501  0.00000000000E+00  0.00000000000E+00 -0.12287810167E+04  0.12287810168E+04  0.50400001928E-02 0.  1.
    10030    2    1    2    0    0  0.00000000000E+00  0.00000000000E+00  0.11905196738E+04  0.36480817073E+04  0.34483565723E+04 0.  0.
        4    1    3    3  502    0 -0.14329328379E+04 -0.29387863754E+03  0.15608842770E+04  0.21391639747E+04  0.12699999809E+01 0. -1.
       -4    1    3    3    0  502  0.14329328379E+04  0.29387863754E+03 -0.37036460316E+03  0.15089177326E+04  0.12699999809E+01 0.  1.
</event>
<event>
 5   0  0.4409125E-07  0.3496097E+04  0.7818609E-02  0.8114716E-01
        1   -1    0    0  501    0  0.00000000000E+00  0.00000000000E+00  0.32052800989E+04  0.32052800989E+04  0.50400001928E-02 0.  1.
       -1   -1    0    0    0  501  0.00000000000E+00  0.00000000000E+00 -0.95332496927E+03  0.95332496928E+03  0.50400001928E-02 0. -1.
    10030    2    1    2    0    0  0.00000000000E+00  0.00000000000E+00  0.22519551297E+04  0.41586050682E+04  0.34960969963E+04 0.  0.
        5    1    3    3  502    0 -0.17253223253E+04 -0.18615702744E+03  0.13762248667E+04  0.22148156896E+04  0.46999998093E+01 0. -1.
       -5    1    3    3    0  502  0.17253223253E+04  0.18615702744E+03  0.87573026301E+03  0.19437893787E+04  0.46999998093E+01 0.  1.
</event>
<event>
 5   0  0.4693374E-07  0.3425979E+04  0.7818609E-02  0.8131560E-01
       -1   -1    0    0    0  501  0.00000000000E+00  0.00000000000E+00  0.89882948734E+03  0.89882948736E+03  0.50400001928E-02 0. -1.
        1   -1    0    0  501    0  0.00000000000E+00  0.00000000000E+00 -0.32646152778E+04  0.32646152778E+04  0.50400001928E-02 0.  1.
    10030    2    1    2    0    0  0.00000000000E+00  0.00000000000E+00 -0.23657857904E+04  0.41634447651E+04  0.34259786786E+04 0.  0.
        1    1    3    3  502    0  0.12468778214E+04 -0.11306085547E+04 -0.79600483949E+03  0.18618817659E+04  0.50400001928E-02 0.  1.
       -1    1    3    3    0  502 -0.12468778214E+04  0.11306085547E+04 -0.15697809509E+04  0.23015629993E+04  0.50400001928E-02 0. -1.
</event>
<event>
 5   0  0.1387133E-06  0.3517846E+04  0.7818609E-02  0.8109574E-01
        2   -1    0    0  501    0  0.00000000000E+00  0.00000000000E+00  0.16343257159E+04  0.16343257159E+04  0.25500000920E-02 0. -1.
       -2   -1    0    0    0  501  0.00000000000E+00  0.00000000000E+00 -0.18930187755E+04  0.18930187755E+04  0.25500000920E-02 0.  1.
    10030    2    1    2    0    0  0.00000000000E+00  0.00000000000E+00 -0.25869305960E+03  0.35273444915E+04  0.35178455143E+04 0.  0.
        4    1    3    3  502    0  0.14844832535E+04 -0.81409664677E+03 -0.60746084396E+03  0.17987368262E+04  0.12699999809E+01 0.  1.
       -4    1    3    3    0  502 -0.14844832535E+04  0.81409664677E+03  0.34876778437E+03  0.17286076653E+04  0.12699999809E+01 0. -1.
</event>
<event>
 5   0  0.1387133E-06  0.2924419E+04  0.7818609E-02  0.8265649E-01
        2   -1    0    0  501    0  0.00000000000E+00  0.00000000000E+00  0.28287266061E+04  0.28287266061E+04  0.25500000920E-02 0. -1.
       -2   -1    0    0    0  501  0.00000000000E+00  0.00000000000E+00 -0.75583714191E+03  0.75583714192E+03  0.25500000920E-02 0.  1.
    10030    2    1    2    0    0  0.00000000000E+00  0.00000000000E+00  0.20728894642E+04  0.35845637480E+04  0.29244190077E+04 0.  0.
        4    1    3    3  502    0  0.31933199423E+03 -0.33479234404E+01  0.27854582158E+04  0.28037052655E+04  0.12699999809E+01 0. -1.
       -4    1    3    3    0  502 -0.31933199423E+03  0.33479234404E+01 -0.71256875156E+03  0.78085848253E+03  0.12699999809E+01 0.  1.
</event>
<event>
 5   0  0.4409125E-07  0.3597673E+04  0.7818609E-02  0.8091025E-01
       -3   -1    0    0    0  501  0.00000000000E+00  0.00000000000E+00  0.12484145174E+04  0.12484145215E+04  0.10100000352E+00 0. -1.
        3   -1    0    0  501    0  0.00000000000E+00  0.00000000000E+00 -0.25919374850E+04  0.25919374870E+04  0.10100000352E+00 0.  1.
    10030    2    1    2    0    0  0.00000000000E+00  0.00000000000E+00 -0.13435229676E+04  0.38403520084E+04  0.35976728012E+04 0.  0.
        5    1    3    3  502    0  0.13616787583E+03  0.11197500990E+04  0.82397361782E+03  0.13969024975E+04  0.46999998093E+01 0. -1.
       -5    1    3    3    0  502 -0.13616787583E+03 -0.11197500990E+04 -0.21674965854E+04  0.24434495109E+04  0.46999998093E+01 0.  1.
</event>
<event>
 5   0  0.1378620E-06  0.3482462E+04  0.7818609E-02  0.8117959E-01
       -2   -1    0    0    0  501  0.00000000000E+00  0.00000000000E+00  0.20880958419E+04  0.20880958419E+04  0.25500000920E-02 0. -1.
        2   -1    0    0  501    0  0.00000000000E+00  0.00000000000E+00 -0.14519859532E+04  0.14519859532E+04  0.25500000920E-02 0.  1.
    10030    2    1    2    0    0  0.00000000000E+00  0.00000000000E+00  0.63610988867E+03  0.35400817951E+04  0.34824622504E+04 0.  0.
        2    1    3    3  502    0 -0.15633510802E+04  0.74010776472E+03  0.52151580547E+03  0.18066003539E+04  0.25500000920E-02 0. -1.
       -2    1    3    3    0  502  0.15633510802E+04 -0.74010776472E+03  0.11459408321E+03  0.17334814413E+04  0.25500000920E-02 0.  1.
</event>
<event>
 5   0  0.4557237E-07  0.3519823E+04  0.7818609E-02  0.8109108E-01
        1   -1    0    0  501    0  0.00000000000E+00  0.00000000000E+00  0.19890124492E+04  0.19890124492E+04  0.50400001928E-02 0. -1.
       -1   -1    0    0    0  501  0.00000000000E+00  0.00000000000E+00 -0.15571990523E+04  0.15571990523E+04  0.50400001928E-02 0.  1.
    10030    2    1    2    0    0  0.00000000000E+00  0.00000000000E+00  0.43181339696E+03  0.35462115015E+04  0.35198228938E+04 0.  0.
        2    1    3    3  502    0  0.36990780095E+03  0.15174787951E+04 -0.60116952362E+03  0.16736124016E+04  0.25500000920E-02 0.  1.
       -2    1    3    3    0  502 -0.36990780095E+03 -0.15174787951E+04  0.10329829206E+04  0.18725990999E+04  0.25500000920E-02 0. -1.
</event>
<event>
 5   0  0.4700769E-07  0.3193383E+04  0.7818609E-02  0.8190567E-01
        1   -1    0    0  501    0  0.00000000000E+00  0.00000000000E+00  0.24219460147E+04  0.24219460147E+04  0.50400001928E-02 0. -1.
       -1   -1    0    0    0  501  0.00000000000E+00  0.00000000000E+00 -0.10526343465E+04  0.10526343465E+04  0.50400001928E-02 0.  1.
    10030    2    1    2    0    0  0.00000000000E+00  0.00000000000E+00  0.13693116682E+04  0.34745803611E+04  0.31933828836E+04 0.  0.
        3    1    3    3  502    0  0.74655372125E+03  0.30398625642E+03 -0.81499738356E+03  0.11462856748E+04  0.10100000352E+00 0.  1.
       -3    1    3    3    0  502 -0.74655372125E+03 -0.30398625642E+03  0.21843090517E+04  0.23282946864E+04  0.10100000352E+00 0. -1.
</event>
<event>
 5   0  0.1348388E-06  0.3645817E+04  0.7818609E-02  0.8080077E-01
        2   -1    0    0  501    0  0.00000000000E+00  0.00000000000E+00  0.24748644448E+04  0.24748644448E+04  0.25500000920E-02 0. -1.
       -2   -1    0    0    0  501  0.00000000000E+00  0.00000000000E+00 -0.13426981238E+04  0.13426981238E+04  0.25500000920E-02 0.  1.
    10030    2    1    2    0    0  0.00000000000E+00  0.00000000000E+00  0.11321663211E+04  0.38175625686E+04  0.36458172454E+04 0.  0.
        5    1    3    3  502    0 -0.14870965374E+04 -0.28781034345E+03 -0.49593518475E+03  0.15938207876E+04  0.46999998093E+01 0.  1.
       -5    1    3    3    0  502  0.14870965374E+04  0.28781034345E+03  0.16281015058E+04  0.22237417810E+04  0.46999998093E+01 0. -1.
</event>
<event>
 5   0  0.1442864E-06  0.3469529E+04  0.7818609E-02  0.8121049E-01
       -2   -1    0    0    0  501  0.00000000000E+00  0.00000000000E+00  0.18663084615E+04  0.18663084615E+04  0.25500000920E-02 0.  1.
        2   -1    0    0  501    0  0.00000000000E+00  0.00000000000E+00 -0.16124919678E+04  0.16124919678E+04  0.25500000920E-02 0. -1.
    10030    2    1    2    0    0  0.00000000000E+00  0.00000000000E+00  0.25381649379E+03  0.34788004293E+04  0.34695287309E+04 0.  0.
        1    1    3    3  502    0  0.10996408738E+04 -0.29091882410E+03 -0.11863871953E+04  0.16435809657E+04  0.50400001928E-02 0. -1.
       -1    1    3    3    0  502 -0.10996408738E+04  0.29091882410E+03  0.14402036891E+04  0.18352194636E+04  0.50400001928E-02 0.  1.
</event>
<event>
 5   0  0.4591195E-07  0.3492421E+04  0.7818609E-02  0.8115588E-01
        1   -1    0    0  501    0  0.00000000000E+00  0.00000000000E+00  0.17181330148E+04  0.17181330148E+04  0.50400001928E-02 0. -1.
       -1   -1    0    0    0  501  0.00000000000E+00  0.00000000000E+00 -0.17747470209E+04  0.17747470209E+04  0.50400001928E-02 0.  1.
    10030    2    1    2    0    0  0.00000000000E+00  0.00000000000E+00 -0.56614006089E+02  0.34928800357E+04  0.34924211943E+04 0.  0.
        4    1    3    3  502    0  0.79086622403E+03  0.14959801053E+04 -0.45943669113E+03  0.17534279414E+04  0.12699999809E+01 0. -1.
       -4    1    3    3    0  502 -0.79086622403E+03 -0.14959801053E+04  0.40282268505E+03  0.17394520943E+04  0.12699999809E+01 0.  1.
</event>
<event>
 5   0  0.4591195E-07  0.3396835E+04  0.7818609E-02  0.8138683E-01
       -1   -1    0    0    0  501  0.00000000000E+00  0.00000000000E+00  0.16484741142E+04  0.16484741142E+04  0.50400001928E-02 0.  1.
        1   -1    0    0  501    0  0.00000000000E+00  0.00000000000E+00 -0.17498742481E+04  0.17498742481E+04  0.50400001928E-02 0. -1.
    10030    2    1    2    0    0  0.00000000000E+00  0.00000000000E+00 -0.10140013392E+03  0.33983483623E+04  0.33968352337E+04 0.  0.
        4    1    3    3  502    0 -0.11919099052E+04  0.11980750383E+04 -0.21985456286E+03  0.17042214237E+04  0.12699999809E+01 0. -1.
       -4    1    3    3    0  502  0.11919099052E+04 -0.11980750383E+04  0.11845442894E+03  0.16941269386E+04  0.12699999809E+01 0.  1.
</event>
<event>
 5   0  0.4409125E-07  0.3526102E+04  0.7818609E-02  0.8107632E-01
       -1   -1    0    0    0  501  0.00000000000E+00  0.00000000000E+00  0.14203618478E+04  0.14203618478E+04  0.50400001928E-02 0.  1.
        1   -1    0    0  501    0  0.00000000000E+00  0.00000000000E+00 -0.21884206658E+04  0.21884206658E+04  0.50400001928E-02 0. -1.
    10030    2    1    2    0    0  0.00000000000E+00  0.00000000000E+00 -0.76805881794E+03  0.36087825136E+04  0.35261022224E+04 0.  0.
        5    1    3    3  502    0  0.16776189498E+04 -0.52542168948E+02 -0.93627530200E+03  0.19219260005E+04  0.46999998093E+01 0. -1.
       -5    1    3    3    0  502 -0.16776189498E+04  0.52542168948E+02  0.16821648406E+03  0.16868565131E+04  0.46999998093E+01 0.  1.
</event>
<event>
 5   0  0.1387133E-06  0.2882150E+04  0.7818609E-02  0.8278208E-01
       -2   -1    0    0    0  501  0.00000000000E+00  0.00000000000E+00  0.87160920790E+03  0.87160920790E+03  0.25500000920E-02 0. -1.
        2   -1    0    0  501    0  0.00000000000E+00  0.00000000000E+00 -0.23826009493E+04  0.23826009493E+04  0.25500000920E-02 0.  1.
    10030    2    1    2    0    0  0.00000000000E+00  0.00000000000E+00 -0.15109917414E+04  0.32542101572E+04  0.28821498408E+04 0.  0.
        4    1    3    3  502    0  0.28870557372E+03  0.11171958233E+03  0.83362260119E+03  0.88924711272E+03  0.12699999809E+01 0. -1.
       -4    1    3    3    0  502 -0.28870557372E+03 -0.11171958233E+03 -0.23446143426E+04  0.23649630445E+04  0.12699999809E+01 0.  1.
</event>
<event>
 5   0  0.4409125E-07  0.3523080E+04  0.7818609E-02  0.8108342E-01
       -1   -1    0    0    0  501  0.00000000000E+00  0.00000000000E+00  0.25571603045E+04  0.25571603045E+04  0.50400001928E-02 0.  1.
        1   -1    0    0  501    0  0.00000000000E+00  0.00000000000E+00 -0.12134648112E+04  0.12134648112E+04  0.50400001928E-02 0. -1.
    10030    2    1    2    0    0  0.00000000000E+00  0.00000000000E+00  0.13436954934E+04  0.37706251157E+04  0.35230804964E+04 0.  0.
        5    1    3    3  502    0 -0.45265137017E+03  0.14688063821E+04  0.15929689953E+04  0.22135622333E+04  0.46999998093E+01 0.  1.
       -5    1    3    3    0  502  0.45265137017E+03 -0.14688063821E+04 -0.24927350195E+03  0.15570628824E+04  0.46999998093E+01 0. -1.
</event>
<event>
 5   0  0.1361560E-06  0.3445681E+04  0.7818609E-02  0.8126785E-01
        2   -1    0    0  501    0  0.00000000000E+00  0.00000000000E+00  0.18701793435E+04  0.18701793435E+04  0.25500000920E-02 0. -1.
       -2   -1    0    0    0  501  0.00000000000E+00  0.00000000000E+00 -0.15871099459E+04  0.15871099459E+04  0.25500000920E-02 0.  1.
    10030    2    1    2    0    0  0.00000000000E+00  0.00000000000E+00  0.28306939760E+03  0.34572892895E+04  0.34456814924E+04 0.  0.
        3    1    3    3  502    0  0.34089248330E+03 -0.29906532578E+03 -0.15261513145E+04  0.15921010015E+04  0.10100000352E+00 0.  1.
       -3    1    3    3    0  502 -0.34089248330E+03  0.29906532578E+03  0.18092207121E+04  0.18651882879E+04  0.10100000352E+00 0. -1.
</event>
<event>
 5   0  0.1361560E-06  0.3554186E+04  0.7818609E-02  0.8101067E-01
        2   -1    0    0  501    0  0.00000000000E+00  0.00000000000E+00  0.18796841897E+04  0.18796841897E+04  0.25500000920E-02 0.  1.
       -2   -1    0    0    0  501  0.00000000000E+00  0.00000000000E+00 -0.16801013853E+04  0.16801013853E+04  0.25500000920E-02 0. -1.
    10030    2    1    2    0    0  0.00000000000E+00  0.00000000000E+00  0.19958280447E+03  0.35597855750E+04  0.35541862703E+04 0.  0.
        3    1    3    3  502    0  0.78545182985E+03  0.13476376893E+04 -0.75301820241E+03  0.17320791962E+04  0.10100000352E+00 0. -1.
       -3    1    3    3    0  502 -0.78545182985E+03 -0.13476376893E+04  0.95260100688E+03  0.18277063788E+04  0.10100000352E+00 0.  1.
</event>
<event>
 5   0  0.4409125E-07  0.3129890E+04  0.7818609E-02  0.8207582E-01
        1   -1    0    0  501    0  0.00000000000E+00  0.00000000000E+00  0.16427826858E+04  0.16427826858E+04  0.50400001928E-02 0. -1.
       -1   -1    0    0    0  501  0.00000000000E+00  0.00000000000E+00 -0.14907952564E+04  0.14907952564E+04  0.50400001928E-02 0.  1.
    10030    2    1    2    0    0  0.00000000000E+00  0.00000000000E+00  0.15198742935E+03  0.31335779422E+04  0.31298898609E+04 0.  0.
        5    1    3    3  502    0  0.14031304435E+04  0.36623513000E+02  0.76884545699E+03  0.16003942483E+04  0.46999998093E+01 0. -1.
       -5    1    3    3    0  502 -0.14031304435E+04 -0.36623513000E+02 -0.61685802765E+03  0.15331836940E+04  0.46999998093E+01 0.  1.
</event>
<event>
 5   0  0.1361560E-06  0.3219294E+04  0.7818609E-02  0.8183740E-01
        2   -1    0    0  501    0  0.00000000000E+00  0.00000000000E+00  0.16637844307E+04  0.16637844307E+04  0.25500000920E-02 0. -1.
       -2   -1    0    0    0  501  0.00000000000E+00  0.00000000000E+00 -0.15572712310E+04  0.15572712310E+04  0.25500000920E-02 0.  1.
    10030    2    1    2    0    0  0.00000000000E+00  0.00000000000E+00  0.10651319972E+03  0.32210556617E+04  0.32192941018E+04 0.  0.
        3    1    3    3  502    0  0.76022258010E+03 -0.75077752993E+03  0.12578083527E+04  0.16503596981E+04  0.10100000352E+00 0. -1.
       -3    1    3    3    0  502 -0.76022258010E+03  0.75077752993E+03 -0.11512951529E+04  0.15706959636E+04  0.10100000352E+00 0.  1.
</event>
<event>
 5   0  0.1378620E-06  0.3448096E+04  0.7818609E-02  0.8126202E-01
       -2   -1    0    0    0  501  0.00000000000E+00  0.00000000000E+00  0.13646569455E+04  0.13646569455E+04  0.25500000920E-02 0. -1.
        2   -1    0    0  501    0  0.00000000000E+00  0.00000000000E+00 -0.21780867361E+04  0.21780867361E+04  0.25500000920E-02 0.  1.
    10030    2    1    2    0    0  0.00000000000E+00  0.00000000000E+00 -0.81342979057E+03  0.35427436817E+04  0.34480958179E+04 0.  0.
        2    1    3    3  502    0  0.33731203198E+03  0.11978371175E+03 -0.21394872658E+04  0.21692241251E+04  0.25500000920E-02 0.  1.
       -2    1    3    3    0  502 -0.33731203198E+03 -0.11978371175E+03  0.13260574752E+04  0.13735195565E+04  0.25500000920E-02 0. -1.
</event>
<event>
 5   0  0.1442864E-06  0.3497976E+04  0.7818609E-02  0.8114270E-01
       -2   -1    0    0    0  501  0.00000000000E+00  0.00000000000E+00  0.14781716277E+04  0.14781716278E+04  0.25500000920E-02 0.  1.
        2   -1    0    0  501    0  0.00000000000E+00  0.00000000000E+00 -0.20694202204E+04  0.20694202204E+04  0.25500000920E-02 0. -1.
    10030    2    1    2    0    0  0.00000000000E+00  0.00000000000E+00 -0.59124859268E+03  0.35475918482E+04  0.34979755607E+04 0.  0.
        1    1    3    3  502    0 -0.86913866964E+03 -0.11472735587E+04  0.71210934967E+03  0.16058450646E+04  0.50400001928E-02 0.  1.
       -1    1    3    3    0  502  0.86913866964E+03  0.11472735587E+04 -0.13033579424E+04  0.19417467836E+04  0.50400001928E-02 0. -1.
</event>
<event>
 5   0  0.4693374E-07  0.3657659E+04  0.7818609E-02  0.8077410E-01
        1   -1    0    0  501    0  0.00000000000E+00  0.00000000000E+00  0.18822868722E+04  0.18822868722E+04  0.50400001928E-02 0. -1.
       -1   -1    0    0    0  501  0.00000000000E+00  0.00000000000E+00 -0.17768907050E+04  0.17768907050E+04  0.50400001928E-02 0.  1.
    10030    2    1    2    0    0  0.00000000000E+00  0.00000000000E+00  0.10539616717E+03  0.36591775772E+04  0.36576593868E+04 0.  0.
        1    1    3    3  502    0  0.97145052926E+03 -0.11717977495E+04  0.10669196286E+04  0.18588016544E+04  0.50400001928E-02 0. -1.
       -1    1    3    3    0  502 -0.97145052926E+03  0.11717977495E+04 -0.96152346144E+03  0.18003759228E+04  0.50400001928E-02 0.  1.
</event>
<event>
 5   0  0.1387133E-06  0.3458888E+04  0.7818609E-02  0.8123603E-01
       -2   -1    0    0    0  501  0.00000000000E+00  0.00000000000E+00  0.11126909558E+04  0.11126909558E+04  0.25500000920E-02 0.  1.
        2   -1    0    0  501    0  0.00000000000E+00  0.00000000000E+00 -0.26880563506E+04  0.26880563506E+04  0.25500000920E-02 0. -1.
    10030    2    1    2    0    0  0.00000000000E+00  0.00000000000E+00 -0.15753653949E+04  0.38007473064E+04  0.34588876766E+04 0.  0.
        4    1    3    3  502    0  0.14837009444E+04 -0.62432353671E+03 -0.92869503634E+02  0.16123816945E+04  0.12699999809E+01 0. -1.
       -4    1    3    3    0  502 -0.14837009444E+04  0.62432353671E+03 -0.14824958912E+04  0.21883656119E+04  0.12699999809E+01 0.  1.
</event>
<event>
 5   0  0.1387133E-06  0.3444836E+04  0.7818609E-02  0.8126989E-01
       -2   -1    0    0    0  501  0.00000000000E+00  0.00000000000E+00  0.10639474376E+04  0.10639474376E+04  0.25500000920E-02 0. -1.
        2   -1    0    0  501    0  0.00000000000E+00  0.00000000000E+00 -0.27884117732E+04  0.27884117732E+04  0.25500000920E-02 0.  1.
    10030    2    1    2    0    0  0.00000000000E+00  0.00000000000E+00 -0.17244643356E+04  0.38523592108E+04  0.34448358806E+04 0.  0.
        4    1    3    3  502    0  0.61906895960E+03  0.14986769898E+04 -0.15118506257E+04  0.22169738437E+04  0.12699999809E+01 0.  1.
       -4    1    3    3    0  502 -0.61906895960E+03 -0.14986769898E+04 -0.21261370987E+03  0.16353853671E+04  0.12699999809E+01 0. -1.
</event>
<event>
 5   0  0.1348388E-06  0.3487447E+04  0.7818609E-02  0.8116771E-01
        2   -1    0    0  501    0  0.00000000000E+00  0.00000000000E+00  0.28991431983E+04  0.28991431983E+04  0.25500000920E-02 0.  1.
       -2   -1    0    0    0  501  0.00000000000E+00  0.00000000000E+00 -0.10487830339E+04  0.10487830339E+04  0.25500000920E-02 0. -1.
    10030    2    1    2    0    0  0.00000000000E+00  0.00000000000E+00  0.18503601644E+04  0.39479262322E+04  0.34874473181E+04 0.  0.
        5    1    3    3  502    0 -0.56944673693E+03  0.15473042480E+04  0.28267433264E+03  0.16728260192E+04  0.46999998093E+01 0. -1.
       -5    1    3    3    0  502  0.56944673693E+03 -0.15473042480E+04  0.15676858318E+04  0.22751002130E+04  0.46999998093E+01 0.  1.
</event>
<event>
 5   0  0.4591195E-07  0.3509196E+04  0.7818609E-02  0.8111614E-01
        1   -1    0    0  501    0  0.00000000000E+00  0.00000000000E+00  0.22145018749E+04  0.22145018749E+04  0.50400001928E-02 0.  1.
       -1   -1    0    0    0  501  0.00000000000E+00  0.00000000000E+00 -0.13902060671E+04  0.13902060671E+04  0.50400001928E-02 0. -1.
    10030    2    1    2    0    0  0.00000000000E+00  0.00000000000E+00  0.82429580777E+03  0.36047079420E+04  0.35091958863E+04 0.  0.
        4    1    3    3  502    0 -0.87733960237E+03  0.11795238615E+04  0.13961403854E+04  0.20273655088E+04  0.12699999809E+01 0.  1.
       -4    1    3    3    0  502  0.87733960237E+03 -0.11795238615E+04 -0.57184457761E+03  0.15773424332E+04  0.12699999809E+01 0. -1.
</event>
<event>
 5   0  0.4557237E-07  0.3500257E+04  0.7818609E-02  0.8113729E-01
       -1   -1    0    0    0  501  0.00000000000E+00  0.00000000000E+00  0.21716245793E+04  0.21716245793E+04  0.50400001928E-02 0.  1.
        1   -1    0    0  501    0  0.00000000000E+00  0.00000000000E+00 -0.14104420359E+04  0.14104420359E+04  0.50400001928E-02 0. -1.
    10030    2    1    2    0    0  0.00000000000E+00  0.00000000000E+00  0.76118254343E+03  0.35820666152E+04  0.35002574722E+04 0.  0.
        2    1    3    3  502    0 -0.46306963875E+03 -0.16875875108E+04  0.35625531163E+03  0.17858619610E+04  0.25500000920E-02 0.  1.
       -2    1    3    3    0  502  0.46306963875E+03  0.16875875108E+04  0.40492723181E+03  0.17962046542E+04  0.25500000920E-02 0. -1.
</event>
<event>
 5   0  0.1361560E-06  0.3538377E+04  0.7818609E-02  0.8104755E-01
       -2   -1    0    0    0  501  0.00000000000E+00  0.00000000000E+00  0.13105828792E+04  0.13105828792E+04  0.25500000920E-02 0. -1.
        2   -1    0    0  501    0  0.00000000000E+00  0.00000000000E+00 -0.23882717926E+04  0.23882717926E+04  0.25500000920E-02 0.  1.
    10030    2    1    2    0    0  0.00000000000E+00  0.00000000000E+00 -0.10776889134E+04  0.36988546718E+04  0.35383770982E+04 0.  0.
        3    1    3    3  502    0 -0.23743270791E+03 -0.16908594975E+03  0.12853089067E+04  0.13179466397E+04  0.10100000352E+00 0. -1.
       -3    1    3    3    0  502  0.23743270791E+03  0.16908594975E+03 -0.23629978201E+04  0.23809080321E+04  0.10100000352E+00 0.  1.
</event>
<event>
 5   0  0.1387133E-06  0.3316025E+04  0.7818609E-02  0.8158830E-01
        2   -1    0    0  501    0  0.00000000000E+00  0.00000000000E+00  0.21743512522E+04  0.21743512522E+04  0.25500000920E-02 0. -1.
       -2   -1    0    0    0  501  0.00000000000E+00  0.00000000000E+00 -0.12642878579E+04  0.12642878579E+04  0.25500000920E-02 0.  1.
    10030    2    1    2    0    0  0.00000000000E+00  0.00000000000E+00  0.91006339434E+03  0.34386391101E+04  0.33160252634E+04 0.  0.
        4    1    3    3  502    0 -0.10589730318E+04  0.10466505972E+04  0.12114579419E+04  0.19195138220E+04  0.12699999809E+01 0. -1.
       -4    1    3    3    0  502  0.10589730318E+04 -0.10466505972E+04 -0.30139454759E+03  0.15191252881E+04  0.12699999809E+01 0.  1.
</event>
<event>
 5   0  0.1387133E-06  0.3531919E+04  0.7818609E-02  0.8106267E-01
       -2   -1    0    0    0  501  0.00000000000E+00  0.00000000000E+00  0.22823211952E+04  0.22823211952E+04  0.25500000920E-02 0.  1.
        2   -1    0    0  501    0  0.00000000000E+00  0.00000000000E+00 -0.13664217616E+04  0.13664217616E+04  0.25500000920E-02 0. -1.
    10030    2    1    2    0    0  0.00000000000E+00  0.00000000000E+00  0.91589943359E+03  0.36487429568E+04  0.35319192223E+04 0.  0.
        4    1    3    3  502    0 -0.16495962960E+03  0.12241933241E+04  0.17617360310E+04  0.21516450520E+04  0.12699999809E+01 0.  1.
       -4    1    3    3    0  502  0.16495962960E+03 -0.12241933241E+04 -0.84583659744E+03  0.14970979048E+04  0.12699999809E+01 0. -1.
</event>
<event>
 5   0  0.4700769E-07  0.3025718E+04  0.7818609E-02  0.8236425E-01
       -1   -1    0    0    0  501  0.00000000000E+00  0.00000000000E+00  0.11245637709E+04  0.11245637709E+04  0.50400001928E-02 0.  1.
        1   -1    0    0  501    0  0.00000000000E+00  0.00000000000E+00 -0.20352263160E+04  0.20352263160E+04  0.50400001928E-02 0. -1.
    10030    2    1    2    0    0  0.00000000000E+00  0.00000000000E+00 -0.91066254507E+03  0.31597900869E+04  0.30257176210E+04 0.  0.
        3    1    3    3  502    0 -0.10399342834E+04 -0.46458134489E+03  0.58450181418E+03  0.12802115141E+04  0.10100000352E+00 0.  1.
       -3    1    3    3    0  502  0.10399342834E+04  0.46458134489E+03 -0.14951643593E+04  0.18795785728E+04  0.10100000352E+00 0. -1.
</event>
<event>
 5   0  0.4693374E-07  0.3497701E+04  0.7818609E-02  0.8114335E-01
       -1   -1    0    0    0  501  0.00000000000E+00  0.00000000000E+00  0.12450212446E+04  0.12450212446E+04  0.50400001928E-02 0. -1.
        1   -1    0    0  501    0  0.00000000000E+00  0.00000000000E+00 -0.24565664841E+04  0.24565664841E+04  0.50400001928E-02 0.  1.
    10030    2    1    2    0    0  0.00000000000E+00  0.00000000000E+00 -0.12115452395E+04  0.37015877287E+04  0.34977006512E+04 0.  0.
        1    1    3    3  502    0 -0.46674655250E+03  0.11831011016E+04  0.66457290633E+03  0.14350044282E+04  0.50400001928E-02 0. -1.
       -1    1    3    3    0  502  0.46674655250E+03 -0.11831011016E+04 -0.18761181458E+04  0.22665833005E+04  0.50400001928E-02 0.  1.
</event>
<event>
 5   0  0.4591195E-07  0.3496802E+04  0.7818609E-02  0.8114548E-01
        1   -1    0    0  501    0  0.00000000000E+00  0.00000000000E+00  0.17981411852E+04  0.17981411852E+04  0.50400001928E-02 0. -1.
       -1   -1    0    0    0  501  0.00000000000E+00  0.00000000000E+00 -0.17000371331E+04  0.17000371332E+04  0.50400001928E-02 0.  1.
    10030    2    1    2    0    0  0.00000000000E+00  0.00000000000E+00  0.98104052069E+02  0.34981783184E+04  0.34968024168E+04 0.  0.
        4    1    3    3  502    0 -0.16068478460E+03 -0.17405143388E+04  0.90243574377E+02  0.17502443484E+04  0.12699999809E+01 0. -1.
       -4    1    3    3    0  502  0.16068478460E+03  0.17405143388E+04  0.78604776918E+01  0.17479339700E+04  0.12699999809E+01 0.  1.
</event>
<event>
 5   0  0.1442864E-06  0.3492870E+04  0.7818609E-02  0.8115482E-01
        2   -1    0    0  501    0  0.00000000000E+00  0.00000000000E+00  0.24139900388E+04  0.24139900388E+04  0.25500000920E-02 0.  1.
       -2   -1    0    0    0  501  0.00000000000E+00  0.00000000000E+00 -0.12634832618E+04  0.12634832618E+04  0.25500000920E-02 0. -1.
    10030    2    1    2    0    0  0.00000000000E+00  0.00000000000E+00  0.11505067770E+04  0.36774733006E+04  0.34928704575E+04 0.  0.
        1    1    3    3  502    0  0.86409753488E+03  0.54378702370E+03  0.20670612925E+04  0.23054525074E+04  0.50400001928E-02 0.  1.
       -1    1    3    3    0  502 -0.86409753488E+03 -0.54378702370E+03 -0.91655451553E+03  0.13720207932E+04  0.50400001928E-02 0. -1.
</event>
<event>
 5   0  0.1387133E-06  0.3513186E+04  0.7818609E-02  0.8110672E-01
       -2   -1    0    0    0  501  0.00000000000E+00  0.00000000000E+00  0.21602768912E+04  0.21602768912E+04  0.25500000920E-02 0. -1.
        2   -1    0    0  501    0  0.00000000000E+00  0.00000000000E+00 -0.14283439693E+04  0.14283439693E+04  0.25500000920E-02 0.  1.
    10030    2    1    2    0    0  0.00000000000E+00  0.00000000000E+00  0.73193292186E+03  0.35886208605E+04  0.35131857165E+04 0.  0.
        4    1    3    3  502    0  0.44819917425E+03  0.13939571913E+04 -0.62523920764E+03  0.15921447267E+04  0.12699999809E+01 0.  1.
       -4    1    3    3    0  502 -0.44819917425E+03 -0.13939571913E+04  0.13571721295E+04  0.19964761338E+04  0.12699999809E+01 0. -1.
</event>
<event>
 5   0  0.4409125E-07  0.3674897E+04  0.7818609E-02  0.8073548E-01
        1   -1    0    0  501    0  0.00000000000E+00  0.00000000000E+00  0.25430812967E+04  0.25430812967E+04  0.50400001928E-02 0. -1.
       -1   -1    0    0    0  501  0.00000000000E+00  0.00000000000E+00 -0.13276087157E+04  0.13276087157E+04  0.50400001928E-02 0.  1.
    10030    2    1    2    0    0  0.00000000000E+00  0.00000000000E+00  0.12154725810E+04  0.38706900124E+04  0.36748969478E+04 0.  0.
        5    1    3    3  502    0  0.11197058384E+04  0.88758760320E+03 -0.60908164412E+03  0.15532403089E+04  0.46999998093E+01 0.  1.
       -5    1    3    3    0  502 -0.11197058384E+04 -0.88758760320E+03  0.18245542251E+04  0.23174497035E+04  0.46999998093E+01 0. -1.
</event>
<event>
 5   0  0.1442864E-06  0.3562309E+04  0.7818609E-02  0.8099180E-01
        2   -1    0    0  501    0  0.00000000000E+00  0.00000000000E+00  0.22543606820E+04  0.22543606820E+04  0.25500000920E-02 0. -1.
       -2   -1    0    0    0  501  0.00000000000E+00  0.00000000000E+00 -0.14072776427E+04  0.14072776427E+04  0.25500000920E-02 0.  1.
    10030    2    1    2    0    0  0.00000000000E+00  0.00000000000E+00  0.84708303932E+03  0.36616383247E+04  0.35623090188E+04 0.  0.
        1    1    3    3  502    0  0.10094753304E+04  0.10870307711E+04  0.14368463966E+04  0.20652370100E+04  0.50400001928E-02 0. -1.
       -1    1    3    3    0  502 -0.10094753304E+04 -0.10870307711E+04 -0.58976335729E+03  0.15964013147E+04  0.50400001928E-02 0.  1.
</event>
<event>
 5   0  0.4700769E-07  0.3517691E+04  0.7818609E-02  0.8109610E-01
        1   -1    0    0  501    0  0.00000000000E+00  0.00000000000E+00  0.27311104154E+04  0.27311104154E+04  0.50400001928E-02 0.  1.
       -1   -1    0    0    0  501  0.00000000000E+00  0.00000000000E+00 -0.11327031047E+04  0.11327031047E+04  0.50400001928E-02 0. -1.
    10030    2    1    2    0    0  0.00000000000E+00  0.00000000000E+00  0.15984073107E+04  0.38638135201E+04  0.35176908601E+04 0.  0.
        3    1    3    3  502    0 -0.10825550528E+04 -0.66785213574E+03  0.21334642202E+04  0.24838722807E+04  0.10100000352E+00 0.  1.
       -3    1    3    3    0  502  0.10825550528E+04  0.66785213574E+03 -0.53505690954E+03  0.13799412394E+04  0.10100000352E+00 0. -1.
</event>
<event>
 5   0  0.4409125E-07  0.3020357E+04  0.7818609E-02  0.8237942E-01
        3   -1    0    0  501    0  0.00000000000E+00  0.00000000000E+00  0.22454293370E+04  0.22454293393E+04  0.10100000352E+00 0.  1.
       -3   -1    0    0    0  501  0.00000000000E+00  0.00000000000E+00 -0.10156805355E+04  0.10156805406E+04  0.10100000352E+00 0. -1.
    10030    2    1    2    0    0  0.00000000000E+00  0.00000000000E+00  0.12297488015E+04  0.32611098799E+04  0.30203568554E+04 0.  0.
        1    1    3    3  502    0 -0.75840727813E+03 -0.11882018174E+04  0.29801286477E+02  0.14099266914E+04  0.50400001928E-02 0. -1.
       -1    1    3    3    0  502  0.75840727813E+03  0.11882018174E+04  0.11999475150E+04  0.18511831885E+04  0.50400001928E-02 0.  1.
</event>
<event>
 5   0  0.4409125E-07  0.2851853E+04  0.7818609E-02  0.8287348E-01
       -1   -1    0    0    0  501  0.00000000000E+00  0.00000000000E+00  0.20913222647E+04  0.20913222647E+04  0.50400001928E-02 0.  1.
        1   -1    0    0  501    0  0.00000000000E+00  0.00000000000E+00 -0.97223975783E+03  0.97223975784E+03  0.50400001928E-02 0. -1.
    10030    2    1    2    0    0  0.00000000000E+00  0.00000000000E+00  0.11190825069E+04  0.30635620225E+04  0.28518531885E+04 0.  0.
        5    1    3    3  502    0 -0.79051004258E+03 -0.11223236645E+04  0.97382311652E+03  0.16831132130E+04  0.46999998093E+01 0.  1.
       -5    1    3    3    0  502  0.79051004258E+03  0.11223236645E+04  0.14525939034E+03  0.13804488096E+04  0.46999998093E+01 0. -1.
</event>
<event>
 5   0  0.4409125E-07  0.3455565E+04  0.7818609E-02  0.8124402E-01
        4   -1    0    0  501    0  0.00000000000E+00  0.00000000000E+00  0.17405526623E+04  0.17405531257E+04  0.12699999809E+01 0. -1.
       -4   -1    0    0    0  501  0.00000000000E+00  0.00000000000E+00 -0.17151049003E+04  0.17151053705E+04  0.12699999809E+01 0.  1.
    10030    2    1    2    0    0  0.00000000000E+00  0.00000000000E+00  0.25447762043E+02  0.34556584962E+04  0.34555647952E+04 0.  0.
        1    1    3    3  502    0 -0.37924353779E+03  0.12570113359E+04  0.11358433132E+04  0.17360999948E+04  0.50400001928E-02 0. -1.
       -1    1    3    3    0  502  0.37924353779E+03 -0.12570113359E+04 -0.11103955512E+04  0.17195585014E+04  0.50400001928E-02 0.  1.
</event>
<event>
 5   0  0.1348388E-06  0.3233378E+04  0.7818609E-02  0.8180057E-01
       -2   -1    0    0    0  501  0.00000000000E+00  0.00000000000E+00  0.95782822710E+03  0.95782822711E+03  0.25500000920E-02 0.  1.
        2   -1    0    0  501    0  0.00000000000E+00  0.00000000000E+00 -0.27287597521E+04  0.27287597521E+04  0.25500000920E-02 0. -1.
    10030    2    1    2    0    0  0.00000000000E+00  0.00000000000E+00 -0.17709315250E+04  0.36865879792E+04  0.32333778718E+04 0.  0.
        5    1    3    3  502    0 -0.13383317858E+04 -0.52948312132E+03 -0.45931242588E+02  0.14400055950E+04  0.46999998093E+01 0. -1.
       -5    1    3    3    0  502  0.13383317858E+04  0.52948312132E+03 -0.17250002824E+04  0.22465823842E+04  0.46999998093E+01 0.  1.
</event>
<event>
 5   0  0.1387133E-06  0.3347018E+04  0.7818609E-02  0.8151034E-01
        2   -1    0    0  501    0  0.00000000000E+00  0.00000000000E+00  0.27045528583E+04  0.27045528583E+04  0.25500000920E-02 0. -1.
       -2   -1    0    0    0  501  0.00000000000E+00  0.00000000000E+00 -0.10355253030E+04  0.10355253030E+04  0.25500000920E-02 0.  1.
    10030    2    1    2    0    0  0.00000000000E+00  0.00000000000E+00  0.16690275554E+04  0.37400781613E+04  0.33470183256E+04 0.  0.
        4    1    3    3  502    0  0.29248168832E+03  0.15474931780E+04  0.14669771510E+04  0.21522788500E+04  0.12699999809E+01 0. -1.
       -4    1    3    3    0  502 -0.29248168832E+03 -0.15474931780E+04  0.20205040438E+03  0.15877993112E+04  0.12699999809E+01 0.  1.
</event>
<event>
 5   0  0.4693374E-07  0.3538483E+04  0.7818609E-02  0.8104730E-01
        1   -1    0    0  501    0  0.00000000000E+00  0.00000000000E+00  0.18078188602E+04  0.18078188602E+04  0.50400001928E-02 0. -1.
       -1   -1    0    0    0  501  0.00000000000E+00  0.00000000000E+00 -0.17314868601E+04  0.17314868602E+04  0.50400001928E-02 0.  1.
    10030    2    1    2    0    0  0.00000000000E+00  0.00000000000E+00  0.76332000029E+02  0.35393057203E+04  0.35384825007E+04 0.  0.
        1    1    3    3  502    0 -0.16308926994E+04 -0.42515125062E+03  0.57648264237E+03  0.17812627038E+04  0.50400001928E-02 0.  1.
       -1    1    3    3    0  502  0.16308926994E+04  0.42515125062E+03 -0.50015064234E+03  0.17580430165E+04  0.50400001928E-02 0. -1.
</event>
<event>
 5   0  0.1348388E-06  0.3483279E+04  0.7818609E-02  0.8117764E-01
        2   -1    0    0  501    0  0.00000000000E+00  0.00000000000E+00  0.24522829763E+04  0.24522829763E+04  0.25500000920E-02 0.  1.
       -2   -1    0    0    0  501  0.00000000000E+00  0.00000000000E+00 -0.12369325024E+04  0.12369325024E+04  0.25500000920E-02 0. -1.
    10030    2    1    2    0    0  0.00000000000E+00  0.00000000000E+00  0.12153504738E+04  0.36892154787E+04  0.34832792127E+04 0.  0.
        5    1    3    3  502    0 -0.44761761496E+03 -0.27337032434E+03  0.23666439089E+04  0.24240706147E+04  0.46999998093E+01 0.  1.
       -5    1    3    3    0  502  0.44761761496E+03  0.27337032434E+03 -0.11512934350E+04  0.12651448640E+04  0.46999998093E+01 0. -1.
</event>
<event>
 5   0  0.4409125E-07  0.3460388E+04  0.7818609E-02  0.8123242E-01
       -1   -1    0    0    0  501  0.00000000000E+00  0.00000000000E+00  0.12446298442E+04  0.12446298442E+04  0.50400001928E-02 0. -1.
        1   -1    0    0  501    0  0.00000000000E+00  0.00000000000E+00 -0.24051894267E+04  0.24051894267E+04  0.50400001928E-02 0.  1.
    10030    2    1    2    0    0  0.00000000000E+00  0.00000000000E+00 -0.11605595825E+04  0.36498192709E+04  0.34603875745E+04 0.  0.
        5    1    3    3  502    0  0.36508876913E+03  0.57123040007E+03 -0.22592617125E+04  0.23587877299E+04  0.46999998093E+01 0.  1.
       -5    1    3    3    0  502 -0.36508876913E+03 -0.57123040007E+03  0.10987021300E+04  0.12910315410E+04  0.46999998093E+01 0. -1.
</event>
<event>
 5   0  0.1361560E-06  0.3528507E+04  0.7818609E-02  0.8107067E-01
        2   -1    0    0  501    0  0.00000000000E+00  0.00000000000E+00  0.30907705418E+04  0.30907705418E+04  0.25500000920E-02 0. -1.
       -2   -1    0    0    0  501  0.00000000000E+00  0.00000000000E+00 -0.10070594817E+04  0.10070594817E+04  0.25500000920E-02 0.  1.
    10030    2    1    2    0    0  0.00000000000E+00  0.00000000000E+00  0.20837110601E+04  0.40978300236E+04  0.35285066416E+04 0.  0.
        3    1    3    3  502    0 -0.51707170741E+03  0.74849682070E+03  0.27973688119E+04  0.29415783044E+04  0.10100000352E+00 0. -1.
       -3    1    3    3    0  502  0.51707170741E+03 -0.74849682070E+03 -0.71365775177E+03  0.11562517192E+04  0.10100000352E+00 0.  1.
</event>
<event>
 5   0  0.1348388E-06  0.3339571E+04  0.7818609E-02  0.8152899E-01
       -2   -1    0    0    0  501  0.00000000000E+00  0.00000000000E+00  0.15751820321E+04  0.15751820321E+04  0.25500000920E-02 0. -1.
        2   -1    0    0  501    0  0.00000000000E+00  0.00000000000E+00 -0.17700705666E+04  0.17700705666E+04  0.25500000920E-02 0.  1.
    10030    2    1    2    0    0  0.00000000000E+00  0.00000000000E+00 -0.19488853455E+03  0.33452525987E+04  0.33395708419E+04 0.  0.
        5    1    3    3  502    0  0.58580547337E+03  0.89963476112E+03 -0.13785456867E+04  0.17472610155E+04  0.46999998093E+01 0.  1.
       -5    1    3    3    0  502 -0.58580547337E+03 -0.89963476112E+03  0.11836571521E+04  0.15979915832E+04  0.46999998093E+01 0. -1.
</event>
<event>
 5   0  0.4591195E-07  0.3493283E+04  0.7818609E-02  0.8115384E-01
       -1   -1    0    0    0  501  0.00000000000E+00  0.00000000000E+00  0.15025324491E+04  0.15025324491E+04  0.50400001928E-02 0.  1.
        1   -1    0    0  501    0  0.00000000000E+00  0.00000000000E+00 -0.20304103221E+04  0.20304103221E+04  0.50400001928E-02 0. -1.
    10030    2    1    2    0    0  0.00000000000E+00  0.00000000000E+00 -0.52787787296E+03  0.35329427712E+04  0.34932834949E+04 0.  0.
        4    1    3    3  502    0  0.16369750572E+04 -0.47211507673E+03 -0.65324521431E+03  0.18246399389E+04  0.12699999809E+01 0.  1.
       -4    1    3    3    0  502 -0.16369750572E+04  0.47211507673E+03  0.12536734135E+03  0.17083028323E+04  0.12699999809E+01 0. -1.
</event>
<event>
 5   0  0.1361560E-06  0.3492483E+04  0.7818609E-02  0.8115574E-01
        2   -1    0    0  501    0  0.00000000000E+00  0.00000000000E+00  0.22255244559E+04  0.22255244559E+04  0.25500000920E-02 0. -1.
       -2   -1    0    0    0  501  0.00000000000E+00  0.00000000000E+00 -0.13701757177E+04  0.13701757177E+04  0.25500000920E-02 0.  1.
    10030    2    1    2    0    0  0.00000000000E+00  0.00000000000E+00  0.85534873815E+03  0.35957001736E+04  0.34924831102E+04 0.  0.
        3    1    3    3  502    0  0.11177754047E+04  0.37980533972E+03 -0.89708833590E+03  0.14827142153E+04  0.10100000352E+00 0.  1.
       -3    1    3    3    0  502 -0.11177754047E+04 -0.37980533972E+03  0.17524370741E+04  0.21129859584E+04  0.10100000352E+00 0. -1.
</event>
<event>
 5   0  0.1378620E-06  0.3493954E+04  0.7818609E-02  0.8115224E-01
        2   -1    0    0  501    0  0.00000000000E+00  0.00000000000E+00  0.23974611382E+04  0.23974611382E+04  0.25500000920E-02 0.  1.
       -2   -1    0    0    0  501  0.00000000000E+00  0.00000000000E+00 -0.12729836364E+04  0.12729836364E+04  0.25500000920E-02 0. -1.
    10030    2    1    2    0    0  0.00000000000E+00  0.00000000000E+00  0.11244775018E+04  0.36704447746E+04  0.34939540912E+04 0.  0.
        2    1    3    3  502    0 -0.88036272210E+03 -0.11844937067E+03 -0.10180277895E+04  0.13510919125E+04  0.25500000920E-02 0. -1.
       -2    1    3    3    0  502  0.88036272210E+03  0.11844937067E+03  0.21425052913E+04  0.23193528621E+04  0.25500000920E-02 0.  1.
</event>
<event>
 5   0  0.1387133E-06  0.3511689E+04  0.7818609E-02  0.8111025E-01
        2   -1    0    0  501    0  0.00000000000E+00  0.00000000000E+00  0.20783216645E+04  0.20783216645E+04  0.25500000920E-02 0. -1.
       -2   -1    0    0    0  501  0.00000000000E+00  0.00000000000E+00 -0.14834033469E+04  0.14834033469E+04  0.25500000920E-02 0.  1.
    10030    2    1    2    0    0  0.00000000000E+00  0.00000000000E+00  0.59491831761E+03  0.35617250114E+04  0.35116886610E+04 0.  0.
        4    1    3    3  502    0 -0.96033198063E+03  0.17245673535E+03  0.17780566480E+04  0.20281681131E+04  0.12699999809E+01 0. -1.
       -4    1    3    3    0  502  0.96033198063E+03 -0.17245673535E+03 -0.11831383304E+04  0.15335568983E+04  0.12699999809E+01 0.  1.
</event>
<event>
 5   0  0.1348388E-06  0.3469174E+04  0.7818609E-02  0.8121134E-01
        2   -1    0    0  501    0  0.00000000000E+00  0.00000000000E+00  0.23373951044E+04  0.23373951044E+04  0.25500000920E-02 0.  1.
       -2   -1    0    0    0  501  0.00000000000E+00  0.00000000000E+00 -0.12872417967E+04  0.12872417967E+04  0.25500000920E-02 0. -1.
    10030    2    1    2    0    0  0.00000000000E+00  0.00000000000E+00  0.10501533077E+04  0.36246369010E+04  0.34691743534E+04 0.  0.
        5    1    3    3  502    0  0.11603285642E+04  0.12345486291E+04  0.91362597644E+03  0.19248914799E+04  0.46999998093E+01 0.  1.
       -5    1    3    3    0  502 -0.11603285642E+04 -0.12345486291E+04  0.13652733125E+03  0.16997454211E+04  0.46999998093E+01 0. -1.
</event>
<event>
 5   0  0.1442864E-06  0.2824298E+04  0.7818609E-02  0.8295764E-01
        2   -1    0    0  501    0  0.00000000000E+00  0.00000000000E+00  0.14059886238E+04  0.14059886238E+04  0.25500000920E-02 0.  1.
       -2   -1    0    0    0  501  0.00000000000E+00  0.00000000000E+00 -0.14183361904E+04  0.14183361904E+04  0.25500000920E-02 0. -1.
    10030    2    1    2    0    0  0.00000000000E+00  0.00000000000E+00 -0.12347566596E+02  0.28243248141E+04  0.28242978231E+04 0.  0.
        1    1    3    3  502    0  0.12316191751E+04 -0.43661993810E+03 -0.54156827745E+03  0.14145030795E+04  0.50400001928E-02 0. -1.
       -1    1    3    3    0  502 -0.12316191751E+04  0.43661993810E+03  0.52922071086E+03  0.14098217347E+04  0.50400001928E-02 0.  1.
</event>
<event>
 5   0  0.1442864E-06  0.3453883E+04  0.7818609E-02  0.8124807E-01
       -2   -1    0    0    0  501  0.00000000000E+00  0.00000000000E+00  0.12746624216E+04  0.12746624216E+04  0.25500000920E-02 0. -1.
        2   -1    0    0  501    0  0.00000000000E+00  0.00000000000E+00 -0.23396996025E+04  0.23396996025E+04  0.25500000920E-02 0.  1.
    10030    2    1    2    0    0  0.00000000000E+00  0.00000000000E+00 -0.10650371809E+04  0.36143620241E+04  0.34538831255E+04 0.  0.
        1    1    3    3  502    0  0.49540282654E+03  0.46586363393E+03 -0.21936861809E+04  0.22966741053E+04  0.50400001928E-02 0.  1.
       -1    1    3    3    0  502 -0.49540282654E+03 -0.46586363393E+03  0.11286490000E+04  0.13176879187E+04  0.50400001928E-02 0. -1.
</event>
<event>
 5   0  0.4693374E-07  0.3631336E+04  0.7818609E-02  0.8083351E-01
        1   -1    0    0  501    0  0.00000000000E+00  0.00000000000E+00  0.20347658621E+04  0.20347658622E+04  0.50400001928E-02 0. -1.
       -1   -1    0    0    0  501  0.00000000000E+00  0.00000000000E+00 -0.16201620453E+04  0.16201620453E+04  0.50400001928E-02 0.  1.
    10030    2    1    2    0    0  0.00000000000E+00  0.00000000000E+00  0.41460381686E+03  0.36549279075E+04  0.36313360742E+04 0.  0.
        1    1    3    3  502    0  0.31991387371E+03 -0.48537004193E+02 -0.15909080152E+04  0.16234805328E+04  0.50400001928E-02 0.  1.
       -1    1    3    3    0  502 -0.31991387371E+03  0.48537004193E+02  0.20055118321E+04  0.20314473747E+04  0.50400001928E-02 0. -1.
</event>
<event>
 5   0  0.4557237E-07  0.3076649E+04  0.7818609E-02  0.8222176E-01
       -1   -1    0    0    0  501  0.00000000000E+00  0.00000000000E+00  0.21294302253E+04  0.21294302253E+04  0.50400001928E-02 0.  1.
        1   -1    0    0  501    0  0.00000000000E+00  0.00000000000E+00 -0.11113029980E+04  0.11113029980E+04  0.50400001928E-02 0. -1.
    10030    2    1    2    0    0  0.00000000000E+00  0.00000000000E+00  0.10181272273E+04  0.32407332233E+04  0.30766489520E+04 0.  0.
        2    1    3    3  502    0 -0.71522242557E+02  0.82167532746E+03 -0.85871825169E+03  0.11906564621E+04  0.25500000920E-02 0. -1.
       -2    1    3    3    0  502  0.71522242557E+02 -0.82167532746E+03  0.18768454790E+04  0.20500767613E+04  0.25500000920E-02 0.  1.
</event>
<event>
 5   0  0.1442864E-06  0.3531099E+04  0.7818609E-02  0.8106459E-01
       -2   -1    0    0    0  501  0.00000000000E+00  0.00000000000E+00  0.24484588342E+04  0.24484588342E+04  0.25500000920E-02 0.  1.
        2   -1    0    0  501    0  0.00000000000E+00  0.00000000000E+00 -0.12731131673E+04  0.12731131673E+04  0.25500000920E-02 0. -1.
    10030    2    1    2    0    0  0.00000000000E+00  0.00000000000E+00  0.11753456669E+04  0.37215720015E+04  0.35310990818E+04 0.  0.
        1    1    3    3  502    0  0.30168281552E+03  0.17209863769E+04  0.85504712662E+03  0.19452280636E+04  0.50400001928E-02 0.  1.
       -1    1    3    3    0  502 -0.30168281552E+03 -0.17209863769E+04  0.32029854027E+03  0.17763439379E+04  0.50400001928E-02 0. -1.
</event>
<event>
 5   0  0.4409125E-07  0.3490522E+04  0.7818609E-02  0.8116040E-01
       -1   -1    0    0    0  501  0.00000000000E+00  0.00000000000E+00  0.19866999567E+04  0.19866999567E+04  0.50400001928E-02 0.  1.
        1   -1    0    0  501    0  0.00000000000E+00  0.00000000000E+00 -0.15331635034E+04  0.15331635034E+04  0.50400001928E-02 0. -1.
    10030    2    1    2    0    0  0.00000000000E+00  0.00000000000E+00  0.45353645330E+03  0.35198634601E+04  0.34905219471E+04 0.  0.
        5    1    3    3  502    0  0.37667448066E+03  0.25123718749E+03  0.19264365506E+04  0.19789349818E+04  0.46999998093E+01 0.  1.
       -5    1    3    3    0  502 -0.37667448066E+03 -0.25123718749E+03 -0.14729000973E+04  0.15409284783E+04  0.46999998093E+01 0. -1.
</event>
<event>
 5   0  0.1348388E-06  0.3499643E+04  0.7818609E-02  0.8113875E-01
       -2   -1    0    0    0  501  0.00000000000E+00  0.00000000000E+00  0.18015576755E+04  0.18015576755E+04  0.25500000920E-02 0. -1.
        2   -1    0    0  501    0  0.00000000000E+00  0.00000000000E+00 -0.16995707902E+04  0.16995707902E+04  0.25500000920E-02 0.  1.
    10030    2    1    2    0    0  0.00000000000E+00  0.00000000000E+00  0.10198688525E+03  0.35011284657E+04  0.34996427259E+04 0.  0.
        5    1    3    3  502    0 -0.22615531594E+03  0.29104284788E+03  0.17622752676E+04  0.18004133900E+04  0.46999998093E+01 0. -1.
       -5    1    3    3    0  502  0.22615531594E+03 -0.29104284788E+03 -0.16602883823E+04  0.17007150757E+04  0.46999998093E+01 0.  1.
</event>
<event>
 5   0  0.4700769E-07  0.3469405E+04  0.7818609E-02  0.8121079E-01
       -1   -1    0    0    0  501  0.00000000000E+00  0.00000000000E+00  0.98769133670E+03  0.98769133671E+03  0.50400001928E-02 0. -1.
        1   -1    0    0  501    0  0.00000000000E+00  0.00000000000E+00 -0.30466937637E+04  0.30466937637E+04  0.50400001928E-02 0.  1.
    10030    2    1    2    0    0  0.00000000000E+00  0.00000000000E+00 -0.20590024270E+04  0.40343851004E+04  0.34694051571E+04 0.  0.
        3    1    3    3  502    0 -0.17339241615E+04  0.46213335910E+02 -0.10018764351E+04  0.20030938749E+04  0.10100000352E+00 0. -1.
       -3    1    3    3    0  502  0.17339241615E+04 -0.46213335910E+02 -0.10571259919E+04  0.20312912256E+04  0.10100000352E+00 0.  1.
</event>
<event>
 5   0  0.1378620E-06  0.3499261E+04  0.7818609E-02  0.8113965E-01
        2   -1    0    0  501    0  0.00000000000E+00  0.00000000000E+00  0.17765556801E+04  0.17765556801E+04  0.25500000920E-02 0.  1.
       -2   -1    0    0    0  501  0.00000000000E+00  0.00000000000E+00 -0.17231132111E+04  0.17231132111E+04  0.25500000920E-02 0. -1.
    10030    2    1    2    0    0  0.00000000000E+00  0.00000000000E+00  0.53442468919E+02  0.34996688912E+04  0.34992608149E+04 0.  0.
        2    1    3    3  502    0 -0.69577327091E+03 -0.14381256291E+04  0.74017725545E+03  0.17607294338E+04  0.25500000920E-02 0. -1.
       -2    1    3    3    0  502  0.69577327091E+03  0.14381256291E+04 -0.68673478653E+03  0.17389394574E+04  0.25500000920E-02 0.  1.
</event>
<event>
 5   0  0.4591195E-07  0.3486900E+04  0.7818609E-02  0.8116902E-01
        1   -1    0    0  501    0  0.00000000000E+00  0.00000000000E+00  0.18336033087E+04  0.18336033087E+04  0.50400001928E-02 0.  1.
       -1   -1    0    0    0  501  0.00000000000E+00  0.00000000000E+00 -0.16577291575E+04  0.16577291575E+04  0.50400001928E-02 0. -1.
    10030    2    1    2    0    0  0.00000000000E+00  0.00000000000E+00  0.17587415127E+03  0.34913324662E+04  0.34868998656E+04 0.  0.
        4    1    3    3  502    0 -0.69519217386E+03 -0.50690997012E+03 -0.14303566620E+04  0.16691829348E+04  0.12699999809E+01 0. -1.
       -4    1    3    3    0  502  0.69519217386E+03  0.50690997012E+03  0.16062308133E+04  0.18221495314E+04  0.12699999809E+01 0.  1.
</event>
<event>
 5   0  0.4409125E-07  0.3494243E+04  0.7818609E-02  0.8115156E-01
       -1   -1    0    0    0  501  0.00000000000E+00  0.00000000000E+00  0.24123216332E+04  0.24123216332E+04  0.50400001928E-02 0. -1.
        1   -1    0    0  501    0  0.00000000000E+00  0.00000000000E+00 -0.12653511591E+04  0.12653511591E+04  0.50400001928E-02 0.  1.
    10030    2    1    2    0    0  0.00000000000E+00  0.00000000000E+00  0.11469704741E+04  0.36776727924E+04  0.34942432513E+04 0.  0.
        5    1    3    3  502    0 -0.54145680622E+03  0.16432018603E+04  0.82940396587E+03  0.19186507903E+04  0.46999998093E+01 0. -1.
       -5    1    3    3    0  502  0.54145680622E+03 -0.16432018603E+04  0.31756650822E+03  0.17590220021E+04  0.46999998093E+01 0.  1.
</event>
<event>
 5   0  0.4700769E-07  0.3480440E+04  0.7818609E-02  0.8118441E-01
        1   -1    0    0  501    0  0.00000000000E+00  0.00000000000E+00  0.20842499109E+04  0.20842499109E+04  0.50400001928E-02 0.  1.
       -1   -1    0    0    0  501  0.00000000000E+00  0.00000000000E+00 -0.14529764146E+04  0.14529764146E+04  0.50400001928E-02 0. -1.
    10030    2    1    2    0    0  0.00000000000E+00  0.00000000000E+00  0.63127349637E+03  0.35372263255E+04  0.34804401806E+04 0.  0.
        3    1    3    3  502    0  0.70054044272E+03  0.79153169621E+03  0.17206126008E+04  0.20193531316E+04  0.10100000352E+00 0.  1.
       -3    1    3    3    0  502 -0.70054044272E+03 -0.79153169621E+03 -0.10893391045E+04  0.15178731939E+04  0.10100000352E+00 0. -1.
</event>
<event>
 5   0  0.4557237E-07  0.2697145E+04  0.7818609E-02  0.8335932E-01
       -1   -1    0    0    0  501  0.00000000000E+00  0.00000000000E+00  0.11947446365E+04  0.11947446365E+04  0.50400001928E-02 0. -1.
        1   -1    0    0  501    0  0.00000000000E+00  0.00000000000E+00 -0.15222061763E+04  0.15222061763E+04  0.50400001928E-02 0.  1.
    10030    2    1    2    0    0  0.00000000000E+00  0.00000000000E+00 -0.32746153977E+03  0.27169508128E+04  0.26971449088E+04 0.  0.
        2    1    3    3  502    0 -0.89120184202E+03  0.10034537421E+04 -0.29694226984E+03  0.13745307736E+04  0.25500000920E-02 0.  1.
       -2    1    3    3    0  502  0.89120184202E+03 -0.10034537421E+04 -0.30519269934E+02  0.13424200392E+04  0.25500000920E-02 0. -1.
</event>
<event>
 5   0  0.1361560E-06  0.3210852E+04  0.7818609E-02  0.8185957E-01
        2   -1    0    0  501    0  0.00000000000E+00  0.00000000000E+00  0.17383379551E+04  0.17383379551E+04  0.25500000920E-02 0.  1.
       -2   -1    0    0    0  501  0.00000000000E+00  0.00000000000E+00 -0.14826762551E+04  0.14826762551E+04  0.25500000920E-02 0. -1.
    10030    2    1    2    0    0  0.00000000000E+00  0.00000000000E+00  0.25566169996E+03  0.32210142102E+04  0.32108518554E+04 0.  0.
        3    1    3    3  502    0  0.80916419810E+03 -0.13683296731E+04 -0.97199443082E+02  0.15926457659E+04  0.10100000352E+00 0. -1.
       -3    1    3    3    0  502 -0.80916419810E+03  0.13683296731E+04  0.35286114305E+03  0.16283684442E+04  0.10100000352E+00 0.  1.
</event>
<event>
 5   0  0.1442864E-06  0.3479793E+04  0.7818609E-02  0.8118595E-01
        2   -1    0    0  501    0  0.00000000000E+00  0.00000000000E+00  0.20022843390E+04  0.20022843390E+04  0.25500000920E-02 0. -1.
       -2   -1    0    0    0  501  0.00000000000E+00  0.00000000000E+00 -0.15118934720E+04  0.15118934720E+04  0.25500000920E-02 0.  1.
    10030    2    1    2    0    0  0.00000000000E+00  0.00000000000E+00  0.49039086701E+03  0.35141778110E+04  0.34797934544E+04 0.  0.
        1    1    3    3  502    0 -0.82489377998E+02 -0.17323765429E+04  0.38552036306E+03  0.17766707444E+04  0.50400001928E-02 0.  1.
       -1    1    3    3    0  502  0.82489377998E+02  0.17323765429E+04  0.10487050395E+03  0.17375070666E+04  0.50400001928E-02 0. -1.
</event>
<event>
 5   0  0.4557237E-07  0.3459948E+04  0.7818609E-02  0.8123348E-01
        1   -1    0    0  501    0  0.00000000000E+00  0.00000000000E+00  0.12329027902E+04  0.12329027902E+04  0.50400001928E-02 0. -1.
       -1   -1    0    0    0  501  0.00000000000E+00  0.00000000000E+00 -0.24274497892E+04  0.24274497892E+04  0.50400001928E-02 0.  1.
    10030    2    1    2    0    0  0.00000000000E+00  0.00000000000E+00 -0.11945469989E+04  0.36603525794E+04  0.34599477558E+04 0.  0.
        2    1    3    3  502    0  0.29897417568E+02  0.15014344787E+04  0.31131420698E+03  0.15336609419E+04  0.25500000920E-02 0.  1.
       -2    1    3    3    0  502 -0.29897417568E+02 -0.15014344787E+04 -0.15058612059E+04  0.21266916375E+04  0.25500000920E-02 0. -1.
</event>
<event>
 5   0  0.4591195E-07  0.2735188E+04  0.7818609E-02  0.8323677E-01
       -1   -1    0    0    0  501  0.00000000000E+00  0.00000000000E+00  0.13334380186E+04  0.13334380186E+04  0.50400001928E-02 0.  1.
        1   -1    0    0  501    0  0.00000000000E+00  0.00000000000E+00 -0.14026250495E+04  0.14026250495E+04  0.50400001928E-02 0. -1.
    10030    2    1    2    0    0  0.00000000000E+00  0.00000000000E+00 -0.69187030883E+02  0.27360630681E+04  0.27351881594E+04 0.  0.
        4    1    3    3  502    0  0.83640083263E+03 -0.44691519453E+03  0.95112130523E+03  0.13431056898E+04  0.12699999809E+01 0.  1.
       -4    1    3    3    0  502 -0.83640083263E+03  0.44691519453E+03 -0.10203083361E+04  0.13929573782E+04  0.12699999809E+01 0. -1.
</event>
<event>
 5   0  0.4700769E-07  0.3478633E+04  0.7818609E-02  0.8118872E-01
        1   -1    0    0  501    0  0.00000000000E+00  0.00000000000E+00  0.11917233847E+04  0.11917233847E+04  0.50400001928E-02 0.  1.
       -1   -1    0    0    0  501  0.00000000000E+00  0.00000000000E+00 -0.25385266123E+04  0.25385266123E+04  0.50400001928E-02 0. -1.
    10030    2    1    2    0    0  0.00000000000E+00  0.00000000000E+00 -0.13468032276E+04  0.37302499970E+04  0.34786327927E+04 0.  0.
        3    1    3    3  502    0  0.81249022874E+03  0.16154286118E+03  0.96659546641E+03  0.12730056063E+04  0.10100000352E+00 0.  1.
       -3    1    3    3    0  502 -0.81249022874E+03 -0.16154286118E+03 -0.23133986940E+04  0.24572443907E+04  0.10100000352E+00 0. -1.
</event>
<event>
 5   0  0.4591195E-07  0.3454183E+04  0.7818609E-02  0.8124735E-01
       -1   -1    0    0    0  501  0.00000000000E+00  0.00000000000E+00  0.19820153176E+04  0.19820153176E+04  0.50400001928E-02 0. -1.
        1   -1    0    0  501    0  0.00000000000E+00  0.00000000000E+00 -0.15049555106E+04  0.15049555106E+04  0.50400001928E-02 0.  1.
    10030    2    1    2    0    0  0.00000000000E+00  0.00000000000E+00  0.47705980701E+03  0.34869708281E+04  0.34541828986E+04 0.  0.
        4    1    3    3  502    0 -0.10372008869E+04  0.12600683021E+04  0.80894702421E+03  0.18215253791E+04  0.12699999809E+01 0.  1.
       -4    1    3    3    0  502  0.10372008869E+04 -0.12600683021E+04 -0.33188721720E+03  0.16654454490E+04  0.12699999809E+01 0. -1.
</event>
<event>
 5   0  0.1378620E-06  0.3524805E+04  0.7818609E-02  0.8107937E-01
        2   -1    0    0  501    0  0.00000000000E+00  0.00000000000E+00  0.18440521987E+04  0.18440521987E+04  0.25500000920E-02 0.  1.
       -2   -1    0    0    0  501  0.00000000000E+00  0.00000000000E+00 -0.16843679449E+04  0.16843679449E+04  0.25500000920E-02 0. -1.
    10030    2    1    2    0    0  0.00000000000E+00  0.00000000000E+00  0.15968425379E+03  0.35284201437E+04  0.35248049094E+04 0.  0.
        2    1    3    3  502    0 -0.11258731043E+04  0.83513386425E+03  0.11491247780E+04  0.18126021553E+04  0.25500000920E-02 0.  1.
       -2    1    3    3    0  502  0.11258731043E+04 -0.83513386425E+03 -0.98944052418E+03  0.17158179883E+04  0.25500000920E-02 0. -1.
</event>
<event>
 5   0  0.1442864E-06  0.3502058E+04  0.7818609E-02  0.8113302E-01
        2   -1    0    0  501    0  0.00000000000E+00  0.00000000000E+00  0.19795822950E+04  0.19795822950E+04  0.25500000920E-02 0. -1.
       -2   -1    0    0    0  501  0.00000000000E+00  0.00000000000E+00 -0.15488637319E+04  0.15488637319E+04  0.25500000920E-02 0.  1.
    10030    2    1    2    0    0  0.00000000000E+00  0.00000000000E+00  0.43071856312E+03  0.35284460268E+04  0.35020583781E+04 0.  0.
        1    1    3    3  502    0  0.31384344180E+03  0.15390303460E+04 -0.56441747440E+03  0.16690354092E+04  0.50400001928E-02 0.  1.
       -1    1    3    3    0  502 -0.31384344180E+03 -0.15390303460E+04  0.99513603752E+03  0.18594106176E+04  0.50400001928E-02 0. -1.
</event>
<event>
 5   0  0.4693374E-07  0.3454008E+04  0.7818609E-02  0.8124777E-01
       -1   -1    0    0    0  501  0.00000000000E+00  0.00000000000E+00  0.12864203034E+04  0.12864203034E+04  0.50400001928E-02 0. -1.
        1   -1    0    0  501    0  0.00000000000E+00  0.00000000000E+00 -0.23184823899E+04  0.23184823900E+04  0.50400001928E-02 0.  1.
    10030    2    1    2    0    0  0.00000000000E+00  0.00000000000E+00 -0.10320620865E+04  0.36049026934E+04  0.34540080021E+04 0.  0.
        1    1    3    3  502    0 -0.47640191002E+02 -0.14223190425E+04 -0.15371823606E+04  0.20948008631E+04  0.50400001928E-02 0. -1.
       -1    1    3    3    0  502  0.47640191002E+02  0.14223190425E+04  0.50512027403E+03  0.15101018303E+04  0.50400001928E-02 0.  1.
</event>
<event>
 5   0  0.1378620E-06  0.3309589E+04  0.7818609E-02  0.8160460E-01
        2   -1    0    0  501    0  0.00000000000E+00  0.00000000000E+00  0.10938619640E+04  0.10938619640E+04  0.25500000920E-02 0.  1.
       -2   -1    0    0    0  501  0.00000000000E+00  0.00000000000E+00 -0.25033738226E+04  0.25033738226E+04  0.25500000920E-02 0. -1.
    10030    2    1    2    0    0  0.00000000000E+00  0.00000000000E+00 -0.14095118585E+04  0.35972357866E+04  0.33095893438E+04 0.  0.
        2    1    3    3  502    0  0.10843308962E+04 -0.82865190541E+03 -0.17219973264E+04  0.21972055582E+04  0.25500000920E-02 0. -1.
       -2    1    3    3    0  502 -0.10843308962E+04  0.82865190541E+03  0.31248546788E+03  0.14000302284E+04  0.25500000920E-02 0.  1.
</event>
<event>
 5   0  0.4700769E-07  0.3269474E+04  0.7818609E-02  0.8170707E-01
        1   -1    0    0  501    0  0.00000000000E+00  0.00000000000E+00  0.22287988761E+04  0.22287988761E+04  0.50400001928E-02 0. -1.
       -1   -1    0    0    0  501  0.00000000000E+00  0.00000000000E+00 -0.11990154960E+04  0.11990154960E+04  0.50400001928E-02 0.  1.
    10030    2    1    2    0    0  0.00000000000E+00  0.00000000000E+00  0.10297833801E+04  0.34278143721E+04  0.32694735906E+04 0.  0.
        3    1    3    3  502    0  0.85634952888E+03 -0.13922846765E+04  0.48978964463E+03  0.17063660341E+04  0.10100000352E+00 0.  1.
       -3    1    3    3    0  502 -0.85634952888E+03  0.13922846765E+04  0.53999373550E+03  0.17214483381E+04  0.10100000352E+00 0. -1.
</event>
<event>
 5   0  0.1442864E-06  0.3564051E+04  0.7818609E-02  0.8098776E-01
        2   -1    0    0  501    0  0.00000000000E+00  0.00000000000E+00  0.20812021209E+04  0.20812021209E+04  0.25500000920E-02 0. -1.
       -2   -1    0    0    0  501  0.00000000000E+00  0.00000000000E+00 -0.15258563441E+04  0.15258563441E+04  0.25500000920E-02 0.  1.
    10030    2    1    2    0    0  0.00000000000E+00  0.00000000000E+00  0.55534577687E+03  0.36070584650E+04  0.35640513237E+04 0.  0.
        1    1    3    3  502    0  0.59394302011E+02 -0.13609057583E+04 -0.88511374209E+03  0.16245056179E+04  0.50400001928E-02 0.  1.
       -1    1    3    3    0  502 -0.59394302011E+02  0.13609057583E+04  0.14404595190E+04  0.19825528472E+04  0.50400001928E-02 0. -1.
</event>
<event>
 5   0  0.4700769E-07  0.3443028E+04  0.7818609E-02  0.8127426E-01
        1   -1    0    0  501    0  0.00000000000E+00  0.00000000000E+00  0.21614138974E+04  0.21614138974E+04  0.50400001928E-02 0. -1.
       -1   -1    0    0    0  501  0.00000000000E+00  0.00000000000E+00 -0.13711440149E+04  0.13711440149E+04  0.50400001928E-02 0.  1.
    10030    2    1    2    0    0  0.00000000000E+00  0.00000000000E+00  0.79026988249E+03  0.35325579122E+04  0.34430275799E+04 0.  0.
        3    1    3    3  502    0 -0.44970873254E+03  0.28479359818E+03  0.20748576987E+04  0.21420503770E+04  0.10100000352E+00 0. -1.
       -3    1    3    3    0  502  0.44970873254E+03 -0.28479359818E+03 -0.12845878162E+04  0.13905075352E+04  0.10100000352E+00 0.  1.
</event>
<event>
 5   0  0.1348388E-06  0.3528878E+04  0.7818609E-02  0.8106980E-01
       -2   -1    0    0    0  501  0.00000000000E+00  0.00000000000E+00  0.16470602487E+04  0.16470602487E+04  0.25500000920E-02 0. -1.
        2   -1    0    0  501    0  0.00000000000E+00  0.00000000000E+00 -0.18901825902E+04  0.18901825902E+04  0.25500000920E-02 0.  1.
    10030    2    1    2    0    0  0.00000000000E+00  0.00000000000E+00 -0.24312234152E+03  0.35372428388E+04  0.35288777859E+04 0.  0.
        5    1    3    3  502    0  0.10602129472E+04 -0.47074511152E+02 -0.15344964706E+04  0.18657355148E+04  0.46999998093E+01 0.  1.
       -5    1    3    3    0  502 -0.10602129472E+04  0.47074511152E+02  0.12913741291E+04  0.16715073240E+04  0.46999998093E+01 0. -1.
</event>
<event>
 5   0  0.1442864E-06  0.3495953E+04  0.7818609E-02  0.8114750E-01
        2   -1    0    0  501    0  0.00000000000E+00  0.00000000000E+00  0.14721257768E+04  0.14721257768E+04  0.25500000920E-02 0.  1.
       -2   -1    0    0    0  501  0.00000000000E+00  0.00000000000E+00 -0.20755166729E+04  0.20755166729E+04  0.25500000920E-02 0. -1.
    10030    2    1    2    0    0  0.00000000000E+00  0.00000000000E+00 -0.60339089613E+03  0.35476424497E+04  0.34959528569E+04 0.  0.
        1    1    3    3  502    0 -0.15192905295E+04 -0.54897671173E+03  0.37586102939E+03  0.16585809164E+04  0.50400001928E-02 0.  1.
       -1    1    3    3    0  502  0.15192905295E+04  0.54897671173E+03 -0.97925192552E+03  0.18890615333E+04  0.50400001928E-02 0. -1.
</event>
<event>
 5   0  0.4557237E-07  0.3214969E+04  0.7818609E-02  0.8184875E-01
        1   -1    0    0  501    0  0.00000000000E+00  0.00000000000E+00  0.17560653143E+04  0.17560653143E+04  0.50400001928E-02 0. -1.
       -1   -1    0    0    0  501  0.00000000000E+00  0.00000000000E+00 -0.14714747009E+04  0.14714747009E+04  0.50400001928E-02 0.  1.
    10030    2    1    2    0    0  0.00000000000E+00  0.00000000000E+00  0.28459061343E+03  0.32275400152E+04  0.32149685430E+04 0.  0.
        2    1    3    3  502    0  0.13816699261E+04  0.12619651729E+03 -0.67270942757E+03  0.15419063913E+04  0.25500000920E-02 0. -1.
       -2    1    3    3    0  502 -0.13816699261E+04 -0.12619651729E+03  0.95730004100E+03  0.16856336239E+04  0.25500000920E-02 0.  1.
</event>
<event>
 5   0  0.1378620E-06  0.3439596E+04  0.7818609E-02  0.8128256E-01
        2   -1    0    0  501    0  0.00000000000E+00  0.00000000000E+00  0.92206676232E+03  0.92206676232E+03  0.25500000920E-02 0. -1.
       -2   -1    0    0    0  501  0.00000000000E+00  0.00000000000E+00 -0.32076902193E+04  0.32076902193E+04  0.25500000920E-02 0.  1.
    10030    2    1    2    0    0  0.00000000000E+00  0.00000000000E+00 -0.22856234569E+04  0.41297569816E+04  0.34395956361E+04 0.  0.
        2    1    3    3  502    0  0.11878041515E+04  0.12435574949E+04 -0.11190828322E+04  0.20517456788E+04  0.25500000920E-02 0. -1.
       -2    1    3    3    0  502 -0.11878041515E+04 -0.12435574949E+04 -0.11665406247E+04  0.20780113028E+04  0.25500000920E-02 0.  1.
</event>
<event>
 5   0  0.1442864E-06  0.3590416E+04  0.7818609E-02  0.8092691E-01
       -2   -1    0    0    0  501  0.00000000000E+00  0.00000000000E+00  0.16820395575E+04  0.16820395575E+04  0.25500000920E-02 0. -1.
        2   -1    0    0  501    0  0.00000000000E+00  0.00000000000E+00 -0.19159900843E+04  0.19159900843E+04  0.25500000920E-02 0.  1.
    10030    2    1    2    0    0  0.00000000000E+00  0.00000000000E+00 -0.23395052680E+03  0.35980296418E+04  0.35904156381E+04 0.  0.
        1    1    3    3  502    0  0.44961890469E+03 -0.83785834785E+03  0.14089512306E+04  0.16997962645E+04  0.50400001928E-02 0. -1.
       -1    1    3    3    0  502 -0.44961890469E+03  0.83785834785E+03 -0.16429017574E+04  0.18982333774E+04  0.50400001928E-02 0.  1.
</event>
<event>
 5   0  0.4557237E-07  0.3473977E+04  0.7818609E-02  0.8119985E-01
       -1   -1    0    0    0  501  0.00000000000E+00  0.00000000000E+00  0.18270512159E+04  0.18270512159E+04  0.50400001928E-02 0. -1.
        1   -1    0    0  501    0  0.00000000000E+00  0.00000000000E+00 -0.16513651997E+04  0.16513651997E+04  0.50400001928E-02 0.  1.
    10030    2    1    2    0    0  0.00000000000E+00  0.00000000000E+00  0.17568601618E+03  0.34784164156E+04  0.34739768543E+04 0.  0.
        2    1    3    3  502    0 -0.11029842835E+04  0.12457659599E+04  0.58709995255E+03  0.17644244134E+04  0.25500000920E-02 0. -1.
       -2    1    3    3    0  502  0.11029842835E+04 -0.12457659599E+04 -0.41141393638E+03  0.17139920022E+04  0.25500000920E-02 0.  1.
</event>
<event>
 5   0  0.4591195E-07  0.3475019E+04  0.7818609E-02  0.8119736E-01
       -1   -1    0    0    0  501  0.00000000000E+00  0.00000000000E+00  0.20604087850E+04  0.20604087850E+04  0.50400001928E-02 0.  1.
        1   -1    0    0  501    0  0.00000000000E+00  0.00000000000E+00 -0.14652141569E+04  0.14652141569E+04  0.50400001928E-02 0. -1.
    10030    2    1    2    0    0  0.00000000000E+00  0.00000000000E+00  0.59519462807E+03  0.35256229420E+04  0.34750194940E+04 0.  0.
        4    1    3    3  502    0 -0.13078299246E+04 -0.64046868695E+03 -0.66400161995E+03  0.16004746218E+04  0.12699999809E+01 0. -1.
       -4    1    3    3    0  502  0.13078299246E+04  0.64046868695E+03  0.12591962480E+04  0.19251483202E+04  0.12699999809E+01 0.  1.
</event>
<event>
 5   0  0.1348388E-06  0.2936587E+04  0.7818609E-02  0.8262074E-01
       -2   -1    0    0    0  501  0.00000000000E+00  0.00000000000E+00  0.97523532720E+03  0.97523532721E+03  0.25500000920E-02 0. -1.
        2   -1    0    0  501    0  0.00000000000E+00  0.00000000000E+00 -0.22106311997E+04  0.22106311997E+04  0.25500000920E-02 0.  1.
    10030    2    1    2    0    0  0.00000000000E+00  0.00000000000E+00 -0.12353958725E+04  0.31858665270E+04  0.29365868905E+04 0.  0.
        5    1    3    3  502    0  0.74533421335E+03 -0.12639908942E+04 -0.67372984221E+03  0.16146609739E+04  0.46999998093E+01 0. -1.
       -5    1    3    3    0  502 -0.74533421335E+03  0.12639908942E+04 -0.56166603033E+03  0.15712055531E+04  0.46999998093E+01 0.  1.
</event>
<event>
 5   0  0.4409125E-07  0.3544539E+04  0.7818609E-02  0.8103315E-01
        1   -1    0    0  501    0  0.00000000000E+00  0.00000000000E+00  0.22605340350E+04  0.22605340350E+04  0.50400001928E-02 0.  1.
       -1   -1    0    0    0  501  0.00000000000E+00  0.00000000000E+00 -0.13894677273E+04  0.13894677273E+04  0.50400001928E-02 0. -1.
    10030    2    1    2    0    0  0.00000000000E+00  0.00000000000E+00  0.87106630774E+03  0.36500017623E+04  0.35445389477E+04 0.  0.
        5    1    3    3  502    0  0.16565335020E+04 -0.16495475948E+02  0.10839849958E+04  0.19797527384E+04  0.46999998093E+01 0.  1.
       -5    1    3    3    0  502 -0.16565335020E+04  0.16495475948E+02 -0.21291868810E+03  0.16702490239E+04  0.46999998093E+01 0. -1.
</event>
<event>
 5   0  0.4700769E-07  0.3534665E+04  0.7818609E-02  0.8105624E-01
       -1   -1    0    0    0  501  0.00000000000E+00  0.00000000000E+00  0.20759979281E+04  0.20759979281E+04  0.50400001928E-02 0. -1.
        1   -1    0    0  501    0  0.00000000000E+00  0.00000000000E+00 -0.15045602569E+04  0.15045602569E+04  0.50400001928E-02 0.  1.
    10030    2    1    2    0    0  0.00000000000E+00  0.00000000000E+00  0.57143767115E+03  0.35805581850E+04  0.35346648927E+04 0.  0.
        3    1    3    3  502    0  0.97088388999E+03 -0.10777448647E+04  0.13084384339E+04  0.19534995948E+04  0.10100000352E+00 0. -1.
       -3    1    3    3    0  502 -0.97088388999E+03  0.10777448647E+04 -0.73700076277E+03  0.16270585902E+04  0.10100000352E+00 0.  1.
</event>
<event>
 5   0  0.1361560E-06  0.3552599E+04  0.7818609E-02  0.8101436E-01
       -2   -1    0    0    0  501  0.00000000000E+00  0.00000000000E+00  0.14594656945E+04  0.14594656945E+04  0.25500000920E-02 0.  1.
        2   -1    0    0  501    0  0.00000000000E+00  0.00000000000E+00 -0.21619150009E+04  0.21619150009E+04  0.25500000920E-02 0. -1.
    10030    2    1    2    0    0  0.00000000000E+00  0.00000000000E+00 -0.70244930643E+03  0.36213806954E+04  0.35525994867E+04 0.  0.
        3    1    3    3  502    0  0.17384177143E+04  0.30920672901E+03 -0.54871727332E+03  0.18489985417E+04  0.10100000352E+00 0. -1.
       -3    1    3    3    0  502 -0.17384177143E+04 -0.30920672901E+03 -0.15373203312E+03  0.17723821538E+04  0.10100000352E+00 0.  1.
</event>
<event>
 5   0  0.1348388E-06  0.3600482E+04  0.7818609E-02  0.8090381E-01
        2   -1    0    0  501    0  0.00000000000E+00  0.00000000000E+00  0.18203696897E+04  0.18203696897E+04  0.25500000920E-02 0. -1.
       -2   -1    0    0    0  501  0.00000000000E+00  0.00000000000E+00 -0.17803346474E+04  0.17803346474E+04  0.25500000920E-02 0.  1.
    10030    2    1    2    0    0  0.00000000000E+00  0.00000000000E+00  0.40035042250E+02  0.36007043371E+04  0.36004817620E+04 0.  0.
        5    1    3    3  502    0  0.24290204987E+03 -0.64247566291E+02  0.18027426478E+04  0.18201737004E+04  0.46999998093E+01 0. -1.
       -5    1    3    3    0  502 -0.24290204987E+03  0.64247566291E+02 -0.17627076055E+04  0.17805306367E+04  0.46999998093E+01 0.  1.
</event>
<event>
 5   0  0.4409125E-07  0.3495413E+04  0.7818609E-02  0.8114878E-01
        1   -1    0    0  501    0  0.00000000000E+00  0.00000000000E+00  0.14341338842E+04  0.14341338842E+04  0.50400001928E-02 0.  1.
       -1   -1    0    0    0  501  0.00000000000E+00  0.00000000000E+00 -0.21298413060E+04  0.21298413060E+04  0.50400001928E-02 0. -1.
    10030    2    1    2    0    0  0.00000000000E+00  0.00000000000E+00 -0.69570742178E+03  0.35639751903E+04  0.34954127567E+04 0.  0.
        5    1    3    3  502    0  0.30606290476E+03  0.11735111902E+04  0.93526296078E+03  0.15315162131E+04  0.46999998093E+01 0.  1.
       -5    1    3    3    0  502 -0.30606290476E+03 -0.11735111902E+04 -0.16309703826E+04  0.20324589772E+04  0.46999998093E+01 0. -1.
</event>
<event>
 5   0  0.4557237E-07  0.3484441E+04  0.7818609E-02  0.8117487E-01
       -1   -1    0    0    0  501  0.00000000000E+00  0.00000000000E+00  0.14203835225E+04  0.14203835225E+04  0.50400001928E-02 0. -1.
        1   -1    0    0  501    0  0.00000000000E+00  0.00000000000E+00 -0.21369810178E+04  0.21369810178E+04  0.50400001928E-02 0.  1.
    10030    2    1    2    0    0  0.00000000000E+00  0.00000000000E+00 -0.71659749528E+03  0.35573645403E+04  0.34844412037E+04 0.  0.
        2    1    3    3  502    0  0.62794469222E+03 -0.17487037616E+03  0.12911998821E+04  0.14464063470E+04  0.25500000920E-02 0. -1.
       -2    1    3    3    0  502 -0.62794469222E+03  0.17487037616E+03 -0.20077973774E+04  0.21109581933E+04  0.25500000920E-02 0.  1.
</event>
<event>
 5   0  0.1387133E-06  0.2905486E+04  0.7818609E-02  0.8271247E-01
       -2   -1    0    0    0  501  0.00000000000E+00  0.00000000000E+00  0.10377489347E+04  0.10377489347E+04  0.25500000920E-02 0. -1.
        2   -1    0    0  501    0  0.00000000000E+00  0.00000000000E+00 -0.20336925183E+04  0.20336925183E+04  0.25500000920E-02 0.  1.
    10030    2    1    2    0    0  0.00000000000E+00  0.00000000000E+00 -0.99594358361E+03  0.30714414530E+04  0.29054860139E+04 0.  0.
        4    1    3    3  502    0 -0.17046892362E+03  0.31282510910E+03 -0.19867982905E+04  0.20184866268E+04  0.12699999809E+01 0.  1.
       -4    1    3    3    0  502  0.17046892362E+03 -0.31282510910E+03  0.99085470687E+03  0.10529548261E+04  0.12699999809E+01 0. -1.
</event>
<event>
 5   0  0.1348388E-06  0.3437521E+04  0.7818609E-02  0.8128758E-01
       -2   -1    0    0    0  501  0.00000000000E+00  0.00000000000E+00  0.12956820082E+04  0.12956820082E+04  0.25500000920E-02 0. -1.
        2   -1    0    0  501    0  0.00000000000E+00  0.00000000000E+00 -0.22799863378E+04  0.22799863378E+04  0.25500000920E-02 0.  1.
    10030    2    1    2    0    0  0.00000000000E+00  0.00000000000E+00 -0.98430432959E+03  0.35756683461E+04  0.34375207792E+04 0.  0.
        5    1    3    3  502    0 -0.12629055252E+04 -0.10932701551E+04 -0.91332585761E+03  0.19037742014E+04  0.46999998093E+01 0.  1.
       -5    1    3    3    0  502  0.12629055252E+04  0.10932701551E+04 -0.70978471978E+02  0.16718941447E+04  0.46999998093E+01 0. -1.
</event>
<event>
 5   0  0.4693374E-07  0.3440683E+04  0.7818609E-02  0.8127993E-01
        1   -1    0    0  501    0  0.00000000000E+00  0.00000000000E+00  0.21060210392E+04  0.21060210392E+04  0.50400001928E-02 0.  1.
       -1   -1    0    0    0  501  0.00000000000E+00  0.00000000000E+00 -0.14052920681E+04  0.14052920681E+04  0.50400001928E-02 0. -1.
    10030    2    1    2    0    0  0.00000000000E+00  0.00000000000E+00  0.70072897116E+03  0.35113131073E+04  0.34406828750E+04 0.  0.
        1    1    3    3  502    0 -0.15302427792E+03 -0.16996339201E+04  0.12817332856E+03  0.17113153696E+04  0.50400001928E-02 0. -1.
       -1    1    3    3    0  502  0.15302427792E+03  0.16996339201E+04  0.57255564260E+03  0.17999977377E+04  0.50400001928E-02 0.  1.
</event>
<event>
 5   0  0.1378620E-06  0.3304417E+04  0.7818609E-02  0.8161772E-01
       -2   -1    0    0    0  501  0.00000000000E+00  0.00000000000E+00  0.12115765264E+04  0.12115765264E+04  0.25500000920E-02 0. -1.
        2   -1    0    0  501    0  0.00000000000E+00  0.00000000000E+00 -0.22530912701E+04  0.22530912701E+04  0.25500000920E-02 0.  1.
    10030    2    1    2    0    0  0.00000000000E+00  0.00000000000E+00 -0.10415147437E+04  0.34646677966E+04  0.33044167381E+04 0.  0.
        2    1    3    3  502    0  0.33688775793E+03  0.11482372530E+04 -0.17152379547E+04  0.20914070363E+04  0.25500000920E-02 0.  1.
       -2    1    3    3    0  502 -0.33688775793E+03 -0.11482372530E+04  0.67372321097E+03  0.13732607602E+04  0.25500000920E-02 0. -1.
</event>
<event>
 5   0  0.4557237E-07  0.2726170E+04  0.7818609E-02  0.8326563E-01
        1   -1    0    0  501    0  0.00000000000E+00  0.00000000000E+00  0.10980091843E+04  0.10980091843E+04  0.50400001928E-02 0.  1.
       -1   -1    0    0    0  501  0.00000000000E+00  0.00000000000E+00 -0.16921536389E+04  0.16921536389E+04  0.50400001928E-02 0. -1.
    10030    2    1    2    0    0  0.00000000000E+00  0.00000000000E+00 -0.59414445452E+03  0.27901628232E+04  0.27261696475E+04 0.  0.
        2    1    3    3  502    0 -0.77942723174E+03  0.11164040163E+04 -0.36288961848E+03  0.14090967363E+04  0.25500000920E-02 0. -1.
       -2    1    3    3    0  502  0.77942723174E+03 -0.11164040163E+04 -0.23125483604E+03  0.13810660869E+04  0.25500000920E-02 0.  1.
</event>
<event>
 5   0  0.1442864E-06  0.3534153E+04  0.7818609E-02  0.8105743E-01
       -2   -1    0    0    0  501  0.00000000000E+00  0.00000000000E+00  0.11009866176E+04  0.11009866176E+04  0.25500000920E-02 0. -1.
        2   -1    0    0  501    0  0.00000000000E+00  0.00000000000E+00 -0.28361469237E+04  0.28361469237E+04  0.25500000920E-02 0.  1.
    10030    2    1    2    0    0  0.00000000000E+00  0.00000000000E+00 -0.17351603061E+04  0.39371335413E+04  0.35341532556E+04 0.  0.
        1    1    3    3  502    0  0.51361051751E+03  0.16163951056E+04 -0.14201530781E+04  0.22120948592E+04  0.50400001928E-02 0.  1.
       -1    1    3    3    0  502 -0.51361051751E+03 -0.16163951056E+04 -0.31500722796E+03  0.17250386821E+04  0.50400001928E-02 0. -1.
</event>
<event>
 5   0  0.4700769E-07  0.3079270E+04  0.7818609E-02  0.8221450E-01
       -1   -1    0    0    0  501  0.00000000000E+00  0.00000000000E+00  0.16094605120E+04  0.16094605120E+04  0.50400001928E-02 0.  1.
        1   -1    0    0  501    0  0.00000000000E+00  0.00000000000E+00 -0.14728389308E+04  0.14728389308E+04  0.50400001928E-02 0. -1.
    10030    2    1    2    0    0  0.00000000000E+00  0.00000000000E+00  0.13662158113E+03  0.30822994428E+04  0.30792701081E+04 0.  0.
        3    1    3    3  502    0 -0.10639757236E+03  0.84814525440E+03  0.13501193905E+04  0.15979653296E+04  0.10100000352E+00 0.  1.
       -3    1    3    3    0  502  0.10639757236E+03 -0.84814525440E+03 -0.12134978094E+04  0.14843341132E+04  0.10100000352E+00 0. -1.
</event>
<event>
 5   0  0.4700769E-07  0.3499752E+04  0.7818609E-02  0.8113849E-01
        1   -1    0    0  501    0  0.00000000000E+00  0.00000000000E+00  0.21878642970E+04  0.21878642970E+04  0.50400001928E-02 0.  1.
       -1   -1    0    0    0  501  0.00000000000E+00  0.00000000000E+00 -0.13995685063E+04  0.13995685063E+04  0.50400001928E-02 0. -1.
    10030    2    1    2    0    0  0.00000000000E+00  0.00000000000E+00  0.78829579069E+03  0.35874328033E+04  0.34997519718E+04 0.  0.
        3    1    3    3  502    0  0.17116251555E+04 -0.36124469985E+03  0.34937816846E+03  0.17838787854E+04  0.10100000352E+00 0. -1.
       -3    1    3    3    0  502 -0.17116251555E+04  0.36124469985E+03  0.43891762224E+03  0.18035540179E+04  0.10100000352E+00 0.  1.
</event>
<event>
 5   0  0.1387133E-06  0.3531767E+04  0.7818609E-02  0.8106303E-01
       -2   -1    0    0    0  501  0.00000000000E+00  0.00000000000E+00  0.14797400974E+04  0.14797400974E+04  0.25500000920E-02 0.  1.
        2   -1    0    0  501    0  0.00000000000E+00  0.00000000000E+00 -0.21073598746E+04  0.21073598746E+04  0.25500000920E-02 0. -1.
    10030    2    1    2    0    0  0.00000000000E+00  0.00000000000E+00 -0.62761977719E+03  0.35870999720E+04  0.35317672098E+04 0.  0.
        4    1    3    3  502    0  0.79277371851E+02 -0.45730964956E+03 -0.20443011625E+04  0.20963267573E+04  0.12699999809E+01 0. -1.
       -4    1    3    3    0  502 -0.79277371851E+02  0.45730964956E+03  0.14166813853E+04  0.14907732147E+04  0.12699999809E+01 0.  1.
</event>
<event>
 5   0  0.1442864E-06  0.3455798E+04  0.7818609E-02  0.8124346E-01
        2   -1    0    0  501    0  0.00000000000E+00  0.00000000000E+00  0.22490860908E+04  0.22490860908E+04  0.25500000920E-02 0. -1.
       -2   -1    0    0    0  501  0.00000000000E+00  0.00000000000E+00 -0.13274877349E+04  0.13274877349E+04  0.25500000920E-02 0.  1.
    10030    2    1    2    0    0  0.00000000000E+00  0.00000000000E+00  0.92159835590E+03  0.35765738257E+04  0.34557975637E+04 0.  0.
        1    1    3    3  502    0  0.56079435787E+03 -0.26810565957E+01  0.21522795283E+04  0.22241413327E+04  0.50400001928E-02 0. -1.
       -1    1    3    3    0  502 -0.56079435787E+03  0.26810565957E+01 -0.12306811724E+04  0.13524324930E+04  0.50400001928E-02 0.  1.
</event>
<event>
 5   0  0.4557237E-07  0.2723368E+04  0.7818609E-02  0.8327463E-01
        1   -1    0    0  501    0  0.00000000000E+00  0.00000000000E+00  0.13333699771E+04  0.13333699771E+04  0.50400001928E-02 0. -1.
       -1   -1    0    0    0  501  0.00000000000E+00  0.00000000000E+00 -0.13905991251E+04  0.13905991251E+04  0.50400001928E-02 0.  1.
    10030    2    1    2    0    0  0.00000000000E+00  0.00000000000E+00 -0.57229148006E+02  0.27239691022E+04  0.27233678589E+04 0.  0.
        2    1    3    3  502    0  0.12490577870E+04  0.15851014785E+02  0.51352585777E+03  0.13505944678E+04  0.25500000920E-02 0. -1.
       -2    1    3    3    0  502 -0.12490577870E+04 -0.15851014785E+02 -0.57075500577E+03  0.13733746344E+04  0.25500000920E-02 0.  1.
</event>
<event>
 5   0  0.4591195E-07  0.3422214E+04  0.7818609E-02  0.8132476E-01
        1   -1    0    0  501    0  0.00000000000E+00  0.00000000000E+00  0.28265176414E+04  0.28265176415E+04  0.50400001928E-02 0.  1.
       -1   -1    0    0    0  501  0.00000000000E+00  0.00000000000E+00 -0.10358637673E+04  0.10358637673E+04  0.50400001928E-02 0. -1.
    10030    2    1    2    0    0  0.00000000000E+00  0.00000000000E+00  0.17906538741E+04  0.38623814088E+04  0.34222140275E+04 0.  0.
        4    1    3    3  502    0 -0.12997118285E+04  0.10227557086E+04  0.40001093487E+03  0.17015552996E+04  0.12699999809E+01 0.  1.
       -4    1    3    3    0  502  0.12997118285E+04 -0.10227557086E+04  0.13906429392E+04  0.21608261092E+04  0.12699999809E+01 0. -1.
</event>
<event>
 5   0  0.4409125E-07  0.3502603E+04  0.7818609E-02  0.8113173E-01
        1   -1    0    0  501    0  0.00000000000E+00  0.00000000000E+00  0.12588104460E+04  0.12588104461E+04  0.50400001928E-02 0.  1.
       -1   -1    0    0    0  501  0.00000000000E+00  0.00000000000E+00 -0.24364722594E+04  0.24364722594E+04  0.50400001928E-02 0. -1.
    10030    2    1    2    0    0  0.00000000000E+00  0.00000000000E+00 -0.11776618134E+04  0.36952827055E+04  0.35026028788E+04 0.  0.
        5    1    3    3  502    0 -0.14725736066E+04  0.92092979641E+03 -0.82579744856E+03  0.19231610003E+04  0.46999998093E+01 0.  1.
       -5    1    3    3    0  502  0.14725736066E+04 -0.92092979641E+03 -0.35186436483E+03  0.17721217052E+04  0.46999998093E+01 0. -1.
</event>
<event>
 5   0  0.1378620E-06  0.3516160E+04  0.7818609E-02  0.8109971E-01
        2   -1    0    0  501    0  0.00000000000E+00  0.00000000000E+00  0.21416731401E+04  0.21416731401E+04  0.25500000920E-02 0.  1.
       -2   -1    0    0    0  501  0.00000000000E+00  0.00000000000E+00 -0.14431921129E+04  0.14431921129E+04  0.25500000920E-02 0. -1.
    10030    2    1    2    0    0  0.00000000000E+00  0.00000000000E+00  0.69848102722E+03  0.35848652529E+04  0.35161602831E+04 0.  0.
        2    1    3    3  502    0 -0.40254133585E+03  0.17112427448E+04  0.32750433305E+03  0.17881975134E+04  0.25500000920E-02 0. -1.
       -2    1    3    3    0  502  0.40254133585E+03 -0.17112427448E+04  0.37097669417E+03  0.17966677396E+04  0.25500000920E-02 0.  1.
</event>
<event>
 5   0  0.4591195E-07  0.3490215E+04  0.7818609E-02  0.8116113E-01
       -1   -1    0    0    0  501  0.00000000000E+00  0.00000000000E+00  0.14214034617E+04  0.14214034617E+04  0.50400001928E-02 0. -1.
        1   -1    0    0  501    0  0.00000000000E+00  0.00000000000E+00 -0.21425299791E+04  0.21425299791E+04  0.50400001928E-02 0.  1.
    10030    2    1    2    0    0  0.00000000000E+00  0.00000000000E+00 -0.72112651744E+03  0.35639334408E+04  0.34902146232E+04 0.  0.
        4    1    3    3  502    0 -0.53879320369E+03 -0.10561087323E+04 -0.16681309199E+04  0.20465400435E+04  0.12699999809E+01 0.  1.
       -4    1    3    3    0  502  0.53879320369E+03  0.10561087323E+04  0.94700440250E+03  0.15173933973E+04  0.12699999809E+01 0. -1.
</event>
<event>
 5   0  0.1348388E-06  0.3487538E+04  0.7818609E-02  0.8116750E-01
       -2   -1    0    0    0  501  0.00000000000E+00  0.00000000000E+00  0.23578713308E+04  0.23578713308E+04  0.25500000920E-02 0. -1.
        2   -1    0    0  501    0  0.00000000000E+00  0.00000000000E+00 -0.12896085798E+04  0.12896085798E+04  0.25500000920E-02 0.  1.
    10030    2    1    2    0    0  0.00000000000E+00  0.00000000000E+00  0.10682627509E+04  0.36474799106E+04  0.34875384433E+04 0.  0.
        5    1    3    3  502    0 -0.71200776363E+03  0.29485009118E+03  0.21700989181E+04  0.23028771213E+04  0.46999998093E+01 0. -1.
       -5    1    3    3    0  502  0.71200776363E+03 -0.29485009118E+03 -0.11018361671E+04  0.13446027893E+04  0.46999998093E+01 0.  1.
</event>
<event>
 5   0  0.4409125E-07  0.3477433E+04  0.7818609E-02  0.8119159E-01
        1   -1    0    0  501    0  0.00000000000E+00  0.00000000000E+00  0.19631000104E+04  0.19631000104E+04  0.50400001928E-02 0. -1.
       -1   -1    0    0    0  501  0.00000000000E+00  0.00000000000E+00 -0.15399799034E+04  0.15399799034E+04  0.50400001928E-02 0.  1.
    10030    2    1    2    0    0  0.00000000000E+00  0.00000000000E+00  0.42312010705E+03  0.35030799138E+04  0.34774327107E+04 0.  0.
        5    1    3    3  502    0  0.52160953967E+03  0.15841655783E+03 -0.14516590647E+04  0.15506477510E+04  0.46999998093E+01 0.  1.
       -5    1    3    3    0  502 -0.52160953967E+03 -0.15841655783E+03  0.18747791717E+04  0.19524321628E+04  0.46999998093E+01 0. -1.
</event>
<event>
 5   0  0.4693374E-07  0.3443862E+04  0.7818609E-02  0.8127224E-01
       -1   -1    0    0    0  501  0.00000000000E+00  0.00000000000E+00  0.16000753835E+04  0.16000753835E+04  0.50400001928E-02 0.  1.
        1   -1    0    0  501    0  0.00000000000E+00  0.00000000000E+00 -0.18530663800E+04  0.18530663800E+04  0.50400001928E-02 0. -1.
    10030    2    1    2    0    0  0.00000000000E+00  0.00000000000E+00 -0.25299099649E+03  0.34531417636E+04  0.34438617270E+04 0.  0.
        1    1    3    3  502    0 -0.75445765380E+03 -0.14908016921E+04 -0.54397047805E+03  0.17571567709E+04  0.50400001928E-02 0. -1.
       -1    1    3    3    0  502  0.75445765380E+03  0.14908016921E+04  0.29097948155E+03  0.16959849926E+04  0.50400001928E-02 0.  1.
</event>
<event>
 5   0  0.1378620E-06  0.3514140E+04  0.7818609E-02  0.8110447E-01
        2   -1    0    0  501    0  0.00000000000E+00  0.00000000000E+00  0.17863782007E+04  0.17863782007E+04  0.25500000920E-02 0. -1.
       -2   -1    0    0    0  501  0.00000000000E+00  0.00000000000E+00 -0.17282421863E+04  0.17282421863E+04  0.25500000920E-02 0.  1.
    10030    2    1    2    0    0  0.00000000000E+00  0.00000000000E+00  0.58136014401E+02  0.35146203870E+04  0.35141395345E+04 0.  0.
        2    1    3    3  502    0  0.99270221930E+03  0.13055794565E+04  0.65947064724E+03  0.17677378053E+04  0.25500000920E-02 0. -1.
       -2    1    3    3    0  502 -0.99270221930E+03 -0.13055794565E+04 -0.60133463284E+03  0.17468825817E+04  0.25500000920E-02 0.  1.
</event>
<event>
 5   0  0.4409125E-07  0.3498696E+04  0.7818609E-02  0.8114099E-01
       -1   -1    0    0    0  501  0.00000000000E+00  0.00000000000E+00  0.14152707816E+04  0.14152707816E+04  0.50400001928E-02 0. -1.
        1   -1    0    0  501    0  0.00000000000E+00  0.00000000000E+00 -0.21622849005E+04  0.21622849005E+04  0.50400001928E-02 0.  1.
    10030    2    1    2    0    0  0.00000000000E+00  0.00000000000E+00 -0.74701411893E+03  0.35775556821E+04  0.34986961235E+04 0.  0.
        5    1    3    3  502    0  0.11461854097E+04 -0.94740364438E+03 -0.13156218305E+04  0.19854968018E+04  0.46999998093E+01 0.  1.
       -5    1    3    3    0  502 -0.11461854097E+04  0.94740364438E+03  0.56860771161E+03  0.15920588803E+04  0.46999998093E+01 0. -1.
</event>
<event>
 5   0  0.1442864E-06  0.3567374E+04  0.7818609E-02  0.8098006E-01
       -2   -1    0    0    0  501  0.00000000000E+00  0.00000000000E+00  0.11469674231E+04  0.11469674231E+04  0.25500000920E-02 0. -1.
        2   -1    0    0  501    0  0.00000000000E+00  0.00000000000E+00 -0.27738705872E+04  0.27738705872E+04  0.25500000920E-02 0.  1.
    10030    2    1    2    0    0  0.00000000000E+00  0.00000000000E+00 -0.16269031641E+04  0.39208380103E+04  0.35673739357E+04 0.  0.
        1    1    3    3  502    0 -0.14715762032E+03  0.16377009977E+04 -0.53716645601E+02  0.16451764043E+04  0.50400001928E-02 0. -1.
       -1    1    3    3    0  502  0.14715762032E+03 -0.16377009977E+04 -0.15731865185E+04  0.22756616060E+04  0.50400001928E-02 0.  1.
</event>
<event>
 5   0  0.4693374E-07  0.3293906E+04  0.7818609E-02  0.8164448E-01
       -1   -1    0    0    0  501  0.00000000000E+00  0.00000000000E+00  0.17289109097E+04  0.17289109097E+04  0.50400001928E-02 0. -1.
        1   -1    0    0  501    0  0.00000000000E+00  0.00000000000E+00 -0.15688802763E+04  0.15688802763E+04  0.50400001928E-02 0.  1.
    10030    2    1    2    0    0  0.00000000000E+00  0.00000000000E+00  0.16003063340E+03  0.32977911859E+04  0.32939060251E+04 0.  0.
        1    1    3    3  502    0 -0.83605096953E+03  0.14094420956E+04  0.24436124468E+03  0.16568707441E+04  0.50400001928E-02 0. -1.
       -1    1    3    3    0  502  0.83605096953E+03 -0.14094420956E+04 -0.84330611281E+02  0.16409204419E+04  0.50400001928E-02 0.  1.
</event>
<event>
 5   0  0.4557237E-07  0.3336430E+04  0.7818609E-02  0.8153687E-01
       -1   -1    0    0    0  501  0.00000000000E+00  0.00000000000E+00  0.24033628488E+04  0.24033628488E+04  0.50400001928E-02 0. -1.
        1   -1    0    0  501    0  0.00000000000E+00  0.00000000000E+00 -0.11579367229E+04  0.11579367229E+04  0.50400001928E-02 0.  1.
    10030    2    1    2    0    0  0.00000000000E+00  0.00000000000E+00  0.12454261259E+04  0.35612995716E+04  0.33364304884E+04 0.  0.
        2    1    3    3  502    0 -0.15183959699E+03 -0.15025576248E+04  0.13791417481E+04  0.20451813221E+04  0.25500000920E-02 0. -1.
       -2    1    3    3    0  502  0.15183959699E+03  0.15025576248E+04 -0.13371562221E+03  0.15161182495E+04  0.25500000920E-02 0.  1.
</event>
<event>
 5   0  0.1387133E-06  0.3553826E+04  0.7818609E-02  0.8101151E-01
       -2   -1    0    0    0  501  0.00000000000E+00  0.00000000000E+00  0.12334881127E+04  0.12334881127E+04  0.25500000920E-02 0.  1.
        2   -1    0    0  501    0  0.00000000000E+00  0.00000000000E+00 -0.25597491507E+04  0.25597491507E+04  0.25500000920E-02 0. -1.
    10030    2    1    2    0    0  0.00000000000E+00  0.00000000000E+00 -0.13262610379E+04  0.37932372634E+04  0.35538261910E+04 0.  0.
        4    1    3    3  502    0  0.16650917696E+04 -0.31918657722E+03 -0.12309536446E+04  0.20951513455E+04  0.12699999809E+01 0. -1.
       -4    1    3    3    0  502 -0.16650917696E+04  0.31918657722E+03 -0.95307393319E+02  0.16980859179E+04  0.12699999809E+01 0.  1.
</event>
<event>
 5   0  0.1378620E-06  0.2814543E+04  0.7818609E-02  0.8298767E-01
       -2   -1    0    0    0  501  0.00000000000E+00  0.00000000000E+00  0.69210045269E+03  0.69210045269E+03  0.25500000920E-02 0.  1.
        2   -1    0    0  501    0  0.00000000000E+00  0.00000000000E+00 -0.28614534280E+04  0.28614534280E+04  0.25500000920E-02 0. -1.
    10030    2    1    2    0    0  0.00000000000E+00  0.00000000000E+00 -0.21693529754E+04  0.35535538807E+04  0.28145430982E+04 0.  0.
        2    1    3    3  502    0 -0.44605830539E+03  0.71237622915E+03  0.34038565357E+03  0.90681326459E+03  0.25500000920E-02 0.  1.
       -2    1    3    3    0  502  0.44605830539E+03 -0.71237622915E+03 -0.25097386289E+04  0.26467406161E+04  0.25500000920E-02 0. -1.
</event>
<event>
 5   0  0.1387133E-06  0.3512202E+04  0.7818609E-02  0.8110904E-01
        2   -1    0    0  501    0  0.00000000000E+00  0.00000000000E+00  0.22868028104E+04  0.22868028104E+04  0.25500000920E-02 0.  1.
       -2   -1    0    0    0  501  0.00000000000E+00  0.00000000000E+00 -0.13485597147E+04  0.13485597147E+04  0.25500000920E-02 0. -1.
    10030    2    1    2    0    0  0.00000000000E+00  0.00000000000E+00  0.93824309576E+03  0.36353625251E+04  0.35122016716E+04 0.  0.
        4    1    3    3  502    0  0.12187229433E+04 -0.12641282320E+04  0.44413517879E+03  0.18112325829E+04  0.12699999809E+01 0. -1.
       -4    1    3    3    0  502 -0.12187229433E+04  0.12641282320E+04  0.49410791697E+03  0.18241299422E+04  0.12699999809E+01 0.  1.
</event>
<event>
 5   0  0.4557237E-07  0.3504550E+04  0.7818609E-02  0.8112712E-01
       -1   -1    0    0    0  501  0.00000000000E+00  0.00000000000E+00  0.19330090024E+04  0.19330090024E+04  0.50400001928E-02 0. -1.
        1   -1    0    0  501    0  0.00000000000E+00  0.00000000000E+00 -0.15884398492E+04  0.15884398492E+04  0.50400001928E-02 0.  1.
    10030    2    1    2    0    0  0.00000000000E+00  0.00000000000E+00  0.34456915321E+03  0.35214488517E+04  0.35045504867E+04 0.  0.
        2    1    3    3  502    0  0.64184031517E+02  0.14536761672E+04  0.11532987467E+04  0.18567153762E+04  0.25500000920E-02 0.  1.
       -2    1    3    3    0  502 -0.64184031517E+02 -0.14536761672E+04 -0.80872959350E+03  0.16647334755E+04  0.25500000920E-02 0. -1.
</event>
<event>
 5   0  0.1442864E-06  0.3513702E+04  0.7818609E-02  0.8110550E-01
       -2   -1    0    0    0  501  0.00000000000E+00  0.00000000000E+00  0.13343246580E+04  0.13343246580E+04  0.25500000920E-02 0. -1.
        2   -1    0    0  501    0  0.00000000000E+00  0.00000000000E+00 -0.23131739075E+04  0.23131739075E+04  0.25500000920E-02 0.  1.
    10030    2    1    2    0    0  0.00000000000E+00  0.00000000000E+00 -0.97884924950E+03  0.36474985655E+04  0.35137017420E+04 0.  0.
        1    1    3    3  502    0  0.52511299574E+03 -0.38848236042E+03 -0.21824359060E+04  0.22780888232E+04  0.50400001928E-02 0.  1.
       -1    1    3    3    0  502 -0.52511299574E+03  0.38848236042E+03  0.12035866565E+04  0.13694097423E+04  0.50400001928E-02 0. -1.
</event>
<event>
 5   0  0.4591195E-07  0.3567869E+04  0.7818609E-02  0.8097892E-01
       -1   -1    0    0    0  501  0.00000000000E+00  0.00000000000E+00  0.15880054883E+04  0.15880054884E+04  0.50400001928E-02 0. -1.
        1   -1    0    0  501    0  0.00000000000E+00  0.00000000000E+00 -0.20040372676E+04  0.20040372676E+04  0.50400001928E-02 0.  1.
    10030    2    1    2    0    0  0.00000000000E+00  0.00000000000E+00 -0.41603177927E+03  0.35920427560E+04  0.35678689325E+04 0.  0.
        4    1    3    3  502    0 -0.17547170503E+04  0.13444969508E+03  0.86045132956E+02  0.17619631168E+04  0.12699999809E+01 0. -1.
       -4    1    3    3    0  502  0.17547170503E+04 -0.13444969508E+03 -0.50207691222E+03  0.18300796392E+04  0.12699999809E+01 0.  1.
</event>
<event>
 5   0  0.4557237E-07  0.3496166E+04  0.7818609E-02  0.8114699E-01
       -1   -1    0    0    0  501  0.00000000000E+00  0.00000000000E+00  0.18011892408E+04  0.18011892409E+04  0.50400001928E-02 0. -1.
        1   -1    0    0  501    0  0.00000000000E+00  0.00000000000E+00 -0.16965428382E+04  0.16965428382E+04  0.50400001928E-02 0.  1.
    10030    2    1    2    0    0  0.00000000000E+00  0.00000000000E+00  0.10464640263E+03  0.34977320791E+04  0.34961663043E+04 0.  0.
        2    1    3    3  502    0  0.36478346213E+03 -0.12319090917E+04  0.12382349141E+04  0.17843465714E+04  0.25500000920E-02 0. -1.
       -2    1    3    3    0  502 -0.36478346213E+03  0.12319090917E+04 -0.11335885115E+04  0.17133855076E+04  0.25500000920E-02 0.  1.
</event>
<event>
 5   0  0.4693374E-07  0.3505710E+04  0.7818609E-02  0.8112438E-01
       -1   -1    0    0    0  501  0.00000000000E+00  0.00000000000E+00  0.21399939686E+04  0.21399939686E+04  0.50400001928E-02 0.  1.
        1   -1    0    0  501    0  0.00000000000E+00  0.00000000000E+00 -0.14357522872E+04  0.14357522872E+04  0.50400001928E-02 0. -1.
    10030    2    1    2    0    0  0.00000000000E+00  0.00000000000E+00  0.70424168140E+03  0.35757462558E+04  0.35057103332E+04 0.  0.
        1    1    3    3  502    0  0.83126960269E+03 -0.12768686364E+04 -0.53185242529E+03  0.16137749748E+04  0.50400001928E-02 0.  1.
       -1    1    3    3    0  502 -0.83126960269E+03  0.12768686364E+04  0.12360941067E+04  0.19619712810E+04  0.50400001928E-02 0. -1.
</event>
<event>
 5   0  0.1442864E-06  0.3570639E+04  0.7818609E-02  0.8097251E-01
       -2   -1    0    0    0  501  0.00000000000E+00  0.00000000000E+00  0.11552179175E+04  0.11552179175E+04  0.25500000920E-02 0.  1.
        2   -1    0    0  501    0  0.00000000000E+00  0.00000000000E+00 -0.27591030092E+04  0.27591030092E+04  0.25500000920E-02 0. -1.
    10030    2    1    2    0    0  0.00000000000E+00  0.00000000000E+00 -0.16038850917E+04  0.39143209267E+04  0.35706387286E+04 0.  0.
        1    1    3    3  502    0  0.77916435224E+03 -0.10200035175E+03  0.95543711154E+03  0.12370776991E+04  0.50400001928E-02 0.  1.
       -1    1    3    3    0  502 -0.77916435224E+03  0.10200035175E+03 -0.25593222033E+04  0.26772432276E+04  0.50400001928E-02 0. -1.
</event>
<event>
 5   0  0.4700769E-07  0.3481312E+04  0.7818609E-02  0.8118233E-01
        1   -1    0    0  501    0  0.00000000000E+00  0.00000000000E+00  0.18679038831E+04  0.18679038831E+04  0.50400001928E-02 0. -1.
       -1   -1    0    0    0  501  0.00000000000E+00  0.00000000000E+00 -0.16220763914E+04  0.16220763914E+04  0.50400001928E-02 0.  1.
    10030    2    1    2    0    0  0.00000000000E+00  0.00000000000E+00  0.24582749164E+03  0.34899802745E+04  0.34813117012E+04 0.  0.
        3    1    3    3  502    0 -0.75072845354E+03  0.13158690981E+04  0.98224015748E+03  0.18055194353E+04  0.10100000352E+00 0. -1.
       -3    1    3    3    0  502  0.75072845354E+03 -0.13158690981E+04 -0.73641266584E+03  0.16844608392E+04  0.10100000352E+00 0.  1.
</event>
<event>
 5   0  0.4409125E-07  0.3471418E+04  0.7818609E-02  0.8120597E-01
        1   -1    0    0  501    0  0.00000000000E+00  0.00000000000E+00  0.20319228677E+04  0.20319228677E+04  0.50400001928E-02 0.  1.
       -1   -1    0    0    0  501  0.00000000000E+00  0.00000000000E+00 -0.14826772328E+04  0.14826772328E+04  0.50400001928E-02 0. -1.
    10030    2    1    2    0    0  0.00000000000E+00  0.00000000000E+00  0.54924563487E+03  0.35146001005E+04  0.34714180242E+04 0.  0.
        5    1    3    3  502    0 -0.10246366609E+04  0.13996502509E+04  0.33672565920E+03  0.17670051984E+04  0.46999998093E+01 0.  1.
       -5    1    3    3    0  502  0.10246366609E+04 -0.13996502509E+04  0.21251997567E+03  0.17475949021E+04  0.46999998093E+01 0. -1.
</event>
<event>
 5   0  0.4700769E-07  0.2728610E+04  0.7818609E-02  0.8325781E-01
        1   -1    0    0  501    0  0.00000000000E+00  0.00000000000E+00  0.27233275873E+04  0.27233275874E+04  0.50400001928E-02 0.  1.
       -1   -1    0    0    0  501  0.00000000000E+00  0.00000000000E+00 -0.68347554387E+03  0.68347554389E+03  0.50400001928E-02 0. -1.
    10030    2    1    2    0    0  0.00000000000E+00  0.00000000000E+00  0.20398520435E+04  0.34068031312E+04  0.27286097588E+04 0.  0.
        3    1    3    3  502    0 -0.23149408722E+03  0.10555415897E+03  0.26934459817E+04  0.27054357245E+04  0.10100000352E+00 0.  1.
       -3    1    3    3    0  502  0.23149408722E+03 -0.10555415897E+03 -0.65359393825E+03  0.70136740672E+03  0.10100000352E+00 0. -1.
</event>
<event>
 5   0  0.1378620E-06  0.3508336E+04  0.7818609E-02  0.8111817E-01
        2   -1    0    0  501    0  0.00000000000E+00  0.00000000000E+00  0.18667995206E+04  0.18667995206E+04  0.25500000920E-02 0.  1.
       -2   -1    0    0    0  501  0.00000000000E+00  0.00000000000E+00 -0.16483317465E+04  0.16483317465E+04  0.25500000920E-02 0. -1.
    10030    2    1    2    0    0  0.00000000000E+00  0.00000000000E+00  0.21846777413E+03  0.35151312671E+04  0.35083357388E+04 0.  0.
        2    1    3    3  502    0  0.48262679599E+03  0.15524391675E+04 -0.55091174720E+03  0.17165371380E+04  0.25500000920E-02 0. -1.
       -2    1    3    3    0  502 -0.48262679599E+03 -0.15524391675E+04  0.76937952133E+03  0.17985941290E+04  0.25500000920E-02 0.  1.
</event>
<event>
 5   0  0.1378620E-06  0.3510244E+04  0.7818609E-02  0.8111367E-01
        2   -1    0    0  501    0  0.00000000000E+00  0.00000000000E+00  0.33550031885E+04  0.33550031885E+04  0.25500000920E-02 0.  1.
       -2   -1    0    0    0  501  0.00000000000E+00  0.00000000000E+00 -0.91816688748E+03  0.91816688748E+03  0.25500000920E-02 0. -1.
    10030    2    1    2    0    0  0.00000000000E+00  0.00000000000E+00  0.24368363010E+04  0.42731700759E+04  0.35102437722E+04 0.  0.
        2    1    3    3  502    0  0.16785589492E+03 -0.77584687698E+03 -0.68715653356E+03  0.10499038430E+04  0.25500000920E-02 0. -1.
       -2    1    3    3    0  502 -0.16785589492E+03  0.77584687698E+03  0.31239928345E+04  0.32232662329E+04  0.25500000920E-02 0.  1.
</event>
<event>
 5   0  0.1387133E-06  0.3515424E+04  0.7818609E-02  0.8110144E-01
        2   -1    0    0  501    0  0.00000000000E+00  0.00000000000E+00  0.25995471962E+04  0.25995471962E+04  0.25500000920E-02 0. -1.
       -2   -1    0    0    0  501  0.00000000000E+00  0.00000000000E+00 -0.11884963019E+04  0.11884963019E+04  0.25500000920E-02 0.  1.
    10030    2    1    2    0    0  0.00000000000E+00  0.00000000000E+00  0.14110508943E+04  0.37880434980E+04  0.35154244291E+04 0.  0.
        4    1    3    3  502    0  0.15614308429E+04 -0.80391251197E+03  0.62775495069E+03  0.18650521428E+04  0.12699999809E+01 0. -1.
       -4    1    3    3    0  502 -0.15614308429E+04  0.80391251197E+03  0.78329594360E+03  0.19229913553E+04  0.12699999809E+01 0.  1.
</event>
<event>
 5   0  0.4700769E-07  0.2595294E+04  0.7818609E-02  0.8369801E-01
        1   -1    0    0  501    0  0.00000000000E+00  0.00000000000E+00  0.10380797012E+04  0.10380797012E+04  0.50400001928E-02 0.  1.
       -1   -1    0    0    0  501  0.00000000000E+00  0.00000000000E+00 -0.16221178660E+04  0.16221178660E+04  0.50400001928E-02 0. -1.
    10030    2    1    2    0    0  0.00000000000E+00  0.00000000000E+00 -0.58403816473E+03  0.26601975672E+04  0.25952939176E+04 0.  0.
        3    1    3    3  502    0  0.64278269873E+03 -0.42829746515E+03  0.77678450689E+03  0.10954462546E+04  0.10100000352E+00 0.  1.
       -3    1    3    3    0  502 -0.64278269873E+03  0.42829746515E+03 -0.13608226716E+04  0.15647513126E+04  0.10100000352E+00 0. -1.
</event>
<event>
 5   0  0.4591195E-07  0.3493986E+04  0.7818609E-02  0.8115217E-01
        1   -1    0    0  501    0  0.00000000000E+00  0.00000000000E+00  0.15658696281E+04  0.15658696281E+04  0.50400001928E-02 0.  1.
       -1   -1    0    0    0  501  0.00000000000E+00  0.00000000000E+00 -0.19490673314E+04  0.19490673315E+04  0.50400001928E-02 0. -1.
    10030    2    1    2    0    0  0.00000000000E+00  0.00000000000E+00 -0.38319770335E+03  0.35149369596E+04  0.34939864553E+04 0.  0.
        4    1    3    3  502    0  0.69540689789E+03 -0.97759202685E+03  0.10859397510E+04  0.16181914845E+04  0.12699999809E+01 0.  1.
       -4    1    3    3    0  502 -0.69540689789E+03  0.97759202685E+03 -0.14691374544E+04  0.18967454751E+04  0.12699999809E+01 0. -1.
</event>
<event>
 5   0  0.1348388E-06  0.3508403E+04  0.7818609E-02  0.8111801E-01
        2   -1    0    0  501    0  0.00000000000E+00  0.00000000000E+00  0.24155100400E+04  0.24155100400E+04  0.25500000920E-02 0.  1.
       -2   -1    0    0    0  501  0.00000000000E+00  0.00000000000E+00 -0.12739432382E+04  0.12739432382E+04  0.25500000920E-02 0. -1.
    10030    2    1    2    0    0  0.00000000000E+00  0.00000000000E+00  0.11415668018E+04  0.36894532782E+04  0.35084028744E+04 0.  0.
        5    1    3    3  502    0  0.70150343189E+03 -0.86428219079E+03 -0.85494987092E+03  0.14035854595E+04  0.46999998093E+01 0. -1.
       -5    1    3    3    0  502 -0.70150343189E+03  0.86428219079E+03  0.19965166727E+04  0.22858678187E+04  0.46999998093E+01 0.  1.
</event>
<event>
 5   0  0.4409125E-07  0.3521732E+04  0.7818609E-02  0.8108659E-01
        1   -1    0    0  501    0  0.00000000000E+00  0.00000000000E+00  0.25893990690E+04  0.25893990690E+04  0.50400001928E-02 0. -1.
       -1   -1    0    0    0  501  0.00000000000E+00  0.00000000000E+00 -0.11974394251E+04  0.11974394251E+04  0.50400001928E-02 0.  1.
    10030    2    1    2    0    0  0.00000000000E+00  0.00000000000E+00  0.13919596439E+04  0.37868384941E+04  0.35217316948E+04 0.  0.
        5    1    3    3  502    0  0.23340014109E+03 -0.16879062452E+04  0.11733876372E+04  0.20689039986E+04  0.46999998093E+01 0. -1.
       -5    1    3    3    0  502 -0.23340014109E+03  0.16879062452E+04  0.21857200664E+03  0.17179344954E+04  0.46999998093E+01 0.  1.
</event>
<event>
 5   0  0.4557237E-07  0.2508939E+04  0.7818609E-02  0.8399808E-01
        1   -1    0    0  501    0  0.00000000000E+00  0.00000000000E+00  0.13424350103E+04  0.13424350103E+04  0.50400001928E-02 0.  1.
       -1   -1    0    0    0  501  0.00000000000E+00  0.00000000000E+00 -0.11722676481E+04  0.11722676481E+04  0.50400001928E-02 0. -1.
    10030    2    1    2    0    0  0.00000000000E+00  0.00000000000E+00  0.17016736218E+03  0.25147026584E+04  0.25089385264E+04 0.  0.
        2    1    3    3  502    0  0.12474887132E+04 -0.12956559399E+03  0.11117807582E+03  0.12591171103E+04  0.25500000920E-02 0. -1.
       -2    1    3    3    0  502 -0.12474887132E+04  0.12956559399E+03  0.58989286363E+02  0.12555855481E+04  0.25500000920E-02 0.  1.
</event>
<event>
 5   0  0.1361560E-06  0.3415771E+04  0.7818609E-02  0.8134046E-01
        2   -1    0    0  501    0  0.00000000000E+00  0.00000000000E+00  0.25862674905E+04  0.25862674905E+04  0.25500000920E-02 0. -1.
       -2   -1    0    0    0  501  0.00000000000E+00  0.00000000000E+00 -0.11278313264E+04  0.11278313264E+04  0.25500000920E-02 0.  1.
    10030    2    1    2    0    0  0.00000000000E+00  0.00000000000E+00  0.14584361642E+04  0.37140988169E+04  0.34157713589E+04 0.  0.
        3    1    3    3  502    0  0.12413353058E+03 -0.23933006544E+03 -0.11045466606E+04  0.11369746476E+04  0.10100000352E+00 0.  1.
       -3    1    3    3    0  502 -0.12413353058E+03  0.23933006544E+03  0.25629828248E+04  0.25771241693E+04  0.10100000352E+00 0. -1.
</event>
<event>
 5   0  0.4700769E-07  0.3549326E+04  0.7818609E-02  0.8102199E-01
       -1   -1    0    0    0  501  0.00000000000E+00  0.00000000000E+00  0.27398943099E+04  0.27398943099E+04  0.50400001928E-02 0.  1.
        1   -1    0    0  501    0  0.00000000000E+00  0.00000000000E+00 -0.11494711967E+04  0.11494711967E+04  0.50400001928E-02 0. -1.
    10030    2    1    2    0    0  0.00000000000E+00  0.00000000000E+00  0.15904231132E+04  0.38893655066E+04  0.35493264663E+04 0.  0.
        3    1    3    3  502    0 -0.62480747301E+03  0.35770523695E+03  0.25726756714E+04  0.26715159620E+04  0.10100000352E+00 0.  1.
       -3    1    3    3    0  502  0.62480747301E+03 -0.35770523695E+03 -0.98225255820E+03  0.12178495446E+04  0.10100000352E+00 0. -1.
</event>
<event>
 5   0  0.4700769E-07  0.3384249E+04  0.7818609E-02  0.8141783E-01
        1   -1    0    0  501    0  0.00000000000E+00  0.00000000000E+00  0.20966645438E+04  0.20966645438E+04  0.50400001928E-02 0.  1.
       -1   -1    0    0    0  501  0.00000000000E+00  0.00000000000E+00 -0.13656380209E+04  0.13656380209E+04  0.50400001928E-02 0. -1.
    10030    2    1    2    0    0  0.00000000000E+00  0.00000000000E+00  0.73102652289E+03  0.34623025648E+04  0.33842487014E+04 0.  0.
        3    1    3    3  502    0  0.12601343338E+04 -0.26579026332E+03 -0.75739047514E+03  0.14940626979E+04  0.10100000352E+00 0. -1.
       -3    1    3    3    0  502 -0.12601343338E+04  0.26579026332E+03  0.14884169980E+04  0.19682398669E+04  0.10100000352E+00 0.  1.
</event>
<event>
 5   0  0.4700769E-07  0.3471613E+04  0.7818609E-02  0.8120550E-01
        1   -1    0    0  501    0  0.00000000000E+00  0.00000000000E+00  0.17939720703E+04  0.17939720703E+04  0.50400001928E-02 0.  1.
       -1   -1    0    0    0  501  0.00000000000E+00  0.00000000000E+00 -0.16795272205E+04  0.16795272206E+04  0.50400001928E-02 0. -1.
    10030    2    1    2    0    0  0.00000000000E+00  0.00000000000E+00  0.11444484974E+03  0.34734992909E+04  0.34716134145E+04 0.  0.
        3    1    3    3  502    0  0.57002752174E+03  0.12920134199E+04 -0.95267956924E+03  0.17034753959E+04  0.10100000352E+00 0. -1.
       -3    1    3    3    0  502 -0.57002752174E+03 -0.12920134199E+04  0.10671244190E+04  0.17700238949E+04  0.10100000352E+00 0.  1.
</event>
<event>
 5   0  0.4557237E-07  0.3530640E+04  0.7818609E-02  0.8106567E-01
       -1   -1    0    0    0  501  0.00000000000E+00  0.00000000000E+00  0.17508313424E+04  0.17508313424E+04  0.50400001928E-02 0.  1.
        1   -1    0    0  501    0  0.00000000000E+00  0.00000000000E+00 -0.17799285959E+04  0.17799285959E+04  0.50400001928E-02 0. -1.
    10030    2    1    2    0    0  0.00000000000E+00  0.00000000000E+00 -0.29097253469E+02  0.35307599383E+04  0.35306400399E+04 0.  0.
        2    1    3    3  502    0  0.12839173597E+04  0.74292866996E+03  0.94254603427E+03  0.17574924813E+04  0.25500000920E-02 0.  1.
       -2    1    3    3    0  502 -0.12839173597E+04 -0.74292866996E+03 -0.97164328774E+03  0.17732674569E+04  0.25500000920E-02 0. -1.
</event>
<event>
 5   0  0.4591195E-07  0.3520603E+04  0.7818609E-02  0.8108925E-01
       -1   -1    0    0    0  501  0.00000000000E+00  0.00000000000E+00  0.19692462718E+04  0.19692462718E+04  0.50400001928E-02 0.  1.
        1   -1    0    0  501    0  0.00000000000E+00  0.00000000000E+00 -0.15735267267E+04  0.15735267267E+04  0.50400001928E-02 0. -1.
    10030    2    1    2    0    0  0.00000000000E+00  0.00000000000E+00  0.39571954515E+03  0.35427729985E+04  0.35206031529E+04 0.  0.
        4    1    3    3  502    0 -0.71056176207E+03  0.72570030407E+03 -0.12489425929E+04  0.16097820232E+04  0.12699999809E+01 0. -1.
       -4    1    3    3    0  502  0.71056176207E+03 -0.72570030407E+03  0.16446621381E+04  0.19329909752E+04  0.12699999809E+01 0.  1.
</event>
<event>
 5   0  0.4591195E-07  0.3517453E+04  0.7818609E-02  0.8109666E-01
       -1   -1    0    0    0  501  0.00000000000E+00  0.00000000000E+00  0.14325879886E+04  0.14325879886E+04  0.50400001928E-02 0. -1.
        1   -1    0    0  501    0  0.00000000000E+00  0.00000000000E+00 -0.21591128238E+04  0.21591128238E+04  0.50400001928E-02 0.  1.
    10030    2    1    2    0    0  0.00000000000E+00  0.00000000000E+00 -0.72652483514E+03  0.35917008124E+04  0.35174531112E+04 0.  0.
        4    1    3    3  502    0 -0.49349960240E+03  0.15116795934E+04  0.40386146817E+03  0.16406775275E+04  0.12699999809E+01 0. -1.
       -4    1    3    3    0  502  0.49349960240E+03 -0.15116795934E+04 -0.11303863033E+04  0.19510232849E+04  0.12699999809E+01 0.  1.
</event>
<event>
 5   0  0.1361560E-06  0.3452418E+04  0.7818609E-02  0.8125160E-01
       -2   -1    0    0    0  501  0.00000000000E+00  0.00000000000E+00  0.17924990825E+04  0.17924990825E+04  0.25500000920E-02 0.  1.
        2   -1    0    0  501    0  0.00000000000E+00  0.00000000000E+00 -0.16623703129E+04  0.16623703129E+04  0.25500000920E-02 0. -1.
    10030    2    1    2    0    0  0.00000000000E+00  0.00000000000E+00  0.13012876957E+03  0.34548693953E+04  0.34524178545E+04 0.  0.
        3    1    3    3  502    0 -0.36671137368E+02 -0.91416308131E+03 -0.13997914233E+04  0.16722604314E+04  0.10100000352E+00 0. -1.
       -3    1    3    3    0  502  0.36671137368E+02  0.91416308131E+03  0.15299201929E+04  0.17826089639E+04  0.10100000352E+00 0.  1.
</event>
<event>
 5   0  0.1387133E-06  0.3496903E+04  0.7818609E-02  0.8114524E-01
        2   -1    0    0  501    0  0.00000000000E+00  0.00000000000E+00  0.21576165596E+04  0.21576165596E+04  0.25500000920E-02 0. -1.
       -2   -1    0    0    0  501  0.00000000000E+00  0.00000000000E+00 -0.14168792407E+04  0.14168792407E+04  0.25500000920E-02 0.  1.
    10030    2    1    2    0    0  0.00000000000E+00  0.00000000000E+00  0.74073731887E+03  0.35744958003E+04  0.34969026940E+04 0.  0.
        4    1    3    3  502    0 -0.13730246620E+04 -0.28416277531E+01  0.14769211459E+04  0.20165570861E+04  0.12699999809E+01 0. -1.
       -4    1    3    3    0  502  0.13730246620E+04  0.28416277531E+01 -0.73618382705E+03  0.15579387143E+04  0.12699999809E+01 0.  1.
</event>
<event>
 5   0  0.1387133E-06  0.3529591E+04  0.7818609E-02  0.8106813E-01
       -2   -1    0    0    0  501  0.00000000000E+00  0.00000000000E+00  0.15526397695E+04  0.15526397695E+04  0.25500000920E-02 0. -1.
        2   -1    0    0  501    0  0.00000000000E+00  0.00000000000E+00 -0.20059410865E+04  0.20059410865E+04  0.25500000920E-02 0.  1.
    10030    2    1    2    0    0  0.00000000000E+00  0.00000000000E+00 -0.45330131695E+03  0.35585808560E+04  0.35295914246E+04 0.  0.
        4    1    3    3  502    0 -0.62302723626E+03  0.13981903216E+04 -0.11121599347E+04  0.18920889107E+04  0.12699999809E+01 0.  1.
       -4    1    3    3    0  502  0.62302723626E+03 -0.13981903216E+04  0.65885861777E+03  0.16664919453E+04  0.12699999809E+01 0. -1.
</event>
<event>
 5   0  0.4409125E-07  0.3513457E+04  0.7818609E-02  0.8110608E-01
        1   -1    0    0  501    0  0.00000000000E+00  0.00000000000E+00  0.19789199205E+04  0.19789199205E+04  0.50400001928E-02 0.  1.
       -1   -1    0    0    0  501  0.00000000000E+00  0.00000000000E+00 -0.15594846619E+04  0.15594846619E+04  0.50400001928E-02 0. -1.
    10030    2    1    2    0    0  0.00000000000E+00  0.00000000000E+00  0.41943525862E+03  0.35384045824E+04  0.35134571369E+04 0.  0.
        5    1    3    3  502    0 -0.10559471671E+04 -0.88248283994E+03 -0.88994798596E+03  0.16388501732E+04  0.46999998093E+01 0. -1.
       -5    1    3    3    0  502  0.10559471671E+04  0.88248283994E+03  0.13093832446E+04  0.18995544092E+04  0.46999998093E+01 0.  1.
</event>
<event>
 5   0  0.4700769E-07  0.3487663E+04  0.7818609E-02  0.8116720E-01
       -1   -1    0    0    0  501  0.00000000000E+00  0.00000000000E+00  0.14343751641E+04  0.14343751641E+04  0.50400001928E-02 0.  1.
        1   -1    0    0  501    0  0.00000000000E+00  0.00000000000E+00 -0.21200504466E+04  0.21200504467E+04  0.50400001928E-02 0. -1.
    10030    2    1    2    0    0  0.00000000000E+00  0.00000000000E+00 -0.68567528258E+03  0.35544256107E+04  0.34876626599E+04 0.  0.
        3    1    3    3  502    0 -0.16448754106E+03  0.16811272135E+04 -0.78437797061E+03  0.18623892370E+04  0.10100000352E+00 0. -1.
       -3    1    3    3    0  502  0.16448754106E+03 -0.16811272135E+04  0.98702688022E+02  0.16920363737E+04  0.10100000352E+00 0.  1.
</event>
<event>
 5   0  0.1387133E-06  0.3414919E+04  0.7818609E-02  0.8134254E-01
        2   -1    0    0  501    0  0.00000000000E+00  0.00000000000E+00  0.22340305906E+04  0.22340305906E+04  0.25500000920E-02 0. -1.
       -2   -1    0    0    0  501  0.00000000000E+00  0.00000000000E+00 -0.13050037150E+04  0.13050037151E+04  0.25500000920E-02 0.  1.
    10030    2    1    2    0    0  0.00000000000E+00  0.00000000000E+00  0.92902687551E+03  0.35390343056E+04  0.34149191617E+04 0.  0.
        4    1    3    3  502    0  0.91216833953E+03 -0.49680209284E+03 -0.93993598063E+03  0.14008371282E+04  0.12699999809E+01 0.  1.
       -4    1    3    3    0  502 -0.91216833953E+03  0.49680209284E+03  0.18689628561E+04  0.21381971774E+04  0.12699999809E+01 0. -1.
</event>
<event>
 5   0  0.1348388E-06  0.2621464E+04  0.7818609E-02  0.8360947E-01
        2   -1    0    0  501    0  0.00000000000E+00  0.00000000000E+00  0.13838605016E+04  0.13838605016E+04  0.25500000920E-02 0. -1.
       -2   -1    0    0    0  501  0.00000000000E+00  0.00000000000E+00 -0.12414680480E+04  0.12414680480E+04  0.25500000920E-02 0.  1.
    10030    2    1    2    0    0  0.00000000000E+00  0.00000000000E+00  0.14239245354E+03  0.26253285496E+04  0.26214641677E+04 0.  0.
        5    1    3    3  502    0 -0.11218705758E+04 -0.40299350402E+03 -0.47458342605E+03  0.12830623022E+04  0.46999998093E+01 0.  1.
       -5    1    3    3    0  502  0.11218705758E+04  0.40299350402E+03  0.61697587959E+03  0.13422662474E+04  0.46999998093E+01 0. -1.
</event>
<event>
 5   0  0.4409125E-07  0.2651092E+04  0.7818609E-02  0.8351051E-01
       -1   -1    0    0    0  501  0.00000000000E+00  0.00000000000E+00  0.99100936405E+03  0.99100936406E+03  0.50400001928E-02 0.  1.
        1   -1    0    0  501    0  0.00000000000E+00  0.00000000000E+00 -0.17730129972E+04  0.17730129972E+04  0.50400001928E-02 0. -1.
    10030    2    1    2    0    0  0.00000000000E+00  0.00000000000E+00 -0.78200363319E+03  0.27640223613E+04  0.26510922148E+04 0.  0.
        5    1    3    3  502    0  0.69131491841E+03 -0.33642367930E+03  0.73478789216E+03  0.10635001386E+04  0.46999998093E+01 0.  1.
       -5    1    3    3    0  502 -0.69131491841E+03  0.33642367930E+03 -0.15167915254E+04  0.17005222227E+04  0.46999998093E+01 0. -1.
</event>
<event>
 5   0  0.4700769E-07  0.3505636E+04  0.7818609E-02  0.8112456E-01
        1   -1    0    0  501    0  0.00000000000E+00  0.00000000000E+00  0.21425294411E+04  0.21425294412E+04  0.50400001928E-02 0. -1.
       -1   -1    0    0    0  501  0.00000000000E+00  0.00000000000E+00 -0.14339921543E+04  0.14339921543E+04  0.50400001928E-02 0.  1.
    10030    2    1    2    0    0  0.00000000000E+00  0.00000000000E+00  0.70853728689E+03  0.35765215954E+04  0.35056356964E+04 0.  0.
        3    1    3    3  502    0 -0.70318292948E+03 -0.62654420440E+03  0.18624522827E+04  0.20870439353E+04  0.10100000352E+00 0. -1.
       -3    1    3    3    0  502  0.70318292948E+03  0.62654420440E+03 -0.11539149958E+04  0.14894776601E+04  0.10100000352E+00 0.  1.
</event>
<event>
 5   0  0.1378620E-06  0.3664356E+04  0.7818609E-02  0.8075907E-01
        2   -1    0    0  501    0  0.00000000000E+00  0.00000000000E+00  0.18866318055E+04  0.18866318055E+04  0.25500000920E-02 0. -1.
       -2   -1    0    0    0  501  0.00000000000E+00  0.00000000000E+00 -0.17792960366E+04  0.17792960366E+04  0.25500000920E-02 0.  1.
    10030    2    1    2    0    0  0.00000000000E+00  0.00000000000E+00  0.10733576893E+03  0.36659278420E+04  0.36643561475E+04 0.  0.
        2    1    3    3  502    0 -0.12845105680E+03 -0.18190597200E+04 -0.12360449189E+03  0.18277735115E+04  0.25500000920E-02 0.  1.
       -2    1    3    3    0  502  0.12845105680E+03  0.18190597200E+04  0.23094026082E+03  0.18381543306E+04  0.25500000920E-02 0. -1.
</event>
<event>
 5   0  0.1348388E-06  0.3469874E+04  0.7818609E-02  0.8120967E-01
       -2   -1    0    0    0  501  0.00000000000E+00  0.00000000000E+00  0.11239300689E+04  0.11239300689E+04  0.25500000920E-02 0.  1.
        2   -1    0    0  501    0  0.00000000000E+00  0.00000000000E+00 -0.26781079354E+04  0.26781079354E+04  0.25500000920E-02 0. -1.
    10030    2    1    2    0    0  0.00000000000E+00  0.00000000000E+00 -0.15541778665E+04  0.38020380044E+04  0.34698737940E+04 0.  0.
        5    1    3    3  502    0 -0.21441957974E+03 -0.17160252448E+04 -0.92917641683E+03  0.19631885545E+04  0.46999998093E+01 0. -1.
       -5    1    3    3    0  502  0.21441957974E+03  0.17160252448E+04 -0.62500144965E+03  0.18388494498E+04  0.46999998093E+01 0.  1.
</event>
<event>
 5   0  0.1442864E-06  0.3494530E+04  0.7818609E-02  0.8115087E-01
       -2   -1    0    0    0  501  0.00000000000E+00  0.00000000000E+00  0.15864083897E+04  0.15864083897E+04  0.25500000920E-02 0. -1.
        2   -1    0    0  501    0  0.00000000000E+00  0.00000000000E+00 -0.19244319773E+04  0.19244319773E+04  0.25500000920E-02 0.  1.
    10030    2    1    2    0    0  0.00000000000E+00  0.00000000000E+00 -0.33802358767E+03  0.35108403670E+04  0.34945300309E+04 0.  0.
        1    1    3    3  502    0 -0.15444242399E+04  0.53466818851E+03 -0.78981066737E+03  0.18151906773E+04  0.50400001928E-02 0. -1.
       -1    1    3    3    0  502  0.15444242399E+04 -0.53466818851E+03  0.45178707971E+03  0.16956496897E+04  0.50400001928E-02 0.  1.
</event>
<event>
 5   0  0.1387133E-06  0.3447381E+04  0.7818609E-02  0.8126374E-01
       -2   -1    0    0    0  501  0.00000000000E+00  0.00000000000E+00  0.14388830628E+04  0.14388830628E+04  0.25500000920E-02 0. -1.
        2   -1    0    0  501    0  0.00000000000E+00  0.00000000000E+00 -0.20648716269E+04  0.20648716269E+04  0.25500000920E-02 0.  1.
    10030    2    1    2    0    0  0.00000000000E+00  0.00000000000E+00 -0.62598856410E+03  0.35037546897E+04  0.34473809252E+04 0.  0.
        4    1    3    3  502    0  0.31040392512E+03  0.14837030930E+04  0.52102306393E+03  0.16028699608E+04  0.12699999809E+01 0. -1.
       -4    1    3    3    0  502 -0.31040392512E+03 -0.14837030930E+04 -0.11470116280E+04  0.19008847290E+04  0.12699999809E+01 0.  1.
</event>
<event>
 5   0  0.1348388E-06  0.3442516E+04  0.7818609E-02  0.8127550E-01
        2   -1    0    0  501    0  0.00000000000E+00  0.00000000000E+00  0.17797891144E+04  0.17797891144E+04  0.25500000920E-02 0.  1.
       -2   -1    0    0    0  501  0.00000000000E+00  0.00000000000E+00 -0.16646520903E+04  0.16646520903E+04  0.25500000920E-02 0. -1.
    10030    2    1    2    0    0  0.00000000000E+00  0.00000000000E+00  0.11513702410E+03  0.34444412048E+04  0.34425163295E+04 0.  0.
        5    1    3    3  502    0  0.15478875985E+04 -0.63705299734E+03  0.45893497977E+03  0.17356370429E+04  0.46999998093E+01 0.  1.
       -5    1    3    3    0  502 -0.15478875985E+04  0.63705299734E+03 -0.34379795567E+03  0.17088041618E+04  0.46999998093E+01 0. -1.
</event>
<event>
 5   0  0.1361560E-06  0.3480021E+04  0.7818609E-02  0.8118541E-01
       -2   -1    0    0    0  501  0.00000000000E+00  0.00000000000E+00  0.14100831846E+04  0.14100831846E+04  0.25500000920E-02 0.  1.
        2   -1    0    0  501    0  0.00000000000E+00  0.00000000000E+00 -0.21471327243E+04  0.21471327243E+04  0.25500000920E-02 0. -1.
    10030    2    1    2    0    0  0.00000000000E+00  0.00000000000E+00 -0.73704953965E+03  0.35572159089E+04  0.34800205457E+04 0.  0.
        3    1    3    3  502    0 -0.55134137116E+03 -0.12723889072E+04 -0.14428793185E+04  0.20012125266E+04  0.10100000352E+00 0. -1.
       -3    1    3    3    0  502  0.55134137116E+03  0.12723889072E+04  0.70582977882E+03  0.15560033823E+04  0.10100000352E+00 0.  1.
</event>
<event>
 5   0  0.4591195E-07  0.3433044E+04  0.7818609E-02  0.8129844E-01
       -1   -1    0    0    0  501  0.00000000000E+00  0.00000000000E+00  0.22726701527E+04  0.22726701527E+04  0.50400001928E-02 0. -1.
        1   -1    0    0  501    0  0.00000000000E+00  0.00000000000E+00 -0.12964692598E+04  0.12964692598E+04  0.50400001928E-02 0.  1.
    10030    2    1    2    0    0  0.00000000000E+00  0.00000000000E+00  0.97620089290E+03  0.35691394124E+04  0.34330435421E+04 0.  0.
        4    1    3    3  502    0 -0.90650659745E+03 -0.11500718296E+04  0.14191620380E+04  0.20392258157E+04  0.12699999809E+01 0.  1.
       -4    1    3    3    0  502  0.90650659745E+03  0.11500718296E+04 -0.44296114506E+03  0.15299135967E+04  0.12699999809E+01 0. -1.
</event>
<event>
 5   0  0.1348388E-06  0.3456301E+04  0.7818609E-02  0.8124225E-01
       -2   -1    0    0    0  501  0.00000000000E+00  0.00000000000E+00  0.18014104294E+04  0.18014104294E+04  0.25500000920E-02 0.  1.
        2   -1    0    0  501    0  0.00000000000E+00  0.00000000000E+00 -0.16578702940E+04  0.16578702940E+04  0.25500000920E-02 0. -1.
    10030    2    1    2    0    0  0.00000000000E+00  0.00000000000E+00  0.14354013542E+03  0.34592807235E+04  0.34563013979E+04 0.  0.
        5    1    3    3  502    0  0.68030833281E+03  0.15855928248E+04  0.16962302381E+03  0.17337006933E+04  0.46999998093E+01 0. -1.
       -5    1    3    3    0  502 -0.68030833281E+03 -0.15855928248E+04 -0.26082888392E+02  0.17255800302E+04  0.46999998093E+01 0.  1.
</event>
<event>
 5   0  0.4409125E-07  0.3527701E+04  0.7818609E-02  0.8107256E-01
       -1   -1    0    0    0  501  0.00000000000E+00  0.00000000000E+00  0.13907709877E+04  0.13907709877E+04  0.50400001928E-02 0.  1.
        1   -1    0    0  501    0  0.00000000000E+00  0.00000000000E+00 -0.22370097093E+04  0.22370097093E+04  0.50400001928E-02 0. -1.
    10030    2    1    2    0    0  0.00000000000E+00  0.00000000000E+00 -0.84623872159E+03  0.36277806969E+04  0.35277007826E+04 0.  0.
        5    1    3    3  502    0  0.11358141895E+04  0.10431005985E+04  0.45733172940E+03  0.16085108431E+04  0.46999998093E+01 0.  1.
       -5    1    3    3    0  502 -0.11358141895E+04 -0.10431005985E+04 -0.13035704510E+04  0.20192698538E+04  0.46999998093E+01 0. -1.
</event>
<event>
 5   0  0.4409125E-07  0.3513657E+04  0.7818609E-02  0.8110561E-01
       -1   -1    0    0    0  501  0.00000000000E+00  0.00000000000E+00  0.17840823766E+04  0.17840823766E+04  0.50400001928E-02 0.  1.
        1   -1    0    0  501    0  0.00000000000E+00  0.00000000000E+00 -0.17299908762E+04  0.17299908762E+04  0.50400001928E-02 0. -1.
    10030    2    1    2    0    0  0.00000000000E+00  0.00000000000E+00  0.54091500463E+02  0.35140732528E+04  0.35136569177E+04 0.  0.
        5    1    3    3  502    0 -0.89202239115E+03  0.99385811428E+03 -0.11145649728E+04  0.17394640169E+04  0.46999998093E+01 0. -1.
       -5    1    3    3    0  502  0.89202239115E+03 -0.99385811428E+03  0.11686564732E+04  0.17746092359E+04  0.46999998093E+01 0.  1.
</event>
<event>
 5   0  0.4409125E-07  0.3351420E+04  0.7818609E-02  0.8149933E-01
       -1   -1    0    0    0  501  0.00000000000E+00  0.00000000000E+00  0.27982149612E+04  0.27982149612E+04  0.50400001928E-02 0. -1.
        1   -1    0    0  501    0  0.00000000000E+00  0.00000000000E+00 -0.10034983070E+04  0.10034983070E+04  0.50400001928E-02 0.  1.
    10030    2    1    2    0    0  0.00000000000E+00  0.00000000000E+00  0.17947166542E+04  0.38017132682E+04  0.33514199834E+04 0.  0.
        5    1    3    3  502    0 -0.11493888193E+04 -0.58816197024E+02 -0.48424612050E+03  0.12486274057E+04  0.46999998093E+01 0.  1.
       -5    1    3    3    0  502  0.11493888193E+04  0.58816197024E+02  0.22789627747E+04  0.25530858625E+04  0.46999998093E+01 0. -1.
</event>
<event>
 5   0  0.4693374E-07  0.3501640E+04  0.7818609E-02  0.8113401E-01
       -1   -1    0    0    0  501  0.00000000000E+00  0.00000000000E+00  0.19681436405E+04  0.19681436405E+04  0.50400001928E-02 0. -1.
        1   -1    0    0  501    0  0.00000000000E+00  0.00000000000E+00 -0.15574931751E+04  0.15574931751E+04  0.50400001928E-02 0.  1.
    10030    2    1    2    0    0  0.00000000000E+00  0.00000000000E+00  0.41065046539E+03  0.35256368157E+04  0.35016397803E+04 0.  0.
        1    1    3    3  502    0 -0.52273264195E+03 -0.20068003476E+03 -0.14649127560E+04  0.15682765298E+04  0.50400001928E-02 0.  1.
       -1    1    3    3    0  502  0.52273264195E+03  0.20068003476E+03  0.18755632214E+04  0.19573602859E+04  0.50400001928E-02 0. -1.
</event>
<event>
 5   0  0.1361560E-06  0.3513905E+04  0.7818609E-02  0.8110502E-01
        2   -1    0    0  501    0  0.00000000000E+00  0.00000000000E+00  0.28431895140E+04  0.28431895140E+04  0.25500000920E-02 0.  1.
       -2   -1    0    0    0  501  0.00000000000E+00  0.00000000000E+00 -0.10857111906E+04  0.10857111906E+04  0.25500000920E-02 0. -1.
    10030    2    1    2    0    0  0.00000000000E+00  0.00000000000E+00  0.17574783234E+04  0.39289007045E+04  0.35139053329E+04 0.  0.
        3    1    3    3  502    0  0.34373423988E+03  0.10490289885E+04  0.24070107481E+04  0.26480777553E+04  0.10100000352E+00 0.  1.
       -3    1    3    3    0  502 -0.34373423988E+03 -0.10490289885E+04 -0.64953242465E+03  0.12808229493E+04  0.10100000352E+00 0. -1.
</event>
<event>
 5   0  0.4557237E-07  0.3400507E+04  0.7818609E-02  0.8137782E-01
       -1   -1    0    0    0  501  0.00000000000E+00  0.00000000000E+00  0.20852457470E+04  0.20852457470E+04  0.50400001928E-02 0. -1.
        1   -1    0    0  501    0  0.00000000000E+00  0.00000000000E+00 -0.13863410350E+04  0.13863410350E+04  0.50400001928E-02 0.  1.
    10030    2    1    2    0    0  0.00000000000E+00  0.00000000000E+00  0.69890471202E+03  0.34715867819E+04  0.34005068722E+04 0.  0.
        2    1    3    3  502    0 -0.14902355001E+04  0.65210335508E+03  0.85458891967E+03  0.18374881913E+04  0.25500000920E-02 0.  1.
       -2    1    3    3    0  502  0.14902355001E+04 -0.65210335508E+03 -0.15568420765E+03  0.16340985907E+04  0.25500000920E-02 0. -1.
</event>
<event>
 5   0  0.4591195E-07  0.3476205E+04  0.7818609E-02  0.8119452E-01
        1   -1    0    0  501    0  0.00000000000E+00  0.00000000000E+00  0.26718271421E+04  0.26718271421E+04  0.50400001928E-02 0.  1.
       -1   -1    0    0    0  501  0.00000000000E+00  0.00000000000E+00 -0.11306868159E+04  0.11306868159E+04  0.50400001928E-02 0. -1.
    10030    2    1    2    0    0  0.00000000000E+00  0.00000000000E+00  0.15411403262E+04  0.38025139580E+04  0.34762046683E+04 0.  0.
        4    1    3    3  502    0 -0.13453836705E+04  0.92395326222E+03  0.11675895281E+03  0.16362704903E+04  0.12699999809E+01 0. -1.
       -4    1    3    3    0  502  0.13453836705E+04 -0.92395326222E+03  0.14243813734E+04  0.21662434677E+04  0.12699999809E+01 0.  1.
</event>
<event>
 5   0  0.1378620E-06  0.3364050E+04  0.7818609E-02  0.8146786E-01
        2   -1    0    0  501    0  0.00000000000E+00  0.00000000000E+00  0.19159649082E+04  0.19159649082E+04  0.25500000920E-02 0. -1.
       -2   -1    0    0    0  501  0.00000000000E+00  0.00000000000E+00 -0.14766489144E+04  0.14766489144E+04  0.25500000920E-02 0.  1.
    10030    2    1    2    0    0  0.00000000000E+00  0.00000000000E+00  0.43931599382E+03  0.33926138226E+04  0.33640496439E+04 0.  0.
        2    1    3    3  502    0 -0.68941752571E+03 -0.12051492428E+04 -0.73789148699E+03  0.15723120138E+04  0.25500000920E-02 0.  1.
       -2    1    3    3    0  502  0.68941752571E+03  0.12051492428E+04  0.11772074808E+04  0.18203018088E+04  0.25500000920E-02 0. -1.
</event>
<event>
 5   0  0.1378620E-06  0.3510715E+04  0.7818609E-02  0.8111255E-01
       -2   -1    0    0    0  501  0.00000000000E+00  0.00000000000E+00  0.12326272916E+04  0.12326272916E+04  0.25500000920E-02 0.  1.
        2   -1    0    0  501    0  0.00000000000E+00  0.00000000000E+00 -0.24997660062E+04  0.24997660062E+04  0.25500000920E-02 0. -1.
    10030    2    1    2    0    0  0.00000000000E+00  0.00000000000E+00 -0.12671387146E+04  0.37323932978E+04  0.35107149140E+04 0.  0.
        2    1    3    3  502    0  0.25357742189E+03  0.14446800267E+04 -0.16587603997E+04  0.22142465880E+04  0.25500000920E-02 0. -1.
       -2    1    3    3    0  502 -0.25357742189E+03 -0.14446800267E+04  0.39162168512E+03  0.15181467099E+04  0.25500000920E-02 0.  1.
</event>
<event>
 5   0  0.4693374E-07  0.3473519E+04  0.7818609E-02  0.8120094E-01
       -1   -1    0    0    0  501  0.00000000000E+00  0.00000000000E+00  0.15710853266E+04  0.15710853267E+04  0.50400001928E-02 0.  1.
        1   -1    0    0  501    0  0.00000000000E+00  0.00000000000E+00 -0.19199047417E+04  0.19199047417E+04  0.50400001928E-02 0. -1.
    10030    2    1    2    0    0  0.00000000000E+00  0.00000000000E+00 -0.34881941506E+03  0.34909900684E+04  0.34735193498E+04 0.  0.
        1    1    3    3  502    0  0.11836075859E+04  0.69892070403E+03  0.89249314259E+03  0.16388901969E+04  0.50400001928E-02 0.  1.
       -1    1    3    3    0  502 -0.11836075859E+04 -0.69892070403E+03 -0.12413125577E+04  0.18520998714E+04  0.50400001928E-02 0. -1.
</event>
<event>
 5   0  0.1348388E-06  0.3511860E+04  0.7818609E-02  0.8110985E-01
        2   -1    0    0  501    0  0.00000000000E+00  0.00000000000E+00  0.19088323988E+04  0.19088323988E+04  0.25500000920E-02 0. -1.
       -2   -1    0    0    0  501  0.00000000000E+00  0.00000000000E+00 -0.16152755602E+04  0.16152755602E+04  0.25500000920E-02 0.  1.
    10030    2    1    2    0    0  0.00000000000E+00  0.00000000000E+00  0.29355683865E+03  0.35241079590E+04  0.35118600897E+04 0.  0.
        5    1    3    3  502    0 -0.90954760617E+03 -0.26482866297E+03 -0.13368422952E+04  0.16384689442E+04  0.46999998093E+01 0.  1.
       -5    1    3    3    0  502  0.90954760617E+03  0.26482866297E+03  0.16303991339E+04  0.18856390149E+04  0.46999998093E+01 0. -1.
</event>
<event>
 5   0  0.4700769E-07  0.3538704E+04  0.7818609E-02  0.8104678E-01
        1   -1    0    0  501    0  0.00000000000E+00  0.00000000000E+00  0.21174173489E+04  0.21174173489E+04  0.50400001928E-02 0. -1.
       -1   -1    0    0    0  501  0.00000000000E+00  0.00000000000E+00 -0.14785022105E+04  0.14785022105E+04  0.50400001928E-02 0.  1.
    10030    2    1    2    0    0  0.00000000000E+00  0.00000000000E+00  0.63891513837E+03  0.35959195594E+04  0.35387038480E+04 0.  0.
        3    1    3    3  502    0  0.11661265094E+04 -0.22952513804E+03  0.16514035330E+04  0.20346170313E+04  0.10100000352E+00 0. -1.
       -3    1    3    3    0  502 -0.11661265094E+04  0.22952513804E+03 -0.10124883946E+04  0.15613025282E+04  0.10100000352E+00 0.  1.
</event>
<event>
 5   0  0.1387133E-06  0.3488386E+04  0.7818609E-02  0.8116548E-01
       -2   -1    0    0    0  501  0.00000000000E+00  0.00000000000E+00  0.15966803483E+04  0.15966803483E+04  0.25500000920E-02 0. -1.
        2   -1    0    0  501    0  0.00000000000E+00  0.00000000000E+00 -0.19053343532E+04  0.19053343532E+04  0.25500000920E-02 0.  1.
    10030    2    1    2    0    0  0.00000000000E+00  0.00000000000E+00 -0.30865400493E+03  0.35020147015E+04  0.34883863999E+04 0.  0.
        4    1    3    3  502    0  0.62345358579E+03  0.15049545851E+04  0.47150691918E+03  0.16958487741E+04  0.12699999809E+01 0. -1.
       -4    1    3    3    0  502 -0.62345358579E+03 -0.15049545851E+04 -0.78016092410E+03  0.18061659274E+04  0.12699999809E+01 0.  1.
</event>
<event>
 5   0  0.4557237E-07  0.3684674E+04  0.7818609E-02  0.8071367E-01
       -1   -1    0    0    0  501  0.00000000000E+00  0.00000000000E+00  0.24992961592E+04  0.24992961592E+04  0.50400001928E-02 0. -1.
        1   -1    0    0  501    0  0.00000000000E+00  0.00000000000E+00 -0.13580648618E+04  0.13580648618E+04  0.50400001928E-02 0.  1.
    10030    2    1    2    0    0  0.00000000000E+00  0.00000000000E+00  0.11412312974E+04  0.38573610210E+04  0.36846743645E+04 0.  0.
        2    1    3    3  502    0 -0.77937270395E+03 -0.15259330807E+04  0.12793314695E+04  0.21383597890E+04  0.25500000920E-02 0. -1.
       -2    1    3    3    0  502  0.77937270395E+03  0.15259330807E+04 -0.13810017209E+03  0.17190012321E+04  0.25500000920E-02 0.  1.
</event>
<event>
 5   0  0.4700769E-07  0.2808211E+04  0.7818609E-02  0.8300724E-01
        1   -1    0    0  501    0  0.00000000000E+00  0.00000000000E+00  0.20063610868E+04  0.20063610868E+04  0.50400001928E-02 0.  1.
       -1   -1    0    0    0  501  0.00000000000E+00  0.00000000000E+00 -0.98263071797E+03  0.98263071798E+03  0.50400001928E-02 0. -1.
    10030    2    1    2    0    0  0.00000000000E+00  0.00000000000E+00  0.10237303688E+04  0.29889918048E+04  0.28082108434E+04 0.  0.
        3    1    3    3  502    0  0.28841447122E+03 -0.13643122433E+04  0.33703121827E+03  0.14346152295E+04  0.10100000352E+00 0.  1.
       -3    1    3    3    0  502 -0.28841447122E+03  0.13643122433E+04  0.68669915054E+03  0.15543765753E+04  0.10100000352E+00 0. -1.
</event>
<event>
 5   0  0.4693374E-07  0.3515595E+04  0.7818609E-02  0.8110104E-01
       -1   -1    0    0    0  501  0.00000000000E+00  0.00000000000E+00  0.11904018528E+04  0.11904018528E+04  0.50400001928E-02 0.  1.
        1   -1    0    0  501    0  0.00000000000E+00  0.00000000000E+00 -0.25956376388E+04  0.25956376388E+04  0.50400001928E-02 0. -1.
    10030    2    1    2    0    0  0.00000000000E+00  0.00000000000E+00 -0.14052357859E+04  0.37860394916E+04  0.35155948882E+04 0.  0.
        1    1    3    3  502    0 -0.10363512313E+04 -0.22267905156E+03  0.80747895793E+03  0.13325284620E+04  0.50400001928E-02 0.  1.
       -1    1    3    3    0  502  0.10363512313E+04  0.22267905156E+03 -0.22127147439E+04  0.24535110296E+04  0.50400001928E-02 0. -1.
</event>
<event>
 5   0  0.4700769E-07  0.3478779E+04  0.7818609E-02  0.8118837E-01
       -1   -1    0    0    0  501  0.00000000000E+00  0.00000000000E+00  0.23500532985E+04  0.23500532985E+04  0.50400001928E-02 0.  1.
        1   -1    0    0  501    0  0.00000000000E+00  0.00000000000E+00 -0.12874075810E+04  0.12874075810E+04  0.50400001928E-02 0. -1.
    10030    2    1    2    0    0  0.00000000000E+00  0.00000000000E+00  0.10626457175E+04  0.36374608795E+04  0.34787793447E+04 0.  0.
        3    1    3    3  502    0  0.95522009644E+03  0.11790235434E+03  0.20462478103E+04  0.22612997389E+04  0.10100000352E+00 0.  1.
       -3    1    3    3    0  502 -0.95522009644E+03 -0.11790235434E+03 -0.98360209278E+03  0.13761611406E+04  0.10100000352E+00 0. -1.
</event>
<event>
 5   0  0.1387133E-06  0.3483090E+04  0.7818609E-02  0.8117809E-01
        2   -1    0    0  501    0  0.00000000000E+00  0.00000000000E+00  0.24838712116E+04  0.24838712116E+04  0.25500000920E-02 0.  1.
       -2   -1    0    0    0  501  0.00000000000E+00  0.00000000000E+00 -0.12210691109E+04  0.12210691109E+04  0.25500000920E-02 0. -1.
    10030    2    1    2    0    0  0.00000000000E+00  0.00000000000E+00  0.12628021007E+04  0.37049403225E+04  0.34830896698E+04 0.  0.
        4    1    3    3  502    0  0.74477688346E+02 -0.58207439481E+03  0.23755405407E+04  0.24469474863E+04  0.12699999809E+01 0.  1.
       -4    1    3    3    0  502 -0.74477688346E+02  0.58207439481E+03 -0.11127384401E+04  0.12579928362E+04  0.12699999809E+01 0. -1.
</event>
<event>
 5   0  0.1442864E-06  0.2806085E+04  0.7818609E-02  0.8301382E-01
        2   -1    0    0  501    0  0.00000000000E+00  0.00000000000E+00  0.12386704473E+04  0.12386704473E+04  0.25500000920E-02 0. -1.
       -2   -1    0    0    0  501  0.00000000000E+00  0.00000000000E+00 -0.15892263289E+04  0.15892263289E+04  0.25500000920E-02 0.  1.
    10030    2    1    2    0    0  0.00000000000E+00  0.00000000000E+00 -0.35055588161E+03  0.28278967762E+04  0.28060845944E+04 0.  0.
        1    1    3    3  502    0  0.25521020967E+03  0.13716463955E+04 -0.32469234438E+03  0.14324703152E+04  0.50400001928E-02 0.  1.
       -1    1    3    3    0  502 -0.25521020967E+03 -0.13716463955E+04 -0.25863537237E+02  0.13954264610E+04  0.50400001928E-02 0. -1.
</event>
<event>
 5   0  0.4557237E-07  0.3461446E+04  0.7818609E-02  0.8122988E-01
       -1   -1    0    0    0  501  0.00000000000E+00  0.00000000000E+00  0.20827569251E+04  0.20827569251E+04  0.50400001928E-02 0. -1.
        1   -1    0    0  501    0  0.00000000000E+00  0.00000000000E+00 -0.14381911225E+04  0.14381911225E+04  0.50400001928E-02 0.  1.
    10030    2    1    2    0    0  0.00000000000E+00  0.00000000000E+00  0.64456580254E+03  0.35209480476E+04  0.34614462411E+04 0.  0.
        2    1    3    3  502    0  0.36986725873E+02  0.10683625112E+04 -0.10622302356E+04  0.15070167705E+04  0.25500000920E-02 0. -1.
       -2    1    3    3    0  502 -0.36986725873E+02 -0.10683625112E+04  0.17067960381E+04  0.20139312771E+04  0.25500000920E-02 0.  1.
</event>
<event>
 5   0  0.4557237E-07  0.2748079E+04  0.7818609E-02  0.8319572E-01
       -1   -1    0    0    0  501  0.00000000000E+00  0.00000000000E+00  0.98044900541E+03  0.98044900542E+03  0.50400001928E-02 0.  1.
        1   -1    0    0  501    0  0.00000000000E+00  0.00000000000E+00 -0.19256321530E+04  0.19256321530E+04  0.50400001928E-02 0. -1.
    10030    2    1    2    0    0  0.00000000000E+00  0.00000000000E+00 -0.94518314761E+03  0.29060811584E+04  0.27480786956E+04 0.  0.
        2    1    3    3  502    0 -0.84032048891E+03  0.99074846851E+03  0.64577876963E+00  0.12991233463E+04  0.25500000920E-02 0.  1.
       -2    1    3    3    0  502  0.84032048891E+03 -0.99074846851E+03 -0.94582892638E+03  0.16069578121E+04  0.25500000920E-02 0. -1.
</event>
<event>
 5   0  0.4409125E-07  0.3567120E+04  0.7818609E-02  0.8098065E-01
        3   -1    0    0  501    0  0.00000000000E+00  0.00000000000E+00  0.16092902696E+04  0.16092902728E+04  0.10100000352E+00 0.  1.
       -3   -1    0    0    0  501  0.00000000000E+00  0.00000000000E+00 -0.19767014991E+04  0.19767015017E+04  0.10100000352E+00 0. -1.
    10030    2    1    2    0    0  0.00000000000E+00  0.00000000000E+00 -0.36741122945E+03  0.35859917745E+04  0.35671201262E+04 0.  0.
        3    1    3    3  502    0  0.90127809411E+03  0.15385179792E+04 -0.14169080732E+03  0.17886911612E+04  0.10100000352E+00 0. -1.
       -3    1    3    3    0  502 -0.90127809411E+03 -0.15385179792E+04 -0.22572042213E+03  0.17973006132E+04  0.10100000352E+00 0.  1.
</event>
<event>
 5   0  0.1387133E-06  0.2779135E+04  0.7818609E-02  0.8309776E-01
       -2   -1    0    0    0  501  0.00000000000E+00  0.00000000000E+00  0.20156855360E+04  0.20156855360E+04  0.25500000920E-02 0.  1.
        2   -1    0    0  501    0  0.00000000000E+00  0.00000000000E+00 -0.95793580692E+03  0.95793580692E+03  0.25500000920E-02 0. -1.
    10030    2    1    2    0    0  0.00000000000E+00  0.00000000000E+00  0.10577497291E+04  0.29736213429E+04  0.27791346498E+04 0.  0.
        4    1    3    3  502    0  0.73623396233E+02  0.13769755245E+04  0.34536847700E+03  0.14215354365E+04  0.12699999809E+01 0. -1.
       -4    1    3    3    0  502 -0.73623396233E+02 -0.13769755245E+04  0.71238125209E+03  0.15520859064E+04  0.12699999809E+01 0.  1.
</event>
<event>
 5   0  0.4700769E-07  0.3790459E+04  0.7818609E-02  0.8048205E-01
        1   -1    0    0  501    0  0.00000000000E+00  0.00000000000E+00  0.20592578810E+04  0.20592578810E+04  0.50400001928E-02 0.  1.
       -1   -1    0    0    0  501  0.00000000000E+00  0.00000000000E+00 -0.17442669602E+04  0.17442669602E+04  0.50400001928E-02 0. -1.
    10030    2    1    2    0    0  0.00000000000E+00  0.00000000000E+00  0.31499092078E+03  0.38035248412E+04  0.37904593307E+04 0.  0.
        3    1    3    3  502    0 -0.11461660526E+04  0.11233293196E+04  0.11691024198E+04  0.19855391858E+04  0.10100000352E+00 0.  1.
       -3    1    3    3    0  502  0.11461660526E+04 -0.11233293196E+04 -0.85411149900E+03  0.18179856554E+04  0.10100000352E+00 0. -1.
</event>
<event>
 5   0  0.1387133E-06  0.3063738E+04  0.7818609E-02  0.8225761E-01
        2   -1    0    0  501    0  0.00000000000E+00  0.00000000000E+00  0.19654897181E+04  0.19654897181E+04  0.25500000920E-02 0. -1.
       -2   -1    0    0    0  501  0.00000000000E+00  0.00000000000E+00 -0.11939127683E+04  0.11939127683E+04  0.25500000920E-02 0.  1.
    10030    2    1    2    0    0  0.00000000000E+00  0.00000000000E+00  0.77157694975E+03  0.31594024864E+04  0.30637384160E+04 0.  0.
        4    1    3    3  502    0 -0.62207721231E+03  0.13717602509E+04  0.67363763280E+03  0.16499986416E+04  0.12699999809E+01 0. -1.
       -4    1    3    3    0  502  0.62207721231E+03 -0.13717602509E+04  0.97939316949E+02  0.15094038448E+04  0.12699999809E+01 0.  1.
</event>
<event>
 5   0  0.4700769E-07  0.3530214E+04  0.7818609E-02  0.8106667E-01
        1   -1    0    0  501    0  0.00000000000E+00  0.00000000000E+00  0.20134543863E+04  0.20134543863E+04  0.50400001928E-02 0.  1.
       -1   -1    0    0    0  501  0.00000000000E+00  0.00000000000E+00 -0.15473918146E+04  0.15473918146E+04  0.50400001928E-02 0. -1.
    10030    2    1    2    0    0  0.00000000000E+00  0.00000000000E+00  0.46606257165E+03  0.35608462009E+04  0.35302140652E+04 0.  0.
        3    1    3    3  502    0  0.17012800726E+04  0.25996282653E+03  0.62843821496E+03  0.18321760715E+04  0.10100000352E+00 0. -1.
       -3    1    3    3    0  502 -0.17012800726E+04 -0.25996282653E+03 -0.16237564331E+03  0.17286701295E+04  0.10100000352E+00 0.  1.
</event>
<event>
 5   0  0.4700769E-07  0.2721395E+04  0.7818609E-02  0.8328096E-01
       -1   -1    0    0    0  501  0.00000000000E+00  0.00000000000E+00  0.12538926586E+04  0.12538926586E+04  0.50400001928E-02 0. -1.
        1   -1    0    0  501    0  0.00000000000E+00  0.00000000000E+00 -0.14765998613E+04  0.14765998613E+04  0.50400001928E-02 0.  1.
    10030    2    1    2    0    0  0.00000000000E+00  0.00000000000E+00 -0.22270720270E+03  0.27304925200E+04  0.27213950290E+04 0.  0.
        3    1    3    3  502    0 -0.19824423883E+03  0.12594715830E+04 -0.58826169355E+03  0.14041443219E+04  0.10100000352E+00 0.  1.
       -3    1    3    3    0  502  0.19824423883E+03 -0.12594715830E+04  0.36555449084E+03  0.13263481981E+04  0.10100000352E+00 0. -1.
</event>
<event>
 5   0  0.1387133E-06  0.3457250E+04  0.7818609E-02  0.8123997E-01
       -2   -1    0    0    0  501  0.00000000000E+00  0.00000000000E+00  0.13977571414E+04  0.13977571414E+04  0.25500000920E-02 0. -1.
        2   -1    0    0  501    0  0.00000000000E+00  0.00000000000E+00 -0.21378135260E+04  0.21378135260E+04  0.25500000920E-02 0.  1.
    10030    2    1    2    0    0  0.00000000000E+00  0.00000000000E+00 -0.74005638462E+03  0.35355706674E+04  0.34572498452E+04 0.  0.
        4    1    3    3  502    0 -0.92122508788E+03  0.66428391676E+03 -0.17027052755E+04  0.20467378076E+04  0.12699999809E+01 0. -1.
       -4    1    3    3    0  502  0.92122508788E+03 -0.66428391676E+03  0.96264889092E+03  0.14888328599E+04  0.12699999809E+01 0.  1.
</event>
<event>
 5   0  0.1442864E-06  0.3489176E+04  0.7818609E-02  0.8116360E-01
       -2   -1    0    0    0  501  0.00000000000E+00  0.00000000000E+00  0.21278797418E+04  0.21278797418E+04  0.25500000920E-02 0.  1.
        2   -1    0    0  501    0  0.00000000000E+00  0.00000000000E+00 -0.14303376775E+04  0.14303376775E+04  0.25500000920E-02 0. -1.
    10030    2    1    2    0    0  0.00000000000E+00  0.00000000000E+00  0.69754206427E+03  0.35582174194E+04  0.34891755863E+04 0.  0.
        1    1    3    3  502    0  0.20979145898E+03 -0.73347996296E+03  0.19487591023E+04  0.20927654793E+04  0.50400001928E-02 0.  1.
       -1    1    3    3    0  502 -0.20979145898E+03  0.73347996296E+03 -0.12512170381E+04  0.14654519401E+04  0.50400001928E-02 0. -1.
</event>
<event>
 5   0  0.1378620E-06  0.3600117E+04  0.7818609E-02  0.8090465E-01
        2   -1    0    0  501    0  0.00000000000E+00  0.00000000000E+00  0.17188539336E+04  0.17188539336E+04  0.25500000920E-02 0. -1.
       -2   -1    0    0    0  501  0.00000000000E+00  0.00000000000E+00 -0.18850997883E+04  0.18850997883E+04  0.25500000920E-02 0.  1.
    10030    2    1    2    0    0  0.00000000000E+00  0.00000000000E+00 -0.16624585469E+03  0.36039537220E+04  0.36001173239E+04 0.  0.
        2    1    3    3  502    0 -0.17911425751E+04  0.28976662434E+02  0.93643310949E+02  0.17938228566E+04  0.25500000920E-02 0. -1.
       -2    1    3    3    0  502  0.17911425751E+04 -0.28976662434E+02 -0.25988916564E+03  0.18101308653E+04  0.25500000920E-02 0.  1.
</event>
<event>
 5   0  0.1387133E-06  0.3467054E+04  0.7818609E-02  0.8121642E-01
       -2   -1    0    0    0  501  0.00000000000E+00  0.00000000000E+00  0.14566466068E+04  0.14566466068E+04  0.25500000920E-02 0.  1.
        2   -1    0    0  501    0  0.00000000000E+00  0.00000000000E+00 -0.20630372723E+04  0.20630372723E+04  0.25500000920E-02 0. -1.
    10030    2    1    2    0    0  0.00000000000E+00  0.00000000000E+00 -0.60639066555E+03  0.35196838791E+04  0.34670542207E+04 0.  0.
        4    1    3    3  502    0  0.13531929042E+04  0.76884986720E+03 -0.10782328405E+04  0.18933697012E+04  0.12699999809E+01 0. -1.
       -4    1    3    3    0  502 -0.13531929042E+04 -0.76884986720E+03  0.47184217495E+03  0.16263141779E+04  0.12699999809E+01 0.  1.
</event>
<event>
 5   0  0.4693374E-07  0.3485004E+04  0.7818609E-02  0.8117353E-01
       -1   -1    0    0    0  501  0.00000000000E+00  0.00000000000E+00  0.16579838948E+04  0.16579838948E+04  0.50400001928E-02 0. -1.
        1   -1    0    0  501    0  0.00000000000E+00  0.00000000000E+00 -0.18313281933E+04  0.18313281933E+04  0.50400001928E-02 0.  1.
    10030    2    1    2    0    0  0.00000000000E+00  0.00000000000E+00 -0.17334429848E+03  0.34893120881E+04  0.34850036732E+04 0.  0.
        1    1    3    3  502    0 -0.99419838008E+02  0.16717387535E+04  0.39529379724E+03  0.17207126286E+04  0.50400001928E-02 0.  1.
       -1    1    3    3    0  502  0.99419838008E+02 -0.16717387535E+04 -0.56863809573E+03  0.17685994595E+04  0.50400001928E-02 0. -1.
</event>
<event>
 5   0  0.4700769E-07  0.3496953E+04  0.7818609E-02  0.8114513E-01
       -1   -1    0    0    0  501  0.00000000000E+00  0.00000000000E+00  0.23074772053E+04  0.23074772053E+04  0.50400001928E-02 0.  1.
        1   -1    0    0  501    0  0.00000000000E+00  0.00000000000E+00 -0.13248968292E+04  0.13248968292E+04  0.50400001928E-02 0. -1.
    10030    2    1    2    0    0  0.00000000000E+00  0.00000000000E+00  0.98258037616E+03  0.36323740345E+04  0.34969525205E+04 0.  0.
        3    1    3    3  502    0  0.79828500096E+03 -0.12904351296E+04 -0.41107928014E+03  0.15720903127E+04  0.10100000352E+00 0. -1.
       -3    1    3    3    0  502 -0.79828500096E+03  0.12904351296E+04  0.13936596563E+04  0.20602837218E+04  0.10100000352E+00 0.  1.
</event>
<event>
 5   0  0.1378620E-06  0.3453416E+04  0.7818609E-02  0.8124919E-01
       -2   -1    0    0    0  501  0.00000000000E+00  0.00000000000E+00  0.13582971543E+04  0.13582971543E+04  0.25500000920E-02 0. -1.
        2   -1    0    0  501    0  0.00000000000E+00  0.00000000000E+00 -0.21950423297E+04  0.21950423297E+04  0.25500000920E-02 0.  1.
    10030    2    1    2    0    0  0.00000000000E+00  0.00000000000E+00 -0.83674517533E+03  0.35533394840E+04  0.34534155557E+04 0.  0.
        2    1    3    3  502    0  0.46905558371E+03 -0.40370004661E+03 -0.20770119555E+04  0.21672483780E+04  0.25500000920E-02 0.  1.
       -2    1    3    3    0  502 -0.46905558371E+03  0.40370004661E+03  0.12402667802E+04  0.13860911061E+04  0.25500000920E-02 0. -1.
</event>
<event>
 5   0  0.4557237E-07  0.2731598E+04  0.7818609E-02  0.8324825E-01
        1   -1    0    0  501    0  0.00000000000E+00  0.00000000000E+00  0.12201653924E+04  0.12201653924E+04  0.50400001928E-02 0.  1.
       -1   -1    0    0    0  501  0.00000000000E+00  0.00000000000E+00 -0.15288146955E+04  0.15288146955E+04  0.50400001928E-02 0. -1.
    10030    2    1    2    0    0  0.00000000000E+00  0.00000000000E+00 -0.30864930310E+03  0.27489800879E+04  0.27315979081E+04 0.  0.
        2    1    3    3  502    0  0.46240356828E+03 -0.12555432582E+04 -0.43029739852E+03  0.14054756435E+04  0.25500000920E-02 0.  1.
       -2    1    3    3    0  502 -0.46240356828E+03  0.12555432582E+04  0.12164809542E+03  0.13435044445E+04  0.25500000920E-02 0. -1.
</event>
<event>
 5   0  0.4591195E-07  0.3539583E+04  0.7818609E-02  0.8104473E-01
        1   -1    0    0  501    0  0.00000000000E+00  0.00000000000E+00  0.16039870686E+04  0.16039870686E+04  0.50400001928E-02 0. -1.
       -1   -1    0    0    0  501  0.00000000000E+00  0.00000000000E+00 -0.19527348579E+04  0.19527348579E+04  0.50400001928E-02 0.  1.
    10030    2    1    2    0    0  0.00000000000E+00  0.00000000000E+00 -0.34874778926E+03  0.35567219265E+04  0.35395827214E+04 0.  0.
        4    1    3    3  502    0  0.14104987656E+04  0.93066548551E+03  0.35401911438E+03  0.17265503642E+04  0.12699999809E+01 0.  1.
       -4    1    3    3    0  502 -0.14104987656E+04 -0.93066548551E+03 -0.70276690364E+03  0.18301715623E+04  0.12699999809E+01 0. -1.
</event>
<event>
 5   0  0.4591195E-07  0.3510354E+04  0.7818609E-02  0.8111341E-01
        1   -1    0    0  501    0  0.00000000000E+00  0.00000000000E+00  0.15799489628E+04  0.15799489628E+04  0.50400001928E-02 0. -1.
       -1   -1    0    0    0  501  0.00000000000E+00  0.00000000000E+00 -0.19498393172E+04  0.19498393172E+04  0.50400001928E-02 0.  1.
    10030    2    1    2    0    0  0.00000000000E+00  0.00000000000E+00 -0.36989035436E+03  0.35297882800E+04  0.35103541741E+04 0.  0.
        4    1    3    3  502    0  0.10178315662E+02 -0.13066880397E+04  0.99333896156E+03  0.16414204631E+04  0.12699999809E+01 0. -1.
       -4    1    3    3    0  502 -0.10178315662E+02  0.13066880397E+04 -0.13632293159E+04  0.18883678169E+04  0.12699999809E+01 0.  1.
</event>
<event>
 5   0  0.1378620E-06  0.2826846E+04  0.7818609E-02  0.8294982E-01
       -2   -1    0    0    0  501  0.00000000000E+00  0.00000000000E+00  0.10706883042E+04  0.10706883042E+04  0.25500000920E-02 0.  1.
        2   -1    0    0  501    0  0.00000000000E+00  0.00000000000E+00 -0.18658700728E+04  0.18658700728E+04  0.25500000920E-02 0. -1.
    10030    2    1    2    0    0  0.00000000000E+00  0.00000000000E+00 -0.79518176861E+03  0.29365583769E+04  0.28268464861E+04 0.  0.
        2    1    3    3  502    0  0.90365193290E+02  0.10235848665E+04  0.61057659497E+03  0.11952805634E+04  0.25500000920E-02 0.  1.
       -2    1    3    3    0  502 -0.90365193290E+02 -0.10235848665E+04 -0.14057583636E+04  0.17412778135E+04  0.25500000920E-02 0. -1.
</event>
<event>
 5   0  0.4693374E-07  0.3550611E+04  0.7818609E-02  0.8101899E-01
        1   -1    0    0  501    0  0.00000000000E+00  0.00000000000E+00  0.24838438949E+04  0.24838438949E+04  0.50400001928E-02 0. -1.
       -1   -1    0    0    0  501  0.00000000000E+00  0.00000000000E+00 -0.12688838961E+04  0.12688838961E+04  0.50400001928E-02 0.  1.
    10030    2    1    2    0    0  0.00000000000E+00  0.00000000000E+00  0.12149599988E+04  0.37527277910E+04  0.35506109438E+04 0.  0.
        1    1    3    3  502    0 -0.71253530000E+03 -0.13029333212E+04 -0.42071132841E+03  0.15434830142E+04  0.50400001928E-02 0.  1.
       -1    1    3    3    0  502  0.71253530000E+03  0.13029333212E+04  0.16356713272E+04  0.22092447768E+04  0.50400001928E-02 0. -1.
</event>
<event>
 5   0  0.1378620E-06  0.3542957E+04  0.7818609E-02  0.8103685E-01
        2   -1    0    0  501    0  0.00000000000E+00  0.00000000000E+00  0.12995108274E+04  0.12995108274E+04  0.25500000920E-02 0. -1.
       -2   -1    0    0    0  501  0.00000000000E+00  0.00000000000E+00 -0.24148594017E+04  0.24148594017E+04  0.25500000920E-02 0.  1.
    10030    2    1    2    0    0  0.00000000000E+00  0.00000000000E+00 -0.11153485743E+04  0.37143702291E+04  0.35429569228E+04 0.  0.
        2    1    3    3  502    0 -0.16952033736E+04  0.17028637338E+03 -0.48994247449E+02  0.17044390171E+04  0.25500000920E-02 0. -1.
       -2    1    3    3    0  502  0.16952033736E+04 -0.17028637338E+03 -0.10663543268E+04  0.20099312120E+04  0.25500000920E-02 0.  1.
</event>
<event>
 5   0  0.1378620E-06  0.3169370E+04  0.7818609E-02  0.8196954E-01
        2   -1    0    0  501    0  0.00000000000E+00  0.00000000000E+00  0.14173362951E+04  0.14173362951E+04  0.25500000920E-02 0. -1.
       -2   -1    0    0    0  501  0.00000000000E+00  0.00000000000E+00 -0.17717930017E+04  0.17717930017E+04  0.25500000920E-02 0.  1.
    10030    2    1    2    0    0  0.00000000000E+00  0.00000000000E+00 -0.35445670665E+03  0.31891292968E+04  0.31693699871E+04 0.  0.
        2    1    3    3  502    0 -0.19049992462E+03 -0.54399433458E+03  0.13081204349E+04  0.14294751238E+04  0.25500000920E-02 0. -1.
       -2    1    3    3    0  502  0.19049992462E+03  0.54399433458E+03 -0.16625771415E+04  0.17596541731E+04  0.25500000920E-02 0.  1.
</event>
<event>
 5   0  0.1378620E-06  0.3457401E+04  0.7818609E-02  0.8123960E-01
       -2   -1    0    0    0  501  0.00000000000E+00  0.00000000000E+00  0.17166454801E+04  0.17166454801E+04  0.25500000920E-02 0. -1.
        2   -1    0    0  501    0  0.00000000000E+00  0.00000000000E+00 -0.17408402227E+04  0.17408402227E+04  0.25500000920E-02 0.  1.
    10030    2    1    2    0    0  0.00000000000E+00  0.00000000000E+00 -0.24194742579E+02  0.34574857028E+04  0.34574010469E+04 0.  0.
        2    1    3    3  502    0  0.23737117327E+03 -0.16332111910E+04  0.50238741320E+03  0.17251425973E+04  0.25500000920E-02 0. -1.
       -2    1    3    3    0  502 -0.23737117327E+03  0.16332111910E+04 -0.52658215578E+03  0.17323431054E+04  0.25500000920E-02 0.  1.
</event>
<event>
 5   0  0.1442864E-06  0.3406881E+04  0.7818609E-02  0.8136220E-01
        2   -1    0    0  501    0  0.00000000000E+00  0.00000000000E+00  0.21323783283E+04  0.21323783283E+04  0.25500000920E-02 0. -1.
       -2   -1    0    0    0  501  0.00000000000E+00  0.00000000000E+00 -0.13607851711E+04  0.13607851711E+04  0.25500000920E-02 0.  1.
    10030    2    1    2    0    0  0.00000000000E+00  0.00000000000E+00  0.77159315720E+03  0.34931634993E+04  0.34068805721E+04 0.  0.
        1    1    3    3  502    0 -0.13544431776E+04  0.30484564528E+01  0.14450051644E+04  0.19805467779E+04  0.50400001928E-02 0. -1.
       -1    1    3    3    0  502  0.13544431776E+04 -0.30484564528E+01 -0.67341200723E+03  0.15126167214E+04  0.50400001928E-02 0.  1.
</event>
<event>
 5   0  0.4557237E-07  0.3469341E+04  0.7818609E-02  0.8121094E-01
       -1   -1    0    0    0  501  0.00000000000E+00  0.00000000000E+00  0.14344398648E+04  0.14344398648E+04  0.50400001928E-02 0. -1.
        1   -1    0    0  501    0  0.00000000000E+00  0.00000000000E+00 -0.20977397095E+04  0.20977397095E+04  0.50400001928E-02 0.  1.
    10030    2    1    2    0    0  0.00000000000E+00  0.00000000000E+00 -0.66329984465E+03  0.35321795743E+04  0.34693408396E+04 0.  0.
        2    1    3    3  502    0  0.16448266920E+04 -0.53725718502E+03 -0.45626513817E+03  0.17894909907E+04  0.25500000920E-02 0. -1.
       -2    1    3    3    0  502 -0.16448266920E+04  0.53725718502E+03 -0.20703470648E+03  0.17426885836E+04  0.25500000920E-02 0.  1.
</event>
<event>
 5   0  0.1387133E-06  0.3504506E+04  0.7818609E-02  0.8112723E-01
       -2   -1    0    0    0  501  0.00000000000E+00  0.00000000000E+00  0.16536460198E+04  0.16536460198E+04  0.25500000920E-02 0.  1.
        2   -1    0    0  501    0  0.00000000000E+00  0.00000000000E+00 -0.18567394303E+04  0.18567394303E+04  0.25500000920E-02 0. -1.
    10030    2    1    2    0    0  0.00000000000E+00  0.00000000000E+00 -0.20309341053E+03  0.35103854501E+04  0.35045055393E+04 0.  0.
        4    1    3    3  502    0  0.13604051142E+04 -0.10096007732E+04 -0.54994983487E+03  0.17811350958E+04  0.12699999809E+01 0. -1.
       -4    1    3    3    0  502 -0.13604051142E+04  0.10096007732E+04  0.34685642435E+03  0.17292503543E+04  0.12699999809E+01 0.  1.
</event>
<event>
 5   0  0.1348388E-06  0.3451524E+04  0.7818609E-02  0.8125375E-01
       -2   -1    0    0    0  501  0.00000000000E+00  0.00000000000E+00  0.13252519935E+04  0.13252519935E+04  0.25500000920E-02 0.  1.
        2   -1    0    0  501    0  0.00000000000E+00  0.00000000000E+00 -0.22473119318E+04  0.22473119318E+04  0.25500000920E-02 0. -1.
    10030    2    1    2    0    0  0.00000000000E+00  0.00000000000E+00 -0.92205993832E+03  0.35725639253E+04  0.34515240794E+04 0.  0.
        5    1    3    3  502    0  0.96451012428E+03 -0.84438613343E+02  0.10176417170E+04  0.14046445862E+04  0.46999998093E+01 0.  1.
       -5    1    3    3    0  502 -0.96451012428E+03  0.84438613343E+02 -0.19397016553E+04  0.21679193391E+04  0.46999998093E+01 0. -1.
</event>
<event>
 5   0  0.4409125E-07  0.3452384E+04  0.7818609E-02  0.8125168E-01
        1   -1    0    0  501    0  0.00000000000E+00  0.00000000000E+00  0.17113814759E+04  0.17113814759E+04  0.50400001928E-02 0.  1.
       -1   -1    0    0    0  501  0.00000000000E+00  0.00000000000E+00 -0.17411307676E+04  0.17411307676E+04  0.50400001928E-02 0. -1.
    10030    2    1    2    0    0  0.00000000000E+00  0.00000000000E+00 -0.29749291661E+02  0.34525122435E+04  0.34523840706E+04 0.  0.
        5    1    3    3  502    0 -0.15318466684E+04  0.89413349496E+02  0.77583029974E+03  0.17194428477E+04  0.46999998093E+01 0.  1.
       -5    1    3    3    0  502  0.15318466684E+04 -0.89413349496E+02 -0.80557959140E+03  0.17330693958E+04  0.46999998093E+01 0. -1.
</event>
<event>
 5   0  0.1348388E-06  0.3440037E+04  0.7818609E-02  0.8128149E-01
        2   -1    0    0  501    0  0.00000000000E+00  0.00000000000E+00  0.13233279600E+04  0.13233279600E+04  0.25500000920E-02 0. -1.
       -2   -1    0    0    0  501  0.00000000000E+00  0.00000000000E+00 -0.22356237155E+04  0.22356237155E+04  0.25500000920E-02 0.  1.
    10030    2    1    2    0    0  0.00000000000E+00  0.00000000000E+00 -0.91229575552E+03  0.35589516755E+04  0.34400368433E+04 0.  0.
        5    1    3    3  502    0 -0.11472589615E+04  0.12807733735E+04 -0.50073909565E+03  0.17909062764E+04  0.46999998093E+01 0.  1.
       -5    1    3    3    0  502  0.11472589615E+04 -0.12807733735E+04 -0.41155665987E+03  0.17680453991E+04  0.46999998093E+01 0. -1.
</event>
<event>
 5   0  0.4409125E-07  0.3513738E+04  0.7818609E-02  0.8110542E-01
        1   -1    0    0  501    0  0.00000000000E+00  0.00000000000E+00  0.27064058478E+04  0.27064058478E+04  0.50400001928E-02 0.  1.
       -1   -1    0    0    0  501  0.00000000000E+00  0.00000000000E+00 -0.11404749700E+04  0.11404749700E+04  0.50400001928E-02 0. -1.
    10030    2    1    2    0    0  0.00000000000E+00  0.00000000000E+00  0.15659308778E+04  0.38468808178E+04  0.35137376840E+04 0.  0.
        5    1    3    3  502    0  0.47847327007E+03 -0.16177263033E+04  0.24595953353E+03  0.17048440529E+04  0.46999998093E+01 0. -1.
       -5    1    3    3    0  502 -0.47847327007E+03  0.16177263033E+04  0.13199713442E+04  0.21420367649E+04  0.46999998093E+01 0.  1.
</event>
<event>
 5   0  0.1348388E-06  0.3438491E+04  0.7818609E-02  0.8128524E-01
        2   -1    0    0  501    0  0.00000000000E+00  0.00000000000E+00  0.24994220853E+04  0.24994220853E+04  0.25500000920E-02 0.  1.
       -2   -1    0    0    0  501  0.00000000000E+00  0.00000000000E+00 -0.11825951818E+04  0.11825951818E+04  0.25500000920E-02 0. -1.
    10030    2    1    2    0    0  0.00000000000E+00  0.00000000000E+00  0.13168269035E+04  0.36820172671E+04  0.34384906662E+04 0.  0.
        5    1    3    3  502    0  0.70168048938E+03 -0.13441729321E+04 -0.20930138516E+03  0.15306813975E+04  0.46999998093E+01 0. -1.
       -5    1    3    3    0  502 -0.70168048938E+03  0.13441729321E+04  0.15261282887E+04  0.21513358697E+04  0.46999998093E+01 0.  1.
</event>
<event>
 5   0  0.1378620E-06  0.3293667E+04  0.7818609E-02  0.8164509E-01
       -2   -1    0    0    0  501  0.00000000000E+00  0.00000000000E+00  0.24171790563E+04  0.24171790563E+04  0.25500000920E-02 0.  1.
        2   -1    0    0  501    0  0.00000000000E+00  0.00000000000E+00 -0.11219943834E+04  0.11219943834E+04  0.25500000920E-02 0. -1.
    10030    2    1    2    0    0  0.00000000000E+00  0.00000000000E+00  0.12951846729E+04  0.35391734397E+04  0.32936674543E+04 0.  0.
        2    1    3    3  502    0 -0.10452039056E+04  0.12507917930E+04  0.89989168974E+03  0.18619173900E+04  0.25500000920E-02 0.  1.
       -2    1    3    3    0  502  0.10452039056E+04 -0.12507917930E+04  0.39529298314E+03  0.16772560497E+04  0.25500000920E-02 0. -1.
</event>
<event>
 5   0  0.4693374E-07  0.2733791E+04  0.7818609E-02  0.8324124E-01
       -1   -1    0    0    0  501  0.00000000000E+00  0.00000000000E+00  0.17821641094E+04  0.17821641094E+04  0.50400001928E-02 0.  1.
        1   -1    0    0  501    0  0.00000000000E+00  0.00000000000E+00 -0.10483898648E+04  0.10483898648E+04  0.50400001928E-02 0. -1.
    10030    2    1    2    0    0  0.00000000000E+00  0.00000000000E+00  0.73377424467E+03  0.28305539742E+04  0.27337906209E+04 0.  0.
        1    1    3    3  502    0  0.12838858009E+04 -0.13159629167E+03 -0.99296616939E+02  0.12944265726E+04  0.50400001928E-02 0.  1.
       -1    1    3    3    0  502 -0.12838858009E+04  0.13159629167E+03  0.83307086160E+03  0.15361274016E+04  0.50400001928E-02 0. -1.
</event>
<event>
 5   0  0.4700769E-07  0.3505198E+04  0.7818609E-02  0.8112559E-01
       -1   -1    0    0    0  501  0.00000000000E+00  0.00000000000E+00  0.17790333016E+04  0.17790333016E+04  0.50400001928E-02 0.  1.
        1   -1    0    0  501    0  0.00000000000E+00  0.00000000000E+00 -0.17265577349E+04  0.17265577350E+04  0.50400001928E-02 0. -1.
    10030    2    1    2    0    0  0.00000000000E+00  0.00000000000E+00  0.52475566686E+02  0.35055910366E+04  0.35051982584E+04 0.  0.
        3    1    3    3  502    0  0.10439994164E+04 -0.11800313326E+04  0.79391416246E+03  0.17642869480E+04  0.10100000352E+00 0.  1.
       -3    1    3    3    0  502 -0.10439994164E+04  0.11800313326E+04 -0.74143859578E+03  0.17413040886E+04  0.10100000352E+00 0. -1.
</event>
<event>
 5   0  0.1387133E-06  0.2613971E+04  0.7818609E-02  0.8363471E-01
       -2   -1    0    0    0  501  0.00000000000E+00  0.00000000000E+00  0.13371228420E+04  0.13371228420E+04  0.25500000920E-02 0.  1.
        2   -1    0    0  501    0  0.00000000000E+00  0.00000000000E+00 -0.12775274009E+04  0.12775274009E+04  0.25500000920E-02 0. -1.
    10030    2    1    2    0    0  0.00000000000E+00  0.00000000000E+00  0.59595441162E+02  0.26146502429E+04  0.26139709784E+04 0.  0.
        4    1    3    3  502    0  0.57872292082E+03 -0.13646767328E+03 -0.11344058473E+04  0.12807895550E+04  0.12699999809E+01 0. -1.
       -4    1    3    3    0  502 -0.57872292082E+03  0.13646767328E+03  0.11940012885E+04  0.13338606879E+04  0.12699999809E+01 0.  1.
</event>
<event>
 5   0  0.1387133E-06  0.3001488E+04  0.7818609E-02  0.8243306E-01
        2   -1    0    0  501    0  0.00000000000E+00  0.00000000000E+00  0.20641997099E+04  0.20641997099E+04  0.25500000920E-02 0.  1.
       -2   -1    0    0    0  501  0.00000000000E+00  0.00000000000E+00 -0.10910924428E+04  0.10910924428E+04  0.25500000920E-02 0. -1.
    10030    2    1    2    0    0  0.00000000000E+00  0.00000000000E+00  0.97310726713E+03  0.31552921528E+04  0.30014881002E+04 0.  0.
        4    1    3    3  502    0 -0.89862213943E+03  0.11960739263E+04  0.36165245549E+03  0.15391259527E+04  0.12699999809E+01 0. -1.
       -4    1    3    3    0  502  0.89862213943E+03 -0.11960739263E+04  0.61145481164E+03  0.16161662001E+04  0.12699999809E+01 0.  1.
</event>
<event>
 5   0  0.1442864E-06  0.3744995E+04  0.7818609E-02  0.8058063E-01
       -2   -1    0    0    0  501  0.00000000000E+00  0.00000000000E+00  0.21671808927E+04  0.21671808927E+04  0.25500000920E-02 0. -1.
        2   -1    0    0  501    0  0.00000000000E+00  0.00000000000E+00 -0.16178840296E+04  0.16178840296E+04  0.25500000920E-02 0.  1.
    10030    2    1    2    0    0  0.00000000000E+00  0.00000000000E+00  0.54929686311E+03  0.37850649222E+04  0.37449952499E+04 0.  0.
        1    1    3    3  502    0  0.16956726579E+03  0.39520552761E+03  0.21165930364E+04  0.21598394728E+04  0.50400001928E-02 0. -1.
       -1    1    3    3    0  502 -0.16956726579E+03 -0.39520552761E+03 -0.15672961733E+04  0.16252254494E+04  0.50400001928E-02 0.  1.
</event>
<event>
 5   0  0.1348388E-06  0.3654203E+04  0.7818609E-02  0.8078188E-01
        2   -1    0    0  501    0  0.00000000000E+00  0.00000000000E+00  0.13710298806E+04  0.13710298806E+04  0.25500000920E-02 0. -1.
       -2   -1    0    0    0  501  0.00000000000E+00  0.00000000000E+00 -0.24348845405E+04  0.24348845405E+04  0.25500000920E-02 0.  1.
    10030    2    1    2    0    0  0.00000000000E+00  0.00000000000E+00 -0.10638546599E+04  0.38059144210E+04  0.36542027643E+04 0.  0.
        5    1    3    3  502    0  0.15324270595E+04 -0.37328420472E+03  0.42864479605E+03  0.16344516638E+04  0.46999998093E+01 0. -1.
       -5    1    3    3    0  502 -0.15324270595E+04  0.37328420472E+03 -0.14924994560E+04  0.21714627573E+04  0.46999998093E+01 0.  1.
</event>
<event>
 5   0  0.4700769E-07  0.3441405E+04  0.7818609E-02  0.8127818E-01
        1   -1    0    0  501    0  0.00000000000E+00  0.00000000000E+00  0.11748760111E+04  0.11748760111E+04  0.50400001928E-02 0.  1.
       -1   -1    0    0    0  501  0.00000000000E+00  0.00000000000E+00 -0.25201106152E+04  0.25201106152E+04  0.50400001928E-02 0. -1.
    10030    2    1    2    0    0  0.00000000000E+00  0.00000000000E+00 -0.13452346041E+04  0.36949866263E+04  0.34414052404E+04 0.  0.
        3    1    3    3  502    0  0.10978602623E+04  0.31623869173E+03  0.70885890473E+03  0.13445389629E+04  0.10100000352E+00 0.  1.
       -3    1    3    3    0  502 -0.10978602623E+04 -0.31623869173E+03 -0.20540935088E+04  0.23504476635E+04  0.10100000352E+00 0. -1.
</event>
<event>
 5   0  0.4693374E-07  0.3600561E+04  0.7818609E-02  0.8090363E-01
        1   -1    0    0  501    0  0.00000000000E+00  0.00000000000E+00  0.14292322512E+04  0.14292322512E+04  0.50400001928E-02 0.  1.
       -1   -1    0    0    0  501  0.00000000000E+00  0.00000000000E+00 -0.22676581251E+04  0.22676581251E+04  0.50400001928E-02 0. -1.
    10030    2    1    2    0    0  0.00000000000E+00  0.00000000000E+00 -0.83842587391E+03  0.36968903763E+04  0.36005611380E+04 0.  0.
        1    1    3    3  502    0  0.71656214266E+03  0.13162567474E+04  0.60497966117E+03  0.16161663033E+04  0.50400001928E-02 0.  1.
       -1    1    3    3    0  502 -0.71656214266E+03 -0.13162567474E+04 -0.14434055351E+04  0.20807240730E+04  0.50400001928E-02 0. -1.
</event>
<event>
 5   0  0.1378620E-06  0.3456016E+04  0.7818609E-02  0.8124293E-01
        2   -1    0    0  501    0  0.00000000000E+00  0.00000000000E+00  0.14363484546E+04  0.14363484546E+04  0.25500000920E-02 0.  1.
       -2   -1    0    0    0  501  0.00000000000E+00  0.00000000000E+00 -0.20788907337E+04  0.20788907337E+04  0.25500000920E-02 0. -1.
    10030    2    1    2    0    0  0.00000000000E+00  0.00000000000E+00 -0.64254227912E+03  0.35152391883E+04  0.34560159100E+04 0.  0.
        2    1    3    3  502    0 -0.20561908874E+03 -0.10216524856E+04  0.10807391578E+04  0.15013494391E+04  0.25500000920E-02 0.  1.
       -2    1    3    3    0  502  0.20561908874E+03  0.10216524856E+04 -0.17232814369E+04  0.20138897492E+04  0.25500000920E-02 0. -1.
</event>
<event>
 5   0  0.4409125E-07  0.2537850E+04  0.7818609E-02  0.8389624E-01
        1   -1    0    0  501    0  0.00000000000E+00  0.00000000000E+00  0.17274133487E+04  0.17274133487E+04  0.50400001928E-02 0. -1.
       -1   -1    0    0    0  501  0.00000000000E+00  0.00000000000E+00 -0.93212831674E+03  0.93212831675E+03  0.50400001928E-02 0.  1.
    10030    2    1    2    0    0  0.00000000000E+00  0.00000000000E+00  0.79528503193E+03  0.26595416654E+04  0.25378501902E+04 0.  0.
        5    1    3    3  502    0 -0.40919846526E+03  0.79926783174E+03  0.13372261514E+04  0.16107353354E+04  0.46999998093E+01 0. -1.
       -5    1    3    3    0  502  0.40919846526E+03 -0.79926783174E+03 -0.54194111948E+03  0.10488063300E+04  0.46999998093E+01 0.  1.
</event>
<event>
 5   0  0.4700769E-07  0.3509893E+04  0.7818609E-02  0.8111449E-01
        1   -1    0    0  501    0  0.00000000000E+00  0.00000000000E+00  0.16743780914E+04  0.16743780914E+04  0.50400001928E-02 0.  1.
       -1   -1    0    0    0  501  0.00000000000E+00  0.00000000000E+00 -0.18393922235E+04  0.18393922235E+04  0.50400001928E-02 0. -1.
    10030    2    1    2    0    0  0.00000000000E+00  0.00000000000E+00 -0.16501413215E+03  0.35137703149E+04  0.35098934687E+04 0.  0.
        3    1    3    3  502    0  0.22467119135E+03  0.12063200477E+04 -0.13385453633E+04  0.18158713890E+04  0.10100000352E+00 0. -1.
       -3    1    3    3    0  502 -0.22467119135E+03 -0.12063200477E+04  0.11735312312E+04  0.16978989258E+04  0.10100000352E+00 0.  1.
</event>
<event>
 5   0  0.4557237E-07  0.3426158E+04  0.7818609E-02  0.8131516E-01
       -1   -1    0    0    0  501  0.00000000000E+00  0.00000000000E+00  0.13313860319E+04  0.13313860319E+04  0.50400001928E-02 0. -1.
        1   -1    0    0  501    0  0.00000000000E+00  0.00000000000E+00 -0.22041987216E+04  0.22041987216E+04  0.50400001928E-02 0.  1.
    10030    2    1    2    0    0  0.00000000000E+00  0.00000000000E+00 -0.87281268969E+03  0.35355847535E+04  0.34261578420E+04 0.  0.
        2    1    3    3  502    0 -0.59711350007E+03 -0.10124212423E+04  0.84963025267E+03  0.14503147486E+04  0.25500000920E-02 0. -1.
       -2    1    3    3    0  502  0.59711350007E+03  0.10124212423E+04 -0.17224429424E+04  0.20852700049E+04  0.25500000920E-02 0.  1.
</event>
<event>
 5   0  0.1378620E-06  0.3526614E+04  0.7818609E-02  0.8107512E-01
        2   -1    0    0  501    0  0.00000000000E+00  0.00000000000E+00  0.15339500598E+04  0.15339500598E+04  0.25500000920E-02 0. -1.
       -2   -1    0    0    0  501  0.00000000000E+00  0.00000000000E+00 -0.20269577703E+04  0.20269577703E+04  0.25500000920E-02 0.  1.
    10030    2    1    2    0    0  0.00000000000E+00  0.00000000000E+00 -0.49300771046E+03  0.35609078300E+04  0.35266142363E+04 0.  0.
        2    1    3    3  502    0  0.36990482741E+03 -0.87159023806E+03  0.12554937232E+04  0.15725023413E+04  0.25500000920E-02 0. -1.
       -2    1    3    3    0  502 -0.36990482741E+03  0.87159023806E+03 -0.17485014336E+04  0.19884054888E+04  0.25500000920E-02 0.  1.
</event>
<event>
 5   0  0.1361560E-06  0.3457217E+04  0.7818609E-02  0.8124004E-01
        2   -1    0    0  501    0  0.00000000000E+00  0.00000000000E+00  0.19650320009E+04  0.19650320009E+04  0.25500000920E-02 0. -1.
       -2   -1    0    0    0  501  0.00000000000E+00  0.00000000000E+00 -0.15206303603E+04  0.15206303603E+04  0.25500000920E-02 0.  1.
    10030    2    1    2    0    0  0.00000000000E+00  0.00000000000E+00  0.44440164055E+03  0.34856623612E+04  0.34572169845E+04 0.  0.
        3    1    3    3  502    0 -0.22626934647E+03  0.20254758798E+03  0.19379261284E+04  0.19615761601E+04  0.10100000352E+00 0. -1.
       -3    1    3    3    0  502  0.22626934647E+03 -0.20254758798E+03 -0.14935244878E+04  0.15240862011E+04  0.10100000352E+00 0.  1.
</event>
<event>
 5   0  0.4409125E-07  0.3639597E+04  0.7818609E-02  0.8081481E-01
       -1   -1    0    0    0  501  0.00000000000E+00  0.00000000000E+00  0.11801980395E+04  0.11801980395E+04  0.50400001928E-02 0. -1.
        1   -1    0    0  501    0  0.00000000000E+00  0.00000000000E+00 -0.28060258038E+04  0.28060258038E+04  0.50400001928E-02 0.  1.
    10030    2    1    2    0    0  0.00000000000E+00  0.00000000000E+00 -0.16258277643E+04  0.39862238433E+04  0.36395967647E+04 0.  0.
        5    1    3    3  502    0 -0.74392884123E+03  0.13036384844E+03  0.10004305177E+04  0.12535183144E+04  0.46999998093E+01 0. -1.
       -5    1    3    3    0  502  0.74392884123E+03 -0.13036384844E+03 -0.26262582820E+04  0.27327055289E+04  0.46999998093E+01 0.  1.
</event>
<event>
 5   0  0.4693374E-07  0.3491620E+04  0.7818609E-02  0.8115779E-01
        1   -1    0    0  501    0  0.00000000000E+00  0.00000000000E+00  0.16910521098E+04  0.16910521098E+04  0.50400001928E-02 0.  1.
       -1   -1    0    0    0  501  0.00000000000E+00  0.00000000000E+00 -0.18023412998E+04  0.18023412999E+04  0.50400001928E-02 0. -1.
    10030    2    1    2    0    0  0.00000000000E+00  0.00000000000E+00 -0.11128919005E+03  0.34933934097E+04  0.34916202873E+04 0.  0.
        1    1    3    3  502    0 -0.91157307924E+03 -0.95284393337E+03  0.10890413048E+04  0.17102303949E+04  0.50400001928E-02 0.  1.
       -1    1    3    3    0  502  0.91157307924E+03  0.95284393337E+03 -0.12003304949E+04  0.17831630147E+04  0.50400001928E-02 0. -1.
</event>
<event>
 5   0  0.4409125E-07  0.3502342E+04  0.7818609E-02  0.8113235E-01
        1   -1    0    0  501    0  0.00000000000E+00  0.00000000000E+00  0.22052379504E+04  0.22052379504E+04  0.50400001928E-02 0.  1.
       -1   -1    0    0    0  501  0.00000000000E+00  0.00000000000E+00 -0.13905985473E+04  0.13905985473E+04  0.50400001928E-02 0. -1.
    10030    2    1    2    0    0  0.00000000000E+00  0.00000000000E+00  0.81463940313E+03  0.35958364978E+04  0.35023424678E+04 0.  0.
        5    1    3    3  502    0  0.10121544067E+04  0.35627953607E+03 -0.10135259839E+04  0.14760246139E+04  0.46999998093E+01 0. -1.
       -5    1    3    3    0  502 -0.10121544067E+04 -0.35627953607E+03  0.18281653870E+04  0.21198118839E+04  0.46999998093E+01 0.  1.
</event>
<event>
 5   0  0.1348388E-06  0.3517725E+04  0.7818609E-02  0.8109602E-01
       -2   -1    0    0    0  501  0.00000000000E+00  0.00000000000E+00  0.16169476768E+04  0.16169476768E+04  0.25500000920E-02 0.  1.
        2   -1    0    0  501    0  0.00000000000E+00  0.00000000000E+00 -0.19132328819E+04  0.19132328819E+04  0.25500000920E-02 0. -1.
    10030    2    1    2    0    0  0.00000000000E+00  0.00000000000E+00 -0.29628520515E+03  0.35301805588E+04  0.35177250965E+04 0.  0.
        5    1    3    3  502    0  0.42707016134E+02 -0.36489080193E+03  0.15780076744E+04  0.16202158798E+04  0.46999998093E+01 0.  1.
       -5    1    3    3    0  502 -0.42707016134E+02  0.36489080193E+03 -0.18742928796E+04  0.19099646790E+04  0.46999998093E+01 0. -1.
</event>
<event>
 5   0  0.1378620E-06  0.3458755E+04  0.7818609E-02  0.8123635E-01
       -2   -1    0    0    0  501  0.00000000000E+00  0.00000000000E+00  0.16654511423E+04  0.16654511423E+04  0.25500000920E-02 0.  1.
        2   -1    0    0  501    0  0.00000000000E+00  0.00000000000E+00 -0.17957577996E+04  0.17957577996E+04  0.25500000920E-02 0. -1.
    10030    2    1    2    0    0  0.00000000000E+00  0.00000000000E+00 -0.13030665729E+03  0.34612089419E+04  0.34587551973E+04 0.  0.
        2    1    3    3  502    0 -0.75470266044E+03  0.14997732743E+04 -0.47999645270E+03  0.17462223726E+04  0.25500000920E-02 0.  1.
       -2    1    3    3    0  502  0.75470266044E+03 -0.14997732743E+04  0.34968979540E+03  0.17149865693E+04  0.25500000920E-02 0. -1.
</event>
<event>
 5   0  0.1378620E-06  0.3615733E+04  0.7818609E-02  0.8086897E-01
       -2   -1    0    0    0  501  0.00000000000E+00  0.00000000000E+00  0.11696516090E+04  0.11696516090E+04  0.25500000920E-02 0.  1.
        2   -1    0    0  501    0  0.00000000000E+00  0.00000000000E+00 -0.27943210142E+04  0.27943210142E+04  0.25500000920E-02 0. -1.
    10030    2    1    2    0    0  0.00000000000E+00  0.00000000000E+00 -0.16246694052E+04  0.39639726232E+04  0.36157334361E+04 0.  0.
        2    1    3    3  502    0 -0.14115064331E+03 -0.14323734455E+04 -0.20116645966E+04  0.24735423264E+04  0.25500000920E-02 0. -1.
       -2    1    3    3    0  502  0.14115064331E+03  0.14323734455E+04  0.38699519136E+03  0.14904302968E+04  0.25500000920E-02 0.  1.
</event>
<event>
 5   0  0.1348388E-06  0.3513225E+04  0.7818609E-02  0.8110663E-01
       -2   -1    0    0    0  501  0.00000000000E+00  0.00000000000E+00  0.13792033159E+04  0.13792033159E+04  0.25500000920E-02 0.  1.
        2   -1    0    0  501    0  0.00000000000E+00  0.00000000000E+00 -0.22372965745E+04  0.22372965745E+04  0.25500000920E-02 0. -1.
    10030    2    1    2    0    0  0.00000000000E+00  0.00000000000E+00 -0.85809325857E+03  0.36164998904E+04  0.35132246465E+04 0.  0.
        5    1    3    3  502    0  0.10364006064E+04  0.46871671980E+03 -0.18069936969E+04  0.21351978576E+04  0.46999998093E+01 0. -1.
       -5    1    3    3    0  502 -0.10364006064E+04 -0.46871671980E+03  0.94890043835E+03  0.14813020328E+04  0.46999998093E+01 0.  1.
</event>
<event>
 5   0  0.1442864E-06  0.3467223E+04  0.7818609E-02  0.8121602E-01
       -2   -1    0    0    0  501  0.00000000000E+00  0.00000000000E+00  0.10885686632E+04  0.10885686632E+04  0.25500000920E-02 0. -1.
        2   -1    0    0  501    0  0.00000000000E+00  0.00000000000E+00 -0.27608811703E+04  0.27608811703E+04  0.25500000920E-02 0.  1.
    10030    2    1    2    0    0  0.00000000000E+00  0.00000000000E+00 -0.16723125071E+04  0.38494498336E+04  0.34672229377E+04 0.  0.
        1    1    3    3  502    0  0.75140714351E+03  0.15353831597E+04 -0.11567727151E+04  0.20640099943E+04  0.50400001928E-02 0. -1.
       -1    1    3    3    0  502 -0.75140714351E+03 -0.15353831597E+04 -0.51553979200E+03  0.17854398392E+04  0.50400001928E-02 0.  1.
</event>
<event>
 5   0  0.1378620E-06  0.3602712E+04  0.7818609E-02  0.8089871E-01
       -2   -1    0    0    0  501  0.00000000000E+00  0.00000000000E+00  0.24155774356E+04  0.24155774356E+04  0.25500000920E-02 0. -1.
        2   -1    0    0  501    0  0.00000000000E+00  0.00000000000E+00 -0.13433156897E+04  0.13433156897E+04  0.25500000920E-02 0.  1.
    10030    2    1    2    0    0  0.00000000000E+00  0.00000000000E+00  0.10722617459E+04  0.37588931252E+04  0.36027117946E+04 0.  0.
        2    1    3    3  502    0 -0.17531439351E+03 -0.57946211472E+03 -0.12339939248E+04  0.13745008132E+04  0.25500000920E-02 0.  1.
       -2    1    3    3    0  502  0.17531439351E+03  0.57946211472E+03  0.23062556707E+04  0.23843923121E+04  0.25500000920E-02 0. -1.
</event>
<event>
 5   0  0.1442864E-06  0.3543778E+04  0.7818609E-02  0.8103493E-01
        2   -1    0    0  501    0  0.00000000000E+00  0.00000000000E+00  0.22121852425E+04  0.22121852425E+04  0.25500000920E-02 0.  1.
       -2   -1    0    0    0  501  0.00000000000E+00  0.00000000000E+00 -0.14192258950E+04  0.14192258950E+04  0.25500000920E-02 0. -1.
    10030    2    1    2    0    0  0.00000000000E+00  0.00000000000E+00  0.79295934744E+03  0.36314111375E+04  0.35437779731E+04 0.  0.
        1    1    3    3  502    0  0.43611773780E+03  0.13720029666E+04  0.14549801981E+04  0.20468410291E+04  0.50400001928E-02 0.  1.
       -1    1    3    3    0  502 -0.43611773780E+03 -0.13720029666E+04 -0.66202085068E+03  0.15845701084E+04  0.50400001928E-02 0. -1.
</event>
<event>
 5   0  0.4591195E-07  0.3505452E+04  0.7818609E-02  0.8112499E-01
        1   -1    0    0  501    0  0.00000000000E+00  0.00000000000E+00  0.21886213230E+04  0.21886213230E+04  0.50400001928E-02 0. -1.
       -1   -1    0    0    0  501  0.00000000000E+00  0.00000000000E+00 -0.14036454979E+04  0.14036454979E+04  0.50400001928E-02 0.  1.
    10030    2    1    2    0    0  0.00000000000E+00  0.00000000000E+00  0.78497582514E+03  0.35922668209E+04  0.35054520203E+04 0.  0.
        4    1    3    3  502    0 -0.15255029488E+04 -0.18631693961E+03 -0.47110053343E+03  0.16074235827E+04  0.12699999809E+01 0.  1.
       -4    1    3    3    0  502  0.15255029488E+04  0.18631693961E+03  0.12560763586E+04  0.19848432382E+04  0.12699999809E+01 0. -1.
</event>
<event>
 5   0  0.4693374E-07  0.3532569E+04  0.7818609E-02  0.8106115E-01
       -1   -1    0    0    0  501  0.00000000000E+00  0.00000000000E+00  0.11203768107E+04  0.11203768107E+04  0.50400001928E-02 0. -1.
        1   -1    0    0  501    0  0.00000000000E+00  0.00000000000E+00 -0.27845637340E+04  0.27845637340E+04  0.50400001928E-02 0.  1.
    10030    2    1    2    0    0  0.00000000000E+00  0.00000000000E+00 -0.16641869233E+04  0.39049405447E+04  0.35325688304E+04 0.  0.
        1    1    3    3  502    0  0.10717984819E+04  0.12312424676E+04 -0.15777754549E+04  0.22702610832E+04  0.50400001928E-02 0. -1.
       -1    1    3    3    0  502 -0.10717984819E+04 -0.12312424676E+04 -0.86411468398E+02  0.16346794615E+04  0.50400001928E-02 0.  1.
</event>
<event>
 5   0  0.4591195E-07  0.3581212E+04  0.7818609E-02  0.8094809E-01
       -1   -1    0    0    0  501  0.00000000000E+00  0.00000000000E+00  0.21878900649E+04  0.21878900649E+04  0.50400001928E-02 0. -1.
        1   -1    0    0  501    0  0.00000000000E+00  0.00000000000E+00 -0.14654616733E+04  0.14654616733E+04  0.50400001928E-02 0.  1.
    10030    2    1    2    0    0  0.00000000000E+00  0.00000000000E+00  0.72242839163E+03  0.36533517382E+04  0.35812115466E+04 0.  0.
        4    1    3    3  502    0  0.83367019390E+03 -0.40850895782E+03  0.19231949827E+04  0.21355482002E+04  0.12699999809E+01 0. -1.
       -4    1    3    3    0  502 -0.83367019390E+03  0.40850895782E+03 -0.12007665911E+04  0.15178035380E+04  0.12699999809E+01 0.  1.
</event>
<event>
 5   0  0.1387133E-06  0.3481435E+04  0.7818609E-02  0.8118204E-01
        2   -1    0    0  501    0  0.00000000000E+00  0.00000000000E+00  0.12377891025E+04  0.12377891025E+04  0.25500000920E-02 0. -1.
       -2   -1    0    0    0  501  0.00000000000E+00  0.00000000000E+00 -0.24479921453E+04  0.24479921453E+04  0.25500000920E-02 0.  1.
    10030    2    1    2    0    0  0.00000000000E+00  0.00000000000E+00 -0.12102030427E+04  0.36857812478E+04  0.34814353365E+04 0.  0.
        4    1    3    3  502    0 -0.19203962500E+02 -0.25441298646E+03  0.12178859802E+04  0.12443241673E+04  0.12699999809E+01 0. -1.
       -4    1    3    3    0  502  0.19203962500E+02  0.25441298646E+03 -0.24280890229E+04  0.24414570805E+04  0.12699999809E+01 0.  1.
</event>
<event>
 5   0  0.4409125E-07  0.2849742E+04  0.7818609E-02  0.8287990E-01
        1   -1    0    0  501    0  0.00000000000E+00  0.00000000000E+00  0.21434582689E+04  0.21434582689E+04  0.50400001928E-02 0. -1.
       -1   -1    0    0    0  501  0.00000000000E+00  0.00000000000E+00 -0.94718766686E+03  0.94718766687E+03  0.50400001928E-02 0.  1.
    10030    2    1    2    0    0  0.00000000000E+00  0.00000000000E+00  0.11962706020E+04  0.30906459357E+04  0.28497419088E+04 0.  0.
        5    1    3    3  502    0 -0.54935366664E+03  0.96617731377E+03 -0.36883433949E+03  0.11710460762E+04  0.46999998093E+01 0.  1.
       -5    1    3    3    0  502  0.54935366664E+03 -0.96617731377E+03  0.15651049415E+04  0.19195998595E+04  0.46999998093E+01 0. -1.
</event>
<event>
 5   0  0.4557237E-07  0.3461156E+04  0.7818609E-02  0.8123058E-01
        1   -1    0    0  501    0  0.00000000000E+00  0.00000000000E+00  0.20960469518E+04  0.20960469518E+04  0.50400001928E-02 0.  1.
       -1   -1    0    0    0  501  0.00000000000E+00  0.00000000000E+00 -0.14288325376E+04  0.14288325376E+04  0.50400001928E-02 0. -1.
    10030    2    1    2    0    0  0.00000000000E+00  0.00000000000E+00  0.66721441419E+03  0.35248794895E+04  0.34611559255E+04 0.  0.
        2    1    3    3  502    0  0.55576868975E+03  0.14260628086E+04  0.11561695174E+04  0.19181402252E+04  0.25500000920E-02 0.  1.
       -2    1    3    3    0  502 -0.55576868975E+03 -0.14260628086E+04 -0.48895510317E+03  0.16067392643E+04  0.25500000920E-02 0. -1.
</event>
<event>
 5   0  0.4591195E-07  0.3501861E+04  0.7818609E-02  0.8113349E-01
       -1   -1    0    0    0  501  0.00000000000E+00  0.00000000000E+00  0.15367445496E+04  0.15367445496E+04  0.50400001928E-02 0. -1.
        1   -1    0    0  501    0  0.00000000000E+00  0.00000000000E+00 -0.19949683705E+04  0.19949683706E+04  0.50400001928E-02 0.  1.
    10030    2    1    2    0    0  0.00000000000E+00  0.00000000000E+00 -0.45822382092E+03  0.35317129202E+04  0.35018605170E+04 0.  0.
        4    1    3    3  502    0  0.17034574027E+04  0.36869883229E+03 -0.39801859352E+03  0.17877713403E+04  0.12699999809E+01 0. -1.
       -4    1    3    3    0  502 -0.17034574027E+04 -0.36869883229E+03 -0.60205227404E+02  0.17439415798E+04  0.12699999809E+01 0.  1.
</event>
<event>
 5   0  0.4591195E-07  0.3406513E+04  0.7818609E-02  0.8136310E-01
       -1   -1    0    0    0  501  0.00000000000E+00  0.00000000000E+00  0.10210777519E+04  0.10210777519E+04  0.50400001928E-02 0.  1.
        1   -1    0    0  501    0  0.00000000000E+00  0.00000000000E+00 -0.28411959732E+04  0.28411959732E+04  0.50400001928E-02 0. -1.
    10030    2    1    2    0    0  0.00000000000E+00  0.00000000000E+00 -0.18201182212E+04  0.38622737251E+04  0.34065125845E+04 0.  0.
        4    1    3    3  502    0  0.44114674908E+03  0.16436847025E+04 -0.83174927552E+03  0.18942329122E+04  0.12699999809E+01 0.  1.
       -4    1    3    3    0  502 -0.44114674908E+03 -0.16436847025E+04 -0.98836894572E+03  0.19680408129E+04  0.12699999809E+01 0. -1.
</event>
<event>
 5   0  0.1361560E-06  0.3502919E+04  0.7818609E-02  0.8113098E-01
        2   -1    0    0  501    0  0.00000000000E+00  0.00000000000E+00  0.15655356777E+04  0.15655356778E+04  0.25500000920E-02 0. -1.
       -2   -1    0    0    0  501  0.00000000000E+00  0.00000000000E+00 -0.19594639063E+04  0.19594639063E+04  0.25500000920E-02 0.  1.
    10030    2    1    2    0    0  0.00000000000E+00  0.00000000000E+00 -0.39392822853E+03  0.35249995840E+04  0.35029191567E+04 0.  0.
        3    1    3    3  502    0 -0.14418020685E+04 -0.29842108223E+03  0.75757307010E+03  0.16558276824E+04  0.10100000352E+00 0. -1.
       -3    1    3    3    0  502  0.14418020685E+04  0.29842108223E+03 -0.11515012986E+04  0.18691719017E+04  0.10100000352E+00 0.  1.
</event>
<event>
 5   0  0.4557237E-07  0.3509325E+04  0.7818609E-02  0.8111584E-01
        1   -1    0    0  501    0  0.00000000000E+00  0.00000000000E+00  0.16703853897E+04  0.16703853897E+04  0.50400001928E-02 0.  1.
       -1   -1    0    0    0  501  0.00000000000E+00  0.00000000000E+00 -0.18431913665E+04  0.18431913665E+04  0.50400001928E-02 0. -1.
    10030    2    1    2    0    0  0.00000000000E+00  0.00000000000E+00 -0.17280597680E+03  0.35135767562E+04  0.35093246809E+04 0.  0.
        2    1    3    3  502    0 -0.13824619783E+04 -0.73792013276E+03 -0.87673430490E+03  0.17956587329E+04  0.25500000920E-02 0. -1.
       -2    1    3    3    0  502  0.13824619783E+04  0.73792013276E+03  0.70392832809E+03  0.17179180233E+04  0.25500000920E-02 0.  1.
</event>
<event>
 5   0  0.1361560E-06  0.3484467E+04  0.7818609E-02  0.8117481E-01
       -2   -1    0    0    0  501  0.00000000000E+00  0.00000000000E+00  0.21195050009E+04  0.21195050009E+04  0.25500000920E-02 0.  1.
        2   -1    0    0  501    0  0.00000000000E+00  0.00000000000E+00 -0.14321158708E+04  0.14321158708E+04  0.25500000920E-02 0. -1.
    10030    2    1    2    0    0  0.00000000000E+00  0.00000000000E+00  0.68738913006E+03  0.35516208717E+04  0.34844665302E+04 0.  0.
        3    1    3    3  502    0  0.30987309326E+03  0.17127017503E+04  0.42270048107E+03  0.17911014283E+04  0.10100000352E+00 0. -1.
       -3    1    3    3    0  502 -0.30987309326E+03 -0.17127017503E+04  0.26468864899E+03  0.17605194434E+04  0.10100000352E+00 0.  1.
</event>
<event>
 5   0  0.4409125E-07  0.3477118E+04  0.7818609E-02  0.8119234E-01
       -3   -1    0    0    0  501  0.00000000000E+00  0.00000000000E+00  0.11290119201E+04  0.11290119246E+04  0.10100000352E+00 0. -1.
        3   -1    0    0  501    0  0.00000000000E+00  0.00000000000E+00 -0.26771964848E+04  0.26771964867E+04  0.10100000352E+00 0.  1.
    10030    2    1    2    0    0  0.00000000000E+00  0.00000000000E+00 -0.15481845647E+04  0.38062084114E+04  0.34771176317E+04 0.  0.
        2    1    3    3  502    0 -0.60401151664E+02  0.14586517832E+04 -0.18075165647E+04  0.23234520558E+04  0.25500000920E-02 0.  1.
       -2    1    3    3    0  502  0.60401151664E+02 -0.14586517832E+04  0.25933199998E+03  0.14827563556E+04  0.25500000920E-02 0. -1.
</event>
<event>
 5   0  0.1361560E-06  0.3469882E+04  0.7818609E-02  0.8120965E-01
       -2   -1    0    0    0  501  0.00000000000E+00  0.00000000000E+00  0.16962334682E+04  0.16962334682E+04  0.25500000920E-02 0. -1.
        2   -1    0    0  501    0  0.00000000000E+00  0.00000000000E+00 -0.17745313529E+04  0.17745313529E+04  0.25500000920E-02 0.  1.
    10030    2    1    2    0    0  0.00000000000E+00  0.00000000000E+00 -0.78297884678E+02  0.34707648211E+04  0.34698815375E+04 0.  0.
        3    1    3    3  502    0 -0.83596196450E+03 -0.15197344337E+04 -0.79087864635E+02  0.17362834031E+04  0.10100000352E+00 0.  1.
       -3    1    3    3    0  502  0.83596196450E+03  0.15197344337E+04  0.78997995740E+00  0.17344814180E+04  0.10100000352E+00 0. -1.
</event>
<event>
 5   0  0.4700769E-07  0.3597679E+04  0.7818609E-02  0.8091023E-01
        1   -1    0    0  501    0  0.00000000000E+00  0.00000000000E+00  0.14337120459E+04  0.14337120459E+04  0.50400001928E-02 0. -1.
       -1   -1    0    0    0  501  0.00000000000E+00  0.00000000000E+00 -0.22569555170E+04  0.22569555170E+04  0.50400001928E-02 0.  1.
    10030    2    1    2    0    0  0.00000000000E+00  0.00000000000E+00 -0.82324347109E+03  0.36906675629E+04  0.35976794253E+04 0.  0.
        3    1    3    3  502    0 -0.48558893554E+03 -0.15341572729E+04  0.41314188064E+03  0.16613613021E+04  0.10100000352E+00 0. -1.
       -3    1    3    3    0  502  0.48558893554E+03  0.15341572729E+04 -0.12363853517E+04  0.20293062609E+04  0.10100000352E+00 0.  1.
</event>
<event>
 5   0  0.4409125E-07  0.3768692E+04  0.7818609E-02  0.8052907E-01
        1   -1    0    0  501    0  0.00000000000E+00  0.00000000000E+00  0.23748954796E+04  0.23748954796E+04  0.50400001928E-02 0. -1.
       -1   -1    0    0    0  501  0.00000000000E+00  0.00000000000E+00 -0.14951225285E+04  0.14951225285E+04  0.50400001928E-02 0.  1.
    10030    2    1    2    0    0  0.00000000000E+00  0.00000000000E+00  0.87977295110E+03  0.38700180080E+04  0.37686919398E+04 0.  0.
        5    1    3    3  502    0  0.12370402093E+04 -0.61967377490E+03 -0.87375498162E+03  0.16363782951E+04  0.46999998093E+01 0.  1.
       -5    1    3    3    0  502 -0.12370402093E+04  0.61967377490E+03  0.17535279327E+04  0.22336397130E+04  0.46999998093E+01 0. -1.
</event>
<event>
 5   0  0.1348388E-06  0.3471451E+04  0.7818609E-02  0.8120589E-01
        2   -1    0    0  501    0  0.00000000000E+00  0.00000000000E+00  0.11593883466E+04  0.11593883466E+04  0.25500000920E-02 0. -1.
       -2   -1    0    0    0  501  0.00000000000E+00  0.00000000000E+00 -0.25985619437E+04  0.25985619437E+04  0.25500000920E-02 0.  1.
    10030    2    1    2    0    0  0.00000000000E+00  0.00000000000E+00 -0.14391735971E+04  0.37579502903E+04  0.34714506683E+04 0.  0.
        5    1    3    3  502    0 -0.67121849031E+02  0.10461072462E+04  0.77801645893E+03  0.13054414631E+04  0.46999998093E+01 0. -1.
       -5    1    3    3    0  502  0.67121849031E+02 -0.10461072462E+04 -0.22171900560E+04  0.24525088272E+04  0.46999998093E+01 0.  1.
</event>
<event>
 5   0  0.4700769E-07  0.2577023E+04  0.7818609E-02  0.8376048E-01
        1   -1    0    0  501    0  0.00000000000E+00  0.00000000000E+00  0.19864866517E+04  0.19864866517E+04  0.50400001928E-02 0.  1.
       -1   -1    0    0    0  501  0.00000000000E+00  0.00000000000E+00 -0.83577800230E+03  0.83577800231E+03  0.50400001928E-02 0. -1.
    10030    2    1    2    0    0  0.00000000000E+00  0.00000000000E+00  0.11507086494E+04  0.28222646540E+04  0.25770229688E+04 0.  0.
        3    1    3    3  502    0 -0.24105806258E+03  0.72157419460E+03 -0.56355566354E+03  0.94676993191E+03  0.10100000352E+00 0. -1.
       -3    1    3    3    0  502  0.24105806258E+03 -0.72157419460E+03  0.17142643130E+04  0.18754947221E+04  0.10100000352E+00 0.  1.
</event>
<event>
 5   0  0.4557237E-07  0.3492511E+04  0.7818609E-02  0.8115567E-01
       -1   -1    0    0    0  501  0.00000000000E+00  0.00000000000E+00  0.13241528950E+04  0.13241528950E+04  0.50400001928E-02 0.  1.
        1   -1    0    0  501    0  0.00000000000E+00  0.00000000000E+00 -0.23029130726E+04  0.23029130726E+04  0.50400001928E-02 0. -1.
    10030    2    1    2    0    0  0.00000000000E+00  0.00000000000E+00 -0.97876017763E+03  0.36270659676E+04  0.34925114241E+04 0.  0.
        2    1    3    3  502    0  0.12198150632E+04  0.48110033647E+03 -0.16870685863E+04  0.21367280448E+04  0.25500000920E-02 0. -1.
       -2    1    3    3    0  502 -0.12198150632E+04 -0.48110033647E+03  0.70830840871E+03  0.14903379228E+04  0.25500000920E-02 0.  1.
</event>
<event>
 5   0  0.1378620E-06  0.3487642E+04  0.7818609E-02  0.8116725E-01
       -2   -1    0    0    0  501  0.00000000000E+00  0.00000000000E+00  0.18409797790E+04  0.18409797790E+04  0.25500000920E-02 0. -1.
        2   -1    0    0  501    0  0.00000000000E+00  0.00000000000E+00 -0.16517899634E+04  0.16517899634E+04  0.25500000920E-02 0.  1.
    10030    2    1    2    0    0  0.00000000000E+00  0.00000000000E+00  0.18918981562E+03  0.34927697425E+04  0.34876421387E+04 0.  0.
        2    1    3    3  502    0  0.15899492511E+04 -0.27281432980E+03  0.75779631622E+03  0.17823079241E+04  0.25500000920E-02 0. -1.
       -2    1    3    3    0  502 -0.15899492511E+04  0.27281432980E+03 -0.56860650059E+03  0.17104618183E+04  0.25500000920E-02 0.  1.
</event>
<event>
 5   0  0.1378620E-06  0.3827340E+04  0.7818609E-02  0.8040313E-01
        2   -1    0    0  501    0  0.00000000000E+00  0.00000000000E+00  0.23062445853E+04  0.23062445853E+04  0.25500000920E-02 0. -1.
       -2   -1    0    0    0  501  0.00000000000E+00  0.00000000000E+00 -0.15879201159E+04  0.15879201159E+04  0.25500000920E-02 0.  1.
    10030    2    1    2    0    0  0.00000000000E+00  0.00000000000E+00  0.71832446934E+03  0.38941647012E+04  0.38273396343E+04 0.  0.
        2    1    3    3  502    0  0.65014981169E+02 -0.14346589398E+04  0.16460213785E+04  0.21844586514E+04  0.25500000920E-02 0. -1.
       -2    1    3    3    0  502 -0.65014981169E+02  0.14346589398E+04 -0.92769690913E+03  0.17097060498E+04  0.25500000920E-02 0.  1.
</event>
<event>
 5   0  0.1387133E-06  0.3622170E+04  0.7818609E-02  0.8085432E-01
       -2   -1    0    0    0  501  0.00000000000E+00  0.00000000000E+00  0.11588812161E+04  0.11588812161E+04  0.25500000920E-02 0.  1.
        2   -1    0    0  501    0  0.00000000000E+00  0.00000000000E+00 -0.28303412823E+04  0.28303412823E+04  0.25500000920E-02 0. -1.
    10030    2    1    2    0    0  0.00000000000E+00  0.00000000000E+00 -0.16714600662E+04  0.39892224984E+04  0.36221702595E+04 0.  0.
        4    1    3    3  502    0 -0.56381975331E+03  0.30405193797E+03 -0.27014080646E+04  0.27763190450E+04  0.12699999809E+01 0. -1.
       -4    1    3    3    0  502  0.56381975331E+03 -0.30405193797E+03  0.10299479983E+04  0.12129034535E+04  0.12699999809E+01 0.  1.
</event>
<event>
 5   0  0.1442864E-06  0.3472439E+04  0.7818609E-02  0.8120353E-01
       -2   -1    0    0    0  501  0.00000000000E+00  0.00000000000E+00  0.14616028897E+04  0.14616028897E+04  0.25500000920E-02 0.  1.
        2   -1    0    0  501    0  0.00000000000E+00  0.00000000000E+00 -0.20624332869E+04  0.20624332869E+04  0.25500000920E-02 0. -1.
    10030    2    1    2    0    0  0.00000000000E+00  0.00000000000E+00 -0.60083039714E+03  0.35240361766E+04  0.34724391727E+04 0.  0.
        1    1    3    3  502    0  0.87896388662E+03 -0.13074682864E+04  0.44008953961E+03  0.16357657647E+04  0.50400001928E-02 0.  1.
       -1    1    3    3    0  502 -0.87896388662E+03  0.13074682864E+04 -0.10409199368E+04  0.18882704120E+04  0.50400001928E-02 0. -1.
</event>
<event>
 5   0  0.4557237E-07  0.3442990E+04  0.7818609E-02  0.8127435E-01
       -1   -1    0    0    0  501  0.00000000000E+00  0.00000000000E+00  0.33979552164E+04  0.33979552164E+04  0.50400001928E-02 0.  1.
        1   -1    0    0  501    0  0.00000000000E+00  0.00000000000E+00 -0.87215518411E+03  0.87215518412E+03  0.50400001928E-02 0. -1.
    10030    2    1    2    0    0  0.00000000000E+00  0.00000000000E+00  0.25258000323E+04  0.42701104005E+04  0.34429895483E+04 0.  0.
        2    1    3    3  502    0 -0.17836613189E+03 -0.16526872813E+04  0.18180406064E+04  0.24634247245E+04  0.25500000920E-02 0.  1.
       -2    1    3    3    0  502  0.17836613189E+03  0.16526872813E+04  0.70775942589E+03  0.18066856760E+04  0.25500000920E-02 0. -1.
</event>
<event>
 5   0  0.1387133E-06  0.3486423E+04  0.7818609E-02  0.8117015E-01
       -2   -1    0    0    0  501  0.00000000000E+00  0.00000000000E+00  0.30502327104E+04  0.30502327104E+04  0.25500000920E-02 0. -1.
        2   -1    0    0  501    0  0.00000000000E+00  0.00000000000E+00 -0.99624715105E+03  0.99624715105E+03  0.25500000920E-02 0.  1.
    10030    2    1    2    0    0  0.00000000000E+00  0.00000000000E+00  0.20539855594E+04  0.40464798615E+04  0.34864226065E+04 0.  0.
        4    1    3    3  502    0 -0.12509293064E+04  0.50160039753E+03 -0.25621320627E+03  0.13718869882E+04  0.12699999809E+01 0.  1.
       -4    1    3    3    0  502  0.12509293064E+04 -0.50160039753E+03  0.23101987656E+04  0.26745928733E+04  0.12699999809E+01 0. -1.
</event>
<event>
 5   0  0.1361560E-06  0.3464229E+04  0.7818609E-02  0.8122320E-01
       -2   -1    0    0    0  501  0.00000000000E+00  0.00000000000E+00  0.24421681611E+04  0.24421681611E+04  0.25500000920E-02 0. -1.
        2   -1    0    0  501    0  0.00000000000E+00  0.00000000000E+00 -0.12285068251E+04  0.12285068251E+04  0.25500000920E-02 0.  1.
    10030    2    1    2    0    0  0.00000000000E+00  0.00000000000E+00  0.12136613361E+04  0.36706749862E+04  0.34642287764E+04 0.  0.
        3    1    3    3  502    0  0.92558410959E+02  0.70200375888E+03 -0.10681466545E+04  0.12815278470E+04  0.10100000352E+00 0.  1.
       -3    1    3    3    0  502 -0.92558410959E+02 -0.70200375888E+03  0.22818079905E+04  0.23891471392E+04  0.10100000352E+00 0. -1.
</event>
<event>
 5   0  0.4700769E-07  0.3309314E+04  0.7818609E-02  0.8160529E-01
        1   -1    0    0  501    0  0.00000000000E+00  0.00000000000E+00  0.18142212010E+04  0.18142212010E+04  0.50400001928E-02 0. -1.
       -1   -1    0    0    0  501  0.00000000000E+00  0.00000000000E+00 -0.15091268809E+04  0.15091268809E+04  0.50400001928E-02 0.  1.
    10030    2    1    2    0    0  0.00000000000E+00  0.00000000000E+00  0.30509432004E+03  0.33233480819E+04  0.33093141176E+04 0.  0.
        3    1    3    3  502    0 -0.12763658021E+04  0.94948415475E+03  0.60973613000E+03  0.17036454970E+04  0.10100000352E+00 0. -1.
       -3    1    3    3    0  502  0.12763658021E+04 -0.94948415475E+03 -0.30464180996E+03  0.16197025849E+04  0.10100000352E+00 0.  1.
</event>
<event>
 5   0  0.1348388E-06  0.3463244E+04  0.7818609E-02  0.8122556E-01
        2   -1    0    0  501    0  0.00000000000E+00  0.00000000000E+00  0.28054202934E+04  0.28054202934E+04  0.25500000920E-02 0.  1.
       -2   -1    0    0    0  501  0.00000000000E+00  0.00000000000E+00 -0.10688290441E+04  0.10688290441E+04  0.25500000920E-02 0. -1.
    10030    2    1    2    0    0  0.00000000000E+00  0.00000000000E+00  0.17365912493E+04  0.38742493375E+04  0.34632439651E+04 0.  0.
        5    1    3    3  502    0  0.12200330289E+04 -0.17173188785E+03 -0.49287210761E+03  0.13269956433E+04  0.46999998093E+01 0. -1.
       -5    1    3    3    0  502 -0.12200330289E+04  0.17173188785E+03  0.22294633569E+04  0.25472536942E+04  0.46999998093E+01 0.  1.
</event>
<event>
 5   0  0.4591195E-07  0.2556422E+04  0.7818609E-02  0.8383156E-01
        1   -1    0    0  501    0  0.00000000000E+00  0.00000000000E+00  0.15270813181E+04  0.15270813181E+04  0.50400001928E-02 0. -1.
       -1   -1    0    0    0  501  0.00000000000E+00  0.00000000000E+00 -0.10698996974E+04  0.10698996974E+04  0.50400001928E-02 0.  1.
    10030    2    1    2    0    0  0.00000000000E+00  0.00000000000E+00  0.45718162073E+03  0.25969810154E+04  0.25564223752E+04 0.  0.
        4    1    3    3  502    0 -0.40254672140E+03 -0.11882946450E+04  0.47687421630E+03  0.13421991869E+04  0.12699999809E+01 0. -1.
       -4    1    3    3    0  502  0.40254672140E+03  0.11882946450E+04 -0.19692595570E+02  0.12547818286E+04  0.12699999809E+01 0.  1.
</event>
<event>
 5   0  0.1442864E-06  0.3359844E+04  0.7818609E-02  0.8147833E-01
       -2   -1    0    0    0  501  0.00000000000E+00  0.00000000000E+00  0.19449697796E+04  0.19449697796E+04  0.25500000920E-02 0.  1.
        2   -1    0    0  501    0  0.00000000000E+00  0.00000000000E+00 -0.14509934127E+04  0.14509934127E+04  0.25500000920E-02 0. -1.
    10030    2    1    2    0    0  0.00000000000E+00  0.00000000000E+00  0.49397636690E+03  0.33959631923E+04  0.33598442453E+04 0.  0.
        1    1    3    3  502    0  0.99585002842E+02 -0.16454877974E+04 -0.79893917401E+02  0.16504333680E+04  0.50400001928E-02 0. -1.
       -1    1    3    3    0  502 -0.99585002842E+02  0.16454877974E+04  0.57387028430E+03  0.17455298243E+04  0.50400001928E-02 0.  1.
</event>
<event>
 5   0  0.1378620E-06  0.3118540E+04  0.7818609E-02  0.8210668E-01
        2   -1    0    0  501    0  0.00000000000E+00  0.00000000000E+00  0.15371527101E+04  0.15371527101E+04  0.25500000920E-02 0. -1.
       -2   -1    0    0    0  501  0.00000000000E+00  0.00000000000E+00 -0.15817059100E+04  0.15817059100E+04  0.25500000920E-02 0.  1.
    10030    2    1    2    0    0  0.00000000000E+00  0.00000000000E+00 -0.44553199831E+02  0.31188586201E+04  0.31185403805E+04 0.  0.
        2    1    3    3  502    0  0.13007829296E+04  0.65570744192E+03  0.53395912687E+03  0.15514834284E+04  0.25500000920E-02 0. -1.
       -2    1    3    3    0  502 -0.13007829296E+04 -0.65570744192E+03 -0.57851232670E+03  0.15673751917E+04  0.25500000920E-02 0.  1.
</event>
<event>
 5   0  0.4409125E-07  0.3476970E+04  0.7818609E-02  0.8119269E-01
       -1   -1    0    0    0  501  0.00000000000E+00  0.00000000000E+00  0.11453002935E+04  0.11453002935E+04  0.50400001928E-02 0. -1.
        1   -1    0    0  501    0  0.00000000000E+00  0.00000000000E+00 -0.26388981403E+04  0.26388981403E+04  0.50400001928E-02 0.  1.
    10030    2    1    2    0    0  0.00000000000E+00  0.00000000000E+00 -0.14935978468E+04  0.37841984339E+04  0.34769704139E+04 0.  0.
        5    1    3    3  502    0  0.23629827637E+03  0.10384431477E+04 -0.22422984697E+04  0.24823628993E+04  0.46999998093E+01 0.  1.
       -5    1    3    3    0  502 -0.23629827637E+03 -0.10384431477E+04  0.74870062290E+03  0.13018355346E+04  0.46999998093E+01 0. -1.
</event>
<event>
 5   0  0.1387133E-06  0.3578144E+04  0.7818609E-02  0.8095517E-01
        2   -1    0    0  501    0  0.00000000000E+00  0.00000000000E+00  0.16912610466E+04  0.16912610466E+04  0.25500000920E-02 0.  1.
       -2   -1    0    0    0  501  0.00000000000E+00  0.00000000000E+00 -0.18925392764E+04  0.18925392764E+04  0.25500000920E-02 0. -1.
    10030    2    1    2    0    0  0.00000000000E+00  0.00000000000E+00 -0.20127822981E+03  0.35838003230E+04  0.35781436289E+04 0.  0.
        4    1    3    3  502    0 -0.87069654790E+03  0.73606769227E+03  0.12802602809E+04  0.17143442262E+04  0.12699999809E+01 0.  1.
       -4    1    3    3    0  502  0.87069654790E+03 -0.73606769227E+03 -0.14815385107E+04  0.18694560968E+04  0.12699999809E+01 0. -1.
</event>
<event>
 5   0  0.1348388E-06  0.3516397E+04  0.7818609E-02  0.8109915E-01
       -2   -1    0    0    0  501  0.00000000000E+00  0.00000000000E+00  0.17330425924E+04  0.17330425924E+04  0.25500000920E-02 0. -1.
        2   -1    0    0  501    0  0.00000000000E+00  0.00000000000E+00 -0.17837193039E+04  0.17837193039E+04  0.25500000920E-02 0.  1.
    10030    2    1    2    0    0  0.00000000000E+00  0.00000000000E+00 -0.50676711536E+02  0.35167618963E+04  0.35163967504E+04 0.  0.
        5    1    3    3  502    0  0.10946579439E+04  0.70486274635E+03  0.11563646093E+04  0.17413525504E+04  0.46999998093E+01 0. -1.
       -5    1    3    3    0  502 -0.10946579439E+04 -0.70486274635E+03 -0.12070413208E+04  0.17754093459E+04  0.46999998093E+01 0.  1.
</event>
<event>
 5   0  0.4591195E-07  0.3615808E+04  0.7818609E-02  0.8086880E-01
        1   -1    0    0  501    0  0.00000000000E+00  0.00000000000E+00  0.25788287874E+04  0.25788287874E+04  0.50400001928E-02 0.  1.
       -1   -1    0    0    0  501  0.00000000000E+00  0.00000000000E+00 -0.12674426902E+04  0.12674426902E+04  0.50400001928E-02 0. -1.
    10030    2    1    2    0    0  0.00000000000E+00  0.00000000000E+00  0.13113860972E+04  0.38462714776E+04  0.36158084550E+04 0.  0.
        4    1    3    3  502    0 -0.16048536953E+04 -0.82135747964E+03  0.51166521362E+03  0.18740294546E+04  0.12699999809E+01 0.  1.
       -4    1    3    3    0  502  0.16048536953E+04  0.82135747964E+03  0.79972088359E+03  0.19722420230E+04  0.12699999809E+01 0. -1.
</event>
<event>
 5   0  0.1361560E-06  0.3364731E+04  0.7818609E-02  0.8146617E-01
        2   -1    0    0  501    0  0.00000000000E+00  0.00000000000E+00  0.20148368895E+04  0.20148368895E+04  0.25500000920E-02 0. -1.
       -2   -1    0    0    0  501  0.00000000000E+00  0.00000000000E+00 -0.14047554313E+04  0.14047554313E+04  0.25500000920E-02 0.  1.
    10030    2    1    2    0    0  0.00000000000E+00  0.00000000000E+00  0.61008145816E+03  0.34195923209E+04  0.33647306364E+04 0.  0.
        3    1    3    3  502    0  0.17257835097E+03  0.13335095468E+04  0.13326260594E+04  0.18931252529E+04  0.10100000352E+00 0. -1.
       -3    1    3    3    0  502 -0.17257835097E+03 -0.13335095468E+04 -0.72254460125E+03  0.15264670680E+04  0.10100000352E+00 0.  1.
</event>
<event>
 5   0  0.4409125E-07  0.2556463E+04  0.7818609E-02  0.8383142E-01
       -3   -1    0    0    0  501  0.00000000000E+00  0.00000000000E+00  0.79875227416E+03  0.79875228054E+03  0.10100000352E+00 0. -1.
        3   -1    0    0  501    0  0.00000000000E+00  0.00000000000E+00 -0.20455352393E+04  0.20455352418E+04  0.10100000352E+00 0.  1.
    10030    2    1    2    0    0  0.00000000000E+00  0.00000000000E+00 -0.12467829652E+04  0.28442875224E+04  0.25564631325E+04 0.  0.
        1    1    3    3  502    0 -0.72328614406E+03 -0.51260099600E+03 -0.16479223641E+04  0.18712431016E+04  0.50400001928E-02 0.  1.
       -1    1    3    3    0  502  0.72328614406E+03  0.51260099600E+03  0.40113939895E+03  0.97304442072E+03  0.50400001928E-02 0. -1.
</event>
<event>
 5   0  0.4700769E-07  0.3530617E+04  0.7818609E-02  0.8106572E-01
       -1   -1    0    0    0  501  0.00000000000E+00  0.00000000000E+00  0.19640487106E+04  0.19640487106E+04  0.50400001928E-02 0. -1.
        1   -1    0    0  501    0  0.00000000000E+00  0.00000000000E+00 -0.15866784739E+04  0.15866784739E+04  0.50400001928E-02 0.  1.
    10030    2    1    2    0    0  0.00000000000E+00  0.00000000000E+00  0.37737023664E+03  0.35507271845E+04  0.35306168361E+04 0.  0.
        3    1    3    3  502    0 -0.16684360081E+03 -0.62990334432E+03  0.18386699317E+04  0.19507234910E+04  0.10100000352E+00 0. -1.
       -3    1    3    3    0  502  0.16684360081E+03  0.62990334432E+03 -0.14612996951E+04  0.16000036935E+04  0.10100000352E+00 0.  1.
</event>
<event>
 5   0  0.4700769E-07  0.3465387E+04  0.7818609E-02  0.8122042E-01
       -1   -1    0    0    0  501  0.00000000000E+00  0.00000000000E+00  0.13662237630E+04  0.13662237630E+04  0.50400001928E-02 0.  1.
        1   -1    0    0  501    0  0.00000000000E+00  0.00000000000E+00 -0.21974634079E+04  0.21974634079E+04  0.50400001928E-02 0. -1.
    10030    2    1    2    0    0  0.00000000000E+00  0.00000000000E+00 -0.83123964490E+03  0.35636871709E+04  0.34653869776E+04 0.  0.
        3    1    3    3  502    0 -0.10676674176E+04  0.13513183766E+04 -0.21982026637E+03  0.17361728109E+04  0.10100000352E+00 0.  1.
       -3    1    3    3    0  502  0.10676674176E+04 -0.13513183766E+04 -0.61141937853E+03  0.18275143600E+04  0.10100000352E+00 0. -1.
</event>
<event>
 5   0  0.4693374E-07  0.3144352E+04  0.7818609E-02  0.8203670E-01
       -1   -1    0    0    0  501  0.00000000000E+00  0.00000000000E+00  0.14241724970E+04  0.14241724970E+04  0.50400001928E-02 0. -1.
        1   -1    0    0  501    0  0.00000000000E+00  0.00000000000E+00 -0.17355602249E+04  0.17355602250E+04  0.50400001928E-02 0.  1.
    10030    2    1    2    0    0  0.00000000000E+00  0.00000000000E+00 -0.31138772795E+03  0.31597327220E+04  0.31443518501E+04 0.  0.
        1    1    3    3  502    0 -0.12604771671E+03  0.12748949258E+04  0.76007726526E+03  0.14896182557E+04  0.50400001928E-02 0. -1.
       -1    1    3    3    0  502  0.12604771671E+03 -0.12748949258E+04 -0.10714649932E+04  0.16701144662E+04  0.50400001928E-02 0.  1.
</event>
<event>
 5   0  0.1361560E-06  0.3303204E+04  0.7818609E-02  0.8162081E-01
       -2   -1    0    0    0  501  0.00000000000E+00  0.00000000000E+00  0.99490324389E+03  0.99490324389E+03  0.25500000920E-02 0. -1.
        2   -1    0    0  501    0  0.00000000000E+00  0.00000000000E+00 -0.27417635878E+04  0.27417635878E+04  0.25500000920E-02 0.  1.
    10030    2    1    2    0    0  0.00000000000E+00  0.00000000000E+00 -0.17468603440E+04  0.37366668317E+04  0.33032041944E+04 0.  0.
        3    1    3    3  502    0  0.10873404645E+04 -0.91853888286E+03  0.74213955916E+02  0.14253177493E+04  0.10100000352E+00 0.  1.
       -3    1    3    3    0  502 -0.10873404645E+04  0.91853888286E+03 -0.18210742999E+04  0.23113490824E+04  0.10100000352E+00 0. -1.
</event>
<event>
 5   0  0.1361560E-06  0.3501757E+04  0.7818609E-02  0.8113374E-01
        2   -1    0    0  501    0  0.00000000000E+00  0.00000000000E+00  0.13064509415E+04  0.13064509415E+04  0.25500000920E-02 0.  1.
       -2   -1    0    0    0  501  0.00000000000E+00  0.00000000000E+00 -0.23464913517E+04  0.23464913517E+04  0.25500000920E-02 0. -1.
    10030    2    1    2    0    0  0.00000000000E+00  0.00000000000E+00 -0.10400404102E+04  0.36529422932E+04  0.35017571793E+04 0.  0.
        3    1    3    3  502    0 -0.15885509218E+04  0.33055997617E+03  0.16626775293E+03  0.16310759961E+04  0.10100000352E+00 0.  1.
       -3    1    3    3    0  502  0.15885509218E+04 -0.33055997617E+03 -0.12063081631E+04  0.20218662972E+04  0.10100000352E+00 0. -1.
</event>
<event>
 5   0  0.1348388E-06  0.3513910E+04  0.7818609E-02  0.8110501E-01
        2   -1    0    0  501    0  0.00000000000E+00  0.00000000000E+00  0.31422169923E+04  0.31422169923E+04  0.25500000920E-02 0.  1.
       -2   -1    0    0    0  501  0.00000000000E+00  0.00000000000E+00 -0.98239284924E+03  0.98239284924E+03  0.25500000920E-02 0. -1.
    10030    2    1    2    0    0  0.00000000000E+00  0.00000000000E+00  0.21598241430E+04  0.41246098415E+04  0.35139103597E+04 0.  0.
        5    1    3    3  502    0 -0.15972652123E+04  0.38064689215E+03  0.34619996890E+03  0.16781015236E+04  0.46999998093E+01 0. -1.
       -5    1    3    3    0  502  0.15972652123E+04 -0.38064689215E+03  0.18136241741E+04  0.24465083180E+04  0.46999998093E+01 0.  1.
</event>
<event>
 5   0  0.4591195E-07  0.3273007E+04  0.7818609E-02  0.8169798E-01
        1   -1    0    0  501    0  0.00000000000E+00  0.00000000000E+00  0.16198935874E+04  0.16198935874E+04  0.50400001928E-02 0. -1.
       -1   -1    0    0    0  501  0.00000000000E+00  0.00000000000E+00 -0.16532840792E+04  0.16532840792E+04  0.50400001928E-02 0.  1.
    10030    2    1    2    0    0  0.00000000000E+00  0.00000000000E+00 -0.33390491731E+02  0.32731776666E+04  0.32730073499E+04 0.  0.
        4    1    3    3  502    0  0.81717069899E+02  0.11032864686E+04  0.11892795897E+04  0.16242863869E+04  0.12699999809E+01 0. -1.
       -4    1    3    3    0  502 -0.81717069899E+02 -0.11032864686E+04 -0.12226700814E+04  0.16488912797E+04  0.12699999809E+01 0.  1.
</event>
<event>
 5   0  0.4591195E-07  0.3256912E+04  0.7818609E-02  0.8173947E-01
       -1   -1    0    0    0  501  0.00000000000E+00  0.00000000000E+00  0.25473138363E+04  0.25473138363E+04  0.50400001928E-02 0. -1.
        1   -1    0    0  501    0  0.00000000000E+00  0.00000000000E+00 -0.10410449848E+04  0.10410449848E+04  0.50400001928E-02 0.  1.
    10030    2    1    2    0    0  0.00000000000E+00  0.00000000000E+00  0.15062688515E+04  0.35883588212E+04  0.32569116009E+04 0.  0.
        4    1    3    3  502    0  0.12408062162E+04  0.90360333062E+03  0.13523253381E+04  0.20456990195E+04  0.12699999809E+01 0. -1.
       -4    1    3    3    0  502 -0.12408062162E+04 -0.90360333062E+03  0.15394351338E+03  0.15426598016E+04  0.12699999809E+01 0.  1.
</event>
<event>
 5   0  0.1378620E-06  0.3568023E+04  0.7818609E-02  0.8097856E-01
       -2   -1    0    0    0  501  0.00000000000E+00  0.00000000000E+00  0.13945036167E+04  0.13945036168E+04  0.25500000920E-02 0.  1.
        2   -1    0    0  501    0  0.00000000000E+00  0.00000000000E+00 -0.22823150629E+04  0.22823150629E+04  0.25500000920E-02 0. -1.
    10030    2    1    2    0    0  0.00000000000E+00  0.00000000000E+00 -0.88781144613E+03  0.36768186796E+04  0.35680227632E+04 0.  0.
        2    1    3    3  502    0  0.10547030672E+04 -0.13779699002E+04 -0.87065507049E+03  0.19414530274E+04  0.25500000920E-02 0.  1.
       -2    1    3    3    0  502 -0.10547030672E+04  0.13779699002E+04 -0.17156375642E+02  0.17353656522E+04  0.25500000920E-02 0. -1.
</event>
<event>
 5   0  0.1361560E-06  0.3386418E+04  0.7818609E-02  0.8141248E-01
       -2   -1    0    0    0  501  0.00000000000E+00  0.00000000000E+00  0.12066797016E+04  0.12066797017E+04  0.25500000920E-02 0. -1.
        2   -1    0    0  501    0  0.00000000000E+00  0.00000000000E+00 -0.23759053949E+04  0.23759053949E+04  0.25500000920E-02 0.  1.
    10030    2    1    2    0    0  0.00000000000E+00  0.00000000000E+00 -0.11692256932E+04  0.35825850965E+04  0.33864180563E+04 0.  0.
        3    1    3    3  502    0 -0.14745969237E+04 -0.33237361953E+03  0.22250235696E+03  0.15278794519E+04  0.10100000352E+00 0. -1.
       -3    1    3    3    0  502  0.14745969237E+04  0.33237361953E+03 -0.13917280502E+04  0.20547056447E+04  0.10100000352E+00 0.  1.
</event>
<event>
 5   0  0.4693374E-07  0.3473147E+04  0.7818609E-02  0.8120183E-01
        1   -1    0    0  501    0  0.00000000000E+00  0.00000000000E+00  0.17690308641E+04  0.17690308641E+04  0.50400001928E-02 0.  1.
       -1   -1    0    0    0  501  0.00000000000E+00  0.00000000000E+00 -0.17047118036E+04  0.17047118036E+04  0.50400001928E-02 0. -1.
    10030    2    1    2    0    0  0.00000000000E+00  0.00000000000E+00  0.64319060431E+02  0.34737426677E+04  0.34731471578E+04 0.  0.
        1    1    3    3  502    0  0.11317093006E+04  0.11770301230E+04  0.62346470747E+03  0.17478198113E+04  0.50400001928E-02 0.  1.
       -1    1    3    3    0  502 -0.11317093006E+04 -0.11770301230E+04 -0.55914564704E+03  0.17259228563E+04  0.50400001928E-02 0. -1.
</event>
<event>
 5   0  0.1348388E-06  0.3512879E+04  0.7818609E-02  0.8110744E-01
        2   -1    0    0  501    0  0.00000000000E+00  0.00000000000E+00  0.23061660985E+04  0.23061660985E+04  0.25500000920E-02 0. -1.
       -2   -1    0    0    0  501  0.00000000000E+00  0.00000000000E+00 -0.13377528981E+04  0.13377528981E+04  0.25500000920E-02 0.  1.
    10030    2    1    2    0    0  0.00000000000E+00  0.00000000000E+00  0.96841320049E+03  0.36439189966E+04  0.35128793784E+04 0.  0.
        5    1    3    3  502    0 -0.16705684130E+03  0.12374317955E+04  0.17655641802E+04  0.21624949482E+04  0.46999998093E+01 0. -1.
       -5    1    3    3    0  502  0.16705684130E+03 -0.12374317955E+04 -0.79715097972E+03  0.14814240484E+04  0.46999998093E+01 0.  1.
</event>
<event>
 5   0  0.4591195E-07  0.3529666E+04  0.7818609E-02  0.8106795E-01
        1   -1    0    0  501    0  0.00000000000E+00  0.00000000000E+00  0.21760003845E+04  0.21760003845E+04  0.50400001928E-02 0.  1.
       -1   -1    0    0    0  501  0.00000000000E+00  0.00000000000E+00 -0.14313577731E+04  0.14313577731E+04  0.50400001928E-02 0. -1.
    10030    2    1    2    0    0  0.00000000000E+00  0.00000000000E+00  0.74464261133E+03  0.36073581576E+04  0.35296657432E+04 0.  0.
        4    1    3    3  502    0 -0.15020548115E+04  0.82580415464E+03 -0.57060029409E+02  0.17150447862E+04  0.12699999809E+01 0.  1.
       -4    1    3    3    0  502  0.15020548115E+04 -0.82580415464E+03  0.80170264074E+03  0.18923133714E+04  0.12699999809E+01 0. -1.
</event>
<event>
 5   0  0.4409125E-07  0.3399985E+04  0.7818609E-02  0.8137910E-01
        1   -1    0    0  501    0  0.00000000000E+00  0.00000000000E+00  0.12189314203E+04  0.12189314203E+04  0.50400001928E-02 0.  1.
       -1   -1    0    0    0  501  0.00000000000E+00  0.00000000000E+00 -0.23709083012E+04  0.23709083012E+04  0.50400001928E-02 0. -1.
    10030    2    1    2    0    0  0.00000000000E+00  0.00000000000E+00 -0.11519768809E+04  0.35898397215E+04  0.33999850723E+04 0.  0.
        5    1    3    3  502    0 -0.78952722022E+02  0.10819933086E+04  0.80591574355E+03  0.13514678420E+04  0.46999998093E+01 0.  1.
       -5    1    3    3    0  502  0.78952722022E+02 -0.10819933086E+04 -0.19578926244E+04  0.22383718795E+04  0.46999998093E+01 0. -1.
</event>
<event>
 5   0  0.1378620E-06  0.2649527E+04  0.7818609E-02  0.8351570E-01
       -2   -1    0    0    0  501  0.00000000000E+00  0.00000000000E+00  0.14542447934E+04  0.14542447934E+04  0.25500000920E-02 0. -1.
        2   -1    0    0  501    0  0.00000000000E+00  0.00000000000E+00 -0.12068112406E+04  0.12068112406E+04  0.25500000920E-02 0.  1.
    10030    2    1    2    0    0  0.00000000000E+00  0.00000000000E+00  0.24743355274E+03  0.26610560340E+04  0.26495274773E+04 0.  0.
        2    1    3    3  502    0 -0.85874822877E+03  0.42983670476E+03 -0.79282774185E+03  0.12453047585E+04  0.25500000920E-02 0.  1.
       -2    1    3    3    0  502  0.85874822877E+03 -0.42983670476E+03  0.10402612946E+04  0.14157512755E+04  0.25500000920E-02 0. -1.
</event>
<event>
 5   0  0.4693374E-07  0.3473102E+04  0.7818609E-02  0.8120194E-01
       -1   -1    0    0    0  501  0.00000000000E+00  0.00000000000E+00  0.10924428961E+04  0.10924428962E+04  0.50400001928E-02 0. -1.
        1   -1    0    0  501    0  0.00000000000E+00  0.00000000000E+00 -0.27604276205E+04  0.27604276205E+04  0.50400001928E-02 0.  1.
    10030    2    1    2    0    0  0.00000000000E+00  0.00000000000E+00 -0.16679847244E+04  0.38528705167E+04  0.34731020972E+04 0.  0.
        1    1    3    3  502    0 -0.17203670538E+04 -0.23117863635E+03 -0.77848978891E+03  0.19024070840E+04  0.50400001928E-02 0.  1.
       -1    1    3    3    0  502  0.17203670538E+04  0.23117863635E+03 -0.88949493545E+03  0.19504634326E+04  0.50400001928E-02 0. -1.
</event>
<event>
 5   0  0.4557237E-07  0.3500574E+04  0.7818609E-02  0.8113654E-01
       -1   -1    0    0    0  501  0.00000000000E+00  0.00000000000E+00  0.15493594613E+04  0.15493594613E+04  0.50400001928E-02 0. -1.
        1   -1    0    0  501    0  0.00000000000E+00  0.00000000000E+00 -0.19772721766E+04  0.19772721766E+04  0.50400001928E-02 0.  1.
    10030    2    1    2    0    0  0.00000000000E+00  0.00000000000E+00 -0.42791271534E+03  0.35266316379E+04  0.35005744411E+04 0.  0.
        2    1    3    3  502    0  0.64510741896E+03  0.13737966328E+04 -0.10922396111E+04  0.18698845254E+04  0.25500000920E-02 0.  1.
       -2    1    3    3    0  502 -0.64510741896E+03 -0.13737966328E+04  0.66432689574E+03  0.16567471125E+04  0.25500000920E-02 0. -1.
</event>
<event>
 5   0  0.1348388E-06  0.3088378E+04  0.7818609E-02  0.8218935E-01
       -2   -1    0    0    0  501  0.00000000000E+00  0.00000000000E+00  0.10616362991E+04  0.10616362991E+04  0.25500000920E-02 0.  1.
        2   -1    0    0  501    0  0.00000000000E+00  0.00000000000E+00 -0.22460793363E+04  0.22460793363E+04  0.25500000920E-02 0. -1.
    10030    2    1    2    0    0  0.00000000000E+00  0.00000000000E+00 -0.11844430372E+04  0.33077156353E+04  0.30883777968E+04 0.  0.
        5    1    3    3  502    0  0.12205111450E+04  0.17746167895E+03 -0.15873817044E+04  0.20102096577E+04  0.46999998093E+01 0. -1.
       -5    1    3    3    0  502 -0.12205111450E+04 -0.17746167895E+03  0.40293866720E+03  0.12975059776E+04  0.46999998093E+01 0.  1.
</event>
<event>
 5   0  0.1387133E-06  0.3509260E+04  0.7818609E-02  0.8111599E-01
        2   -1    0    0  501    0  0.00000000000E+00  0.00000000000E+00  0.24739011915E+04  0.24739011915E+04  0.25500000920E-02 0. -1.
       -2   -1    0    0    0  501  0.00000000000E+00  0.00000000000E+00 -0.12444821604E+04  0.12444821604E+04  0.25500000920E-02 0.  1.
    10030    2    1    2    0    0  0.00000000000E+00  0.00000000000E+00  0.12294190312E+04  0.37183833519E+04  0.35092596936E+04 0.  0.
        4    1    3    3  502    0  0.25391878298E+03 -0.10525837978E+04  0.20776821455E+04  0.23428982288E+04  0.12699999809E+01 0. -1.
       -4    1    3    3    0  502 -0.25391878298E+03  0.10525837978E+04 -0.84826311436E+03  0.13754851231E+04  0.12699999809E+01 0.  1.
</event>
<event>
 5   0  0.4557237E-07  0.3387308E+04  0.7818609E-02  0.8141028E-01
       -1   -1    0    0    0  501  0.00000000000E+00  0.00000000000E+00  0.91701153136E+03  0.91701153137E+03  0.50400001928E-02 0.  1.
        1   -1    0    0  501    0  0.00000000000E+00  0.00000000000E+00 -0.31280559083E+04  0.31280559083E+04  0.50400001928E-02 0. -1.
    10030    2    1    2    0    0  0.00000000000E+00  0.00000000000E+00 -0.22110443769E+04  0.40450674396E+04  0.33873076852E+04 0.  0.
        2    1    3    3  502    0  0.13556942635E+04 -0.88105835107E+03 -0.50332604893E+03  0.16933717447E+04  0.25500000920E-02 0.  1.
       -2    1    3    3    0  502 -0.13556942635E+04  0.88105835107E+03 -0.17077183280E+04  0.23516956950E+04  0.25500000920E-02 0. -1.
</event>
<event>
 5   0  0.4700769E-07  0.2579645E+04  0.7818609E-02  0.8375148E-01
       -1   -1    0    0    0  501  0.00000000000E+00  0.00000000000E+00  0.15262712262E+04  0.15262712262E+04  0.50400001928E-02 0.  1.
        1   -1    0    0  501    0  0.00000000000E+00  0.00000000000E+00 -0.10900043062E+04  0.10900043062E+04  0.50400001928E-02 0. -1.
    10030    2    1    2    0    0  0.00000000000E+00  0.00000000000E+00  0.43626692007E+03  0.26162755324E+04  0.25796450989E+04 0.  0.
        3    1    3    3  502    0  0.66800818789E+03 -0.85926043010E+03  0.92011708743E+03  0.14251943343E+04  0.10100000352E+00 0.  1.
       -3    1    3    3    0  502 -0.66800818789E+03  0.85926043010E+03 -0.48385016736E+03  0.11910811981E+04  0.10100000352E+00 0. -1.
</event>
<event>
 5   0  0.4557237E-07  0.3559795E+04  0.7818609E-02  0.8099764E-01
       -1   -1    0    0    0  501  0.00000000000E+00  0.00000000000E+00  0.10963485570E+04  0.10963485570E+04  0.50400001928E-02 0. -1.
        1   -1    0    0  501    0  0.00000000000E+00  0.00000000000E+00 -0.28896237067E+04  0.28896237067E+04  0.50400001928E-02 0.  1.
    10030    2    1    2    0    0  0.00000000000E+00  0.00000000000E+00 -0.17932751497E+04  0.39859722636E+04  0.35597948149E+04 0.  0.
        2    1    3    3  502    0 -0.12309130945E+04  0.53246581993E+03  0.41365830512E+03  0.14034885426E+04  0.25500000920E-02 0. -1.
       -2    1    3    3    0  502  0.12309130945E+04 -0.53246581993E+03 -0.22069334548E+04  0.25824837211E+04  0.25500000920E-02 0.  1.
</event>
<event>
 5   0  0.1361560E-06  0.3494713E+04  0.7818609E-02  0.8115044E-01
       -2   -1    0    0    0  501  0.00000000000E+00  0.00000000000E+00  0.21926372837E+04  0.21926372837E+04  0.25500000920E-02 0. -1.
        2   -1    0    0  501    0  0.00000000000E+00  0.00000000000E+00 -0.13925029565E+04  0.13925029565E+04  0.25500000920E-02 0.  1.
    10030    2    1    2    0    0  0.00000000000E+00  0.00000000000E+00  0.80013432725E+03  0.35851402403E+04  0.34947125205E+04 0.  0.
        3    1    3    3  502    0  0.54274836231E+03  0.15007140980E+04 -0.33006175716E+03  0.16296193919E+04  0.10100000352E+00 0.  1.
       -3    1    3    3    0  502 -0.54274836231E+03 -0.15007140980E+04  0.11301960844E+04  0.19555208483E+04  0.10100000352E+00 0. -1.
</event>
<event>
 5   0  0.4409125E-07  0.3588110E+04  0.7818609E-02  0.8093221E-01
        3   -1    0    0  501    0  0.00000000000E+00  0.00000000000E+00  0.19835646367E+04  0.19835646393E+04  0.10100000352E+00 0.  1.
       -3   -1    0    0    0  501  0.00000000000E+00  0.00000000000E+00 -0.16226508857E+04  0.16226508889E+04  0.10100000352E+00 0. -1.
    10030    2    1    2    0    0  0.00000000000E+00  0.00000000000E+00  0.36091375103E+03  0.36062155282E+04  0.35881097670E+04 0.  0.
        3    1    3    3  502    0 -0.79231470979E+01 -0.12146174485E+04 -0.11465368180E+04  0.16703008734E+04  0.10100000352E+00 0. -1.
       -3    1    3    3    0  502  0.79231470979E+01  0.12146174485E+04  0.15074505690E+04  0.19359146548E+04  0.10100000352E+00 0.  1.
</event>
<event>
 5   0  0.4591195E-07  0.2777235E+04  0.7818609E-02  0.8310371E-01
       -1   -1    0    0    0  501  0.00000000000E+00  0.00000000000E+00  0.15921650575E+04  0.15921650575E+04  0.50400001928E-02 0. -1.
        1   -1    0    0  501    0  0.00000000000E+00  0.00000000000E+00 -0.12110920874E+04  0.12110920874E+04  0.50400001928E-02 0.  1.
    10030    2    1    2    0    0  0.00000000000E+00  0.00000000000E+00  0.38107297013E+03  0.28032571450E+04  0.27772349581E+04 0.  0.
        4    1    3    3  502    0 -0.64354112424E+03 -0.11661006915E+04  0.58705427092E+03  0.14555309448E+04  0.12699999809E+01 0. -1.
       -4    1    3    3    0  502  0.64354112424E+03  0.11661006915E+04 -0.20598130078E+03  0.13477262002E+04  0.12699999809E+01 0.  1.
</event>
<event>
 5   0  0.4700769E-07  0.3398351E+04  0.7818609E-02  0.8138311E-01
        1   -1    0    0  501    0  0.00000000000E+00  0.00000000000E+00  0.18427932406E+04  0.18427932406E+04  0.50400001928E-02 0. -1.
       -1   -1    0    0    0  501  0.00000000000E+00  0.00000000000E+00 -0.15667509689E+04  0.15667509689E+04  0.50400001928E-02 0.  1.
    10030    2    1    2    0    0  0.00000000000E+00  0.00000000000E+00  0.27604227172E+03  0.34095442095E+04  0.33983514210E+04 0.  0.
        3    1    3    3  502    0 -0.77942203136E+03  0.12777349182E+03 -0.13713850828E+04  0.15825681103E+04  0.10100000352E+00 0.  1.
       -3    1    3    3    0  502  0.77942203136E+03 -0.12777349182E+03  0.16474273546E+04  0.18269760992E+04  0.10100000352E+00 0. -1.
</event>
<event>
 5   0  0.1442864E-06  0.3460310E+04  0.7818609E-02  0.8123261E-01
       -2   -1    0    0    0  501  0.00000000000E+00  0.00000000000E+00  0.14877023937E+04  0.14877023937E+04  0.25500000920E-02 0. -1.
        2   -1    0    0  501    0  0.00000000000E+00  0.00000000000E+00 -0.20121204164E+04  0.20121204164E+04  0.25500000920E-02 0.  1.
    10030    2    1    2    0    0  0.00000000000E+00  0.00000000000E+00 -0.52441802274E+03  0.34998228102E+04  0.34603100208E+04 0.  0.
        1    1    3    3  502    0 -0.11501729602E+04 -0.12916403188E+04 -0.21472821652E+03  0.17427968207E+04  0.50400001928E-02 0. -1.
       -1    1    3    3    0  502  0.11501729602E+04  0.12916403188E+04 -0.30968980622E+03  0.17570259894E+04  0.50400001928E-02 0.  1.
</event>
<event>
 5   0  0.4693374E-07  0.3535284E+04  0.7818609E-02  0.8105479E-01
        1   -1    0    0  501    0  0.00000000000E+00  0.00000000000E+00  0.21332077525E+04  0.21332077526E+04  0.50400001928E-02 0.  1.
       -1   -1    0    0    0  501  0.00000000000E+00  0.00000000000E+00 -0.14647230496E+04  0.14647230496E+04  0.50400001928E-02 0. -1.
    10030    2    1    2    0    0  0.00000000000E+00  0.00000000000E+00  0.66848470298E+03  0.35979308021E+04  0.35352841836E+04 0.  0.
        1    1    3    3  502    0 -0.10091169079E+04  0.12386694946E+04 -0.43542581987E+03  0.16559633737E+04  0.50400001928E-02 0. -1.
       -1    1    3    3    0  502  0.10091169079E+04 -0.12386694946E+04  0.11039105229E+04  0.19419674284E+04  0.50400001928E-02 0.  1.
</event>
<event>
 5   0  0.1361560E-06  0.3946567E+04  0.7818609E-02  0.8015413E-01
        2   -1    0    0  501    0  0.00000000000E+00  0.00000000000E+00  0.16371035731E+04  0.16371035731E+04  0.25500000920E-02 0. -1.
       -2   -1    0    0    0  501  0.00000000000E+00  0.00000000000E+00 -0.23784984889E+04  0.23784984889E+04  0.25500000920E-02 0.  1.
    10030    2    1    2    0    0  0.00000000000E+00  0.00000000000E+00 -0.74139491575E+03  0.40156020620E+04  0.39465673058E+04 0.  0.
        3    1    3    3  502    0 -0.15641477075E+04 -0.87837782144E+03 -0.12071125133E+04  0.21622271569E+04  0.10100000352E+00 0.  1.
       -3    1    3    3    0  502  0.15641477075E+04  0.87837782144E+03  0.46571759758E+03  0.18533749051E+04  0.10100000352E+00 0. -1.
</event>
<event>
 5   0  0.1361560E-06  0.3490428E+04  0.7818609E-02  0.8116062E-01
        2   -1    0    0  501    0  0.00000000000E+00  0.00000000000E+00  0.23658453227E+04  0.23658453227E+04  0.25500000920E-02 0.  1.
       -2   -1    0    0    0  501  0.00000000000E+00  0.00000000000E+00 -0.12873926638E+04  0.12873926638E+04  0.25500000920E-02 0. -1.
    10030    2    1    2    0    0  0.00000000000E+00  0.00000000000E+00  0.10784526588E+04  0.36532379865E+04  0.34904280037E+04 0.  0.
        3    1    3    3  502    0 -0.99991929486E+03 -0.10612710343E+04  0.15429346434E+04  0.21229183047E+04  0.10100000352E+00 0.  1.
       -3    1    3    3    0  502  0.99991929486E+03  0.10612710343E+04 -0.46448198453E+03  0.15303196818E+04  0.10100000352E+00 0. -1.
</event>
<event>
 5   0  0.1387133E-06  0.3472099E+04  0.7818609E-02  0.8120434E-01
        2   -1    0    0  501    0  0.00000000000E+00  0.00000000000E+00  0.12717569097E+04  0.12717569097E+04  0.25500000920E-02 0. -1.
       -2   -1    0    0    0  501  0.00000000000E+00  0.00000000000E+00 -0.23698457934E+04  0.23698457934E+04  0.25500000920E-02 0.  1.
    10030    2    1    2    0    0  0.00000000000E+00  0.00000000000E+00 -0.10980888837E+04  0.36416027032E+04  0.34720989403E+04 0.  0.
        4    1    3    3  502    0 -0.34418765668E+03 -0.61065505409E+03 -0.22148188266E+04  0.23230989617E+04  0.12699999809E+01 0.  1.
       -4    1    3    3    0  502  0.34418765668E+03  0.61065505409E+03  0.11167299429E+04  0.13185037415E+04  0.12699999809E+01 0. -1.
</event>
<event>
 5   0  0.4409125E-07  0.3497457E+04  0.7818609E-02  0.8114393E-01
        1   -1    0    0  501    0  0.00000000000E+00  0.00000000000E+00  0.20831817681E+04  0.20831817681E+04  0.50400001928E-02 0. -1.
       -1   -1    0    0    0  501  0.00000000000E+00  0.00000000000E+00 -0.14679711896E+04  0.14679711896E+04  0.50400001928E-02 0.  1.
    10030    2    1    2    0    0  0.00000000000E+00  0.00000000000E+00  0.61521057849E+03  0.35511529576E+04  0.34974566863E+04 0.  0.
        5    1    3    3  502    0 -0.83285958156E+03 -0.14158044802E+04  0.91670816814E+03  0.18810989778E+04  0.46999998093E+01 0. -1.
       -5    1    3    3    0  502  0.83285958156E+03  0.14158044802E+04 -0.30149758965E+03  0.16700539798E+04  0.46999998093E+01 0.  1.
</event>
<event>
 5   0  0.1387133E-06  0.3599117E+04  0.7818609E-02  0.8090694E-01
        2   -1    0    0  501    0  0.00000000000E+00  0.00000000000E+00  0.17322274153E+04  0.17322274153E+04  0.25500000920E-02 0. -1.
       -2   -1    0    0    0  501  0.00000000000E+00  0.00000000000E+00 -0.18695066235E+04  0.18695066235E+04  0.25500000920E-02 0.  1.
    10030    2    1    2    0    0  0.00000000000E+00  0.00000000000E+00 -0.13727920819E+03  0.36017340388E+04  0.35991169063E+04 0.  0.
        4    1    3    3  502    0  0.63481312601E+03 -0.41378287162E+03  0.15647865672E+04  0.17386093821E+04  0.12699999809E+01 0. -1.
       -4    1    3    3    0  502 -0.63481312601E+03  0.41378287162E+03 -0.17020657753E+04  0.18631246567E+04  0.12699999809E+01 0.  1.
</event>
<event>
 5   0  0.4409125E-07  0.3466931E+04  0.7818609E-02  0.8121672E-01
        1   -1    0    0  501    0  0.00000000000E+00  0.00000000000E+00  0.24018175279E+04  0.24018175279E+04  0.50400001928E-02 0. -1.
       -1   -1    0    0    0  501  0.00000000000E+00  0.00000000000E+00 -0.12510949618E+04  0.12510949618E+04  0.50400001928E-02 0.  1.
    10030    2    1    2    0    0  0.00000000000E+00  0.00000000000E+00  0.11507225661E+04  0.36529124897E+04  0.34669305204E+04 0.  0.
        5    1    3    3  502    0  0.57160486507E+03  0.15507610814E+04  0.11261742366E+04  0.19999706384E+04  0.46999998093E+01 0.  1.
       -5    1    3    3    0  502 -0.57160486507E+03 -0.15507610814E+04  0.24548329496E+02  0.16529418513E+04  0.46999998093E+01 0. -1.
</event>
<event>
 5   0  0.1442864E-06  0.3438806E+04  0.7818609E-02  0.8128447E-01
        2   -1    0    0  501    0  0.00000000000E+00  0.00000000000E+00  0.19460954481E+04  0.19460954481E+04  0.25500000920E-02 0. -1.
       -2   -1    0    0    0  501  0.00000000000E+00  0.00000000000E+00 -0.15191168190E+04  0.15191168191E+04  0.25500000920E-02 0.  1.
    10030    2    1    2    0    0  0.00000000000E+00  0.00000000000E+00  0.42697862902E+03  0.34652122671E+04  0.34388057966E+04 0.  0.
        1    1    3    3  502    0 -0.16349297566E+04  0.50678547335E+03  0.37758791271E+03  0.17528261343E+04  0.50400001928E-02 0. -1.
       -1    1    3    3    0  502  0.16349297566E+04 -0.50678547335E+03  0.49390716314E+02  0.17123861329E+04  0.50400001928E-02 0.  1.
</event>
<event>
 5   0  0.4557237E-07  0.2883409E+04  0.7818609E-02  0.8277831E-01
       -1   -1    0    0    0  501  0.00000000000E+00  0.00000000000E+00  0.12189345002E+04  0.12189345002E+04  0.50400001928E-02 0.  1.
        1   -1    0    0  501    0  0.00000000000E+00  0.00000000000E+00 -0.17051870534E+04  0.17051870534E+04  0.50400001928E-02 0. -1.
    10030    2    1    2    0    0  0.00000000000E+00  0.00000000000E+00 -0.48625255326E+03  0.29241215536E+04  0.28834086278E+04 0.  0.
        2    1    3    3  502    0 -0.69072257472E+03 -0.10738414233E+04 -0.92211578355E+03  0.15749700302E+04  0.25500000920E-02 0. -1.
       -2    1    3    3    0  502  0.69072257472E+03  0.10738414233E+04  0.43586323030E+03  0.13491515235E+04  0.25500000920E-02 0.  1.
</event>
<event>
 5   0  0.1348388E-06  0.3512601E+04  0.7818609E-02  0.8110810E-01
       -2   -1    0    0    0  501  0.00000000000E+00  0.00000000000E+00  0.15025957963E+04  0.15025957963E+04  0.25500000920E-02 0.  1.
        2   -1    0    0  501    0  0.00000000000E+00  0.00000000000E+00 -0.20528416847E+04  0.20528416847E+04  0.25500000920E-02 0. -1.
    10030    2    1    2    0    0  0.00000000000E+00  0.00000000000E+00 -0.55024588834E+03  0.35554374810E+04  0.35126009087E+04 0.  0.
        5    1    3    3  502    0 -0.11246844501E+04  0.81014651835E+03  0.81660196352E+03  0.16087614336E+04  0.46999998093E+01 0.  1.
       -5    1    3    3    0  502  0.11246844501E+04 -0.81014651835E+03 -0.13668478519E+04  0.19466760474E+04  0.46999998093E+01 0. -1.
</event>
<event>
 5   0  0.4700769E-07  0.3521581E+04  0.7818609E-02  0.8108695E-01
        1   -1    0    0  501    0  0.00000000000E+00  0.00000000000E+00  0.11097190410E+04  0.11097190410E+04  0.50400001928E-02 0.  1.
       -1   -1    0    0    0  501  0.00000000000E+00  0.00000000000E+00 -0.27938443877E+04  0.27938443877E+04  0.50400001928E-02 0. -1.
    10030    2    1    2    0    0  0.00000000000E+00  0.00000000000E+00 -0.16841253467E+04  0.39035634288E+04  0.35215805058E+04 0.  0.
        3    1    3    3  502    0 -0.14045613170E+04  0.73187147602E+03 -0.16949027143E+04  0.23197248914E+04  0.10100000352E+00 0. -1.
       -3    1    3    3    0  502  0.14045613170E+04 -0.73187147602E+03  0.10777367640E+02  0.15838385374E+04  0.10100000352E+00 0.  1.
</event>
<event>
 5   0  0.4700769E-07  0.3575760E+04  0.7818609E-02  0.8096067E-01
       -1   -1    0    0    0  501  0.00000000000E+00  0.00000000000E+00  0.17095534120E+04  0.17095534120E+04  0.50400001928E-02 0.  1.
        1   -1    0    0  501    0  0.00000000000E+00  0.00000000000E+00 -0.18697951909E+04  0.18697951910E+04  0.50400001928E-02 0. -1.
    10030    2    1    2    0    0  0.00000000000E+00  0.00000000000E+00 -0.16024177895E+03  0.35793486030E+04  0.35757599184E+04 0.  0.
        3    1    3    3  502    0 -0.16647019917E+04 -0.34492912513E+03  0.47388366849E+03  0.17648723932E+04  0.10100000352E+00 0.  1.
       -3    1    3    3    0  502  0.16647019917E+04  0.34492912513E+03 -0.63412544744E+03  0.18144762098E+04  0.10100000352E+00 0. -1.
</event>
<event>
 5   0  0.4700769E-07  0.3352966E+04  0.7818609E-02  0.8149547E-01
        1   -1    0    0  501    0  0.00000000000E+00  0.00000000000E+00  0.19661035718E+04  0.19661035718E+04  0.50400001928E-02 0.  1.
       -1   -1    0    0    0  501  0.00000000000E+00  0.00000000000E+00 -0.14295253716E+04  0.14295253716E+04  0.50400001928E-02 0. -1.
    10030    2    1    2    0    0  0.00000000000E+00  0.00000000000E+00  0.53657820022E+03  0.33956289435E+04  0.33529658150E+04 0.  0.
        3    1    3    3  502    0 -0.13456289309E+04  0.59924650934E+03 -0.54238449203E+03  0.15697116124E+04  0.10100000352E+00 0. -1.
       -3    1    3    3    0  502  0.13456289309E+04 -0.59924650934E+03  0.10789626923E+04  0.18259173311E+04  0.10100000352E+00 0.  1.
</event>
<event>
 5   0  0.4557237E-07  0.3468541E+04  0.7818609E-02  0.8121286E-01
        1   -1    0    0  501    0  0.00000000000E+00  0.00000000000E+00  0.19901427046E+04  0.19901427046E+04  0.50400001928E-02 0.  1.
       -1   -1    0    0    0  501  0.00000000000E+00  0.00000000000E+00 -0.15112954682E+04  0.15112954682E+04  0.50400001928E-02 0. -1.
    10030    2    1    2    0    0  0.00000000000E+00  0.00000000000E+00  0.47884723640E+03  0.35014381729E+04  0.34685407022E+04 0.  0.
        2    1    3    3  502    0  0.15753265328E+03  0.10145852090E+04  0.16503543862E+04  0.19436741711E+04  0.25500000920E-02 0.  1.
       -2    1    3    3    0  502 -0.15753265328E+03 -0.10145852090E+04 -0.11715071498E+04  0.15577640018E+04  0.25500000920E-02 0. -1.
</event>
<event>
 5   0  0.4409125E-07  0.3538425E+04  0.7818609E-02  0.8104744E-01
       -1   -1    0    0    0  501  0.00000000000E+00  0.00000000000E+00  0.12808085465E+04  0.12808085465E+04  0.50400001928E-02 0.  1.
        1   -1    0    0  501    0  0.00000000000E+00  0.00000000000E+00 -0.24438576271E+04  0.24438576271E+04  0.50400001928E-02 0. -1.
    10030    2    1    2    0    0  0.00000000000E+00  0.00000000000E+00 -0.11630490806E+04  0.37246661736E+04  0.35384254889E+04 0.  0.
        5    1    3    3  502    0 -0.75594720794E+03 -0.46890766226E+03 -0.21913182570E+04  0.23650007125E+04  0.46999998093E+01 0. -1.
       -5    1    3    3    0  502  0.75594720794E+03  0.46890766226E+03  0.10282691764E+04  0.13596654611E+04  0.46999998093E+01 0.  1.
</event>
<event>
 5   0  0.1348388E-06  0.2618468E+04  0.7818609E-02  0.8361955E-01
        2   -1    0    0  501    0  0.00000000000E+00  0.00000000000E+00  0.11727951477E+04  0.11727951477E+04  0.25500000920E-02 0. -1.
       -2   -1    0    0    0  501  0.00000000000E+00  0.00000000000E+00 -0.14615453909E+04  0.14615453909E+04  0.25500000920E-02 0.  1.
    10030    2    1    2    0    0  0.00000000000E+00  0.00000000000E+00 -0.28875024324E+03  0.26343405386E+04  0.26184677524E+04 0.  0.
        5    1    3    3  502    0 -0.10359582167E+04  0.79828223082E+03 -0.83950189888E+02  0.13105470885E+04  0.46999998093E+01 0. -1.
       -5    1    3    3    0  502  0.10359582167E+04 -0.79828223082E+03 -0.20480005335E+03  0.13237934501E+04  0.46999998093E+01 0.  1.
</event>
<event>
 5   0  0.4409125E-07  0.3453991E+04  0.7818609E-02  0.8124781E-01
        3   -1    0    0  501    0  0.00000000000E+00  0.00000000000E+00  0.15525590438E+04  0.15525590471E+04  0.10100000352E+00 0. -1.
       -3   -1    0    0    0  501  0.00000000000E+00  0.00000000000E+00 -0.19210305142E+04  0.19210305168E+04  0.10100000352E+00 0.  1.
    10030    2    1    2    0    0  0.00000000000E+00  0.00000000000E+00 -0.36847147033E+03  0.34735895640E+04  0.34539909141E+04 0.  0.
        1    1    3    3  502    0 -0.33429706972E+03 -0.86646522297E+03 -0.16485183723E+04  0.18921229710E+04  0.50400001928E-02 0.  1.
       -1    1    3    3    0  502  0.33429706972E+03  0.86646522297E+03  0.12800469020E+04  0.15814665930E+04  0.50400001928E-02 0. -1.
</event>
<event>
 5   0  0.1442864E-06  0.3448808E+04  0.7818609E-02  0.8126030E-01
        2   -1    0    0  501    0  0.00000000000E+00  0.00000000000E+00  0.18933534351E+04  0.18933534351E+04  0.25500000920E-02 0.  1.
       -2   -1    0    0    0  501  0.00000000000E+00  0.00000000000E+00 -0.15705303287E+04  0.15705303287E+04  0.25500000920E-02 0. -1.
    10030    2    1    2    0    0  0.00000000000E+00  0.00000000000E+00  0.32282310637E+03  0.34638837639E+04  0.34488079059E+04 0.  0.
        1    1    3    3  502    0 -0.11880782219E+03  0.88492024412E+03  0.16431128321E+04  0.18700317955E+04  0.50400001928E-02 0.  1.
       -1    1    3    3    0  502  0.11880782219E+03 -0.88492024412E+03 -0.13202897258E+04  0.15938519684E+04  0.50400001928E-02 0. -1.
</event>
<event>
 5   0  0.4693374E-07  0.3530243E+04  0.7818609E-02  0.8106660E-01
       -1   -1    0    0    0  501  0.00000000000E+00  0.00000000000E+00  0.13418188286E+04  0.13418188286E+04  0.50400001928E-02 0. -1.
        1   -1    0    0  501    0  0.00000000000E+00  0.00000000000E+00 -0.23219630224E+04  0.23219630224E+04  0.50400001928E-02 0.  1.
    10030    2    1    2    0    0  0.00000000000E+00  0.00000000000E+00 -0.98014419376E+03  0.36637818510E+04  0.35302428828E+04 0.  0.
        1    1    3    3  502    0 -0.16151379902E+04 -0.46009831256E+03 -0.10540359155E+04  0.19827639537E+04  0.50400001928E-02 0.  1.
       -1    1    3    3    0  502  0.16151379902E+04  0.46009831256E+03  0.73891721758E+02  0.16810178974E+04  0.50400001928E-02 0. -1.
</event>
<event>
 5   0  0.1387133E-06  0.3534041E+04  0.7818609E-02  0.8105770E-01
        2   -1    0    0  501    0  0.00000000000E+00  0.00000000000E+00  0.28463200428E+04  0.28463200428E+04  0.25500000920E-02 0. -1.
       -2   -1    0    0    0  501  0.00000000000E+00  0.00000000000E+00 -0.10969820536E+04  0.10969820536E+04  0.25500000920E-02 0.  1.
    10030    2    1    2    0    0  0.00000000000E+00  0.00000000000E+00  0.17493379893E+04  0.39433020964E+04  0.35340413159E+04 0.  0.
        4    1    3    3  502    0  0.11491396424E+04 -0.55488886186E+03 -0.48914311900E+03  0.13666331514E+04  0.12699999809E+01 0.  1.
       -4    1    3    3    0  502 -0.11491396424E+04  0.55488886186E+03  0.22384811083E+04  0.25766689450E+04  0.12699999809E+01 0. -1.
</event>
<event>
 5   0  0.1361560E-06  0.2615848E+04  0.7818609E-02  0.8362838E-01
        2   -1    0    0  501    0  0.00000000000E+00  0.00000000000E+00  0.18904832517E+04  0.18904832517E+04  0.25500000920E-02 0.  1.
       -2   -1    0    0    0  501  0.00000000000E+00  0.00000000000E+00 -0.90488279839E+03  0.90488279840E+03  0.25500000920E-02 0. -1.
    10030    2    1    2    0    0  0.00000000000E+00  0.00000000000E+00  0.98560045334E+03  0.27953660501E+04  0.26158484476E+04 0.  0.
        3    1    3    3  502    0  0.83572076512E+03  0.78933370138E+03 -0.17386271814E+03  0.11626285496E+04  0.10100000352E+00 0. -1.
       -3    1    3    3    0  502 -0.83572076512E+03 -0.78933370138E+03  0.11594631715E+04  0.16327375005E+04  0.10100000352E+00 0.  1.
</event>
<event>
 5   0  0.4700769E-07  0.2838030E+04  0.7818609E-02  0.8291558E-01
        1   -1    0    0  501    0  0.00000000000E+00  0.00000000000E+00  0.69004221513E+03  0.69004221515E+03  0.50400001928E-02 0. -1.
       -1   -1    0    0    0  501  0.00000000000E+00  0.00000000000E+00 -0.29180877922E+04  0.29180877922E+04  0.50400001928E-02 0.  1.
    10030    2    1    2    0    0  0.00000000000E+00  0.00000000000E+00 -0.22280455770E+04  0.36081300073E+04  0.28380301366E+04 0.  0.
        3    1    3    3  502    0 -0.23501162272E+03  0.12969668217E+04 -0.44580720946E+03  0.13914371986E+04  0.10100000352E+00 0. -1.
       -3    1    3    3    0  502  0.23501162272E+03 -0.12969668217E+04 -0.17822383676E+04  0.22166928088E+04  0.10100000352E+00 0.  1.
</event>
<event>
 5   0  0.4409125E-07  0.3492821E+04  0.7818609E-02  0.8115493E-01
       -1   -1    0    0    0  501  0.00000000000E+00  0.00000000000E+00  0.14803178445E+04  0.14803178446E+04  0.50400001928E-02 0. -1.
        1   -1    0    0  501    0  0.00000000000E+00  0.00000000000E+00 -0.20603348460E+04  0.20603348460E+04  0.50400001928E-02 0.  1.
    10030    2    1    2    0    0  0.00000000000E+00  0.00000000000E+00 -0.58001700143E+03  0.35406526905E+04  0.34928214602E+04 0.  0.
        5    1    3    3  502    0  0.12998448820E+04 -0.11263841186E+04 -0.59679202640E+03  0.18205825201E+04  0.46999998093E+01 0. -1.
       -5    1    3    3    0  502 -0.12998448820E+04  0.11263841186E+04  0.16775024965E+02  0.17200701704E+04  0.46999998093E+01 0.  1.
</event>
<event>
 5   0  0.4591195E-07  0.3731661E+04  0.7818609E-02  0.8060981E-01
        1   -1    0    0  501    0  0.00000000000E+00  0.00000000000E+00  0.22743050253E+04  0.22743050253E+04  0.50400001928E-02 0. -1.
       -1   -1    0    0    0  501  0.00000000000E+00  0.00000000000E+00 -0.15307197571E+04  0.15307197571E+04  0.50400001928E-02 0.  1.
    10030    2    1    2    0    0  0.00000000000E+00  0.00000000000E+00  0.74358526823E+03  0.38050247824E+04  0.37316610971E+04 0.  0.
        4    1    3    3  502    0  0.20449053367E+03  0.17795530703E+04 -0.16067729751E+03  0.17984560921E+04  0.12699999809E+01 0.  1.
       -4    1    3    3    0  502 -0.20449053367E+03 -0.17795530703E+04  0.90426256575E+03  0.20065686903E+04  0.12699999809E+01 0. -1.
</event>
<event>
 5   0  0.1348388E-06  0.3496052E+04  0.7818609E-02  0.8114726E-01
       -2   -1    0    0    0  501  0.00000000000E+00  0.00000000000E+00  0.15710110086E+04  0.15710110086E+04  0.25500000920E-02 0.  1.
        2   -1    0    0  501    0  0.00000000000E+00  0.00000000000E+00 -0.19449857745E+04  0.19449857745E+04  0.25500000920E-02 0. -1.
    10030    2    1    2    0    0  0.00000000000E+00  0.00000000000E+00 -0.37397476583E+03  0.35159967831E+04  0.34960515232E+04 0.  0.
        5    1    3    3  502    0 -0.37948315174E+03 -0.14134390262E+04  0.77437127061E+03  0.16557446355E+04  0.46999998093E+01 0.  1.
       -5    1    3    3    0  502  0.37948315174E+03  0.14134390262E+04 -0.11483460364E+04  0.18602521476E+04  0.46999998093E+01 0. -1.
</event>
<event>
 5   0  0.1378620E-06  0.3601330E+04  0.7818609E-02  0.8090187E-01
       -2   -1    0    0    0  501  0.00000000000E+00  0.00000000000E+00  0.22066961142E+04  0.22066961142E+04  0.25500000920E-02 0.  1.
        2   -1    0    0  501    0  0.00000000000E+00  0.00000000000E+00 -0.14693431569E+04  0.14693431569E+04  0.25500000920E-02 0. -1.
    10030    2    1    2    0    0  0.00000000000E+00  0.00000000000E+00  0.73735295724E+03  0.36760392711E+04  0.36013296626E+04 0.  0.
        2    1    3    3  502    0 -0.46891903460E+02 -0.38059979128E+03 -0.14271788961E+04  0.14778006135E+04  0.25500000920E-02 0. -1.
       -2    1    3    3    0  502  0.46891903460E+02  0.38059979128E+03  0.21645318533E+04  0.21982386576E+04  0.25500000920E-02 0.  1.
</event>
<event>
 5   0  0.1361560E-06  0.3417285E+04  0.7818609E-02  0.8133677E-01
        2   -1    0    0  501    0  0.00000000000E+00  0.00000000000E+00  0.20604581398E+04  0.20604581398E+04  0.25500000920E-02 0. -1.
       -2   -1    0    0    0  501  0.00000000000E+00  0.00000000000E+00 -0.14168982738E+04  0.14168982738E+04  0.25500000920E-02 0.  1.
    10030    2    1    2    0    0  0.00000000000E+00  0.00000000000E+00  0.64355986601E+03  0.34773564136E+04  0.34172852275E+04 0.  0.
        3    1    3    3  502    0  0.13144888886E+04 -0.83315856014E+03 -0.39590186666E+03  0.16058556980E+04  0.10100000352E+00 0.  1.
       -3    1    3    3    0  502 -0.13144888886E+04  0.83315856014E+03  0.10394617327E+04  0.18715007156E+04  0.10100000352E+00 0. -1.
</event>
<event>
 5   0  0.1378620E-06  0.3525755E+04  0.7818609E-02  0.8107713E-01
       -2   -1    0    0    0  501  0.00000000000E+00  0.00000000000E+00  0.20006944498E+04  0.20006944498E+04  0.25500000920E-02 0.  1.
        2   -1    0    0  501    0  0.00000000000E+00  0.00000000000E+00 -0.15533291442E+04  0.15533291442E+04  0.25500000920E-02 0. -1.
    10030    2    1    2    0    0  0.00000000000E+00  0.00000000000E+00  0.44736530555E+03  0.35540235940E+04  0.35257549532E+04 0.  0.
        2    1    3    3  502    0 -0.13325004519E+04 -0.10524313574E+04 -0.25400267911E+03  0.17168828083E+04  0.25500000920E-02 0. -1.
       -2    1    3    3    0  502  0.13325004519E+04  0.10524313574E+04  0.70136798466E+03  0.18371407857E+04  0.25500000920E-02 0.  1.
</event>
<event>
 5   0  0.1361560E-06  0.3445866E+04  0.7818609E-02  0.8126740E-01
       -2   -1    0    0    0  501  0.00000000000E+00  0.00000000000E+00  0.15199354639E+04  0.15199354639E+04  0.25500000920E-02 0.  1.
        2   -1    0    0  501    0  0.00000000000E+00  0.00000000000E+00 -0.19530425897E+04  0.19530425897E+04  0.25500000920E-02 0. -1.
    10030    2    1    2    0    0  0.00000000000E+00  0.00000000000E+00 -0.43310712576E+03  0.34729780535E+04  0.34458663320E+04 0.  0.
        3    1    3    3  502    0 -0.43788614342E+03 -0.47132197530E+03  0.13943365521E+04  0.15355986161E+04  0.10100000352E+00 0.  1.
       -3    1    3    3    0  502  0.43788614342E+03  0.47132197530E+03 -0.18274436778E+04  0.19373794375E+04  0.10100000352E+00 0. -1.
</event>
<event>
 5   0  0.1348388E-06  0.3509866E+04  0.7818609E-02  0.8111456E-01
        2   -1    0    0  501    0  0.00000000000E+00  0.00000000000E+00  0.23280372173E+04  0.23280372173E+04  0.25500000920E-02 0.  1.
       -2   -1    0    0    0  501  0.00000000000E+00  0.00000000000E+00 -0.13229123726E+04  0.13229123726E+04  0.25500000920E-02 0. -1.
    10030    2    1    2    0    0  0.00000000000E+00  0.00000000000E+00  0.10051248448E+04  0.36509495899E+04  0.35098656605E+04 0.  0.
        5    1    3    3  502    0  0.52333127848E+03  0.14456075594E+04  0.13828109438E+04  0.20678116546E+04  0.46999998093E+01 0.  1.
       -5    1    3    3    0  502 -0.52333127848E+03 -0.14456075594E+04 -0.37768609896E+03  0.15831379353E+04  0.46999998093E+01 0. -1.
</event>
<event>
 5   0  0.1387133E-06  0.3475895E+04  0.7818609E-02  0.8119526E-01
       -2   -1    0    0    0  501  0.00000000000E+00  0.00000000000E+00  0.15522280681E+04  0.15522280681E+04  0.25500000920E-02 0. -1.
        2   -1    0    0  501    0  0.00000000000E+00  0.00000000000E+00 -0.19458872951E+04  0.19458872951E+04  0.25500000920E-02 0.  1.
    10030    2    1    2    0    0  0.00000000000E+00  0.00000000000E+00 -0.39365922700E+03  0.34981153632E+04  0.34758946341E+04 0.  0.
        4    1    3    3  502    0 -0.70678050644E+03  0.10379801031E+04 -0.14059752399E+04  0.18851284749E+04  0.12699999809E+01 0.  1.
       -4    1    3    3    0  502  0.70678050644E+03 -0.10379801031E+04  0.10123160129E+04  0.16129868883E+04  0.12699999809E+01 0. -1.
</event>
<event>
 5   0  0.1387133E-06  0.3447742E+04  0.7818609E-02  0.8126287E-01
        2   -1    0    0  501    0  0.00000000000E+00  0.00000000000E+00  0.18559264256E+04  0.18559264256E+04  0.25500000920E-02 0.  1.
       -2   -1    0    0    0  501  0.00000000000E+00  0.00000000000E+00 -0.16012113026E+04  0.16012113026E+04  0.25500000920E-02 0. -1.
    10030    2    1    2    0    0  0.00000000000E+00  0.00000000000E+00  0.25471512296E+03  0.34571377282E+04  0.34477415039E+04 0.  0.
        4    1    3    3  502    0  0.16910074152E+04  0.25475603914E+03 -0.90771588740E+02  0.17124975364E+04  0.12699999809E+01 0. -1.
       -4    1    3    3    0  502 -0.16910074152E+04 -0.25475603914E+03  0.34548671170E+03  0.17446401918E+04  0.12699999809E+01 0.  1.
</event>
<event>
 5   0  0.4693374E-07  0.3523921E+04  0.7818609E-02  0.8108144E-01
        1   -1    0    0  501    0  0.00000000000E+00  0.00000000000E+00  0.12137796162E+04  0.12137796162E+04  0.50400001928E-02 0. -1.
       -1   -1    0    0    0  501  0.00000000000E+00  0.00000000000E+00 -0.25577175236E+04  0.25577175236E+04  0.50400001928E-02 0.  1.
    10030    2    1    2    0    0  0.00000000000E+00  0.00000000000E+00 -0.13439379074E+04  0.37714971397E+04  0.35239213351E+04 0.  0.
        1    1    3    3  502    0  0.74501263406E+03  0.16530042550E+03 -0.23716676584E+04  0.24914203855E+04  0.50400001928E-02 0.  1.
       -1    1    3    3    0  502 -0.74501263406E+03 -0.16530042550E+03  0.10277297510E+04  0.12800767542E+04  0.50400001928E-02 0. -1.
</event>
<event>
 5   0  0.1378620E-06  0.3483506E+04  0.7818609E-02  0.8117710E-01
        2   -1    0    0  501    0  0.00000000000E+00  0.00000000000E+00  0.16280585735E+04  0.16280585735E+04  0.25500000920E-02 0. -1.
       -2   -1    0    0    0  501  0.00000000000E+00  0.00000000000E+00 -0.18633869929E+04  0.18633869929E+04  0.25500000920E-02 0.  1.
    10030    2    1    2    0    0  0.00000000000E+00  0.00000000000E+00 -0.23532841947E+03  0.34914455664E+04  0.34835058028E+04 0.  0.
        2    1    3    3  502    0  0.88563281729E+02 -0.61427058925E+03  0.15134760115E+04  0.16357816019E+04  0.25500000920E-02 0. -1.
       -2    1    3    3    0  502 -0.88563281729E+02  0.61427058925E+03 -0.17488044309E+04  0.18556639646E+04  0.25500000920E-02 0.  1.
</event>
<event>
 5   0  0.4409125E-07  0.3535971E+04  0.7818609E-02  0.8105318E-01
       -1   -1    0    0    0  501  0.00000000000E+00  0.00000000000E+00  0.15227672196E+04  0.15227672196E+04  0.50400001928E-02 0. -1.
        1   -1    0    0  501    0  0.00000000000E+00  0.00000000000E+00 -0.20526925888E+04  0.20526925888E+04  0.50400001928E-02 0.  1.
    10030    2    1    2    0    0  0.00000000000E+00  0.00000000000E+00 -0.52992536919E+03  0.35754598084E+04  0.35359711459E+04 0.  0.
        5    1    3    3  502    0 -0.16465752811E+04 -0.61619513456E+03 -0.76211782513E+02  0.17597547914E+04  0.46999998093E+01 0. -1.
       -5    1    3    3    0  502  0.16465752811E+04  0.61619513456E+03 -0.45371358668E+03  0.18157050170E+04  0.46999998093E+01 0.  1.
</event>
<event>
 5   0  0.4693374E-07  0.3473413E+04  0.7818609E-02  0.8120120E-01
       -1   -1    0    0    0  501  0.00000000000E+00  0.00000000000E+00  0.22660117137E+04  0.22660117137E+04  0.50400001928E-02 0. -1.
        1   -1    0    0  501    0  0.00000000000E+00  0.00000000000E+00 -0.13310389026E+04  0.13310389026E+04  0.50400001928E-02 0.  1.
    10030    2    1    2    0    0  0.00000000000E+00  0.00000000000E+00  0.93497281118E+03  0.35970506163E+04  0.34734131598E+04 0.  0.
        1    1    3    3  502    0 -0.16991193408E+04  0.34407929575E+03  0.57487244631E+03  0.18264379063E+04  0.50400001928E-02 0. -1.
       -1    1    3    3    0  502  0.16991193408E+04 -0.34407929575E+03  0.36010036487E+03  0.17706127100E+04  0.50400001928E-02 0.  1.
</event>
<event>
 5   0  0.4409125E-07  0.3524144E+04  0.7818609E-02  0.8108092E-01
       -1   -1    0    0    0  501  0.00000000000E+00  0.00000000000E+00  0.21306719273E+04  0.21306719273E+04  0.50400001928E-02 0. -1.
        1   -1    0    0  501    0  0.00000000000E+00  0.00000000000E+00 -0.14572388568E+04  0.14572388568E+04  0.50400001928E-02 0.  1.
    10030    2    1    2    0    0  0.00000000000E+00  0.00000000000E+00  0.67343307049E+03  0.35879107841E+04  0.35241441081E+04 0.  0.
        5    1    3    3  502    0 -0.60288728266E+03 -0.16533069159E+04  0.42765805377E+03  0.18110246643E+04  0.46999998093E+01 0.  1.
       -5    1    3    3    0  502  0.60288728266E+03  0.16533069159E+04  0.24577501672E+03  0.17768861198E+04  0.46999998093E+01 0. -1.
</event>
<event>
 5   0  0.1442864E-06  0.3586897E+04  0.7818609E-02  0.8093500E-01
       -2   -1    0    0    0  501  0.00000000000E+00  0.00000000000E+00  0.22464702796E+04  0.22464702796E+04  0.25500000920E-02 0.  1.
        2   -1    0    0  501    0  0.00000000000E+00  0.00000000000E+00 -0.14317830544E+04  0.14317830544E+04  0.25500000920E-02 0. -1.
    10030    2    1    2    0    0  0.00000000000E+00  0.00000000000E+00  0.81468722525E+03  0.36782533340E+04  0.35868973102E+04 0.  0.
        1    1    3    3  502    0  0.46426186331E+02 -0.10263535986E+04  0.19147839315E+04  0.21730058915E+04  0.50400001928E-02 0.  1.
       -1    1    3    3    0  502 -0.46426186331E+02  0.10263535986E+04 -0.11000967062E+04  0.15052474425E+04  0.50400001928E-02 0. -1.
</event>
<event>
 5   0  0.1361560E-06  0.3252729E+04  0.7818609E-02  0.8175029E-01
        2   -1    0    0  501    0  0.00000000000E+00  0.00000000000E+00  0.19756656495E+04  0.19756656495E+04  0.25500000920E-02 0.  1.
       -2   -1    0    0    0  501  0.00000000000E+00  0.00000000000E+00 -0.13388204116E+04  0.13388204116E+04  0.25500000920E-02 0. -1.
    10030    2    1    2    0    0  0.00000000000E+00  0.00000000000E+00  0.63684523788E+03  0.33144860611E+04  0.32527290069E+04 0.  0.
        3    1    3    3  502    0 -0.15705716762E+04 -0.41025733839E+03  0.42060115036E+03  0.16768756101E+04  0.10100000352E+00 0. -1.
       -3    1    3    3    0  502  0.15705716762E+04  0.41025733839E+03  0.21624408752E+03  0.16376104510E+04  0.10100000352E+00 0.  1.
</event>
<event>
 5   0  0.1348388E-06  0.3511768E+04  0.7818609E-02  0.8111007E-01
       -2   -1    0    0    0  501  0.00000000000E+00  0.00000000000E+00  0.14030726793E+04  0.14030726793E+04  0.25500000920E-02 0. -1.
        2   -1    0    0  501    0  0.00000000000E+00  0.00000000000E+00 -0.21974114111E+04  0.21974114111E+04  0.25500000920E-02 0.  1.
    10030    2    1    2    0    0  0.00000000000E+00  0.00000000000E+00 -0.79433873178E+03  0.36004840904E+04  0.35117675983E+04 0.  0.
        5    1    3    3  502    0  0.93570015281E+03  0.99212100810E+03  0.73678545274E+03  0.15500689546E+04  0.46999998093E+01 0. -1.
       -5    1    3    3    0  502 -0.93570015281E+03 -0.99212100810E+03 -0.15311241845E+04  0.20504151358E+04  0.46999998093E+01 0.  1.
</event>
<event>
 5   0  0.4409125E-07  0.3667372E+04  0.7818609E-02  0.8075231E-01
       -1   -1    0    0    0  501  0.00000000000E+00  0.00000000000E+00  0.15726236237E+04  0.15726236237E+04  0.50400001928E-02 0. -1.
        1   -1    0    0  501    0  0.00000000000E+00  0.00000000000E+00 -0.21380857043E+04  0.21380857043E+04  0.50400001928E-02 0.  1.
    10030    2    1    2    0    0  0.00000000000E+00  0.00000000000E+00 -0.56546208062E+03  0.37107093280E+04  0.36673718590E+04 0.  0.
        5    1    3    3  502    0 -0.17404099783E+04 -0.46567732442E+03 -0.62808501325E+03  0.19079819540E+04  0.46999998093E+01 0.  1.
       -5    1    3    3    0  502  0.17404099783E+04  0.46567732442E+03  0.62622932624E+02  0.18027273739E+04  0.46999998093E+01 0. -1.
</event>
<event>
 5   0  0.1361560E-06  0.3521507E+04  0.7818609E-02  0.8108712E-01
        2   -1    0    0  501    0  0.00000000000E+00  0.00000000000E+00  0.22877029690E+04  0.22877029690E+04  0.25500000920E-02 0.  1.
       -2   -1    0    0    0  501  0.00000000000E+00  0.00000000000E+00 -0.13551813298E+04  0.13551813298E+04  0.25500000920E-02 0. -1.
    10030    2    1    2    0    0  0.00000000000E+00  0.00000000000E+00  0.93252163915E+03  0.36428842988E+04  0.35215066955E+04 0.  0.
        3    1    3    3  502    0  0.28530906624E+03 -0.57605697061E+03 -0.12294486908E+04  0.13873669270E+04  0.10100000352E+00 0. -1.
       -3    1    3    3    0  502 -0.28530906624E+03  0.57605697061E+03  0.21619703299E+04  0.22555173718E+04  0.10100000352E+00 0.  1.
</event>
<event>
 5   0  0.1387133E-06  0.3407749E+04  0.7818609E-02  0.8136007E-01
        2   -1    0    0  501    0  0.00000000000E+00  0.00000000000E+00  0.18919966607E+04  0.18919966607E+04  0.25500000920E-02 0.  1.
       -2   -1    0    0    0  501  0.00000000000E+00  0.00000000000E+00 -0.15344577594E+04  0.15344577594E+04  0.25500000920E-02 0. -1.
    10030    2    1    2    0    0  0.00000000000E+00  0.00000000000E+00  0.35753890129E+03  0.34264544202E+04  0.34077493786E+04 0.  0.
        4    1    3    3  502    0 -0.15691734301E+04  0.47855623786E+03 -0.28404612190E+03  0.16649339743E+04  0.12699999809E+01 0. -1.
       -4    1    3    3    0  502  0.15691734301E+04 -0.47855623786E+03  0.64158502319E+03  0.17615204459E+04  0.12699999809E+01 0.  1.
</event>
<event>
 5   0  0.1348388E-06  0.3512243E+04  0.7818609E-02  0.8110895E-01
       -2   -1    0    0    0  501  0.00000000000E+00  0.00000000000E+00  0.14039674390E+04  0.14039674390E+04  0.25500000920E-02 0. -1.
        2   -1    0    0  501    0  0.00000000000E+00  0.00000000000E+00 -0.21966062119E+04  0.21966062119E+04  0.25500000920E-02 0.  1.
    10030    2    1    2    0    0  0.00000000000E+00  0.00000000000E+00 -0.79263877294E+03  0.36005736509E+04  0.35122434983E+04 0.  0.
        5    1    3    3  502    0 -0.59265594334E+03 -0.29983666829E+03  0.12702335011E+04  0.14334079434E+04  0.46999998093E+01 0. -1.
       -5    1    3    3    0  502  0.59265594334E+03  0.29983666829E+03 -0.20628722741E+04  0.21671657075E+04  0.46999998093E+01 0.  1.
</event>
<event>
 5   0  0.4409125E-07  0.3420832E+04  0.7818609E-02  0.8132812E-01
       -1   -1    0    0    0  501  0.00000000000E+00  0.00000000000E+00  0.15888842960E+04  0.15888842960E+04  0.50400001928E-02 0.  1.
        1   -1    0    0  501    0  0.00000000000E+00  0.00000000000E+00 -0.18412437378E+04  0.18412437378E+04  0.50400001928E-02 0. -1.
    10030    2    1    2    0    0  0.00000000000E+00  0.00000000000E+00 -0.25235944177E+03  0.34301280338E+04  0.34208322145E+04 0.  0.
        5    1    3    3  502    0  0.48007263692E+03  0.77488153529E+03 -0.15773824102E+04  0.18218310812E+04  0.46999998093E+01 0. -1.
       -5    1    3    3    0  502 -0.48007263692E+03 -0.77488153529E+03  0.13250229685E+04  0.16082969525E+04  0.46999998093E+01 0.  1.
</event>
<event>
 5   0  0.1361560E-06  0.3560422E+04  0.7818609E-02  0.8099618E-01
       -2   -1    0    0    0  501  0.00000000000E+00  0.00000000000E+00  0.12563954155E+04  0.12563954155E+04  0.25500000920E-02 0. -1.
        2   -1    0    0  501    0  0.00000000000E+00  0.00000000000E+00 -0.25224153061E+04  0.25224153061E+04  0.25500000920E-02 0.  1.
    10030    2    1    2    0    0  0.00000000000E+00  0.00000000000E+00 -0.12660198906E+04  0.37788107215E+04  0.35604219000E+04 0.  0.
        3    1    3    3  502    0  0.15205120649E+04  0.87997737288E+03 -0.32754756635E+03  0.17870659011E+04  0.10100000352E+00 0. -1.
       -3    1    3    3    0  502 -0.15205120649E+04 -0.87997737288E+03 -0.93847232427E+03  0.19917448205E+04  0.10100000352E+00 0.  1.
</event>
<event>
 5   0  0.1442864E-06  0.3487299E+04  0.7818609E-02  0.8116807E-01
       -2   -1    0    0    0  501  0.00000000000E+00  0.00000000000E+00  0.16274878796E+04  0.16274878796E+04  0.25500000920E-02 0. -1.
        2   -1    0    0  501    0  0.00000000000E+00  0.00000000000E+00 -0.18681021767E+04  0.18681021767E+04  0.25500000920E-02 0.  1.
    10030    2    1    2    0    0  0.00000000000E+00  0.00000000000E+00 -0.24061429710E+03  0.34955900563E+04  0.34872990411E+04 0.  0.
        1    1    3    3  502    0  0.65558821761E+03 -0.13171909656E+04 -0.10582270566E+04  0.18123554989E+04  0.50400001928E-02 0.  1.
       -1    1    3    3    0  502 -0.65558821761E+03  0.13171909656E+04  0.81761275948E+03  0.16832345575E+04  0.50400001928E-02 0. -1.
</event>
<event>
 5   0  0.1387133E-06  0.3427808E+04  0.7818609E-02  0.8131115E-01
        2   -1    0    0  501    0  0.00000000000E+00  0.00000000000E+00  0.18723910533E+04  0.18723910533E+04  0.25500000920E-02 0. -1.
       -2   -1    0    0    0  501  0.00000000000E+00  0.00000000000E+00 -0.15688318115E+04  0.15688318115E+04  0.25500000920E-02 0.  1.
    10030    2    1    2    0    0  0.00000000000E+00  0.00000000000E+00  0.30355924177E+03  0.34412228648E+04  0.34278078406E+04 0.  0.
        4    1    3    3  502    0  0.48893519362E+02 -0.14436626687E+04 -0.77427968138E+03  0.16389213267E+04  0.12699999809E+01 0.  1.
       -4    1    3    3    0  502 -0.48893519362E+02  0.14436626687E+04  0.10778389231E+04  0.18023015381E+04  0.12699999809E+01 0. -1.
</event>
<event>
 5   0  0.1442864E-06  0.3420285E+04  0.7818609E-02  0.8132946E-01
       -2   -1    0    0    0  501  0.00000000000E+00  0.00000000000E+00  0.29339694941E+04  0.29339694941E+04  0.25500000920E-02 0.  1.
        2   -1    0    0  501    0  0.00000000000E+00  0.00000000000E+00 -0.99680231001E+03  0.99680231002E+03  0.25500000920E-02 0. -1.
    10030    2    1    2    0    0  0.00000000000E+00  0.00000000000E+00  0.19371671841E+04  0.39307718041E+04  0.34202851163E+04 0.  0.
        1    1    3    3  502    0  0.54322179076E+03 -0.55529503762E+03 -0.78233786308E+03  0.11024949092E+04  0.50400001928E-02 0. -1.
       -1    1    3    3    0  502 -0.54322179076E+03  0.55529503762E+03  0.27195050472E+04  0.28282768949E+04  0.50400001928E-02 0.  1.
</event>
<event>
 5   0  0.1361560E-06  0.3526625E+04  0.7818609E-02  0.8107509E-01
        2   -1    0    0  501    0  0.00000000000E+00  0.00000000000E+00  0.23029853521E+04  0.23029853521E+04  0.25500000920E-02 0.  1.
       -2   -1    0    0    0  501  0.00000000000E+00  0.00000000000E+00 -0.13501041842E+04  0.13501041842E+04  0.25500000920E-02 0. -1.
    10030    2    1    2    0    0  0.00000000000E+00  0.00000000000E+00  0.95288116786E+03  0.36530895363E+04  0.35266245391E+04 0.  0.
        3    1    3    3  502    0  0.13286426900E+04 -0.39687483142E+03 -0.65187168726E+03  0.15322329250E+04  0.10100000352E+00 0. -1.
       -3    1    3    3    0  502 -0.13286426900E+04  0.39687483142E+03  0.16047528551E+04  0.21208566113E+04  0.10100000352E+00 0.  1.
</event>
<event>
 5   0  0.1378620E-06  0.3653975E+04  0.7818609E-02  0.8078239E-01
       -2   -1    0    0    0  501  0.00000000000E+00  0.00000000000E+00  0.19147967259E+04  0.19147967259E+04  0.25500000920E-02 0.  1.
        2   -1    0    0  501    0  0.00000000000E+00  0.00000000000E+00 -0.17432050538E+04  0.17432050538E+04  0.25500000920E-02 0. -1.
    10030    2    1    2    0    0  0.00000000000E+00  0.00000000000E+00  0.17159167212E+03  0.36580017797E+04  0.36539750024E+04 0.  0.
        2    1    3    3  502    0  0.10101090572E+04  0.10865177899E+04 -0.98170104745E+03  0.17789261260E+04  0.25500000920E-02 0. -1.
       -2    1    3    3    0  502 -0.10101090572E+04 -0.10865177899E+04  0.11532927196E+04  0.18790756537E+04  0.25500000920E-02 0.  1.
</event>
<event>
 5   0  0.1442864E-06  0.3482689E+04  0.7818609E-02  0.8117905E-01
       -2   -1    0    0    0  501  0.00000000000E+00  0.00000000000E+00  0.15661474569E+04  0.15661474569E+04  0.25500000920E-02 0. -1.
        2   -1    0    0  501    0  0.00000000000E+00  0.00000000000E+00 -0.19361400912E+04  0.19361400912E+04  0.25500000920E-02 0.  1.
    10030    2    1    2    0    0  0.00000000000E+00  0.00000000000E+00 -0.36999263437E+03  0.35022875481E+04  0.34826891219E+04 0.  0.
        1    1    3    3  502    0  0.37962833849E+03  0.14108703737E+04  0.76775694904E+03  0.16504919326E+04  0.50400001928E-02 0. -1.
       -1    1    3    3    0  502 -0.37962833849E+03 -0.14108703737E+04 -0.11377495834E+04  0.18517956155E+04  0.50400001928E-02 0.  1.
</event>
<event>
 5   0  0.1378620E-06  0.2582923E+04  0.7818609E-02  0.8374025E-01
        2   -1    0    0  501    0  0.00000000000E+00  0.00000000000E+00  0.12103321128E+04  0.12103321128E+04  0.25500000920E-02 0.  1.
       -2   -1    0    0    0  501  0.00000000000E+00  0.00000000000E+00 -0.13780294128E+04  0.13780294128E+04  0.25500000920E-02 0. -1.
    10030    2    1    2    0    0  0.00000000000E+00  0.00000000000E+00 -0.16769729998E+03  0.25883615256E+04  0.25829233444E+04 0.  0.
        2    1    3    3  502    0 -0.27992887187E+03 -0.30944635974E+03 -0.13086150222E+04  0.13735321253E+04  0.25500000920E-02 0. -1.
       -2    1    3    3    0  502  0.27992887187E+03  0.30944635974E+03  0.11409177222E+04  0.12148294003E+04  0.25500000920E-02 0.  1.
</event>
<event>
 5   0  0.4693374E-07  0.3468877E+04  0.7818609E-02  0.8121206E-01
        1   -1    0    0  501    0  0.00000000000E+00  0.00000000000E+00  0.17793689554E+04  0.17793689554E+04  0.50400001928E-02 0. -1.
       -1   -1    0    0    0  501  0.00000000000E+00  0.00000000000E+00 -0.16906427057E+04  0.16906427057E+04  0.50400001928E-02 0.  1.
    10030    2    1    2    0    0  0.00000000000E+00  0.00000000000E+00  0.88726249640E+02  0.34700116611E+04  0.34688771354E+04 0.  0.
        1    1    3    3  502    0  0.13107915920E+04  0.39283597116E+03 -0.10217163766E+04  0.17077467763E+04  0.50400001928E-02 0.  1.
       -1    1    3    3    0  502 -0.13107915920E+04 -0.39283597116E+03  0.11104426262E+04  0.17622648848E+04  0.50400001928E-02 0. -1.
</event>
<event>
 5   0  0.4557237E-07  0.3497481E+04  0.7818609E-02  0.8114387E-01
       -1   -1    0    0    0  501  0.00000000000E+00  0.00000000000E+00  0.18464743364E+04  0.18464743364E+04  0.50400001928E-02 0.  1.
        1   -1    0    0  501    0  0.00000000000E+00  0.00000000000E+00 -0.16561796369E+04  0.16561796369E+04  0.50400001928E-02 0. -1.
    10030    2    1    2    0    0  0.00000000000E+00  0.00000000000E+00  0.19029469954E+03  0.35026539733E+04  0.34974809198E+04 0.  0.
        2    1    3    3  502    0 -0.15138102899E+04  0.73342960132E+03 -0.38363153156E+03  0.17253155439E+04  0.25500000920E-02 0.  1.
       -2    1    3    3    0  502  0.15138102899E+04 -0.73342960132E+03  0.57392623110E+03  0.17773384294E+04  0.25500000920E-02 0. -1.
</event>
<event>
 5   0  0.4591195E-07  0.3509490E+04  0.7818609E-02  0.8111545E-01
        1   -1    0    0  501    0  0.00000000000E+00  0.00000000000E+00  0.23821892431E+04  0.23821892431E+04  0.50400001928E-02 0. -1.
       -1   -1    0    0    0  501  0.00000000000E+00  0.00000000000E+00 -0.12925633269E+04  0.12925633269E+04  0.50400001928E-02 0.  1.
    10030    2    1    2    0    0  0.00000000000E+00  0.00000000000E+00  0.10896259162E+04  0.36747525699E+04  0.35094902497E+04 0.  0.
        4    1    3    3  502    0  0.86401998802E+03  0.75097902575E+03  0.19373360603E+04  0.22502827956E+04  0.12699999809E+01 0. -1.
       -4    1    3    3    0  502 -0.86401998802E+03 -0.75097902575E+03 -0.84771014404E+03  0.14244697744E+04  0.12699999809E+01 0.  1.
</event>
<event>
 5   0  0.4409125E-07  0.3502810E+04  0.7818609E-02  0.8113124E-01
        3   -1    0    0  501    0  0.00000000000E+00  0.00000000000E+00  0.26522104346E+04  0.26522104366E+04  0.10100000352E+00 0. -1.
       -3   -1    0    0    0  501  0.00000000000E+00  0.00000000000E+00 -0.11565520847E+04  0.11565520891E+04  0.10100000352E+00 0.  1.
    10030    2    1    2    0    0  0.00000000000E+00  0.00000000000E+00  0.14956583499E+04  0.38087625257E+04  0.35028100259E+04 0.  0.
        4    1    3    3  502    0  0.74666499358E+03 -0.14907844663E+04  0.16483487614E+03  0.16754459367E+04  0.12699999809E+01 0.  1.
       -4    1    3    3    0  502 -0.74666499358E+03  0.14907844663E+04  0.13308234738E+04  0.21333165890E+04  0.12699999809E+01 0. -1.
</event>
<event>
 5   0  0.1361560E-06  0.3459633E+04  0.7818609E-02  0.8123424E-01
       -2   -1    0    0    0  501  0.00000000000E+00  0.00000000000E+00  0.17660941006E+04  0.17660941006E+04  0.25500000920E-02 0.  1.
        2   -1    0    0  501    0  0.00000000000E+00  0.00000000000E+00 -0.16942839461E+04  0.16942839461E+04  0.25500000920E-02 0. -1.
    10030    2    1    2    0    0  0.00000000000E+00  0.00000000000E+00  0.71810154486E+02  0.34603780467E+04  0.34596328602E+04 0.  0.
        3    1    3    3  502    0 -0.42425413086E+03  0.16497937897E+04  0.33672516681E+03  0.17364316757E+04  0.10100000352E+00 0.  1.
       -3    1    3    3    0  502  0.42425413086E+03 -0.16497937897E+04 -0.26491501232E+03  0.17239463710E+04  0.10100000352E+00 0. -1.
</event>
<event>
 5   0  0.1361560E-06  0.3503716E+04  0.7818609E-02  0.8112910E-01
       -2   -1    0    0    0  501  0.00000000000E+00  0.00000000000E+00  0.12352419999E+04  0.12352419999E+04  0.25500000920E-02 0. -1.
        2   -1    0    0  501    0  0.00000000000E+00  0.00000000000E+00 -0.24845379375E+04  0.24845379375E+04  0.25500000920E-02 0.  1.
    10030    2    1    2    0    0  0.00000000000E+00  0.00000000000E+00 -0.12492959376E+04  0.37197799375E+04  0.35037155198E+04 0.  0.
        3    1    3    3  502    0  0.47443942603E+03  0.16665150655E+04 -0.89871519508E+03  0.19519360247E+04  0.10100000352E+00 0.  1.
       -3    1    3    3    0  502 -0.47443942603E+03 -0.16665150655E+04 -0.35058074249E+03  0.17678439127E+04  0.10100000352E+00 0. -1.
</event>
<event>
 5   0  0.4700769E-07  0.3462044E+04  0.7818609E-02  0.8122844E-01
        1   -1    0    0  501    0  0.00000000000E+00  0.00000000000E+00  0.13456241775E+04  0.13456241775E+04  0.50400001928E-02 0.  1.
       -1   -1    0    0    0  501  0.00000000000E+00  0.00000000000E+00 -0.22268015282E+04  0.22268015282E+04  0.50400001928E-02 0. -1.
    10030    2    1    2    0    0  0.00000000000E+00  0.00000000000E+00 -0.88117735070E+03  0.35724257057E+04  0.34620444682E+04 0.  0.
        3    1    3    3  502    0  0.17288795737E+04  0.63468480094E+02 -0.38055172287E+03  0.17714040907E+04  0.10100000352E+00 0.  1.
       -3    1    3    3    0  502 -0.17288795737E+04 -0.63468480094E+02 -0.50062562784E+03  0.18010216151E+04  0.10100000352E+00 0. -1.
</event>
<event>
 5   0  0.4591195E-07  0.3232647E+04  0.7818609E-02  0.8180248E-01
       -1   -1    0    0    0  501  0.00000000000E+00  0.00000000000E+00  0.19528198907E+04  0.19528198907E+04  0.50400001928E-02 0.  1.
        1   -1    0    0  501    0  0.00000000000E+00  0.00000000000E+00 -0.13378101751E+04  0.13378101751E+04  0.50400001928E-02 0. -1.
    10030    2    1    2    0    0  0.00000000000E+00  0.00000000000E+00  0.61500971563E+03  0.32906300658E+04  0.32326474104E+04 0.  0.
        4    1    3    3  502    0  0.13859469130E+04  0.38871256006E+03 -0.44090660315E+03  0.15054389877E+04  0.12699999809E+01 0.  1.
       -4    1    3    3    0  502 -0.13859469130E+04 -0.38871256006E+03  0.10559163188E+04  0.17851910781E+04  0.12699999809E+01 0. -1.
</event>
<event>
 5   0  0.4409125E-07  0.3414833E+04  0.7818609E-02  0.8134275E-01
        1   -1    0    0  501    0  0.00000000000E+00  0.00000000000E+00  0.15634527473E+04  0.15634527473E+04  0.50400001928E-02 0. -1.
       -1   -1    0    0    0  501  0.00000000000E+00  0.00000000000E+00 -0.18646361951E+04  0.18646361951E+04  0.50400001928E-02 0.  1.
    10030    2    1    2    0    0  0.00000000000E+00  0.00000000000E+00 -0.30118344786E+03  0.34280889424E+04  0.34148326939E+04 0.  0.
        5    1    3    3  502    0 -0.89736101425E+03 -0.13329368355E+04 -0.73012913249E+03  0.17649612000E+04  0.46999998093E+01 0. -1.
       -5    1    3    3    0  502  0.89736101425E+03  0.13329368355E+04  0.42894568464E+03  0.16631277424E+04  0.46999998093E+01 0.  1.
</event>
<event>
 5   0  0.1387133E-06  0.3144471E+04  0.7818609E-02  0.8203638E-01
       -2   -1    0    0    0  501  0.00000000000E+00  0.00000000000E+00  0.18312262212E+04  0.18312262212E+04  0.25500000920E-02 0.  1.
        2   -1    0    0  501    0  0.00000000000E+00  0.00000000000E+00 -0.13498742288E+04  0.13498742288E+04  0.25500000920E-02 0. -1.
    10030    2    1    2    0    0  0.00000000000E+00  0.00000000000E+00  0.48135199237E+03  0.31811004500E+04  0.31444713916E+04 0.  0.
        4    1    3    3  502    0 -0.15690058850E+03 -0.12164037068E+04 -0.75448387933E+03  0.14399664266E+04  0.12699999809E+01 0. -1.
       -4    1    3    3    0  502  0.15690058850E+03  0.12164037068E+04  0.12358358717E+04  0.17411340234E+04  0.12699999809E+01 0.  1.
</event>
<event>
 5   0  0.1387133E-06  0.3348618E+04  0.7818609E-02  0.8150634E-01
       -2   -1    0    0    0  501  0.00000000000E+00  0.00000000000E+00  0.91497830462E+03  0.91497830463E+03  0.25500000920E-02 0.  1.
        2   -1    0    0  501    0  0.00000000000E+00  0.00000000000E+00 -0.30637998501E+04  0.30637998501E+04  0.25500000920E-02 0. -1.
    10030    2    1    2    0    0  0.00000000000E+00  0.00000000000E+00 -0.21488215455E+04  0.39787781547E+04  0.33486178597E+04 0.  0.
        4    1    3    3  502    0  0.12012697992E+04  0.37412053010E+03 -0.23869620554E+04  0.26982595814E+04  0.12699999809E+01 0. -1.
       -4    1    3    3    0  502 -0.12012697992E+04 -0.37412053010E+03  0.23814050994E+03  0.12805185734E+04  0.12699999809E+01 0.  1.
</event>
<event>
 5   0  0.1361560E-06  0.3427697E+04  0.7818609E-02  0.8131142E-01
        2   -1    0    0  501    0  0.00000000000E+00  0.00000000000E+00  0.17754239137E+04  0.17754239137E+04  0.25500000920E-02 0.  1.
       -2   -1    0    0    0  501  0.00000000000E+00  0.00000000000E+00 -0.16544086033E+04  0.16544086033E+04  0.25500000920E-02 0. -1.
    10030    2    1    2    0    0  0.00000000000E+00  0.00000000000E+00  0.12101531038E+03  0.34298325171E+04  0.34276969513E+04 0.  0.
        3    1    3    3  502    0  0.83747770549E+03  0.14797350764E+04  0.27579695906E+03  0.17225123443E+04  0.10100000352E+00 0.  1.
       -3    1    3    3    0  502 -0.83747770549E+03 -0.14797350764E+04 -0.15478164868E+03  0.17073201728E+04  0.10100000352E+00 0. -1.
</event>
<event>
 5   0  0.4693374E-07  0.3484764E+04  0.7818609E-02  0.8117410E-01
        1   -1    0    0  501    0  0.00000000000E+00  0.00000000000E+00  0.22472383324E+04  0.22472383324E+04  0.50400001928E-02 0. -1.
       -1   -1    0    0    0  501  0.00000000000E+00  0.00000000000E+00 -0.13509447760E+04  0.13509447760E+04  0.50400001928E-02 0.  1.
    10030    2    1    2    0    0  0.00000000000E+00  0.00000000000E+00  0.89629355635E+03  0.35981831084E+04  0.34847639149E+04 0.  0.
        1    1    3    3  502    0 -0.11112911998E+04 -0.34247518941E+03  0.17879289505E+04  0.21328261341E+04  0.50400001928E-02 0. -1.
       -1    1    3    3    0  502  0.11112911998E+04  0.34247518941E+03 -0.89163539415E+03  0.14653569743E+04  0.50400001928E-02 0.  1.
</event>
<event>
 5   0  0.1387133E-06  0.3525029E+04  0.7818609E-02  0.8107884E-01
       -2   -1    0    0    0  501  0.00000000000E+00  0.00000000000E+00  0.13698580461E+04  0.13698580461E+04  0.25500000920E-02 0. -1.
        2   -1    0    0  501    0  0.00000000000E+00  0.00000000000E+00 -0.22677218688E+04  0.22677218688E+04  0.25500000920E-02 0.  1.
    10030    2    1    2    0    0  0.00000000000E+00  0.00000000000E+00 -0.89786382276E+03  0.36375799149E+04  0.35250288216E+04 0.  0.
        4    1    3    3  502    0 -0.15064722082E+04 -0.59631119031E+03  0.26705877510E+03  0.16420619817E+04  0.12699999809E+01 0. -1.
       -4    1    3    3    0  502  0.15064722082E+04  0.59631119031E+03 -0.11649225979E+04  0.19955179332E+04  0.12699999809E+01 0.  1.
</event>
<event>
 5   0  0.4591195E-07  0.3559184E+04  0.7818609E-02  0.8099906E-01
       -1   -1    0    0    0  501  0.00000000000E+00  0.00000000000E+00  0.15907508373E+04  0.15907508373E+04  0.50400001928E-02 0. -1.
        1   -1    0    0  501    0  0.00000000000E+00  0.00000000000E+00 -0.19908503970E+04  0.19908503970E+04  0.50400001928E-02 0.  1.
    10030    2    1    2    0    0  0.00000000000E+00  0.00000000000E+00 -0.40009955966E+03  0.35816012343E+04  0.35591835783E+04 0.  0.
        4    1    3    3  502    0  0.11250421453E+04  0.44520249453E+03  0.11131679755E+04  0.16441014702E+04  0.12699999809E+01 0. -1.
       -4    1    3    3    0  502 -0.11250421453E+04 -0.44520249453E+03 -0.15132675351E+04  0.19374997640E+04  0.12699999809E+01 0.  1.
</event>
<event>
 5   0  0.1442864E-06  0.3406930E+04  0.7818609E-02  0.8136208E-01
       -2   -1    0    0    0  501  0.00000000000E+00  0.00000000000E+00  0.14285426401E+04  0.14285426401E+04  0.25500000920E-02 0.  1.
        2   -1    0    0  501    0  0.00000000000E+00  0.00000000000E+00 -0.20312963212E+04  0.20312963212E+04  0.25500000920E-02 0. -1.
    10030    2    1    2    0    0  0.00000000000E+00  0.00000000000E+00 -0.60275368112E+03  0.34598389613E+04  0.34069302368E+04 0.  0.
        1    1    3    3  502    0 -0.28597652800E+03 -0.13862864575E+04  0.66108644610E+03  0.15622445410E+04  0.50400001928E-02 0.  1.
       -1    1    3    3    0  502  0.28597652800E+03  0.13862864575E+04 -0.12638401272E+04  0.18975944203E+04  0.50400001928E-02 0. -1.
</event>
<event>
 5   0  0.1348388E-06  0.3489393E+04  0.7818609E-02  0.8116308E-01
        2   -1    0    0  501    0  0.00000000000E+00  0.00000000000E+00  0.22367853161E+04  0.22367853162E+04  0.25500000920E-02 0. -1.
       -2   -1    0    0    0  501  0.00000000000E+00  0.00000000000E+00 -0.13608665023E+04  0.13608665023E+04  0.25500000920E-02 0.  1.
    10030    2    1    2    0    0  0.00000000000E+00  0.00000000000E+00  0.87591881389E+03  0.35976518184E+04  0.34893931905E+04 0.  0.
        5    1    3    3  502    0  0.65472150112E+02 -0.10584688380E+04 -0.99041083000E+03  0.14510611930E+04  0.46999998093E+01 0.  1.
       -5    1    3    3    0  502 -0.65472150112E+02  0.10584688380E+04  0.18663296439E+04  0.21465906254E+04  0.46999998093E+01 0. -1.
</event>
<event>
 5   0  0.4693374E-07  0.3496532E+04  0.7818609E-02  0.8114612E-01
       -1   -1    0    0    0  501  0.00000000000E+00  0.00000000000E+00  0.12849829386E+04  0.12849829386E+04  0.50400001928E-02 0.  1.
        1   -1    0    0  501    0  0.00000000000E+00  0.00000000000E+00 -0.23785790986E+04  0.23785790986E+04  0.50400001928E-02 0. -1.
    10030    2    1    2    0    0  0.00000000000E+00  0.00000000000E+00 -0.10935961601E+04  0.36635620372E+04  0.34965317444E+04 0.  0.
        1    1    3    3  502    0  0.25919010625E+03 -0.13818201124E+04  0.54198963294E+03  0.15067710830E+04  0.50400001928E-02 0.  1.
       -1    1    3    3    0  502 -0.25919010625E+03  0.13818201124E+04 -0.16355857930E+04  0.21567909543E+04  0.50400001928E-02 0. -1.
</event>
<event>
 5   0  0.4693374E-07  0.2540116E+04  0.7818609E-02  0.8388832E-01
        1   -1    0    0  501    0  0.00000000000E+00  0.00000000000E+00  0.14816499414E+04  0.14816499414E+04  0.50400001928E-02 0.  1.
       -1   -1    0    0    0  501  0.00000000000E+00  0.00000000000E+00 -0.10886832423E+04  0.10886832423E+04  0.50400001928E-02 0. -1.
    10030    2    1    2    0    0  0.00000000000E+00  0.00000000000E+00  0.39296669913E+03  0.25703331837E+04  0.25401161093E+04 0.  0.
        1    1    3    3  502    0 -0.50538562537E+03  0.97341486018E+03  0.84448901362E+03  0.13842372681E+04  0.50400001928E-02 0.  1.
       -1    1    3    3    0  502  0.50538562537E+03 -0.97341486018E+03 -0.45152231450E+03  0.11860959155E+04  0.50400001928E-02 0. -1.
</event>
<event>
 5   0  0.4591195E-07  0.3590128E+04  0.7818609E-02  0.8092757E-01
       -1   -1    0    0    0  501  0.00000000000E+00  0.00000000000E+00  0.15459625603E+04  0.15459625603E+04  0.50400001928E-02 0. -1.
        1   -1    0    0  501    0  0.00000000000E+00  0.00000000000E+00 -0.20843029527E+04  0.20843029527E+04  0.50400001928E-02 0.  1.
    10030    2    1    2    0    0  0.00000000000E+00  0.00000000000E+00 -0.53834039240E+03  0.36302655131E+04  0.35901277578E+04 0.  0.
        4    1    3    3  502    0 -0.12617727133E+04 -0.10492602655E+04 -0.10047890647E+04  0.19242193643E+04  0.12699999809E+01 0.  1.
       -4    1    3    3    0  502  0.12617727133E+04  0.10492602655E+04  0.46644867226E+03  0.17060461487E+04  0.12699999809E+01 0. -1.
</event>
<event>
 5   0  0.1387133E-06  0.3488933E+04  0.7818609E-02  0.8116418E-01
        2   -1    0    0  501    0  0.00000000000E+00  0.00000000000E+00  0.13335172716E+04  0.13335172716E+04  0.25500000920E-02 0. -1.
       -2   -1    0    0    0  501  0.00000000000E+00  0.00000000000E+00 -0.22820573756E+04  0.22820573756E+04  0.25500000920E-02 0.  1.
    10030    2    1    2    0    0  0.00000000000E+00  0.00000000000E+00 -0.94854010402E+03  0.36155746472E+04  0.34889327452E+04 0.  0.
        4    1    3    3  502    0 -0.66596322943E+02 -0.20301117870E+03 -0.22684469103E+04  0.22784866923E+04  0.12699999809E+01 0.  1.
       -4    1    3    3    0  502  0.66596322943E+02  0.20301117870E+03  0.13199068063E+04  0.13370879549E+04  0.12699999809E+01 0. -1.
</event>
<event>
 5   0  0.4693374E-07  0.3467119E+04  0.7818609E-02  0.8121627E-01
       -1   -1    0    0    0  501  0.00000000000E+00  0.00000000000E+00  0.27807260035E+04  0.27807260036E+04  0.50400001928E-02 0. -1.
        1   -1    0    0  501    0  0.00000000000E+00  0.00000000000E+00 -0.10807350126E+04  0.10807350126E+04  0.50400001928E-02 0.  1.
    10030    2    1    2    0    0  0.00000000000E+00  0.00000000000E+00  0.16999909910E+04  0.38614610161E+04  0.34671186610E+04 0.  0.
        1    1    3    3  502    0 -0.17610532914E+03  0.92631386545E+03  0.24701519002E+04  0.26439971397E+04  0.50400001928E-02 0. -1.
       -1    1    3    3    0  502  0.17610532914E+03 -0.92631386545E+03 -0.77016090926E+03  0.12174638765E+04  0.50400001928E-02 0.  1.
</event>
<event>
 5   0  0.1442864E-06  0.3595416E+04  0.7818609E-02  0.8091543E-01
        2   -1    0    0  501    0  0.00000000000E+00  0.00000000000E+00  0.25404728511E+04  0.25404728511E+04  0.25500000920E-02 0.  1.
       -2   -1    0    0    0  501  0.00000000000E+00  0.00000000000E+00 -0.12721070257E+04  0.12721070257E+04  0.25500000920E-02 0. -1.
    10030    2    1    2    0    0  0.00000000000E+00  0.00000000000E+00  0.12683658254E+04  0.38125798768E+04  0.35954156157E+04 0.  0.
        1    1    3    3  502    0 -0.30285283597E+03 -0.10246828422E+04 -0.89884153884E+03  0.13962846699E+04  0.50400001928E-02 0. -1.
       -1    1    3    3    0  502  0.30285283597E+03  0.10246828422E+04  0.21672073642E+04  0.24162952069E+04  0.50400001928E-02 0.  1.
</event>
<event>
 5   0  0.4409125E-07  0.2888371E+04  0.7818609E-02  0.8276346E-01
       -3   -1    0    0    0  501  0.00000000000E+00  0.00000000000E+00  0.16787123380E+04  0.16787123410E+04  0.10100000352E+00 0. -1.
        3   -1    0    0  501    0  0.00000000000E+00  0.00000000000E+00 -0.12424234699E+04  0.12424234740E+04  0.10100000352E+00 0.  1.
    10030    2    1    2    0    0  0.00000000000E+00  0.00000000000E+00  0.43628886804E+03  0.29211358150E+04  0.28883709030E+04 0.  0.
        4    1    3    3  502    0  0.26343955775E+03  0.52752451212E+02 -0.12169258771E+04  0.12462316900E+04  0.12699999809E+01 0.  1.
       -4    1    3    3    0  502 -0.26343955775E+03 -0.52752451212E+02  0.16532147452E+04  0.16749041251E+04  0.12699999809E+01 0. -1.
</event>
<event>
 5   0  0.1361560E-06  0.3405198E+04  0.7818609E-02  0.8136632E-01
       -2   -1    0    0    0  501  0.00000000000E+00  0.00000000000E+00  0.12129642344E+04  0.12129642344E+04  0.25500000920E-02 0.  1.
        2   -1    0    0  501    0  0.00000000000E+00  0.00000000000E+00 -0.23898831419E+04  0.23898831419E+04  0.25500000920E-02 0. -1.
    10030    2    1    2    0    0  0.00000000000E+00  0.00000000000E+00 -0.11769189076E+04  0.36028473763E+04  0.34051976597E+04 0.  0.
        3    1    3    3  502    0  0.12146515598E+04 -0.16236667482E+03  0.66213789937E+03  0.13928991194E+04  0.10100000352E+00 0.  1.
       -3    1    3    3    0  502 -0.12146515598E+04  0.16236667482E+03 -0.18390568069E+04  0.22099482569E+04  0.10100000352E+00 0. -1.
</event>
<event>
 5   0  0.4693374E-07  0.3650542E+04  0.7818609E-02  0.8079012E-01
        1   -1    0    0  501    0  0.00000000000E+00  0.00000000000E+00  0.12894039121E+04  0.12894039121E+04  0.50400001928E-02 0.  1.
       -1   -1    0    0    0  501  0.00000000000E+00  0.00000000000E+00 -0.25838400672E+04  0.25838400672E+04  0.50400001928E-02 0. -1.
    10030    2    1    2    0    0  0.00000000000E+00  0.00000000000E+00 -0.12944361551E+04  0.38732439794E+04  0.36505415988E+04 0.  0.
        1    1    3    3  502    0  0.77284981237E+02 -0.11520950258E+04  0.85263875786E+03  0.14353706031E+04  0.50400001928E-02 0.  1.
       -1    1    3    3    0  502 -0.77284981237E+02  0.11520950258E+04 -0.21470749130E+04  0.24378733763E+04  0.50400001928E-02 0. -1.
</event>
<event>
 5   0  0.4409125E-07  0.2612212E+04  0.7818609E-02  0.8364065E-01
       -3   -1    0    0    0  501  0.00000000000E+00  0.00000000000E+00  0.24207176591E+04  0.24207176612E+04  0.10100000352E+00 0. -1.
        3   -1    0    0  501    0  0.00000000000E+00  0.00000000000E+00 -0.70471363991E+03  0.70471364715E+03  0.10100000352E+00 0.  1.
    10030    2    1    2    0    0  0.00000000000E+00  0.00000000000E+00  0.17160040192E+04  0.31254313083E+04  0.26122119113E+04 0.  0.
        4    1    3    3  502    0 -0.53403068475E+03  0.31478015703E+03  0.22334920676E+04  0.23179222913E+04  0.12699999809E+01 0. -1.
       -4    1    3    3    0  502  0.53403068475E+03 -0.31478015703E+03 -0.51748804841E+03  0.80750901708E+03  0.12699999809E+01 0.  1.
</event>
<event>
 5   0  0.1348388E-06  0.3479406E+04  0.7818609E-02  0.8118688E-01
       -2   -1    0    0    0  501  0.00000000000E+00  0.00000000000E+00  0.19787395914E+04  0.19787395914E+04  0.25500000920E-02 0. -1.
        2   -1    0    0  501    0  0.00000000000E+00  0.00000000000E+00 -0.15295424707E+04  0.15295424707E+04  0.25500000920E-02 0.  1.
    10030    2    1    2    0    0  0.00000000000E+00  0.00000000000E+00  0.44919712064E+03  0.35082820621E+04  0.34794058364E+04 0.  0.
        5    1    3    3  502    0  0.14978046503E+04  0.19733779131E+03  0.10944184616E+04  0.18655119494E+04  0.46999998093E+01 0. -1.
       -5    1    3    3    0  502 -0.14978046503E+04 -0.19733779131E+03 -0.64522134101E+03  0.16427701127E+04  0.46999998093E+01 0.  1.
</event>
<event>
 5   0  0.4693374E-07  0.3147927E+04  0.7818609E-02  0.8202706E-01
       -1   -1    0    0    0  501  0.00000000000E+00  0.00000000000E+00  0.13997049092E+04  0.13997049092E+04  0.50400001928E-02 0.  1.
        1   -1    0    0  501    0  0.00000000000E+00  0.00000000000E+00 -0.17699169982E+04  0.17699169982E+04  0.50400001928E-02 0. -1.
    10030    2    1    2    0    0  0.00000000000E+00  0.00000000000E+00 -0.37021208903E+03  0.31696219074E+04  0.31479272617E+04 0.  0.
        1    1    3    3  502    0 -0.14410314775E+04  0.63298454880E+03 -0.19615220371E+03  0.15861011460E+04  0.50400001928E-02 0.  1.
       -1    1    3    3    0  502  0.14410314775E+04 -0.63298454880E+03 -0.17405988531E+03  0.15835207614E+04  0.50400001928E-02 0. -1.
</event>
<event>
 5   0  0.4409125E-07  0.3458925E+04  0.7818609E-02  0.8123594E-01
        1   -1    0    0  501    0  0.00000000000E+00  0.00000000000E+00  0.28379005728E+04  0.28379005728E+04  0.50400001928E-02 0. -1.
       -1   -1    0    0    0  501  0.00000000000E+00  0.00000000000E+00 -0.10539622861E+04  0.10539622861E+04  0.50400001928E-02 0.  1.
    10030    2    1    2    0    0  0.00000000000E+00  0.00000000000E+00  0.17839382867E+04  0.38918628589E+04  0.34589247899E+04 0.  0.
        5    1    3    3  502    0  0.31341242962E+03 -0.94208717141E+03  0.24852855384E+04  0.26762701446E+04  0.46999998093E+01 0. -1.
       -5    1    3    3    0  502 -0.31341242962E+03  0.94208717141E+03 -0.70134725174E+03  0.12155927143E+04  0.46999998093E+01 0.  1.
</event>
<event>
 5   0  0.4700769E-07  0.3633042E+04  0.7818609E-02  0.8082965E-01
       -1   -1    0    0    0  501  0.00000000000E+00  0.00000000000E+00  0.16567362851E+04  0.16567362851E+04  0.50400001928E-02 0.  1.
        1   -1    0    0  501    0  0.00000000000E+00  0.00000000000E+00 -0.19917165780E+04  0.19917165780E+04  0.50400001928E-02 0. -1.
    10030    2    1    2    0    0  0.00000000000E+00  0.00000000000E+00 -0.33498029293E+03  0.36484528631E+04  0.36330423199E+04 0.  0.
        3    1    3    3  502    0 -0.35638391974E+03 -0.97028983324E+03  0.13325920341E+04  0.16864973757E+04  0.10100000352E+00 0.  1.
       -3    1    3    3    0  502  0.35638391974E+03  0.97028983324E+03 -0.16675723270E+04  0.19619554875E+04  0.10100000352E+00 0. -1.
</event>
<event>
 5   0  0.1387133E-06  0.3490603E+04  0.7818609E-02  0.8116021E-01
       -2   -1    0    0    0  501  0.00000000000E+00  0.00000000000E+00  0.17764752662E+04  0.17764752662E+04  0.25500000920E-02 0.  1.
        2   -1    0    0  501    0  0.00000000000E+00  0.00000000000E+00 -0.17146747576E+04  0.17146747576E+04  0.25500000920E-02 0. -1.
    10030    2    1    2    0    0  0.00000000000E+00  0.00000000000E+00  0.61800508600E+02  0.34911500238E+04  0.34906029831E+04 0.  0.
        4    1    3    3  502    0 -0.10532944591E+04  0.76296809691E+02  0.14206594063E+04  0.17701765964E+04  0.12699999809E+01 0.  1.
       -4    1    3    3    0  502  0.10532944591E+04 -0.76296809691E+02 -0.13588588977E+04  0.17209734273E+04  0.12699999809E+01 0. -1.
</event>
<event>
 5   0  0.4557237E-07  0.2983678E+04  0.7818609E-02  0.8248407E-01
       -1   -1    0    0    0  501  0.00000000000E+00  0.00000000000E+00  0.28345493148E+04  0.28345493148E+04  0.50400001928E-02 0. -1.
        1   -1    0    0  501    0  0.00000000000E+00  0.00000000000E+00 -0.78516320080E+03  0.78516320082E+03  0.50400001928E-02 0.  1.
    10030    2    1    2    0    0  0.00000000000E+00  0.00000000000E+00  0.20493861140E+04  0.36197125156E+04  0.29836781414E+04 0.  0.
        2    1    3    3  502    0  0.75335441898E+03  0.13793813650E+03 -0.52845707796E+03  0.93050346230E+03  0.25500000920E-02 0.  1.
       -2    1    3    3    0  502 -0.75335441898E+03 -0.13793813650E+03  0.25778431920E+04  0.26892090533E+04  0.25500000920E-02 0. -1.
</event>
<event>
 5   0  0.1442864E-06  0.3434561E+04  0.7818609E-02  0.8129476E-01
        2   -1    0    0  501    0  0.00000000000E+00  0.00000000000E+00  0.23408561091E+04  0.23408561091E+04  0.25500000920E-02 0. -1.
       -2   -1    0    0    0  501  0.00000000000E+00  0.00000000000E+00 -0.12598181095E+04  0.12598181095E+04  0.25500000920E-02 0.  1.
    10030    2    1    2    0    0  0.00000000000E+00  0.00000000000E+00  0.10810379996E+04  0.36006742186E+04  0.34345613508E+04 0.  0.
        1    1    3    3  502    0 -0.10938697578E+04 -0.12304724826E+04  0.10524383036E+04  0.19540317194E+04  0.50400001928E-02 0. -1.
       -1    1    3    3    0  502  0.10938697578E+04  0.12304724826E+04  0.28599695953E+02  0.16466424992E+04  0.50400001928E-02 0.  1.
</event>
<event>
 5   0  0.1387133E-06  0.3494991E+04  0.7818609E-02  0.8114978E-01
        2   -1    0    0  501    0  0.00000000000E+00  0.00000000000E+00  0.20156535404E+04  0.20156535404E+04  0.25500000920E-02 0.  1.
       -2   -1    0    0    0  501  0.00000000000E+00  0.00000000000E+00 -0.15150127687E+04  0.15150127687E+04  0.25500000920E-02 0. -1.
    10030    2    1    2    0    0  0.00000000000E+00  0.00000000000E+00  0.50064077170E+03  0.35306663091E+04  0.34949911880E+04 0.  0.
        4    1    3    3  502    0 -0.16668446401E+04 -0.25221466319E+03  0.71518704245E+03  0.18312502312E+04  0.12699999809E+01 0.  1.
       -4    1    3    3    0  502  0.16668446401E+04  0.25221466319E+03 -0.21454627075E+03  0.16994160779E+04  0.12699999809E+01 0. -1.
</event>
<event>
 5   0  0.1387133E-06  0.3518744E+04  0.7818609E-02  0.8109362E-01
       -2   -1    0    0    0  501  0.00000000000E+00  0.00000000000E+00  0.14545067359E+04  0.14545067359E+04  0.25500000920E-02 0.  1.
        2   -1    0    0  501    0  0.00000000000E+00  0.00000000000E+00 -0.21281373356E+04  0.21281373356E+04  0.25500000920E-02 0. -1.
    10030    2    1    2    0    0  0.00000000000E+00  0.00000000000E+00 -0.67363059969E+03  0.35826440714E+04  0.35187441450E+04 0.  0.
        4    1    3    3  502    0 -0.71306485983E+00 -0.11275848586E+04  0.10382435660E+04  0.15327750771E+04  0.12699999809E+01 0.  1.
       -4    1    3    3    0  502  0.71306485983E+00  0.11275848586E+04 -0.17118741657E+04  0.20498689943E+04  0.12699999809E+01 0. -1.
</event>
<event>
 5   0  0.1378620E-06  0.3457422E+04  0.7818609E-02  0.8123955E-01
       -2   -1    0    0    0  501  0.00000000000E+00  0.00000000000E+00  0.13757507259E+04  0.13757507259E+04  0.25500000920E-02 0.  1.
        2   -1    0    0  501    0  0.00000000000E+00  0.00000000000E+00 -0.21722259816E+04  0.21722259816E+04  0.25500000920E-02 0. -1.
    10030    2    1    2    0    0  0.00000000000E+00  0.00000000000E+00 -0.79647525561E+03  0.35479767075E+04  0.34574218551E+04 0.  0.
        2    1    3    3  502    0 -0.18988187970E+03  0.10530164966E+04  0.99509554164E+03  0.14612029316E+04  0.25500000920E-02 0.  1.
       -2    1    3    3    0  502  0.18988187970E+03 -0.10530164966E+04 -0.17915707973E+04  0.20867737759E+04  0.25500000920E-02 0. -1.
</event>
<event>
 5   0  0.1361560E-06  0.3182932E+04  0.7818609E-02  0.8193339E-01
        2   -1    0    0  501    0  0.00000000000E+00  0.00000000000E+00  0.17204759547E+04  0.17204759547E+04  0.25500000920E-02 0. -1.
       -2   -1    0    0    0  501  0.00000000000E+00  0.00000000000E+00 -0.14721301877E+04  0.14721301877E+04  0.25500000920E-02 0.  1.
    10030    2    1    2    0    0  0.00000000000E+00  0.00000000000E+00  0.24834576703E+03  0.31926061424E+04  0.31829323524E+04 0.  0.
        3    1    3    3  502    0  0.48326824818E+03  0.61484969491E+03 -0.12661047594E+04  0.14881564498E+04  0.10100000352E+00 0.  1.
       -3    1    3    3    0  502 -0.48326824818E+03 -0.61484969491E+03  0.15144505265E+04  0.17044496925E+04  0.10100000352E+00 0. -1.
</event>
<event>
 5   0  0.4700769E-07  0.3523554E+04  0.7818609E-02  0.8108231E-01
        1   -1    0    0  501    0  0.00000000000E+00  0.00000000000E+00  0.25163532438E+04  0.25163532438E+04  0.50400001928E-02 0.  1.
       -1   -1    0    0    0  501  0.00000000000E+00  0.00000000000E+00 -0.12334745241E+04  0.12334745241E+04  0.50400001928E-02 0. -1.
    10030    2    1    2    0    0  0.00000000000E+00  0.00000000000E+00  0.12828787196E+04  0.37498277679E+04  0.35235536720E+04 0.  0.
        3    1    3    3  502    0 -0.96938457329E+03 -0.99667055967E+03 -0.51008092424E+03  0.14809595588E+04  0.10100000352E+00 0. -1.
       -3    1    3    3    0  502  0.96938457329E+03  0.99667055967E+03  0.17929596439E+04  0.22688682091E+04  0.10100000352E+00 0.  1.
</event>
<event>
 5   0  0.4591195E-07  0.3473131E+04  0.7818609E-02  0.8120187E-01
       -1   -1    0    0    0  501  0.00000000000E+00  0.00000000000E+00  0.15919412169E+04  0.15919412169E+04  0.50400001928E-02 0.  1.
        1   -1    0    0  501    0  0.00000000000E+00  0.00000000000E+00 -0.18943284376E+04  0.18943284376E+04  0.50400001928E-02 0. -1.
    10030    2    1    2    0    0  0.00000000000E+00  0.00000000000E+00 -0.30238722073E+03  0.34862696546E+04  0.34731308747E+04 0.  0.
        4    1    3    3  502    0  0.95710275915E+02  0.15840420755E+04 -0.85906215791E+03  0.18045329473E+04  0.12699999809E+01 0. -1.
       -4    1    3    3    0  502 -0.95710275915E+02 -0.15840420755E+04  0.55667493718E+03  0.16817367072E+04  0.12699999809E+01 0.  1.
</event>
<event>
 5   0  0.1361560E-06  0.3820825E+04  0.7818609E-02  0.8041701E-01
        2   -1    0    0  501    0  0.00000000000E+00  0.00000000000E+00  0.22942667956E+04  0.22942667956E+04  0.25500000920E-02 0. -1.
       -2   -1    0    0    0  501  0.00000000000E+00  0.00000000000E+00 -0.15907813384E+04  0.15907813384E+04  0.25500000920E-02 0.  1.
    10030    2    1    2    0    0  0.00000000000E+00  0.00000000000E+00  0.70348545726E+03  0.38850481340E+04  0.38208254625E+04 0.  0.
        3    1    3    3  502    0  0.15564319878E+04 -0.51837778696E+03  0.13472189663E+04  0.21227800206E+04  0.10100000352E+00 0. -1.
       -3    1    3    3    0  502 -0.15564319878E+04  0.51837778696E+03 -0.64373350902E+03  0.17622681134E+04  0.10100000352E+00 0.  1.
</event>
<event>
 5   0  0.1378620E-06  0.3456544E+04  0.7818609E-02  0.8124166E-01
        2   -1    0    0  501    0  0.00000000000E+00  0.00000000000E+00  0.95553879249E+03  0.95553879250E+03  0.25500000920E-02 0.  1.
       -2   -1    0    0    0  501  0.00000000000E+00  0.00000000000E+00 -0.31259051827E+04  0.31259051827E+04  0.25500000920E-02 0. -1.
    10030    2    1    2    0    0  0.00000000000E+00  0.00000000000E+00 -0.21703663902E+04  0.40814439752E+04  0.34565437441E+04 0.  0.
        2    1    3    3  502    0  0.52390048435E+03  0.43594448925E+03  0.79015299730E+03  0.10434850619E+04  0.25500000920E-02 0.  1.
       -2    1    3    3    0  502 -0.52390048435E+03 -0.43594448925E+03 -0.29605193875E+04  0.30379589133E+04  0.25500000920E-02 0. -1.
</event>
<event>
 5   0  0.4693374E-07  0.3473164E+04  0.7818609E-02  0.8120179E-01
       -1   -1    0    0    0  501  0.00000000000E+00  0.00000000000E+00  0.23334532499E+04  0.23334532499E+04  0.50400001928E-02 0. -1.
        1   -1    0    0  501    0  0.00000000000E+00  0.00000000000E+00 -0.12923839514E+04  0.12923839514E+04  0.50400001928E-02 0.  1.
    10030    2    1    2    0    0  0.00000000000E+00  0.00000000000E+00  0.10410692985E+04  0.36258372013E+04  0.34731642814E+04 0.  0.
        1    1    3    3  502    0  0.11329612914E+03  0.14489410793E+04  0.15128171677E+04  0.20978279355E+04  0.50400001928E-02 0. -1.
       -1    1    3    3    0  502 -0.11329612914E+03 -0.14489410793E+04 -0.47174786921E+03  0.15280092658E+04  0.50400001928E-02 0.  1.
</event>
<event>
 5   0  0.1442864E-06  0.3531545E+04  0.7818609E-02  0.8106355E-01
        2   -1    0    0  501    0  0.00000000000E+00  0.00000000000E+00  0.15065055475E+04  0.15065055475E+04  0.25500000920E-02 0. -1.
       -2   -1    0    0    0  501  0.00000000000E+00  0.00000000000E+00 -0.20696591323E+04  0.20696591323E+04  0.25500000920E-02 0.  1.
    10030    2    1    2    0    0  0.00000000000E+00  0.00000000000E+00 -0.56315358472E+03  0.35761646798E+04  0.35315452506E+04 0.  0.
        1    1    3    3  502    0  0.76981539589E+03  0.11740486863E+04  0.80291030811E+03  0.16173036278E+04  0.50400001928E-02 0. -1.
       -1    1    3    3    0  502 -0.76981539589E+03 -0.11740486863E+04 -0.13660638928E+04  0.19588610520E+04  0.50400001928E-02 0.  1.
</event>
<event>
 5   0  0.4557237E-07  0.3413496E+04  0.7818609E-02  0.8134602E-01
        1   -1    0    0  501    0  0.00000000000E+00  0.00000000000E+00  0.19223057134E+04  0.19223057134E+04  0.50400001928E-02 0.  1.
       -1   -1    0    0    0  501  0.00000000000E+00  0.00000000000E+00 -0.15153621508E+04  0.15153621508E+04  0.50400001928E-02 0. -1.
    10030    2    1    2    0    0  0.00000000000E+00  0.00000000000E+00  0.40694356258E+03  0.34376678643E+04  0.34134963427E+04 0.  0.
        2    1    3    3  502    0 -0.12064386751E+04  0.70976074153E+03  0.11869806310E+04  0.18352595471E+04  0.25500000920E-02 0.  1.
       -2    1    3    3    0  502  0.12064386751E+04 -0.70976074153E+03 -0.78003706837E+03  0.16024083172E+04  0.25500000920E-02 0. -1.
</event>
<event>
 5   0  0.1348388E-06  0.3467713E+04  0.7818609E-02  0.8121484E-01
       -2   -1    0    0    0  501  0.00000000000E+00  0.00000000000E+00  0.17139179042E+04  0.17139179042E+04  0.25500000920E-02 0.  1.
        2   -1    0    0  501    0  0.00000000000E+00  0.00000000000E+00 -0.17540271598E+04  0.17540271598E+04  0.25500000920E-02 0. -1.
    10030    2    1    2    0    0  0.00000000000E+00  0.00000000000E+00 -0.40109255636E+02  0.34679450639E+04  0.34677131101E+04 0.  0.
        5    1    3    3  502    0 -0.91429975265E+03 -0.10654348125E+04  0.99743226204E+03  0.17222045711E+04  0.46999998093E+01 0.  1.
       -5    1    3    3    0  502  0.91429975265E+03  0.10654348125E+04 -0.10375415177E+04  0.17457404928E+04  0.46999998093E+01 0. -1.
</event>
<event>
 5   0  0.4557237E-07  0.3326514E+04  0.7818609E-02  0.8156181E-01
       -1   -1    0    0    0  501  0.00000000000E+00  0.00000000000E+00  0.14332669558E+04  0.14332669559E+04  0.50400001928E-02 0. -1.
        1   -1    0    0  501    0  0.00000000000E+00  0.00000000000E+00 -0.19301525486E+04  0.19301525486E+04  0.50400001928E-02 0.  1.
    10030    2    1    2    0    0  0.00000000000E+00  0.00000000000E+00 -0.49688559273E+03  0.33634195044E+04  0.33265140118E+04 0.  0.
        2    1    3    3  502    0  0.53550762448E+03 -0.12054998963E+04  0.77592375132E+03  0.15303777585E+04  0.25500000920E-02 0. -1.
       -2    1    3    3    0  502 -0.53550762448E+03  0.12054998963E+04 -0.12728093441E+04  0.18330417459E+04  0.25500000920E-02 0.  1.
</event>
<event>
 5   0  0.4700769E-07  0.3357295E+04  0.7818609E-02  0.8148468E-01
       -1   -1    0    0    0  501  0.00000000000E+00  0.00000000000E+00  0.17415898647E+04  0.17415898647E+04  0.50400001928E-02 0.  1.
        1   -1    0    0  501    0  0.00000000000E+00  0.00000000000E+00 -0.16179795834E+04  0.16179795834E+04  0.50400001928E-02 0. -1.
    10030    2    1    2    0    0  0.00000000000E+00  0.00000000000E+00  0.12361028134E+03  0.33595694481E+04  0.33572946512E+04 0.  0.
        3    1    3    3  502    0 -0.14867049800E+04 -0.26485072581E+03 -0.67178040470E+03  0.16527935524E+04  0.10100000352E+00 0. -1.
       -3    1    3    3    0  502  0.14867049800E+04  0.26485072581E+03  0.79539068604E+03  0.17067758957E+04  0.10100000352E+00 0.  1.
</event>
<event>
 5   0  0.4409125E-07  0.3499570E+04  0.7818609E-02  0.8113892E-01
        1   -1    0    0  501    0  0.00000000000E+00  0.00000000000E+00  0.17639340021E+04  0.17639340021E+04  0.50400001928E-02 0. -1.
       -1   -1    0    0    0  501  0.00000000000E+00  0.00000000000E+00 -0.17357498752E+04  0.17357498752E+04  0.50400001928E-02 0.  1.
    10030    2    1    2    0    0  0.00000000000E+00  0.00000000000E+00  0.28184126881E+02  0.34996838773E+04  0.34995703873E+04 0.  0.
        5    1    3    3  502    0  0.15703482898E+04 -0.29528403129E+03  0.72723490171E+03  0.17555851169E+04  0.46999998093E+01 0. -1.
       -5    1    3    3    0  502 -0.15703482898E+04  0.29528403129E+03 -0.69905077483E+03  0.17440987604E+04  0.46999998093E+01 0.  1.
</event>
<event>
 5   0  0.1442864E-06  0.3064789E+04  0.7818609E-02  0.8225468E-01
        2   -1    0    0  501    0  0.00000000000E+00  0.00000000000E+00  0.25203562394E+04  0.25203562394E+04  0.25500000920E-02 0. -1.
       -2   -1    0    0    0  501  0.00000000000E+00  0.00000000000E+00 -0.93170691444E+03  0.93170691444E+03  0.25500000920E-02 0.  1.
    10030    2    1    2    0    0  0.00000000000E+00  0.00000000000E+00  0.15886493249E+04  0.34520631538E+04  0.30647892816E+04 0.  0.
        1    1    3    3  502    0  0.48091818994E+03 -0.97336306633E+03  0.20124194344E+04  0.22866022707E+04  0.50400001928E-02 0. -1.
       -1    1    3    3    0  502 -0.48091818994E+03  0.97336306633E+03 -0.42377010950E+03  0.11654608831E+04  0.50400001928E-02 0.  1.
</event>
<event>
 5   0  0.4700769E-07  0.3000456E+04  0.7818609E-02  0.8243601E-01
       -1   -1    0    0    0  501  0.00000000000E+00  0.00000000000E+00  0.10228151691E+04  0.10228151691E+04  0.50400001928E-02 0.  1.
        1   -1    0    0  501    0  0.00000000000E+00  0.00000000000E+00 -0.22004791380E+04  0.22004791380E+04  0.50400001928E-02 0. -1.
    10030    2    1    2    0    0  0.00000000000E+00  0.00000000000E+00 -0.11776639690E+04  0.32232943071E+04  0.30004555932E+04 0.  0.
        3    1    3    3  502    0  0.35991183749E+03 -0.80658439509E+03 -0.18915649084E+04  0.20876141238E+04  0.10100000352E+00 0. -1.
       -3    1    3    3    0  502 -0.35991183749E+03  0.80658439509E+03  0.71390093943E+03  0.11356801833E+04  0.10100000352E+00 0.  1.
</event>
<event>
 5   0  0.1378620E-06  0.3485194E+04  0.7818609E-02  0.8117308E-01
       -2   -1    0    0    0  501  0.00000000000E+00  0.00000000000E+00  0.23451056982E+04  0.23451056982E+04  0.25500000920E-02 0. -1.
        2   -1    0    0  501    0  0.00000000000E+00  0.00000000000E+00 -0.12948859850E+04  0.12948859850E+04  0.25500000920E-02 0.  1.
    10030    2    1    2    0    0  0.00000000000E+00  0.00000000000E+00  0.10502197132E+04  0.36399916831E+04  0.34851941133E+04 0.  0.
        2    1    3    3  502    0  0.68642874491E+02  0.64420071324E+03  0.22146563390E+04  0.23074681153E+04  0.25500000920E-02 0. -1.
       -2    1    3    3    0  502 -0.68642874491E+02 -0.64420071324E+03 -0.11644366259E+04  0.13325235678E+04  0.25500000920E-02 0.  1.
</event>
<event>
 5   0  0.4591195E-07  0.3592258E+04  0.7818609E-02  0.8092267E-01
        1   -1    0    0  501    0  0.00000000000E+00  0.00000000000E+00  0.19266480046E+04  0.19266480046E+04  0.50400001928E-02 0. -1.
       -1   -1    0    0    0  501  0.00000000000E+00  0.00000000000E+00 -0.16744522337E+04  0.16744522337E+04  0.50400001928E-02 0.  1.
    10030    2    1    2    0    0  0.00000000000E+00  0.00000000000E+00  0.25219577088E+03  0.36011002383E+04  0.35922583731E+04 0.  0.
        4    1    3    3  502    0 -0.16170767625E+04  0.77950045938E+03  0.66620406334E+02  0.17963847342E+04  0.12699999809E+01 0. -1.
       -4    1    3    3    0  502  0.16170767625E+04 -0.77950045938E+03  0.18557536455E+03  0.18047155041E+04  0.12699999809E+01 0.  1.
</event>
<event>
 5   0  0.4409125E-07  0.3279150E+04  0.7818609E-02  0.8168221E-01
        1   -1    0    0  501    0  0.00000000000E+00  0.00000000000E+00  0.14792246272E+04  0.14792246272E+04  0.50400001928E-02 0.  1.
       -1   -1    0    0    0  501  0.00000000000E+00  0.00000000000E+00 -0.18173072319E+04  0.18173072319E+04  0.50400001928E-02 0. -1.
    10030    2    1    2    0    0  0.00000000000E+00  0.00000000000E+00 -0.33808260471E+03  0.32965318592E+04  0.32791496536E+04 0.  0.
        5    1    3    3  502    0 -0.11945206148E+04 -0.10440012416E+04 -0.58519872852E+03  0.16909458103E+04  0.46999998093E+01 0. -1.
       -5    1    3    3    0  502  0.11945206148E+04  0.10440012416E+04  0.24711612380E+03  0.16055860488E+04  0.46999998093E+01 0.  1.
</event>
<event>
 5   0  0.1348388E-06  0.3224057E+04  0.7818609E-02  0.8182493E-01
        2   -1    0    0  501    0  0.00000000000E+00  0.00000000000E+00  0.23667691358E+04  0.23667691358E+04  0.25500000920E-02 0.  1.
       -2   -1    0    0    0  501  0.00000000000E+00  0.00000000000E+00 -0.10979674820E+04  0.10979674820E+04  0.25500000920E-02 0. -1.
    10030    2    1    2    0    0  0.00000000000E+00  0.00000000000E+00  0.12688016538E+04  0.34647366178E+04  0.32240567914E+04 0.  0.
        5    1    3    3  502    0  0.81663332489E+03 -0.98274278071E+03  0.16905922592E+04  0.21191502159E+04  0.46999998093E+01 0.  1.
       -5    1    3    3    0  502 -0.81663332489E+03  0.98274278071E+03 -0.42179060541E+03  0.13455864020E+04  0.46999998093E+01 0. -1.
</event>
<event>
 5   0  0.4409125E-07  0.3502165E+04  0.7818609E-02  0.8113277E-01
        1   -1    0    0  501    0  0.00000000000E+00  0.00000000000E+00  0.20036228323E+04  0.20036228323E+04  0.50400001928E-02 0. -1.
       -1   -1    0    0    0  501  0.00000000000E+00  0.00000000000E+00 -0.15303726091E+04  0.15303726091E+04  0.50400001928E-02 0.  1.
    10030    2    1    2    0    0  0.00000000000E+00  0.00000000000E+00  0.47325022328E+03  0.35339954414E+04  0.35021647600E+04 0.  0.
        5    1    3    3  502    0 -0.23811088194E+03  0.17146443693E+04  0.50277467745E+03  0.18026387801E+04  0.46999998093E+01 0. -1.
       -5    1    3    3    0  502  0.23811088194E+03 -0.17146443693E+04 -0.29524454168E+02  0.17313566613E+04  0.46999998093E+01 0.  1.
</event>
<event>
 5   0  0.4557237E-07  0.3467630E+04  0.7818609E-02  0.8121504E-01
       -1   -1    0    0    0  501  0.00000000000E+00  0.00000000000E+00  0.13301039738E+04  0.13301039738E+04  0.50400001928E-02 0.  1.
        1   -1    0    0  501    0  0.00000000000E+00  0.00000000000E+00 -0.22600599423E+04  0.22600599423E+04  0.50400001928E-02 0. -1.
    10030    2    1    2    0    0  0.00000000000E+00  0.00000000000E+00 -0.92995596849E+03  0.35901639161E+04  0.34676301477E+04 0.  0.
        2    1    3    3  502    0 -0.74175664499E+03  0.66327827270E+03  0.10050443770E+04  0.14143037818E+04  0.25500000920E-02 0.  1.
       -2    1    3    3    0  502  0.74175664499E+03 -0.66327827270E+03 -0.19350003454E+04  0.21758601344E+04  0.25500000920E-02 0. -1.
</event>
<event>
 5   0  0.1442864E-06  0.3530600E+04  0.7818609E-02  0.8106576E-01
        2   -1    0    0  501    0  0.00000000000E+00  0.00000000000E+00  0.15130315658E+04  0.15130315658E+04  0.25500000920E-02 0. -1.
       -2   -1    0    0    0  501  0.00000000000E+00  0.00000000000E+00 -0.20596294284E+04  0.20596294284E+04  0.25500000920E-02 0.  1.
    10030    2    1    2    0    0  0.00000000000E+00  0.00000000000E+00 -0.54659786261E+03  0.35726609942E+04  0.35306001411E+04 0.  0.
        1    1    3    3  502    0  0.30728500823E+03 -0.14299816262E+04  0.72691616144E+03  0.16333029827E+04  0.50400001928E-02 0. -1.
       -1    1    3    3    0  502 -0.30728500823E+03  0.14299816262E+04 -0.12735140241E+04  0.19393580115E+04  0.50400001928E-02 0.  1.
</event>
<event>
 5   0  0.4591195E-07  0.3450944E+04  0.7818609E-02  0.8125515E-01
        1   -1    0    0  501    0  0.00000000000E+00  0.00000000000E+00  0.18445363895E+04  0.18445363895E+04  0.50400001928E-02 0. -1.
       -1   -1    0    0    0  501  0.00000000000E+00  0.00000000000E+00 -0.16140928763E+04  0.16140928763E+04  0.50400001928E-02 0.  1.
    10030    2    1    2    0    0  0.00000000000E+00  0.00000000000E+00  0.23044351326E+03  0.34586292658E+04  0.34509436659E+04 0.  0.
        4    1    3    3  502    0  0.10911880334E+04  0.45128530279E+03  0.13761579563E+04  0.18133290055E+04  0.12699999809E+01 0. -1.
       -4    1    3    3    0  502 -0.10911880334E+04 -0.45128530279E+03 -0.11457144430E+04  0.16453002603E+04  0.12699999809E+01 0.  1.
</event>
<event>
 5   0  0.1442864E-06  0.3445372E+04  0.7818609E-02  0.8126860E-01
        2   -1    0    0  501    0  0.00000000000E+00  0.00000000000E+00  0.22653772214E+04  0.22653772214E+04  0.25500000920E-02 0. -1.
       -2   -1    0    0    0  501  0.00000000000E+00  0.00000000000E+00 -0.13100008997E+04  0.13100008997E+04  0.25500000920E-02 0.  1.
    10030    2    1    2    0    0  0.00000000000E+00  0.00000000000E+00  0.95537632176E+03  0.35753781211E+04  0.34453715029E+04 0.  0.
        1    1    3    3  502    0  0.86118401008E+03 -0.81295934108E+03  0.17759363249E+04  0.21345937833E+04  0.50400001928E-02 0. -1.
       -1    1    3    3    0  502 -0.86118401008E+03  0.81295934108E+03 -0.82056000312E+03  0.14407843379E+04  0.50400001928E-02 0.  1.
</event>
<event>
 5   0  0.1442864E-06  0.3071607E+04  0.7818609E-02  0.8223573E-01
       -2   -1    0    0    0  501  0.00000000000E+00  0.00000000000E+00  0.89369581065E+03  0.89369581065E+03  0.25500000920E-02 0. -1.
        2   -1    0    0  501    0  0.00000000000E+00  0.00000000000E+00 -0.26392569022E+04  0.26392569022E+04  0.25500000920E-02 0.  1.
    10030    2    1    2    0    0  0.00000000000E+00  0.00000000000E+00 -0.17455610916E+04  0.35329527129E+04  0.30716072905E+04 0.  0.
        1    1    3    3  502    0  0.14399438882E+04  0.21910493677E+03 -0.31254208168E+03  0.14896737654E+04  0.50400001928E-02 0. -1.
       -1    1    3    3    0  502 -0.14399438882E+04 -0.21910493677E+03 -0.14330190099E+04  0.20432789475E+04  0.50400001928E-02 0.  1.
</event>
<event>
 5   0  0.4591195E-07  0.3546940E+04  0.7818609E-02  0.8102755E-01
        1   -1    0    0  501    0  0.00000000000E+00  0.00000000000E+00  0.20122998423E+04  0.20122998423E+04  0.50400001928E-02 0.  1.
       -1   -1    0    0    0  501  0.00000000000E+00  0.00000000000E+00 -0.15629857587E+04  0.15629857587E+04  0.50400001928E-02 0. -1.
    10030    2    1    2    0    0  0.00000000000E+00  0.00000000000E+00  0.44931408354E+03  0.35752856010E+04  0.35469400874E+04 0.  0.
        4    1    3    3  502    0  0.12390123997E+04  0.12677603292E+04  0.27824583979E+03  0.17943774238E+04  0.12699999809E+01 0.  1.
       -4    1    3    3    0  502 -0.12390123997E+04 -0.12677603292E+04  0.17106824375E+03  0.17809081772E+04  0.12699999809E+01 0. -1.
</event>
<event>
 5   0  0.4409125E-07  0.3230807E+04  0.7818609E-02  0.8180728E-01
        1   -1    0    0  501    0  0.00000000000E+00  0.00000000000E+00  0.18099067635E+04  0.18099067635E+04  0.50400001928E-02 0.  1.
       -1   -1    0    0    0  501  0.00000000000E+00  0.00000000000E+00 -0.14418029246E+04  0.14418029246E+04  0.50400001928E-02 0. -1.
    10030    2    1    2    0    0  0.00000000000E+00  0.00000000000E+00  0.36810383889E+03  0.32517096881E+04  0.32308072458E+04 0.  0.
        5    1    3    3  502    0  0.16926804218E+03 -0.15256381589E+04 -0.32247672025E+03  0.15685141973E+04  0.46999998093E+01 0. -1.
       -5    1    3    3    0  502 -0.16926804218E+03  0.15256381589E+04  0.69058055914E+03  0.16831954909E+04  0.46999998093E+01 0.  1.
</event>
<event>
 5   0  0.1387133E-06  0.3489684E+04  0.7818609E-02  0.8116239E-01
        2   -1    0    0  501    0  0.00000000000E+00  0.00000000000E+00  0.18511009501E+04  0.18511009501E+04  0.25500000920E-02 0. -1.
       -2   -1    0    0    0  501  0.00000000000E+00  0.00000000000E+00 -0.16446829334E+04  0.16446829334E+04  0.25500000920E-02 0.  1.
    10030    2    1    2    0    0  0.00000000000E+00  0.00000000000E+00  0.20641801670E+03  0.34957838835E+04  0.34896843070E+04 0.  0.
        4    1    3    3  502    0 -0.34440087659E+02  0.73002124495E+03 -0.14839704706E+04  0.16541726355E+04  0.12699999809E+01 0.  1.
       -4    1    3    3    0  502  0.34440087659E+02 -0.73002124495E+03  0.16903884873E+04  0.18416112479E+04  0.12699999809E+01 0. -1.
</event>
<event>
 5   0  0.4591195E-07  0.3216591E+04  0.7818609E-02  0.8184449E-01
        1   -1    0    0  501    0  0.00000000000E+00  0.00000000000E+00  0.16403143730E+04  0.16403143731E+04  0.50400001928E-02 0.  1.
       -1   -1    0    0    0  501  0.00000000000E+00  0.00000000000E+00 -0.15769012731E+04  0.15769012732E+04  0.50400001928E-02 0. -1.
    10030    2    1    2    0    0  0.00000000000E+00  0.00000000000E+00  0.63413099896E+02  0.32172156462E+04  0.32165906319E+04 0.  0.
        4    1    3    3  502    0 -0.11578325372E+04 -0.85774202644E+03  0.74620845996E+03  0.16226910510E+04  0.12699999809E+01 0.  1.
       -4    1    3    3    0  502  0.11578325372E+04  0.85774202644E+03 -0.68279536007E+03  0.15945245953E+04  0.12699999809E+01 0. -1.
</event>
<event>
 5   0  0.4693374E-07  0.3514119E+04  0.7818609E-02  0.8110452E-01
       -1   -1    0    0    0  501  0.00000000000E+00  0.00000000000E+00  0.13902570960E+04  0.13902570960E+04  0.50400001928E-02 0.  1.
        1   -1    0    0  501    0  0.00000000000E+00  0.00000000000E+00 -0.22206385139E+04  0.22206385139E+04  0.50400001928E-02 0. -1.
    10030    2    1    2    0    0  0.00000000000E+00  0.00000000000E+00 -0.83038141790E+03  0.36108956099E+04  0.35141192078E+04 0.  0.
        1    1    3    3  502    0 -0.11651701525E+04 -0.10584696167E+04  0.38686874414E+03  0.16210018010E+04  0.50400001928E-02 0.  1.
       -1    1    3    3    0  502  0.11651701525E+04  0.10584696167E+04 -0.12172501620E+04  0.19898938089E+04  0.50400001928E-02 0. -1.
</event>
<event>
 5   0  0.4409125E-07  0.3527316E+04  0.7818609E-02  0.8107347E-01
       -1   -1    0    0    0  501  0.00000000000E+00  0.00000000000E+00  0.18924795075E+04  0.18924795075E+04  0.50400001928E-02 0. -1.
        1   -1    0    0  501    0  0.00000000000E+00  0.00000000000E+00 -0.16436052132E+04  0.16436052132E+04  0.50400001928E-02 0.  1.
    10030    2    1    2    0    0  0.00000000000E+00  0.00000000000E+00  0.24887429429E+03  0.35360847207E+04  0.35273157979E+04 0.  0.
        5    1    3    3  502    0  0.44348502824E+03 -0.10705840885E+03 -0.15834196830E+04  0.16478411500E+04  0.46999998093E+01 0.  1.
       -5    1    3    3    0  502 -0.44348502824E+03  0.10705840885E+03  0.18322939773E+04  0.18882435707E+04  0.46999998093E+01 0. -1.
</event>
<event>
 5   0  0.1387133E-06  0.3583134E+04  0.7818609E-02  0.8094366E-01
       -2   -1    0    0    0  501  0.00000000000E+00  0.00000000000E+00  0.18110591775E+04  0.18110591775E+04  0.25500000920E-02 0.  1.
        2   -1    0    0  501    0  0.00000000000E+00  0.00000000000E+00 -0.17722841859E+04  0.17722841859E+04  0.25500000920E-02 0. -1.
    10030    2    1    2    0    0  0.00000000000E+00  0.00000000000E+00  0.38774991606E+02  0.35833433634E+04  0.35831335672E+04 0.  0.
        4    1    3    3  502    0  0.15959088310E+04  0.41701847520E+03  0.71862835012E+03  0.17992380954E+04  0.12699999809E+01 0.  1.
       -4    1    3    3    0  502 -0.15959088310E+04 -0.41701847520E+03 -0.67985335852E+03  0.17841052680E+04  0.12699999809E+01 0. -1.
</event>
<event>
 5   0  0.1378620E-06  0.3472994E+04  0.7818609E-02  0.8120220E-01
       -2   -1    0    0    0  501  0.00000000000E+00  0.00000000000E+00  0.16035809083E+04  0.16035809084E+04  0.25500000920E-02 0.  1.
        2   -1    0    0  501    0  0.00000000000E+00  0.00000000000E+00 -0.18804305452E+04  0.18804305452E+04  0.25500000920E-02 0. -1.
    10030    2    1    2    0    0  0.00000000000E+00  0.00000000000E+00 -0.27684963685E+03  0.34840114536E+04  0.34729943978E+04 0.  0.
        2    1    3    3  502    0  0.16556781728E+04  0.52292481656E+03 -0.16500313190E+03  0.17441177165E+04  0.25500000920E-02 0.  1.
       -2    1    3    3    0  502 -0.16556781728E+04 -0.52292481656E+03 -0.11184650495E+03  0.17398937370E+04  0.25500000920E-02 0. -1.
</event>
<event>
 5   0  0.4409125E-07  0.3500742E+04  0.7818609E-02  0.8113614E-01
        1   -1    0    0  501    0  0.00000000000E+00  0.00000000000E+00  0.14411720620E+04  0.14411720620E+04  0.50400001928E-02 0. -1.
       -1   -1    0    0    0  501  0.00000000000E+00  0.00000000000E+00 -0.21259078680E+04  0.21259078680E+04  0.50400001928E-02 0.  1.
    10030    2    1    2    0    0  0.00000000000E+00  0.00000000000E+00 -0.68473580599E+03  0.35670799300E+04  0.35007422218E+04 0.  0.
        5    1    3    3  502    0  0.12914994605E+04 -0.38533249199E+01  0.86145594150E+03  0.15524542292E+04  0.46999998093E+01 0. -1.
       -5    1    3    3    0  502 -0.12914994605E+04  0.38533249199E+01 -0.15461917475E+04  0.20146257009E+04  0.46999998093E+01 0.  1.
</event>
<event>
 5   0  0.4693374E-07  0.3479304E+04  0.7818609E-02  0.8118712E-01
       -1   -1    0    0    0  501  0.00000000000E+00  0.00000000000E+00  0.10321410509E+04  0.10321410509E+04  0.50400001928E-02 0. -1.
        1   -1    0    0  501    0  0.00000000000E+00  0.00000000000E+00 -0.29321469264E+04  0.29321469264E+04  0.50400001928E-02 0.  1.
    10030    2    1    2    0    0  0.00000000000E+00  0.00000000000E+00 -0.19000058755E+04  0.39642879772E+04  0.34793040740E+04 0.  0.
        1    1    3    3  502    0  0.65584634844E+02  0.11492033204E+04 -0.24362072761E+04  0.26944527289E+04  0.50400001928E-02 0.  1.
       -1    1    3    3    0  502 -0.65584634844E+02 -0.11492033204E+04  0.53620140055E+03  0.12698352484E+04  0.50400001928E-02 0. -1.
</event>
<event>
 5   0  0.1361560E-06  0.3480320E+04  0.7818609E-02  0.8118470E-01
        2   -1    0    0  501    0  0.00000000000E+00  0.00000000000E+00  0.16980321889E+04  0.16980321889E+04  0.25500000920E-02 0. -1.
       -2   -1    0    0    0  501  0.00000000000E+00  0.00000000000E+00 -0.17833325398E+04  0.17833325398E+04  0.25500000920E-02 0.  1.
    10030    2    1    2    0    0  0.00000000000E+00  0.00000000000E+00 -0.85300350885E+02  0.34813647287E+04  0.34803195578E+04 0.  0.
        3    1    3    3  502    0 -0.11077592074E+04  0.75813445670E+03 -0.11503479468E+04  0.17678231600E+04  0.10100000352E+00 0.  1.
       -3    1    3    3    0  502  0.11077592074E+04 -0.75813445670E+03  0.10650475959E+04  0.17135415687E+04  0.10100000352E+00 0. -1.
</event>
<event>
 5   0  0.1387133E-06  0.3526302E+04  0.7818609E-02  0.8107585E-01
        2   -1    0    0  501    0  0.00000000000E+00  0.00000000000E+00  0.20882317433E+04  0.20882317433E+04  0.25500000920E-02 0. -1.
       -2   -1    0    0    0  501  0.00000000000E+00  0.00000000000E+00 -0.14886764646E+04  0.14886764646E+04  0.25500000920E-02 0.  1.
    10030    2    1    2    0    0  0.00000000000E+00  0.00000000000E+00  0.59955527865E+03  0.35769082079E+04  0.35263020001E+04 0.  0.
        4    1    3    3  502    0 -0.45881671470E+01  0.16887094125E+04  0.81394388713E+03  0.18746377771E+04  0.12699999809E+01 0. -1.
       -4    1    3    3    0  502  0.45881671470E+01 -0.16887094125E+04 -0.21438860849E+03  0.17022704308E+04  0.12699999809E+01 0.  1.
</event>
<event>
 5   0  0.1387133E-06  0.3543998E+04  0.7818609E-02  0.8103441E-01
        2   -1    0    0  501    0  0.00000000000E+00  0.00000000000E+00  0.15266230046E+04  0.15266230046E+04  0.25500000920E-02 0.  1.
       -2   -1    0    0    0  501  0.00000000000E+00  0.00000000000E+00 -0.20568146833E+04  0.20568146833E+04  0.25500000920E-02 0. -1.
    10030    2    1    2    0    0  0.00000000000E+00  0.00000000000E+00 -0.53019167872E+03  0.35834376879E+04  0.35439980879E+04 0.  0.
        4    1    3    3  502    0  0.15486218797E+03  0.15301833624E+04  0.62477518203E+03  0.16600569450E+04  0.12699999809E+01 0.  1.
       -4    1    3    3    0  502 -0.15486218797E+03 -0.15301833624E+04 -0.11549668608E+04  0.19233807429E+04  0.12699999809E+01 0. -1.
</event>
<event>
 5   0  0.4700769E-07  0.3478304E+04  0.7818609E-02  0.8118951E-01
       -1   -1    0    0    0  501  0.00000000000E+00  0.00000000000E+00  0.13727635190E+04  0.13727635190E+04  0.50400001928E-02 0.  1.
        1   -1    0    0  501    0  0.00000000000E+00  0.00000000000E+00 -0.22033284422E+04  0.22033284422E+04  0.50400001928E-02 0. -1.
    10030    2    1    2    0    0  0.00000000000E+00  0.00000000000E+00 -0.83056492318E+03  0.35760919611E+04  0.34783035553E+04 0.  0.
        3    1    3    3  502    0 -0.10473437531E+04 -0.13749841193E+04 -0.21715068371E+03  0.17420289020E+04  0.10100000352E+00 0.  1.
       -3    1    3    3    0  502  0.10473437531E+04  0.13749841193E+04 -0.61341423947E+03  0.18340630592E+04  0.10100000352E+00 0. -1.
</event>
<event>
 5   0  0.4409125E-07  0.3481802E+04  0.7818609E-02  0.8118116E-01
        1   -1    0    0  501    0  0.00000000000E+00  0.00000000000E+00  0.25294105129E+04  0.25294105129E+04  0.50400001928E-02 0.  1.
       -1   -1    0    0    0  501  0.00000000000E+00  0.00000000000E+00 -0.11981986144E+04  0.11981986144E+04  0.50400001928E-02 0. -1.
    10030    2    1    2    0    0  0.00000000000E+00  0.00000000000E+00  0.13312118985E+04  0.37276091274E+04  0.34818019312E+04 0.  0.
        5    1    3    3  502    0  0.31434077773E+03 -0.67070450719E+03  0.23522847710E+04  0.24661549818E+04  0.46999998093E+01 0.  1.
       -5    1    3    3    0  502 -0.31434077773E+03  0.67070450719E+03 -0.10210728725E+04  0.12614541456E+04  0.46999998093E+01 0. -1.
</event>
<event>
 5   0  0.4700769E-07  0.3547126E+04  0.7818609E-02  0.8102712E-01
       -1   -1    0    0    0  501  0.00000000000E+00  0.00000000000E+00  0.15631331474E+04  0.15631331475E+04  0.50400001928E-02 0. -1.
        1   -1    0    0  501    0  0.00000000000E+00  0.00000000000E+00 -0.20123207963E+04  0.20123207963E+04  0.50400001928E-02 0.  1.
    10030    2    1    2    0    0  0.00000000000E+00  0.00000000000E+00 -0.44918764885E+03  0.35754539438E+04  0.35471257886E+04 0.  0.
        3    1    3    3  502    0  0.71704677276E+03  0.78488134738E+03 -0.16555546350E+04  0.19674999272E+04  0.10100000352E+00 0.  1.
       -3    1    3    3    0  502 -0.71704677276E+03 -0.78488134738E+03  0.12063669862E+04  0.16079540165E+04  0.10100000352E+00 0. -1.
</event>
<event>
 5   0  0.4557237E-07  0.2835963E+04  0.7818609E-02  0.8292190E-01
        1   -1    0    0  501    0  0.00000000000E+00  0.00000000000E+00  0.11050283366E+04  0.11050283366E+04  0.50400001928E-02 0.  1.
       -1   -1    0    0    0  501  0.00000000000E+00  0.00000000000E+00 -0.18195650536E+04  0.18195650536E+04  0.50400001928E-02 0. -1.
    10030    2    1    2    0    0  0.00000000000E+00  0.00000000000E+00 -0.71453671700E+03  0.29245933902E+04  0.28359625840E+04 0.  0.
        2    1    3    3  502    0 -0.51192091780E+03  0.35821988537E+03  0.95541776727E+03  0.11415811939E+04  0.25500000920E-02 0.  1.
       -2    1    3    3    0  502  0.51192091780E+03 -0.35821988537E+03 -0.16699544843E+04  0.17830121962E+04  0.25500000920E-02 0. -1.
</event>
<event>
 5   0  0.1361560E-06  0.3485492E+04  0.7818609E-02  0.8117237E-01
        2   -1    0    0  501    0  0.00000000000E+00  0.00000000000E+00  0.17997509709E+04  0.17997509709E+04  0.25500000920E-02 0. -1.
       -2   -1    0    0    0  501  0.00000000000E+00  0.00000000000E+00 -0.16875466598E+04  0.16875466598E+04  0.25500000920E-02 0.  1.
    10030    2    1    2    0    0  0.00000000000E+00  0.00000000000E+00  0.11220431108E+03  0.34872976307E+04  0.34854920682E+04 0.  0.
        3    1    3    3  502    0 -0.10450605868E+04 -0.38357264960E+03  0.13976487601E+04  0.17868132735E+04  0.10100000352E+00 0. -1.
       -3    1    3    3    0  502  0.10450605868E+04  0.38357264960E+03 -0.12854444490E+04  0.17004843572E+04  0.10100000352E+00 0.  1.
</event>
<event>
 5   0  0.1361560E-06  0.3528267E+04  0.7818609E-02  0.8107123E-01
       -2   -1    0    0    0  501  0.00000000000E+00  0.00000000000E+00  0.15746696065E+04  0.15746696065E+04  0.25500000920E-02 0.  1.
        2   -1    0    0  501    0  0.00000000000E+00  0.00000000000E+00 -0.19763938899E+04  0.19763938899E+04  0.25500000920E-02 0. -1.
    10030    2    1    2    0    0  0.00000000000E+00  0.00000000000E+00 -0.40172428341E+03  0.35510634965E+04  0.35282672172E+04 0.  0.
        3    1    3    3  502    0  0.64578953701E+03 -0.63652797486E+03 -0.17238992311E+04  0.19478297046E+04  0.10100000352E+00 0. -1.
       -3    1    3    3    0  502 -0.64578953701E+03  0.63652797486E+03  0.13221749477E+04  0.16032337919E+04  0.10100000352E+00 0.  1.
</event>
<event>
 5   0  0.4700769E-07  0.3444245E+04  0.7818609E-02  0.8127132E-01
        1   -1    0    0  501    0  0.00000000000E+00  0.00000000000E+00  0.23713030142E+04  0.23713030142E+04  0.50400001928E-02 0. -1.
       -1   -1    0    0    0  501  0.00000000000E+00  0.00000000000E+00 -0.12506651216E+04  0.12506651216E+04  0.50400001928E-02 0.  1.
    10030    2    1    2    0    0  0.00000000000E+00  0.00000000000E+00  0.11206378926E+04  0.36219681359E+04  0.34442450393E+04 0.  0.
        3    1    3    3  502    0 -0.81445493890E+02  0.10802896851E+04  0.19680680392E+04  0.22465420070E+04  0.10100000352E+00 0. -1.
       -3    1    3    3    0  502  0.81445493890E+02 -0.10802896851E+04 -0.84743014659E+03  0.13754261288E+04  0.10100000352E+00 0.  1.
</event>
<event>
 5   0  0.1378620E-06  0.3406716E+04  0.7818609E-02  0.8136260E-01
        2   -1    0    0  501    0  0.00000000000E+00  0.00000000000E+00  0.17530311400E+04  0.17530311400E+04  0.25500000920E-02 0. -1.
       -2   -1    0    0    0  501  0.00000000000E+00  0.00000000000E+00 -0.16550920706E+04  0.16550920706E+04  0.25500000920E-02 0.  1.
    10030    2    1    2    0    0  0.00000000000E+00  0.00000000000E+00  0.97939069396E+02  0.34081232105E+04  0.34067156848E+04 0.  0.
        2    1    3    3  502    0 -0.68906117121E+03 -0.11194951745E+04  0.11326313667E+04  0.17352027421E+04  0.25500000920E-02 0. -1.
       -2    1    3    3    0  502  0.68906117121E+03  0.11194951745E+04 -0.10346922973E+04  0.16729204684E+04  0.25500000920E-02 0.  1.
</event>
<event>
 5   0  0.1442864E-06  0.2890914E+04  0.7818609E-02  0.8275586E-01
       -2   -1    0    0    0  501  0.00000000000E+00  0.00000000000E+00  0.10604538629E+04  0.10604538629E+04  0.25500000920E-02 0. -1.
        2   -1    0    0  501    0  0.00000000000E+00  0.00000000000E+00 -0.19702374513E+04  0.19702374513E+04  0.25500000920E-02 0.  1.
    10030    2    1    2    0    0  0.00000000000E+00  0.00000000000E+00 -0.90978358833E+03  0.30306913142E+04  0.28909139842E+04 0.  0.
        1    1    3    3  502    0 -0.13052528035E+04 -0.20149461947E+03  0.16092913317E+03  0.13304822992E+04  0.50400001928E-02 0.  1.
       -1    1    3    3    0  502  0.13052528035E+04  0.20149461947E+03 -0.10707127215E+04  0.17002090150E+04  0.50400001928E-02 0. -1.
</event>
<event>
 5   0  0.1387133E-06  0.3699165E+04  0.7818609E-02  0.8068147E-01
       -2   -1    0    0    0  501  0.00000000000E+00  0.00000000000E+00  0.14509013569E+04  0.14509013569E+04  0.25500000920E-02 0. -1.
        2   -1    0    0  501    0  0.00000000000E+00  0.00000000000E+00 -0.23578133310E+04  0.23578133310E+04  0.25500000920E-02 0.  1.
    10030    2    1    2    0    0  0.00000000000E+00  0.00000000000E+00 -0.90691197415E+03  0.38087146879E+04  0.36991645334E+04 0.  0.
        4    1    3    3  502    0  0.12998546802E+04  0.64811929274E+03 -0.16324760881E+04  0.21850996770E+04  0.12699999809E+01 0.  1.
       -4    1    3    3    0  502 -0.12998546802E+04 -0.64811929274E+03  0.72556411391E+03  0.16236150109E+04  0.12699999809E+01 0. -1.
</event>
<event>
 5   0  0.4409125E-07  0.3536765E+04  0.7818609E-02  0.8105132E-01
       -1   -1    0    0    0  501  0.00000000000E+00  0.00000000000E+00  0.13880356261E+04  0.13880356261E+04  0.50400001928E-02 0. -1.
        1   -1    0    0  501    0  0.00000000000E+00  0.00000000000E+00 -0.22529512099E+04  0.22529512099E+04  0.50400001928E-02 0.  1.
    10030    2    1    2    0    0  0.00000000000E+00  0.00000000000E+00 -0.86491558378E+03  0.36409868359E+04  0.35367649303E+04 0.  0.
        5    1    3    3  502    0  0.15961097791E+03  0.17454340873E+04 -0.19072202018E+03  0.17630691411E+04  0.46999998093E+01 0.  1.
       -5    1    3    3    0  502 -0.15961097791E+03 -0.17454340873E+04 -0.67419356359E+03  0.18779176948E+04  0.46999998093E+01 0. -1.
</event>
<event>
 5   0  0.1442864E-06  0.3520546E+04  0.7818609E-02  0.8108938E-01
        2   -1    0    0  501    0  0.00000000000E+00  0.00000000000E+00  0.14943425687E+04  0.14943425687E+04  0.25500000920E-02 0.  1.
       -2   -1    0    0    0  501  0.00000000000E+00  0.00000000000E+00 -0.20735279630E+04  0.20735279630E+04  0.25500000920E-02 0. -1.
    10030    2    1    2    0    0  0.00000000000E+00  0.00000000000E+00 -0.57918539426E+03  0.35678705317E+04  0.35205460387E+04 0.  0.
        1    1    3    3  502    0 -0.10538178023E+04 -0.14065534395E+04 -0.38907828304E+03  0.18000851227E+04  0.50400001928E-02 0. -1.
       -1    1    3    3    0  502  0.10538178023E+04  0.14065534395E+04 -0.19010711122E+03  0.17677854090E+04  0.50400001928E-02 0.  1.
</event>
<event>
 5   0  0.1361560E-06  0.2536537E+04  0.7818609E-02  0.8390083E-01
        2   -1    0    0  501    0  0.00000000000E+00  0.00000000000E+00  0.17981074765E+04  0.17981074765E+04  0.25500000920E-02 0.  1.
       -2   -1    0    0    0  501  0.00000000000E+00  0.00000000000E+00 -0.89455434760E+03  0.89455434760E+03  0.25500000920E-02 0. -1.
    10030    2    1    2    0    0  0.00000000000E+00  0.00000000000E+00  0.90355312891E+03  0.26926618241E+04  0.25365368994E+04 0.  0.
        3    1    3    3  502    0 -0.33479862218E+03  0.64047806543E+03 -0.65458236077E+03  0.97507966185E+03  0.10100000352E+00 0. -1.
       -3    1    3    3    0  502  0.33479862218E+03 -0.64047806543E+03  0.15581354897E+04  0.17175821623E+04  0.10100000352E+00 0.  1.
</event>
<event>
 5   0  0.4591195E-07  0.3522084E+04  0.7818609E-02  0.8108576E-01
        1   -1    0    0  501    0  0.00000000000E+00  0.00000000000E+00  0.30206524317E+04  0.30206524317E+04  0.50400001928E-02 0. -1.
       -1   -1    0    0    0  501  0.00000000000E+00  0.00000000000E+00 -0.10266882406E+04  0.10266882406E+04  0.50400001928E-02 0.  1.
    10030    2    1    2    0    0  0.00000000000E+00  0.00000000000E+00  0.19939641911E+04  0.40473406723E+04  0.35220836621E+04 0.  0.
        4    1    3    3  502    0  0.27121111962E+03  0.17331052745E+04  0.11752175181E+04  0.21114798583E+04  0.12699999809E+01 0. -1.
       -4    1    3    3    0  502 -0.27121111962E+03 -0.17331052745E+04  0.81874667300E+03  0.19358608141E+04  0.12699999809E+01 0.  1.
</event>
<event>
 5   0  0.1348388E-06  0.3469246E+04  0.7818609E-02  0.8121117E-01
        2   -1    0    0  501    0  0.00000000000E+00  0.00000000000E+00  0.16694319273E+04  0.16694319273E+04  0.25500000920E-02 0.  1.
       -2   -1    0    0    0  501  0.00000000000E+00  0.00000000000E+00 -0.18023593039E+04  0.18023593039E+04  0.25500000920E-02 0. -1.
    10030    2    1    2    0    0  0.00000000000E+00  0.00000000000E+00 -0.13292737661E+03  0.34717912312E+04  0.34692455470E+04 0.  0.
        5    1    3    3  502    0 -0.18757032861E+03  0.16023014022E+04 -0.70438078255E+03  0.17603200813E+04  0.46999998093E+01 0.  1.
       -5    1    3    3    0  502  0.18757032861E+03 -0.16023014022E+04  0.57145340594E+03  0.17114711499E+04  0.46999998093E+01 0. -1.
</event>
<event>
 5   0  0.1378620E-06  0.3432417E+04  0.7818609E-02  0.8129996E-01
       -2   -1    0    0    0  501  0.00000000000E+00  0.00000000000E+00  0.14581353077E+04  0.14581353077E+04  0.25500000920E-02 0.  1.
        2   -1    0    0  501    0  0.00000000000E+00  0.00000000000E+00 -0.20199578939E+04  0.20199578939E+04  0.25500000920E-02 0. -1.
    10030    2    1    2    0    0  0.00000000000E+00  0.00000000000E+00 -0.56182258623E+03  0.34780932016E+04  0.34324171804E+04 0.  0.
        2    1    3    3  502    0  0.14140397579E+04  0.51730155069E+02  0.70319081435E+03  0.15800828355E+04  0.25500000920E-02 0.  1.
       -2    1    3    3    0  502 -0.14140397579E+04 -0.51730155069E+02 -0.12650134006E+04  0.18980103660E+04  0.25500000920E-02 0. -1.
</event>
<event>
 5   0  0.1378620E-06  0.3534320E+04  0.7818609E-02  0.8105704E-01
        2   -1    0    0  501    0  0.00000000000E+00  0.00000000000E+00  0.23389390919E+04  0.23389390919E+04  0.25500000920E-02 0. -1.
       -2   -1    0    0    0  501  0.00000000000E+00  0.00000000000E+00 -0.13351582664E+04  0.13351582664E+04  0.25500000920E-02 0.  1.
    10030    2    1    2    0    0  0.00000000000E+00  0.00000000000E+00  0.10037808254E+04  0.36740973583E+04  0.35343196591E+04 0.  0.
        2    1    3    3  502    0 -0.28466266349E+01  0.78890818236E+03  0.21457155856E+04  0.22861495134E+04  0.25500000920E-02 0. -1.
       -2    1    3    3    0  502  0.28466266349E+01 -0.78890818236E+03 -0.11419347602E+04  0.13879478448E+04  0.25500000920E-02 0.  1.
</event>
<event>
 5   0  0.4700769E-07  0.3272106E+04  0.7818609E-02  0.8170030E-01
       -1   -1    0    0    0  501  0.00000000000E+00  0.00000000000E+00  0.13254811047E+04  0.13254811047E+04  0.50400001928E-02 0.  1.
        1   -1    0    0  501    0  0.00000000000E+00  0.00000000000E+00 -0.20193940919E+04  0.20193940920E+04  0.50400001928E-02 0. -1.
    10030    2    1    2    0    0  0.00000000000E+00  0.00000000000E+00 -0.69391298730E+03  0.33448751966E+04  0.32721055678E+04 0.  0.
        3    1    3    3  502    0  0.27887318619E+03  0.10661006929E+04  0.88920432338E+03  0.14159891526E+04  0.10100000352E+00 0.  1.
       -3    1    3    3    0  502 -0.27887318619E+03 -0.10661006929E+04 -0.15831173107E+04  0.19288860440E+04  0.10100000352E+00 0. -1.
</event>
<event>
 5   0  0.4557237E-07  0.3502333E+04  0.7818609E-02  0.8113237E-01
        1   -1    0    0  501    0  0.00000000000E+00  0.00000000000E+00  0.15257572628E+04  0.15257572628E+04  0.50400001928E-02 0. -1.
       -1   -1    0    0    0  501  0.00000000000E+00  0.00000000000E+00 -0.20098771232E+04  0.20098771232E+04  0.50400001928E-02 0.  1.
    10030    2    1    2    0    0  0.00000000000E+00  0.00000000000E+00 -0.48411986040E+03  0.35356343859E+04  0.35023332896E+04 0.  0.
        2    1    3    3  502    0  0.40423993500E+03 -0.12895891291E+02 -0.19620820113E+04  0.20033327353E+04  0.25500000920E-02 0.  1.
       -2    1    3    3    0  502 -0.40423993500E+03  0.12895891291E+02  0.14779621509E+04  0.15323016507E+04  0.25500000920E-02 0. -1.
</event>
<event>
 5   0  0.1442864E-06  0.2809353E+04  0.7818609E-02  0.8300370E-01
       -2   -1    0    0    0  501  0.00000000000E+00  0.00000000000E+00  0.10267226932E+04  0.10267226932E+04  0.25500000920E-02 0. -1.
        2   -1    0    0  501    0  0.00000000000E+00  0.00000000000E+00 -0.19217620882E+04  0.19217620882E+04  0.25500000920E-02 0.  1.
    10030    2    1    2    0    0  0.00000000000E+00  0.00000000000E+00 -0.89503939499E+03  0.29484847814E+04  0.28093534822E+04 0.  0.
        1    1    3    3  502    0  0.11786247863E+04 -0.37105914091E+03 -0.11486423736E+04  0.16870745612E+04  0.50400001928E-02 0.  1.
       -1    1    3    3    0  502 -0.11786247863E+04  0.37105914091E+03  0.25360297857E+03  0.12614102202E+04  0.50400001928E-02 0. -1.
</event>
<event>
 5   0  0.4557237E-07  0.3496257E+04  0.7818609E-02  0.8114678E-01
       -1   -1    0    0    0  501  0.00000000000E+00  0.00000000000E+00  0.16580596816E+04  0.16580596816E+04  0.50400001928E-02 0.  1.
        1   -1    0    0  501    0  0.00000000000E+00  0.00000000000E+00 -0.18430899066E+04  0.18430899066E+04  0.50400001928E-02 0. -1.
    10030    2    1    2    0    0  0.00000000000E+00  0.00000000000E+00 -0.18503022501E+03  0.35011495882E+04  0.34962568920E+04 0.  0.
        2    1    3    3  502    0 -0.31272060795E+03 -0.13383379605E+04  0.98927919584E+03  0.16934036738E+04  0.25500000920E-02 0.  1.
       -2    1    3    3    0  502  0.31272060795E+03  0.13383379605E+04 -0.11743094208E+04  0.18077459144E+04  0.25500000920E-02 0. -1.
</event>
<event>
 5   0  0.4409125E-07  0.3495502E+04  0.7818609E-02  0.8114857E-01
        1   -1    0    0  501    0  0.00000000000E+00  0.00000000000E+00  0.15728005922E+04  0.15728005922E+04  0.50400001928E-02 0.  1.
       -1   -1    0    0    0  501  0.00000000000E+00  0.00000000000E+00 -0.19421623210E+04  0.19421623210E+04  0.50400001928E-02 0. -1.
    10030    2    1    2    0    0  0.00000000000E+00  0.00000000000E+00 -0.36936172881E+03  0.35149629132E+04  0.34955022807E+04 0.  0.
        5    1    3    3  502    0 -0.49084188030E+03 -0.67476336177E+02 -0.18700588612E+04  0.19345854961E+04  0.46999998093E+01 0. -1.
       -5    1    3    3    0  502  0.49084188030E+03  0.67476336177E+02  0.15006971324E+04  0.15803774171E+04  0.46999998093E+01 0.  1.
</event>
<event>
 5   0  0.1348388E-06  0.3067537E+04  0.7818609E-02  0.8224704E-01
        2   -1    0    0  501    0  0.00000000000E+00  0.00000000000E+00  0.19658456979E+04  0.19658456979E+04  0.25500000920E-02 0.  1.
       -2   -1    0    0    0  501  0.00000000000E+00  0.00000000000E+00 -0.11966582925E+04  0.11966582925E+04  0.25500000920E-02 0. -1.
    10030    2    1    2    0    0  0.00000000000E+00  0.00000000000E+00  0.76918740542E+03  0.31625039904E+04  0.30675368335E+04 0.  0.
        5    1    3    3  502    0  0.10022360466E+04  0.11604372982E+04  0.42221522557E+03  0.15904023399E+04  0.46999998093E+01 0.  1.
       -5    1    3    3    0  502 -0.10022360466E+04 -0.11604372982E+04  0.34697217985E+03  0.15721016505E+04  0.46999998093E+01 0. -1.
</event>
<event>
 5   0  0.4557237E-07  0.3503828E+04  0.7818609E-02  0.8112883E-01
        1   -1    0    0  501    0  0.00000000000E+00  0.00000000000E+00  0.21084489141E+04  0.21084489141E+04  0.50400001928E-02 0.  1.
       -1   -1    0    0    0  501  0.00000000000E+00  0.00000000000E+00 -0.14556687693E+04  0.14556687693E+04  0.50400001928E-02 0. -1.
    10030    2    1    2    0    0  0.00000000000E+00  0.00000000000E+00  0.65278014483E+03  0.35641176834E+04  0.35038283267E+04 0.  0.
        2    1    3    3  502    0  0.56943564702E+03 -0.84500745691E+03 -0.11232307339E+04  0.15165559139E+04  0.25500000920E-02 0. -1.
       -2    1    3    3    0  502 -0.56943564702E+03  0.84500745691E+03  0.17760108787E+04  0.20475617695E+04  0.25500000920E-02 0.  1.
</event>
<event>
 5   0  0.4700769E-07  0.3511348E+04  0.7818609E-02  0.8111106E-01
        1   -1    0    0  501    0  0.00000000000E+00  0.00000000000E+00  0.23607409713E+04  0.23607409713E+04  0.50400001928E-02 0.  1.
       -1   -1    0    0    0  501  0.00000000000E+00  0.00000000000E+00 -0.13056876959E+04  0.13056876959E+04  0.50400001928E-02 0. -1.
    10030    2    1    2    0    0  0.00000000000E+00  0.00000000000E+00  0.10550532754E+04  0.36664286673E+04  0.35113475701E+04 0.  0.
        3    1    3    3  502    0 -0.67603944045E+03 -0.53089001136E+03 -0.10709395889E+04  0.13732389240E+04  0.10100000352E+00 0. -1.
       -3    1    3    3    0  502  0.67603944045E+03  0.53089001136E+03  0.21259928643E+04  0.22931897432E+04  0.10100000352E+00 0.  1.
</event>
<event>
 5   0  0.4409125E-07  0.3374307E+04  0.7818609E-02  0.8144241E-01
       -1   -1    0    0    0  501  0.00000000000E+00  0.00000000000E+00  0.21017530299E+04  0.21017530299E+04  0.50400001928E-02 0. -1.
        1   -1    0    0  501    0  0.00000000000E+00  0.00000000000E+00 -0.13543396190E+04  0.13543396190E+04  0.50400001928E-02 0.  1.
    10030    2    1    2    0    0  0.00000000000E+00  0.00000000000E+00  0.74741341091E+03  0.34560926489E+04  0.33743072757E+04 0.  0.
        5    1    3    3  502    0 -0.10884630929E+04 -0.11621391182E+04  0.94503128695E+03  0.18516007825E+04  0.46999998093E+01 0.  1.
       -5    1    3    3    0  502  0.10884630929E+04  0.11621391182E+04 -0.19761787604E+03  0.16044918664E+04  0.46999998093E+01 0. -1.
</event>
<event>
 5   0  0.1378620E-06  0.3577834E+04  0.7818609E-02  0.8095588E-01
        2   -1    0    0  501    0  0.00000000000E+00  0.00000000000E+00  0.17924780299E+04  0.17924780299E+04  0.25500000920E-02 0. -1.
       -2   -1    0    0    0  501  0.00000000000E+00  0.00000000000E+00 -0.17853629742E+04  0.17853629742E+04  0.25500000920E-02 0.  1.
    10030    2    1    2    0    0  0.00000000000E+00  0.00000000000E+00  0.71150556636E+01  0.35778410041E+04  0.35778339294E+04 0.  0.
        2    1    3    3  502    0  0.59289285336E+03 -0.21493122252E+02  0.16912338240E+04  0.17922766911E+04  0.25500000920E-02 0. -1.
       -2    1    3    3    0  502 -0.59289285336E+03  0.21493122252E+02 -0.16841187684E+04  0.17855643130E+04  0.25500000920E-02 0.  1.
</event>
<event>
 5   0  0.1361560E-06  0.3428492E+04  0.7818609E-02  0.8130949E-01
       -2   -1    0    0    0  501  0.00000000000E+00  0.00000000000E+00  0.18187306889E+04  0.18187306889E+04  0.25500000920E-02 0.  1.
        2   -1    0    0  501    0  0.00000000000E+00  0.00000000000E+00 -0.16157636236E+04  0.16157636236E+04  0.25500000920E-02 0. -1.
    10030    2    1    2    0    0  0.00000000000E+00  0.00000000000E+00  0.20296706524E+03  0.34344943125E+04  0.34284917315E+04 0.  0.
        3    1    3    3  502    0 -0.14319741833E+03 -0.15364732214E+03 -0.16028257658E+04  0.16165282075E+04  0.10100000352E+00 0. -1.
       -3    1    3    3    0  502  0.14319741833E+03  0.15364732214E+03  0.18057928310E+04  0.18179661050E+04  0.10100000352E+00 0.  1.
</event>
<event>
 5   0  0.4700769E-07  0.3482031E+04  0.7818609E-02  0.8118062E-01
       -1   -1    0    0    0  501  0.00000000000E+00  0.00000000000E+00  0.19180095068E+04  0.19180095068E+04  0.50400001928E-02 0.  1.
        1   -1    0    0  501    0  0.00000000000E+00  0.00000000000E+00 -0.15803544533E+04  0.15803544533E+04  0.50400001928E-02 0. -1.
    10030    2    1    2    0    0  0.00000000000E+00  0.00000000000E+00  0.33765505356E+03  0.34983639601E+04  0.34820309393E+04 0.  0.
        3    1    3    3  502    0 -0.56057291715E+03  0.14501774400E+04  0.95600650681E+03  0.18251589120E+04  0.10100000352E+00 0. -1.
       -3    1    3    3    0  502  0.56057291715E+03 -0.14501774400E+04 -0.61835145325E+03  0.16732050481E+04  0.10100000352E+00 0.  1.
</event>
<event>
 5   0  0.1442864E-06  0.3441706E+04  0.7818609E-02  0.8127745E-01
        2   -1    0    0  501    0  0.00000000000E+00  0.00000000000E+00  0.87846466984E+03  0.87846466984E+03  0.25500000920E-02 0.  1.
       -2   -1    0    0    0  501  0.00000000000E+00  0.00000000000E+00 -0.33710355535E+04  0.33710355535E+04  0.25500000920E-02 0. -1.
    10030    2    1    2    0    0  0.00000000000E+00  0.00000000000E+00 -0.24925708837E+04  0.42495002234E+04  0.34417063411E+04 0.  0.
        1    1    3    3  502    0  0.72876506617E+03  0.35470431963E+03 -0.31206110848E+04  0.32241475181E+04  0.50400001928E-02 0. -1.
       -1    1    3    3    0  502 -0.72876506617E+03 -0.35470431963E+03  0.62804020108E+03  0.10253527053E+04  0.50400001928E-02 0.  1.
</event>
<event>
 5   0  0.1442864E-06  0.3109787E+04  0.7818609E-02  0.8213057E-01
        2   -1    0    0  501    0  0.00000000000E+00  0.00000000000E+00  0.21604650194E+04  0.21604650194E+04  0.25500000920E-02 0. -1.
       -2   -1    0    0    0  501  0.00000000000E+00  0.00000000000E+00 -0.11190620588E+04  0.11190620589E+04  0.25500000920E-02 0.  1.
    10030    2    1    2    0    0  0.00000000000E+00  0.00000000000E+00  0.10414029605E+04  0.32795270782E+04  0.31097874092E+04 0.  0.
        1    1    3    3  502    0  0.10514447756E+04  0.93103558516E+03 -0.18305435903E+03  0.14162882035E+04  0.50400001928E-02 0.  1.
       -1    1    3    3    0  502 -0.10514447756E+04 -0.93103558516E+03  0.12244573196E+04  0.18632388748E+04  0.50400001928E-02 0. -1.
</event>
<event>
 5   0  0.1348388E-06  0.3477804E+04  0.7818609E-02  0.8119070E-01
       -2   -1    0    0    0  501  0.00000000000E+00  0.00000000000E+00  0.19495229036E+04  0.19495229036E+04  0.25500000920E-02 0.  1.
        2   -1    0    0  501    0  0.00000000000E+00  0.00000000000E+00 -0.15510359328E+04  0.15510359328E+04  0.25500000920E-02 0. -1.
    10030    2    1    2    0    0  0.00000000000E+00  0.00000000000E+00  0.39848697076E+03  0.35005588364E+04  0.34778039481E+04 0.  0.
        5    1    3    3  502    0  0.17004652398E+04  0.36352199674E+03  0.20454210769E+03  0.17508825882E+04  0.46999998093E+01 0.  1.
       -5    1    3    3    0  502 -0.17004652398E+04 -0.36352199674E+03  0.19394486307E+03  0.17496762483E+04  0.46999998093E+01 0. -1.
</event>
<event>
 5   0  0.1361560E-06  0.3575481E+04  0.7818609E-02  0.8096131E-01
       -2   -1    0    0    0  501  0.00000000000E+00  0.00000000000E+00  0.13738150993E+04  0.13738150993E+04  0.25500000920E-02 0.  1.
        2   -1    0    0  501    0  0.00000000000E+00  0.00000000000E+00 -0.23263795858E+04  0.23263795858E+04  0.25500000920E-02 0. -1.
    10030    2    1    2    0    0  0.00000000000E+00  0.00000000000E+00 -0.95256448651E+03  0.37001946850E+04  0.35754806119E+04 0.  0.
        3    1    3    3  502    0 -0.81368668613E+03  0.30682210018E+03 -0.20927473433E+04  0.22662341621E+04  0.10100000352E+00 0. -1.
       -3    1    3    3    0  502  0.81368668613E+03 -0.30682210018E+03  0.11401828568E+04  0.14339605230E+04  0.10100000352E+00 0.  1.
</event>
<event>
 5   0  0.4693374E-07  0.3509801E+04  0.7818609E-02  0.8111471E-01
       -1   -1    0    0    0  501  0.00000000000E+00  0.00000000000E+00  0.13943373581E+04  0.13943373581E+04  0.50400001928E-02 0.  1.
        1   -1    0    0  501    0  0.00000000000E+00  0.00000000000E+00 -0.22087017654E+04  0.22087017655E+04  0.50400001928E-02 0. -1.
    10030    2    1    2    0    0  0.00000000000E+00  0.00000000000E+00 -0.81436440738E+03  0.36030391235E+04  0.35098007832E+04 0.  0.
        1    1    3    3  502    0  0.46242892427E+03  0.16606166786E+04 -0.74483806540E+03  0.18778370555E+04  0.50400001928E-02 0. -1.
       -1    1    3    3    0  502 -0.46242892427E+03 -0.16606166786E+04 -0.69526341986E+02  0.17252020680E+04  0.50400001928E-02 0.  1.
</event>
<event>
 5   0  0.4693374E-07  0.3466387E+04  0.7818609E-02  0.8121802E-01
        1   -1    0    0  501    0  0.00000000000E+00  0.00000000000E+00  0.10338000502E+04  0.10338000502E+04  0.50400001928E-02 0. -1.
       -1   -1    0    0    0  501  0.00000000000E+00  0.00000000000E+00 -0.29057450618E+04  0.29057450618E+04  0.50400001928E-02 0.  1.
    10030    2    1    2    0    0  0.00000000000E+00  0.00000000000E+00 -0.18719450115E+04  0.39395451120E+04  0.34663868167E+04 0.  0.
        1    1    3    3  502    0  0.61967095430E+03 -0.14433779056E+04 -0.17685133027E+04  0.23653691407E+04  0.50400001928E-02 0.  1.
       -1    1    3    3    0  502 -0.61967095430E+03  0.14433779056E+04 -0.10343170884E+03  0.15741759713E+04  0.50400001928E-02 0. -1.
</event>
<event>
 5   0  0.4700769E-07  0.3633859E+04  0.7818609E-02  0.8082780E-01
        1   -1    0    0  501    0  0.00000000000E+00  0.00000000000E+00  0.24290834805E+04  0.24290834805E+04  0.50400001928E-02 0.  1.
       -1   -1    0    0    0  501  0.00000000000E+00  0.00000000000E+00 -0.13590447863E+04  0.13590447863E+04  0.50400001928E-02 0. -1.
    10030    2    1    2    0    0  0.00000000000E+00  0.00000000000E+00  0.10700386942E+04  0.37881282668E+04  0.36338592376E+04 0.  0.
        3    1    3    3  502    0 -0.16832681375E+04 -0.29293706285E+03  0.11793443977E+04  0.20760676684E+04  0.10100000352E+00 0.  1.
       -3    1    3    3    0  502  0.16832681375E+04  0.29293706285E+03 -0.10930570345E+03  0.17120605983E+04  0.10100000352E+00 0. -1.
</event>
<event>
 5   0  0.1348388E-06  0.3502310E+04  0.7818609E-02  0.8113243E-01
        2   -1    0    0  501    0  0.00000000000E+00  0.00000000000E+00  0.14585576772E+04  0.14585576772E+04  0.25500000920E-02 0.  1.
       -2   -1    0    0    0  501  0.00000000000E+00  0.00000000000E+00 -0.21024489277E+04  0.21024489277E+04  0.25500000920E-02 0. -1.
    10030    2    1    2    0    0  0.00000000000E+00  0.00000000000E+00 -0.64389125048E+03  0.35610066050E+04  0.35023095377E+04 0.  0.
        5    1    3    3  502    0  0.10287798856E+03  0.37576649189E+03 -0.20578184703E+04  0.20943789733E+04  0.46999998093E+01 0. -1.
       -5    1    3    3    0  502 -0.10287798856E+03 -0.37576649189E+03  0.14139272198E+04  0.14666276317E+04  0.46999998093E+01 0.  1.
</event>
<event>
 5   0  0.1442864E-06  0.3266304E+04  0.7818609E-02  0.8171523E-01
       -2   -1    0    0    0  501  0.00000000000E+00  0.00000000000E+00  0.16124261821E+04  0.16124261821E+04  0.25500000920E-02 0. -1.
        2   -1    0    0  501    0  0.00000000000E+00  0.00000000000E+00 -0.16541441278E+04  0.16541441278E+04  0.25500000920E-02 0.  1.
    10030    2    1    2    0    0  0.00000000000E+00  0.00000000000E+00 -0.41717945756E+02  0.32665703099E+04  0.32663039054E+04 0.  0.
        1    1    3    3  502    0 -0.77685326849E+03 -0.69144521667E+03  0.12384449890E+04  0.16172023619E+04  0.50400001928E-02 0. -1.
       -1    1    3    3    0  502  0.77685326849E+03  0.69144521667E+03 -0.12801629347E+04  0.16493679480E+04  0.50400001928E-02 0.  1.
</event>
<event>
 5   0  0.4409125E-07  0.3505039E+04  0.7818609E-02  0.8112597E-01
        1   -1    0    0  501    0  0.00000000000E+00  0.00000000000E+00  0.22483185897E+04  0.22483185897E+04  0.50400001928E-02 0.  1.
       -1   -1    0    0    0  501  0.00000000000E+00  0.00000000000E+00 -0.13660538774E+04  0.13660538774E+04  0.50400001928E-02 0. -1.
    10030    2    1    2    0    0  0.00000000000E+00  0.00000000000E+00  0.88226471228E+03  0.36143724670E+04  0.35050388454E+04 0.  0.
        5    1    3    3  502    0 -0.10333910657E+04  0.12548558372E+04  0.11163411183E+04  0.19720040186E+04  0.46999998093E+01 0.  1.
       -5    1    3    3    0  502  0.10333910657E+04 -0.12548558372E+04 -0.23407640607E+03  0.16423684485E+04  0.46999998093E+01 0. -1.
</event>
<event>
 5   0  0.4409125E-07  0.3511421E+04  0.7818609E-02  0.8111089E-01
       -1   -1    0    0    0  501  0.00000000000E+00  0.00000000000E+00  0.20245143855E+04  0.20245143855E+04  0.50400001928E-02 0. -1.
        1   -1    0    0  501    0  0.00000000000E+00  0.00000000000E+00 -0.15225970612E+04  0.15225970612E+04  0.50400001928E-02 0.  1.
    10030    2    1    2    0    0  0.00000000000E+00  0.00000000000E+00  0.50191732429E+03  0.35471114468E+04  0.35114211675E+04 0.  0.
        5    1    3    3  502    0 -0.40484218838E+03 -0.62567733522E+03 -0.13548934649E+04  0.15463271700E+04  0.46999998093E+01 0.  1.
       -5    1    3    3    0  502  0.40484218838E+03  0.62567733522E+03  0.18568107892E+04  0.20007842768E+04  0.46999998093E+01 0. -1.
</event>
<event>
 5   0  0.1442864E-06  0.3469520E+04  0.7818609E-02  0.8121051E-01
        2   -1    0    0  501    0  0.00000000000E+00  0.00000000000E+00  0.21175949054E+04  0.21175949054E+04  0.25500000920E-02 0. -1.
       -2   -1    0    0    0  501  0.00000000000E+00  0.00000000000E+00 -0.14211372437E+04  0.14211372437E+04  0.25500000920E-02 0.  1.
    10030    2    1    2    0    0  0.00000000000E+00  0.00000000000E+00  0.69645766170E+03  0.35387321491E+04  0.34695204205E+04 0.  0.
        1    1    3    3  502    0  0.15687558986E+04  0.64671374308E+03  0.71620167199E+03  0.18417867873E+04  0.50400001928E-02 0. -1.
       -1    1    3    3    0  502 -0.15687558986E+04 -0.64671374308E+03 -0.19744010290E+02  0.16969453618E+04  0.50400001928E-02 0.  1.
</event>
<event>
 5   0  0.4700769E-07  0.3489046E+04  0.7818609E-02  0.8116391E-01
        1   -1    0    0  501    0  0.00000000000E+00  0.00000000000E+00  0.18332834593E+04  0.18332834593E+04  0.50400001928E-02 0. -1.
       -1   -1    0    0    0  501  0.00000000000E+00  0.00000000000E+00 -0.16600602434E+04  0.16600602434E+04  0.50400001928E-02 0.  1.
    10030    2    1    2    0    0  0.00000000000E+00  0.00000000000E+00  0.17322321585E+03  0.34933437027E+04  0.34890462798E+04 0.  0.
        3    1    3    3  502    0 -0.46281739436E+03 -0.15498447485E+04 -0.56775461379E+03  0.17142240217E+04  0.10100000352E+00 0.  1.
       -3    1    3    3    0  502  0.46281739436E+03  0.15498447485E+04  0.74097782964E+03  0.17791196810E+04  0.10100000352E+00 0. -1.
</event>
<event>
 5   0  0.4557237E-07  0.3408744E+04  0.7818609E-02  0.8135764E-01
        1   -1    0    0  501    0  0.00000000000E+00  0.00000000000E+00  0.15735213391E+04  0.15735213391E+04  0.50400001928E-02 0.  1.
       -1   -1    0    0    0  501  0.00000000000E+00  0.00000000000E+00 -0.18461041448E+04  0.18461041448E+04  0.50400001928E-02 0. -1.
    10030    2    1    2    0    0  0.00000000000E+00  0.00000000000E+00 -0.27258280574E+03  0.34196254839E+04  0.34087442063E+04 0.  0.
        2    1    3    3  502    0 -0.71444418500E+03 -0.79021367849E+03  0.11983750431E+04  0.16034247394E+04  0.25500000920E-02 0.  1.
       -2    1    3    3    0  502  0.71444418500E+03  0.79021367849E+03 -0.14709578488E+04  0.18162007445E+04  0.25500000920E-02 0. -1.
</event>
<event>
 5   0  0.4591195E-07  0.3484819E+04  0.7818609E-02  0.8117397E-01
       -1   -1    0    0    0  501  0.00000000000E+00  0.00000000000E+00  0.17005025664E+04  0.17005025664E+04  0.50400001928E-02 0.  1.
        1   -1    0    0  501    0  0.00000000000E+00  0.00000000000E+00 -0.17853494879E+04  0.17853494880E+04  0.50400001928E-02 0. -1.
    10030    2    1    2    0    0  0.00000000000E+00  0.00000000000E+00 -0.84846921546E+02  0.34858520544E+04  0.34848192987E+04 0.  0.
        4    1    3    3  502    0  0.97032379555E+03 -0.12783465602E+04  0.63622552070E+03  0.17264074613E+04  0.12699999809E+01 0. -1.
       -4    1    3    3    0  502 -0.97032379555E+03  0.12783465602E+04 -0.72107244225E+03  0.17594445931E+04  0.12699999809E+01 0.  1.
</event>
<event>
 5   0  0.4591195E-07  0.3515503E+04  0.7818609E-02  0.8110126E-01
        1   -1    0    0  501    0  0.00000000000E+00  0.00000000000E+00  0.25769951149E+04  0.25769951149E+04  0.50400001928E-02 0. -1.
       -1   -1    0    0    0  501  0.00000000000E+00  0.00000000000E+00 -0.11989509796E+04  0.11989509796E+04  0.50400001928E-02 0.  1.
    10030    2    1    2    0    0  0.00000000000E+00  0.00000000000E+00  0.13780441353E+04  0.37759460945E+04  0.35155032741E+04 0.  0.
        4    1    3    3  502    0  0.62043253570E+03  0.13924809490E+04 -0.25087789901E+03  0.15449534161E+04  0.12699999809E+01 0.  1.
       -4    1    3    3    0  502 -0.62043253570E+03 -0.13924809490E+04  0.16289220343E+04  0.22309926785E+04  0.12699999809E+01 0. -1.
</event>
<event>
 5   0  0.4693374E-07  0.3446089E+04  0.7818609E-02  0.8126686E-01
       -1   -1    0    0    0  501  0.00000000000E+00  0.00000000000E+00  0.17645680096E+04  0.17645680096E+04  0.50400001928E-02 0.  1.
        1   -1    0    0  501    0  0.00000000000E+00  0.00000000000E+00 -0.16824983164E+04  0.16824983164E+04  0.50400001928E-02 0. -1.
    10030    2    1    2    0    0  0.00000000000E+00  0.00000000000E+00  0.82069693161E+02  0.34470663260E+04  0.34460892068E+04 0.  0.
        1    1    3    3  502    0 -0.10796440549E+04 -0.97326491315E+03  0.96650355465E+03  0.17455672423E+04  0.50400001928E-02 0.  1.
       -1    1    3    3    0  502  0.10796440549E+04  0.97326491315E+03 -0.88443386149E+03  0.17014990837E+04  0.50400001928E-02 0. -1.
</event>
<event>
 5   0  0.4700769E-07  0.3471459E+04  0.7818609E-02  0.8120587E-01
        1   -1    0    0  501    0  0.00000000000E+00  0.00000000000E+00  0.13806095345E+04  0.13806095345E+04  0.50400001928E-02 0.  1.
       -1   -1    0    0    0  501  0.00000000000E+00  0.00000000000E+00 -0.21821932731E+04  0.21821932732E+04  0.50400001928E-02 0. -1.
    10030    2    1    2    0    0  0.00000000000E+00  0.00000000000E+00 -0.80158373867E+03  0.35628028076E+04  0.34714589665E+04 0.  0.
        3    1    3    3  502    0  0.16905875361E+04  0.12104906937E+03 -0.16756457303E+02  0.16949984907E+04  0.10100000352E+00 0. -1.
       -3    1    3    3    0  502 -0.16905875361E+04 -0.12104906937E+03 -0.78482728137E+03  0.18678043169E+04  0.10100000352E+00 0.  1.
</event>
<event>
 5   0  0.4591195E-07  0.3515611E+04  0.7818609E-02  0.8110100E-01
        1   -1    0    0  501    0  0.00000000000E+00  0.00000000000E+00  0.24844051755E+04  0.24844051755E+04  0.50400001928E-02 0. -1.
       -1   -1    0    0    0  501  0.00000000000E+00  0.00000000000E+00 -0.12437099941E+04  0.12437099941E+04  0.50400001928E-02 0.  1.
    10030    2    1    2    0    0  0.00000000000E+00  0.00000000000E+00  0.12406951815E+04  0.37281151696E+04  0.35156106418E+04 0.  0.
        4    1    3    3  502    0  0.16472205542E+04  0.60536182868E+03  0.72681254102E+03  0.18994885049E+04  0.12699999809E+01 0. -1.
       -4    1    3    3    0  502 -0.16472205542E+04 -0.60536182868E+03  0.51388264046E+03  0.18286266647E+04  0.12699999809E+01 0.  1.
</event>
<event>
 5   0  0.1348388E-06  0.3460701E+04  0.7818609E-02  0.8123167E-01
        2   -1    0    0  501    0  0.00000000000E+00  0.00000000000E+00  0.16640493007E+04  0.16640493007E+04  0.25500000920E-02 0. -1.
       -2   -1    0    0    0  501  0.00000000000E+00  0.00000000000E+00 -0.17992928523E+04  0.17992928523E+04  0.25500000920E-02 0.  1.
    10030    2    1    2    0    0  0.00000000000E+00  0.00000000000E+00 -0.13524355160E+03  0.34633421530E+04  0.34607005145E+04 0.  0.
        5    1    3    3  502    0  0.93156428148E+03  0.14325132504E+04  0.20495297625E+03  0.17210270293E+04  0.46999998093E+01 0.  1.
       -5    1    3    3    0  502 -0.93156428148E+03 -0.14325132504E+04 -0.34019652785E+03  0.17423151238E+04  0.46999998093E+01 0. -1.
</event>
<event>
 5   0  0.4557237E-07  0.3537521E+04  0.7818609E-02  0.8104955E-01
       -1   -1    0    0    0  501  0.00000000000E+00  0.00000000000E+00  0.13417433542E+04  0.13417433543E+04  0.50400001928E-02 0.  1.
        1   -1    0    0  501    0  0.00000000000E+00  0.00000000000E+00 -0.23316783795E+04  0.23316783795E+04  0.50400001928E-02 0. -1.
    10030    2    1    2    0    0  0.00000000000E+00  0.00000000000E+00 -0.98993502522E+03  0.36734217337E+04  0.35375211490E+04 0.  0.
        2    1    3    3  502    0  0.63550309598E+03 -0.14399318188E+04 -0.13329681095E+04  0.20625401351E+04  0.25500000920E-02 0. -1.
       -2    1    3    3    0  502 -0.63550309598E+03  0.14399318188E+04  0.34303308426E+03  0.16108815986E+04  0.25500000920E-02 0.  1.
</event>
<event>
 5   0  0.4700769E-07  0.3465338E+04  0.7818609E-02  0.8122054E-01
       -1   -1    0    0    0  501  0.00000000000E+00  0.00000000000E+00  0.17388911223E+04  0.17388911223E+04  0.50400001928E-02 0. -1.
        1   -1    0    0  501    0  0.00000000000E+00  0.00000000000E+00 -0.17264695327E+04  0.17264695327E+04  0.50400001928E-02 0.  1.
    10030    2    1    2    0    0  0.00000000000E+00  0.00000000000E+00  0.12421589674E+02  0.34653606550E+04  0.34653383923E+04 0.  0.
        3    1    3    3  502    0  0.55949450716E+03 -0.15530476213E+04  0.53266599384E+03  0.17345674068E+04  0.10100000352E+00 0. -1.
       -3    1    3    3    0  502 -0.55949450716E+03  0.15530476213E+04 -0.52024440417E+03  0.17307932482E+04  0.10100000352E+00 0.  1.
</event>
<event>
 5   0  0.4557237E-07  0.3481281E+04  0.7818609E-02  0.8118240E-01
       -1   -1    0    0    0  501  0.00000000000E+00  0.00000000000E+00  0.15023221346E+04  0.15023221346E+04  0.50400001928E-02 0. -1.
        1   -1    0    0  501    0  0.00000000000E+00  0.00000000000E+00 -0.20167643624E+04  0.20167643624E+04  0.50400001928E-02 0.  1.
    10030    2    1    2    0    0  0.00000000000E+00  0.00000000000E+00 -0.51444222773E+03  0.35190864970E+04  0.34812812250E+04 0.  0.
        2    1    3    3  502    0 -0.62371837752E+03  0.58121394269E+03  0.12768213327E+04  0.15352872621E+04  0.25500000920E-02 0. -1.
       -2    1    3    3    0  502  0.62371837752E+03 -0.58121394269E+03 -0.17912635604E+04  0.19837992349E+04  0.25500000920E-02 0.  1.
</event>
<event>
 5   0  0.1442864E-06  0.3608167E+04  0.7818609E-02  0.8088623E-01
       -2   -1    0    0    0  501  0.00000000000E+00  0.00000000000E+00  0.19197233017E+04  0.19197233017E+04  0.25500000920E-02 0. -1.
        2   -1    0    0  501    0  0.00000000000E+00  0.00000000000E+00 -0.16954097922E+04  0.16954097922E+04  0.25500000920E-02 0.  1.
    10030    2    1    2    0    0  0.00000000000E+00  0.00000000000E+00  0.22431350948E+03  0.36151330940E+04  0.36081672268E+04 0.  0.
        1    1    3    3  502    0  0.25084399442E+03 -0.13552285561E+04  0.12785134960E+04  0.18799372086E+04  0.50400001928E-02 0. -1.
       -1    1    3    3    0  502 -0.25084399442E+03  0.13552285561E+04 -0.10541999866E+04  0.17351958853E+04  0.50400001928E-02 0.  1.
</event>
<event>
 5   0  0.4693374E-07  0.3465560E+04  0.7818609E-02  0.8122001E-01
        1   -1    0    0  501    0  0.00000000000E+00  0.00000000000E+00  0.21256324308E+04  0.21256324308E+04  0.50400001928E-02 0.  1.
       -1   -1    0    0    0  501  0.00000000000E+00  0.00000000000E+00 -0.14125330758E+04  0.14125330759E+04  0.50400001928E-02 0. -1.
    10030    2    1    2    0    0  0.00000000000E+00  0.00000000000E+00  0.71309935497E+03  0.35381655067E+04  0.34655597618E+04 0.  0.
        1    1    3    3  502    0 -0.25250127392E+03 -0.10782834612E+04 -0.10040654028E+04  0.14948576685E+04  0.50400001928E-02 0. -1.
       -1    1    3    3    0  502  0.25250127392E+03  0.10782834612E+04  0.17171647578E+04  0.20433078381E+04  0.50400001928E-02 0.  1.
</event>
<event>
 5   0  0.1378620E-06  0.3475445E+04  0.7818609E-02  0.8119634E-01
       -2   -1    0    0    0  501  0.00000000000E+00  0.00000000000E+00  0.14146128990E+04  0.14146128990E+04  0.25500000920E-02 0. -1.
        2   -1    0    0  501    0  0.00000000000E+00  0.00000000000E+00 -0.21346325612E+04  0.21346325612E+04  0.25500000920E-02 0.  1.
    10030    2    1    2    0    0  0.00000000000E+00  0.00000000000E+00 -0.72001966224E+03  0.35492454602E+04  0.34754445792E+04 0.  0.
        2    1    3    3  502    0  0.13404314186E+04 -0.26554688846E+03 -0.14563079096E+04  0.19970238520E+04  0.25500000920E-02 0.  1.
       -2    1    3    3    0  502 -0.13404314186E+04  0.26554688846E+03  0.73628824732E+03  0.15522216082E+04  0.25500000920E-02 0. -1.
</event>
<event>
 5   0  0.4409125E-07  0.3476863E+04  0.7818609E-02  0.8119295E-01
       -3   -1    0    0    0  501  0.00000000000E+00  0.00000000000E+00  0.11239719645E+04  0.11239719690E+04  0.10100000352E+00 0. -1.
        3   -1    0    0  501    0  0.00000000000E+00  0.00000000000E+00 -0.26888073413E+04  0.26888073432E+04  0.10100000352E+00 0.  1.
    10030    2    1    2    0    0  0.00000000000E+00  0.00000000000E+00 -0.15648353768E+04  0.38127793122E+04  0.34768630009E+04 0.  0.
        3    1    3    3  502    0 -0.81315925865E+02 -0.62092946571E+02  0.11206675155E+04  0.11253281762E+04  0.10100000352E+00 0. -1.
       -3    1    3    3    0  502  0.81315925865E+02  0.62092946571E+02 -0.26855028923E+04  0.26874511360E+04  0.10100000352E+00 0.  1.
</event>
<event>
 5   0  0.4693374E-07  0.3434623E+04  0.7818609E-02  0.8129460E-01
       -1   -1    0    0    0  501  0.00000000000E+00  0.00000000000E+00  0.17692177812E+04  0.17692177812E+04  0.50400001928E-02 0. -1.
        1   -1    0    0  501    0  0.00000000000E+00  0.00000000000E+00 -0.16669285447E+04  0.16669285447E+04  0.50400001928E-02 0.  1.
    10030    2    1    2    0    0  0.00000000000E+00  0.00000000000E+00  0.10228923650E+03  0.34361463260E+04  0.34346234853E+04 0.  0.
        1    1    3    3  502    0  0.71734170752E+03 -0.43097677707E+03 -0.14491334004E+04  0.16734119994E+04  0.50400001928E-02 0.  1.
       -1    1    3    3    0  502 -0.71734170752E+03  0.43097677707E+03  0.15514226369E+04  0.17627343265E+04  0.50400001928E-02 0. -1.
</event>
<event>
 5   0  0.4700769E-07  0.3498444E+04  0.7818609E-02  0.8114159E-01
       -1   -1    0    0    0  501  0.00000000000E+00  0.00000000000E+00  0.12422600695E+04  0.12422600695E+04  0.50400001928E-02 0.  1.
        1   -1    0    0  501    0  0.00000000000E+00  0.00000000000E+00 -0.24630728206E+04  0.24630728206E+04  0.50400001928E-02 0. -1.
    10030    2    1    2    0    0  0.00000000000E+00  0.00000000000E+00 -0.12208127511E+04  0.37053328901E+04  0.34984436615E+04 0.  0.
        3    1    3    3  502    0  0.13072395668E+04  0.16945014196E+03  0.60745824129E+03  0.14514110930E+04  0.10100000352E+00 0.  1.
       -3    1    3    3    0  502 -0.13072395668E+04 -0.16945014196E+03 -0.18282709924E+04  0.22539217971E+04  0.10100000352E+00 0. -1.
</event>
<event>
 5   0  0.1361560E-06  0.3514199E+04  0.7818609E-02  0.8110433E-01
       -2   -1    0    0    0  501  0.00000000000E+00  0.00000000000E+00  0.25561867439E+04  0.25561867439E+04  0.25500000920E-02 0. -1.
        2   -1    0    0  501    0  0.00000000000E+00  0.00000000000E+00 -0.12078140070E+04  0.12078140070E+04  0.25500000920E-02 0.  1.
    10030    2    1    2    0    0  0.00000000000E+00  0.00000000000E+00  0.13483727368E+04  0.37640007509E+04  0.35141987160E+04 0.  0.
        3    1    3    3  502    0  0.34690461801E+03 -0.15551654640E+04 -0.11907795151E+03  0.15978304050E+04  0.10100000352E+00 0.  1.
       -3    1    3    3    0  502 -0.34690461801E+03  0.15551654640E+04  0.14674506884E+04  0.21661703459E+04  0.10100000352E+00 0. -1.
</event>
<event>
 5   0  0.1387133E-06  0.3740353E+04  0.7818609E-02  0.8059077E-01
        2   -1    0    0  501    0  0.00000000000E+00  0.00000000000E+00  0.19509946697E+04  0.19509946697E+04  0.25500000920E-02 0.  1.
       -2   -1    0    0    0  501  0.00000000000E+00  0.00000000000E+00 -0.17927065604E+04  0.17927065604E+04  0.25500000920E-02 0. -1.
    10030    2    1    2    0    0  0.00000000000E+00  0.00000000000E+00  0.15828810925E+03  0.37437012301E+04  0.37403534292E+04 0.  0.
        4    1    3    3  502    0 -0.11684347686E+04  0.70910215828E+03 -0.11985147072E+04  0.18178296937E+04  0.12699999809E+01 0. -1.
       -4    1    3    3    0  502  0.11684347686E+04 -0.70910215828E+03  0.13568028164E+04  0.19258715364E+04  0.12699999809E+01 0.  1.
</event>
<event>
 5   0  0.4693374E-07  0.3604380E+04  0.7818609E-02  0.8089489E-01
        1   -1    0    0  501    0  0.00000000000E+00  0.00000000000E+00  0.17262320421E+04  0.17262320421E+04  0.50400001928E-02 0. -1.
       -1   -1    0    0    0  501  0.00000000000E+00  0.00000000000E+00 -0.18814906639E+04  0.18814906639E+04  0.50400001928E-02 0.  1.
    10030    2    1    2    0    0  0.00000000000E+00  0.00000000000E+00 -0.15525862180E+03  0.36077227061E+04  0.36043803745E+04 0.  0.
        1    1    3    3  502    0 -0.40945262786E+03  0.17206022038E+04  0.26876395280E+03  0.17889542925E+04  0.50400001928E-02 0. -1.
       -1    1    3    3    0  502  0.40945262786E+03 -0.17206022038E+04 -0.42402257460E+03  0.18187684135E+04  0.50400001928E-02 0.  1.
</event>
<event>
 5   0  0.4409125E-07  0.3539362E+04  0.7818609E-02  0.8104525E-01
       -1   -1    0    0    0  501  0.00000000000E+00  0.00000000000E+00  0.18212168667E+04  0.18212168668E+04  0.50400001928E-02 0. -1.
        1   -1    0    0  501    0  0.00000000000E+00  0.00000000000E+00 -0.17196031851E+04  0.17196031851E+04  0.50400001928E-02 0.  1.
    10030    2    1    2    0    0  0.00000000000E+00  0.00000000000E+00  0.10161368164E+03  0.35408200519E+04  0.35393617079E+04 0.  0.
        5    1    3    3  502    0  0.13814821812E+03 -0.68330577647E+03  0.16780552124E+04  0.18171084448E+04  0.46999998093E+01 0. -1.
       -5    1    3    3    0  502 -0.13814821812E+03  0.68330577647E+03 -0.15764415308E+04  0.17237116071E+04  0.46999998093E+01 0.  1.
</event>
<event>
 5   0  0.1361560E-06  0.3488712E+04  0.7818609E-02  0.8116470E-01
        2   -1    0    0  501    0  0.00000000000E+00  0.00000000000E+00  0.17585062407E+04  0.17585062407E+04  0.25500000920E-02 0. -1.
       -2   -1    0    0    0  501  0.00000000000E+00  0.00000000000E+00 -0.17303199039E+04  0.17303199039E+04  0.25500000920E-02 0.  1.
    10030    2    1    2    0    0  0.00000000000E+00  0.00000000000E+00  0.28186336744E+02  0.34888261446E+04  0.34887122836E+04 0.  0.
        3    1    3    3  502    0  0.87619381694E+03  0.48915097691E+03 -0.14127659496E+04  0.17328854324E+04  0.10100000352E+00 0.  1.
       -3    1    3    3    0  502 -0.87619381694E+03 -0.48915097691E+03  0.14409522864E+04  0.17559407122E+04  0.10100000352E+00 0. -1.
</event>
<event>
 5   0  0.4591195E-07  0.3479933E+04  0.7818609E-02  0.8118562E-01
       -1   -1    0    0    0  501  0.00000000000E+00  0.00000000000E+00  0.27306719893E+04  0.27306719893E+04  0.50400001928E-02 0.  1.
        1   -1    0    0  501    0  0.00000000000E+00  0.00000000000E+00 -0.11086952374E+04  0.11086952374E+04  0.50400001928E-02 0. -1.
    10030    2    1    2    0    0  0.00000000000E+00  0.00000000000E+00  0.16219767520E+04  0.38393672267E+04  0.34799327748E+04 0.  0.
        4    1    3    3  502    0  0.14827978928E+04 -0.43584811397E+03  0.16928102238E+04  0.22922175368E+04  0.12699999809E+01 0.  1.
       -4    1    3    3    0  502 -0.14827978928E+04  0.43584811397E+03 -0.70833471782E+02  0.15471496899E+04  0.12699999809E+01 0. -1.
</event>
<event>
 5   0  0.1361560E-06  0.3560167E+04  0.7818609E-02  0.8099677E-01
       -2   -1    0    0    0  501  0.00000000000E+00  0.00000000000E+00  0.14448139614E+04  0.14448139614E+04  0.25500000920E-02 0.  1.
        2   -1    0    0  501    0  0.00000000000E+00  0.00000000000E+00 -0.21931522497E+04  0.21931522497E+04  0.25500000920E-02 0. -1.
    10030    2    1    2    0    0  0.00000000000E+00  0.00000000000E+00 -0.74833828828E+03  0.36379662111E+04  0.35601668443E+04 0.  0.
        3    1    3    3  502    0  0.14318923359E+04  0.80737344941E+02 -0.14516607852E+04  0.20406256947E+04  0.10100000352E+00 0. -1.
       -3    1    3    3    0  502 -0.14318923359E+04 -0.80737344941E+02  0.70332249694E+03  0.15973405164E+04  0.10100000352E+00 0.  1.
</event>
<event>
 5   0  0.4409125E-07  0.3508556E+04  0.7818609E-02  0.8111765E-01
        3   -1    0    0  501    0  0.00000000000E+00  0.00000000000E+00  0.16770986051E+04  0.16770986081E+04  0.10100000352E+00 0.  1.
       -3   -1    0    0    0  501  0.00000000000E+00  0.00000000000E+00 -0.18350093881E+04  0.18350093909E+04  0.10100000352E+00 0. -1.
    10030    2    1    2    0    0  0.00000000000E+00  0.00000000000E+00 -0.15791078304E+03  0.35121079990E+04  0.35085562246E+04 0.  0.
        1    1    3    3  502    0  0.16005008912E+04 -0.47137950871E+03  0.46352490079E+03  0.17316630959E+04  0.50400001928E-02 0.  1.
       -1    1    3    3    0  502 -0.16005008912E+04  0.47137950871E+03 -0.62143568383E+03  0.17804449031E+04  0.50400001928E-02 0. -1.
</event>
<event>
 5   0  0.4557237E-07  0.3458336E+04  0.7818609E-02  0.8123735E-01
        1   -1    0    0  501    0  0.00000000000E+00  0.00000000000E+00  0.17188659725E+04  0.17188659725E+04  0.50400001928E-02 0. -1.
       -1   -1    0    0    0  501  0.00000000000E+00  0.00000000000E+00 -0.17395322354E+04  0.17395322354E+04  0.50400001928E-02 0.  1.
    10030    2    1    2    0    0  0.00000000000E+00  0.00000000000E+00 -0.20666262848E+02  0.34583982079E+04  0.34583364599E+04 0.  0.
        2    1    3    3  502    0  0.70520678441E+03  0.12045813175E+04 -0.10309835157E+04  0.17352981787E+04  0.25500000920E-02 0.  1.
       -2    1    3    3    0  502 -0.70520678441E+03 -0.12045813175E+04  0.10103172528E+04  0.17231000292E+04  0.25500000920E-02 0. -1.
</event>
<event>
 5   0  0.1348388E-06  0.3481963E+04  0.7818609E-02  0.8118078E-01
        2   -1    0    0  501    0  0.00000000000E+00  0.00000000000E+00  0.19024661167E+04  0.19024661167E+04  0.25500000920E-02 0. -1.
       -2   -1    0    0    0  501  0.00000000000E+00  0.00000000000E+00 -0.15932040702E+04  0.15932040702E+04  0.25500000920E-02 0.  1.
    10030    2    1    2    0    0  0.00000000000E+00  0.00000000000E+00  0.30926204653E+03  0.34956701869E+04  0.34819631018E+04 0.  0.
        5    1    3    3  502    0 -0.96947280915E+03  0.87559101238E+03 -0.10007501941E+04  0.16456184824E+04  0.46999998093E+01 0.  1.
       -5    1    3    3    0  502  0.96947280915E+03 -0.87559101238E+03  0.13100122407E+04  0.18500517045E+04  0.46999998093E+01 0. -1.
</event>
<event>
 5   0  0.4693374E-07  0.3042249E+04  0.7818609E-02  0.8231768E-01
        1   -1    0    0  501    0  0.00000000000E+00  0.00000000000E+00  0.17528383375E+04  0.17528383375E+04  0.50400001928E-02 0. -1.
       -1   -1    0    0    0  501  0.00000000000E+00  0.00000000000E+00 -0.13200416386E+04  0.13200416386E+04  0.50400001928E-02 0.  1.
    10030    2    1    2    0    0  0.00000000000E+00  0.00000000000E+00  0.43279669893E+03  0.30728799761E+04  0.30422488993E+04 0.  0.
        1    1    3    3  502    0  0.69531662230E+03 -0.15260320860E+02 -0.11500424392E+04  0.13439850054E+04  0.50400001928E-02 0.  1.
       -1    1    3    3    0  502 -0.69531662230E+03  0.15260320860E+02  0.15828391382E+04  0.17288949708E+04  0.50400001928E-02 0. -1.
</event>
<event>
 5   0  0.4693374E-07  0.3473960E+04  0.7818609E-02  0.8119989E-01
       -1   -1    0    0    0  501  0.00000000000E+00  0.00000000000E+00  0.25693436821E+04  0.25693436821E+04  0.50400001928E-02 0. -1.
        1   -1    0    0  501    0  0.00000000000E+00  0.00000000000E+00 -0.11742682699E+04  0.11742682699E+04  0.50400001928E-02 0.  1.
    10030    2    1    2    0    0  0.00000000000E+00  0.00000000000E+00  0.13950754123E+04  0.37436119520E+04  0.34739595624E+04 0.  0.
        1    1    3    3  502    0 -0.34692506571E+03 -0.46146471844E+03 -0.10678516311E+04  0.12139249539E+04  0.50400001928E-02 0.  1.
       -1    1    3    3    0  502  0.34692506571E+03  0.46146471844E+03  0.24629270434E+04  0.25296869981E+04  0.50400001928E-02 0. -1.
</event>
<event>
 5   0  0.1361560E-06  0.3297366E+04  0.7818609E-02  0.8163566E-01
       -2   -1    0    0    0  501  0.00000000000E+00  0.00000000000E+00  0.15915995990E+04  0.15915995990E+04  0.25500000920E-02 0. -1.
        2   -1    0    0  501    0  0.00000000000E+00  0.00000000000E+00 -0.17078133697E+04  0.17078133697E+04  0.25500000920E-02 0.  1.
    10030    2    1    2    0    0  0.00000000000E+00  0.00000000000E+00 -0.11621377069E+03  0.32994129687E+04  0.32973656602E+04 0.  0.
        3    1    3    3  502    0 -0.79110847441E+03 -0.54869879730E+03  0.12810932827E+04  0.16025364263E+04  0.10100000352E+00 0. -1.
       -3    1    3    3    0  502  0.79110847441E+03  0.54869879730E+03 -0.13973070534E+04  0.16968765424E+04  0.10100000352E+00 0.  1.
</event>
<event>
 5   0  0.4591195E-07  0.3495891E+04  0.7818609E-02  0.8114764E-01
        1   -1    0    0  501    0  0.00000000000E+00  0.00000000000E+00  0.26130129799E+04  0.26130129799E+04  0.50400001928E-02 0.  1.
       -1   -1    0    0    0  501  0.00000000000E+00  0.00000000000E+00 -0.11692683602E+04  0.11692683602E+04  0.50400001928E-02 0. -1.
    10030    2    1    2    0    0  0.00000000000E+00  0.00000000000E+00  0.14437446197E+04  0.37822813402E+04  0.34958909607E+04 0.  0.
        4    1    3    3  502    0 -0.45403482630E+03  0.30343879104E+03 -0.10746034017E+04  0.12054031721E+04  0.12699999809E+01 0. -1.
       -4    1    3    3    0  502  0.45403482630E+03 -0.30343879104E+03  0.25183480214E+04  0.25768781681E+04  0.12699999809E+01 0.  1.
</event>
<event>
 5   0  0.4693374E-07  0.3511122E+04  0.7818609E-02  0.8111159E-01
       -1   -1    0    0    0  501  0.00000000000E+00  0.00000000000E+00  0.14972491685E+04  0.14972491685E+04  0.50400001928E-02 0.  1.
        1   -1    0    0  501    0  0.00000000000E+00  0.00000000000E+00 -0.20584382796E+04  0.20584382796E+04  0.50400001928E-02 0. -1.
    10030    2    1    2    0    0  0.00000000000E+00  0.00000000000E+00 -0.56118911103E+03  0.35556874481E+04  0.35111223292E+04 0.  0.
        1    1    3    3  502    0  0.10053517717E+04  0.20418901230E+03 -0.17233064070E+04  0.20055448911E+04  0.50400001928E-02 0. -1.
       -1    1    3    3    0  502 -0.10053517717E+04 -0.20418901230E+03  0.11621172960E+04  0.15501425571E+04  0.50400001928E-02 0.  1.
</event>
<event>
 5   0  0.1348388E-06  0.3483102E+04  0.7818609E-02  0.8117806E-01
        2   -1    0    0  501    0  0.00000000000E+00  0.00000000000E+00  0.24318080176E+04  0.24318080176E+04  0.25500000920E-02 0.  1.
       -2   -1    0    0    0  501  0.00000000000E+00  0.00000000000E+00 -0.12472203018E+04  0.12472203018E+04  0.25500000920E-02 0. -1.
    10030    2    1    2    0    0  0.00000000000E+00  0.00000000000E+00  0.11845877158E+04  0.36790283194E+04  0.34831022550E+04 0.  0.
        5    1    3    3  502    0  0.75915467396E+03  0.15542616902E+04  0.80599350015E+03  0.19083219940E+04  0.46999998093E+01 0. -1.
       -5    1    3    3    0  502 -0.75915467396E+03 -0.15542616902E+04  0.37859421566E+03  0.17707063254E+04  0.46999998093E+01 0.  1.
</event>
<event>
 5   0  0.4409125E-07  0.3475589E+04  0.7818609E-02  0.8119599E-01
        1   -1    0    0  501    0  0.00000000000E+00  0.00000000000E+00  0.21491794646E+04  0.21491794646E+04  0.50400001928E-02 0.  1.
       -1   -1    0    0    0  501  0.00000000000E+00  0.00000000000E+00 -0.14051550896E+04  0.14051550896E+04  0.50400001928E-02 0. -1.
    10030    2    1    2    0    0  0.00000000000E+00  0.00000000000E+00  0.74402437497E+03  0.35543345542E+04  0.34755894252E+04 0.  0.
        5    1    3    3  502    0  0.71907425327E+03  0.15777479072E+04  0.49106335544E+03  0.18020881081E+04  0.46999998093E+01 0.  1.
       -5    1    3    3    0  502 -0.71907425327E+03 -0.15777479072E+04  0.25296101953E+03  0.17522464461E+04  0.46999998093E+01 0. -1.
</event>
<event>
 5   0  0.1361560E-06  0.3416128E+04  0.7818609E-02  0.8133959E-01
        2   -1    0    0  501    0  0.00000000000E+00  0.00000000000E+00  0.26628284909E+04  0.26628284909E+04  0.25500000920E-02 0. -1.
       -2   -1    0    0    0  501  0.00000000000E+00  0.00000000000E+00 -0.10956331207E+04  0.10956331207E+04  0.25500000920E-02 0.  1.
    10030    2    1    2    0    0  0.00000000000E+00  0.00000000000E+00  0.15671953702E+04  0.37584616116E+04  0.34161282701E+04 0.  0.
        3    1    3    3  502    0  0.17452038427E+03  0.14717708662E+04 -0.15055604323E+03  0.14897093608E+04  0.10100000352E+00 0.  1.
       -3    1    3    3    0  502 -0.17452038427E+03 -0.14717708662E+04  0.17177514134E+04  0.22687522509E+04  0.10100000352E+00 0. -1.
</event>
<event>
 5   0  0.4557237E-07  0.3379848E+04  0.7818609E-02  0.8142870E-01
        1   -1    0    0  501    0  0.00000000000E+00  0.00000000000E+00  0.21817354204E+04  0.21817354204E+04  0.50400001928E-02 0. -1.
       -1   -1    0    0    0  501  0.00000000000E+00  0.00000000000E+00 -0.13089781132E+04  0.13089781132E+04  0.50400001928E-02 0.  1.
    10030    2    1    2    0    0  0.00000000000E+00  0.00000000000E+00  0.87275730720E+03  0.34907135336E+04  0.33798484665E+04 0.  0.
        2    1    3    3  502    0 -0.11004232779E+03  0.46293632401E+03  0.21111184404E+04  0.21640795788E+04  0.25500000920E-02 0. -1.
       -2    1    3    3    0  502  0.11004232779E+03 -0.46293632401E+03 -0.12383611332E+04  0.13266339548E+04  0.25500000920E-02 0.  1.
</event>
<event>
 5   0  0.4591195E-07  0.3492173E+04  0.7818609E-02  0.8115647E-01
       -1   -1    0    0    0  501  0.00000000000E+00  0.00000000000E+00  0.21879270195E+04  0.21879270195E+04  0.50400001928E-02 0.  1.
        1   -1    0    0  501    0  0.00000000000E+00  0.00000000000E+00 -0.13934736410E+04  0.13934736410E+04  0.50400001928E-02 0. -1.
    10030    2    1    2    0    0  0.00000000000E+00  0.00000000000E+00  0.79445337858E+03  0.35814006605E+04  0.34921733233E+04 0.  0.
        4    1    3    3  502    0  0.10950836487E+04 -0.57556395426E+03 -0.86646437340E+03  0.15103788222E+04  0.12699999809E+01 0. -1.
       -4    1    3    3    0  502 -0.10950836487E+04  0.57556395426E+03  0.16609177520E+04  0.20710218383E+04  0.12699999809E+01 0.  1.
</event>
<event>
 5   0  0.4693374E-07  0.3478299E+04  0.7818609E-02  0.8118952E-01
       -1   -1    0    0    0  501  0.00000000000E+00  0.00000000000E+00  0.14152508093E+04  0.14152508093E+04  0.50400001928E-02 0. -1.
        1   -1    0    0  501    0  0.00000000000E+00  0.00000000000E+00 -0.21371766405E+04  0.21371766405E+04  0.50400001928E-02 0.  1.
    10030    2    1    2    0    0  0.00000000000E+00  0.00000000000E+00 -0.72192583125E+03  0.35524274498E+04  0.34782989924E+04 0.  0.
        1    1    3    3  502    0 -0.10895400560E+04  0.99215501907E+03  0.58239514847E+03  0.15845040942E+04  0.50400001928E-02 0.  1.
       -1    1    3    3    0  502  0.10895400560E+04 -0.99215501907E+03 -0.13043209797E+04  0.19679233556E+04  0.50400001928E-02 0. -1.
</event>
<event>
 5   0  0.4591195E-07  0.3442360E+04  0.7818609E-02  0.8127587E-01
        1   -1    0    0  501    0  0.00000000000E+00  0.00000000000E+00  0.27637712934E+04  0.27637712934E+04  0.50400001928E-02 0. -1.
       -1   -1    0    0    0  501  0.00000000000E+00  0.00000000000E+00 -0.10718908130E+04  0.10718908130E+04  0.50400001928E-02 0.  1.
    10030    2    1    2    0    0  0.00000000000E+00  0.00000000000E+00  0.16918804804E+04  0.38356621064E+04  0.34423602709E+04 0.  0.
        4    1    3    3  502    0 -0.99344194030E+03  0.13775981276E+04  0.11566471086E+04  0.20548814167E+04  0.12699999809E+01 0. -1.
       -4    1    3    3    0  502  0.99344194030E+03 -0.13775981276E+04  0.53523337184E+03  0.17807806898E+04  0.12699999809E+01 0.  1.
</event>
<event>
 5   0  0.1378620E-06  0.2513391E+04  0.7818609E-02  0.8398230E-01
       -2   -1    0    0    0  501  0.00000000000E+00  0.00000000000E+00  0.19172787455E+04  0.19172787455E+04  0.25500000920E-02 0.  1.
        2   -1    0    0  501    0  0.00000000000E+00  0.00000000000E+00 -0.82371115257E+03  0.82371115258E+03  0.25500000920E-02 0. -1.
    10030    2    1    2    0    0  0.00000000000E+00  0.00000000000E+00  0.10935675929E+04  0.27409898981E+04  0.25133912431E+04 0.  0.
        2    1    3    3  502    0 -0.17451649699E+03 -0.84021567290E+03  0.15479967881E+04  0.17699470163E+04  0.25500000920E-02 0. -1.
       -2    1    3    3    0  502  0.17451649699E+03  0.84021567290E+03 -0.45442919518E+03  0.97104288172E+03  0.25500000920E-02 0.  1.
</event>
<event>
 5   0  0.1442864E-06  0.3425147E+04  0.7818609E-02  0.8131762E-01
        2   -1    0    0  501    0  0.00000000000E+00  0.00000000000E+00  0.15646176513E+04  0.15646176513E+04  0.25500000920E-02 0. -1.
       -2   -1    0    0    0  501  0.00000000000E+00  0.00000000000E+00 -0.18745202838E+04  0.18745202838E+04  0.25500000920E-02 0.  1.
    10030    2    1    2    0    0  0.00000000000E+00  0.00000000000E+00 -0.30990263254E+03  0.34391379351E+04  0.34251467261E+04 0.  0.
        1    1    3    3  502    0  0.10563517398E+04 -0.99038643161E+03 -0.10731062029E+04  0.18023044152E+04  0.50400001928E-02 0.  1.
       -1    1    3    3    0  502 -0.10563517398E+04  0.99038643161E+03  0.76320357036E+03  0.16368335199E+04  0.50400001928E-02 0. -1.
</event>
<event>
 5   0  0.1361560E-06  0.3416244E+04  0.7818609E-02  0.8133931E-01
       -2   -1    0    0    0  501  0.00000000000E+00  0.00000000000E+00  0.15715049281E+04  0.15715049281E+04  0.25500000920E-02 0.  1.
        2   -1    0    0  501    0  0.00000000000E+00  0.00000000000E+00 -0.18566154352E+04  0.18566154352E+04  0.25500000920E-02 0. -1.
    10030    2    1    2    0    0  0.00000000000E+00  0.00000000000E+00 -0.28511050710E+03  0.34281203632E+04  0.34162437301E+04 0.  0.
        3    1    3    3  502    0  0.93459731197E+03  0.47542751491E+03 -0.14956408615E+04  0.18265938394E+04  0.10100000352E+00 0. -1.
       -3    1    3    3    0  502 -0.93459731197E+03 -0.47542751491E+03  0.12105303544E+04  0.16015265238E+04  0.10100000352E+00 0.  1.
</event>
<event>
 5   0  0.1442864E-06  0.3575413E+04  0.7818609E-02  0.8096147E-01
       -2   -1    0    0    0  501  0.00000000000E+00  0.00000000000E+00  0.15103507433E+04  0.15103507433E+04  0.25500000920E-02 0.  1.
        2   -1    0    0  501    0  0.00000000000E+00  0.00000000000E+00 -0.21159948134E+04  0.21159948134E+04  0.25500000920E-02 0. -1.
    10030    2    1    2    0    0  0.00000000000E+00  0.00000000000E+00 -0.60564407016E+03  0.36263455567E+04  0.35754128932E+04 0.  0.
        1    1    3    3  502    0  0.74841419366E+03  0.82407223922E+03  0.11159165660E+04  0.15762260761E+04  0.50400001928E-02 0.  1.
       -1    1    3    3    0  502 -0.74841419366E+03 -0.82407223922E+03 -0.17215606362E+04  0.20501194806E+04  0.50400001928E-02 0. -1.
</event>
<event>
 5   0  0.1387133E-06  0.3505691E+04  0.7818609E-02  0.8112443E-01
        2   -1    0    0  501    0  0.00000000000E+00  0.00000000000E+00  0.15493468899E+04  0.15493468899E+04  0.25500000920E-02 0.  1.
       -2   -1    0    0    0  501  0.00000000000E+00  0.00000000000E+00 -0.19830724315E+04  0.19830724315E+04  0.25500000920E-02 0. -1.
    10030    2    1    2    0    0  0.00000000000E+00  0.00000000000E+00 -0.43372554154E+03  0.35324193214E+04  0.35056908616E+04 0.  0.
        4    1    3    3  502    0 -0.17521356582E+04  0.49386814559E+02 -0.20994976694E+03  0.17653608526E+04  0.12699999809E+01 0. -1.
       -4    1    3    3    0  502  0.17521356582E+04 -0.49386814559E+02 -0.22377577460E+03  0.17670584689E+04  0.12699999809E+01 0.  1.
</event>
<event>
 5   0  0.4700769E-07  0.3495321E+04  0.7818609E-02  0.8114900E-01
        1   -1    0    0  501    0  0.00000000000E+00  0.00000000000E+00  0.21582469339E+04  0.21582469339E+04  0.50400001928E-02 0.  1.
       -1   -1    0    0    0  501  0.00000000000E+00  0.00000000000E+00 -0.14151845583E+04  0.14151845583E+04  0.50400001928E-02 0. -1.
    10030    2    1    2    0    0  0.00000000000E+00  0.00000000000E+00  0.74306237565E+03  0.35734314922E+04  0.34953212922E+04 0.  0.
        3    1    3    3  502    0  0.50078073358E+03 -0.13227338171E+03  0.20779751930E+04  0.21415551600E+04  0.10100000352E+00 0.  1.
       -3    1    3    3    0  502 -0.50078073358E+03  0.13227338171E+03 -0.13349128173E+04  0.14318763322E+04  0.10100000352E+00 0. -1.
</event>
<event>
 5   0  0.4693374E-07  0.3405797E+04  0.7818609E-02  0.8136485E-01
        1   -1    0    0  501    0  0.00000000000E+00  0.00000000000E+00  0.15540681102E+04  0.15540681102E+04  0.50400001928E-02 0.  1.
       -1   -1    0    0    0  501  0.00000000000E+00  0.00000000000E+00 -0.18659816812E+04  0.18659816812E+04  0.50400001928E-02 0. -1.
    10030    2    1    2    0    0  0.00000000000E+00  0.00000000000E+00 -0.31191357098E+03  0.34200497914E+04  0.34057966028E+04 0.  0.
        1    1    3    3  502    0  0.15488032628E+04  0.66939266598E+03 -0.38710380223E+03  0.17311058436E+04  0.50400001928E-02 0.  1.
       -1    1    3    3    0  502 -0.15488032628E+04 -0.66939266598E+03  0.75190231241E+02  0.16889439478E+04  0.50400001928E-02 0. -1.
</event>
<event>
 5   0  0.4409125E-07  0.3265408E+04  0.7818609E-02  0.8171754E-01
        3   -1    0    0  501    0  0.00000000000E+00  0.00000000000E+00  0.15194671016E+04  0.15194671050E+04  0.10100000352E+00 0.  1.
       -3   -1    0    0    0  501  0.00000000000E+00  0.00000000000E+00 -0.17543793508E+04  0.17543793537E+04  0.10100000352E+00 0. -1.
    10030    2    1    2    0    0  0.00000000000E+00  0.00000000000E+00 -0.23491224915E+03  0.32738464586E+04  0.32654076116E+04 0.  0.
        3    1    3    3  502    0 -0.94809654922E+03 -0.67076660259E+03 -0.12679873970E+04  0.17194786858E+04  0.10100000352E+00 0. -1.
       -3    1    3    3    0  502  0.94809654922E+03  0.67076660259E+03  0.10330751479E+04  0.15543677728E+04  0.10100000352E+00 0.  1.
</event>
<event>
 5   0  0.4693374E-07  0.3435587E+04  0.7818609E-02  0.8129227E-01
       -1   -1    0    0    0  501  0.00000000000E+00  0.00000000000E+00  0.15488796398E+04  0.15488796398E+04  0.50400001928E-02 0. -1.
        1   -1    0    0  501    0  0.00000000000E+00  0.00000000000E+00 -0.19051282672E+04  0.19051282672E+04  0.50400001928E-02 0.  1.
    10030    2    1    2    0    0  0.00000000000E+00  0.00000000000E+00 -0.35624862742E+03  0.34540079070E+04  0.34355869276E+04 0.  0.
        1    1    3    3  502    0  0.75071176432E+03 -0.10660541544E+03 -0.17277784339E+04  0.18868362898E+04  0.50400001928E-02 0.  1.
       -1    1    3    3    0  502 -0.75071176432E+03  0.10660541544E+03  0.13715298065E+04  0.15671716172E+04  0.50400001928E-02 0. -1.
</event>
<event>
 5   0  0.4591195E-07  0.2504357E+04  0.7818609E-02  0.8401435E-01
       -1   -1    0    0    0  501  0.00000000000E+00  0.00000000000E+00  0.82307059003E+03  0.82307059004E+03  0.50400001928E-02 0.  1.
        1   -1    0    0  501    0  0.00000000000E+00  0.00000000000E+00 -0.19050012219E+04  0.19050012219E+04  0.50400001928E-02 0. -1.
    10030    2    1    2    0    0  0.00000000000E+00  0.00000000000E+00 -0.10819306319E+04  0.27280718119E+04  0.25043565878E+04 0.  0.
        4    1    3    3  502    0  0.91825504174E+03  0.73627909519E+02 -0.14648661752E+04  0.17304473164E+04  0.12699999809E+01 0. -1.
       -4    1    3    3    0  502 -0.91825504174E+03 -0.73627909519E+02  0.38293554337E+03  0.99762449550E+03  0.12699999809E+01 0.  1.
</event>
<event>
 5   0  0.4700769E-07  0.3462469E+04  0.7818609E-02  0.8122742E-01
        1   -1    0    0  501    0  0.00000000000E+00  0.00000000000E+00  0.20488984450E+04  0.20488984450E+04  0.50400001928E-02 0.  1.
       -1   -1    0    0    0  501  0.00000000000E+00  0.00000000000E+00 -0.14628216216E+04  0.14628216216E+04  0.50400001928E-02 0. -1.
    10030    2    1    2    0    0  0.00000000000E+00  0.00000000000E+00  0.58607682343E+03  0.35117200666E+04  0.34624690300E+04 0.  0.
        3    1    3    3  502    0 -0.13012941742E+04  0.98376828367E+02  0.14468175363E+04  0.19484161572E+04  0.10100000352E+00 0.  1.
       -3    1    3    3    0  502  0.13012941742E+04 -0.98376828367E+02 -0.86074071283E+03  0.15633039094E+04  0.10100000352E+00 0. -1.
</event>
<event>
 5   0  0.1387133E-06  0.3507142E+04  0.7818609E-02  0.8112100E-01
        2   -1    0    0  501    0  0.00000000000E+00  0.00000000000E+00  0.25483489805E+04  0.25483489805E+04  0.25500000920E-02 0. -1.
       -2   -1    0    0    0  501  0.00000000000E+00  0.00000000000E+00 -0.12066678675E+04  0.12066678675E+04  0.25500000920E-02 0.  1.
    10030    2    1    2    0    0  0.00000000000E+00  0.00000000000E+00  0.13416811130E+04  0.37550168480E+04  0.35071417593E+04 0.  0.
        4    1    3    3  502    0 -0.13985489713E+04  0.16760790596E+03 -0.44748044980E+03  0.14779282801E+04  0.12699999809E+01 0.  1.
       -4    1    3    3    0  502  0.13985489713E+04 -0.16760790596E+03  0.17891615628E+04  0.22770885679E+04  0.12699999809E+01 0. -1.
</event>
<event>
 5   0  0.4557237E-07  0.3502596E+04  0.7818609E-02  0.8113175E-01
       -1   -1    0    0    0  501  0.00000000000E+00  0.00000000000E+00  0.15028118093E+04  0.15028118093E+04  0.50400001928E-02 0.  1.
        1   -1    0    0  501    0  0.00000000000E+00  0.00000000000E+00 -0.20408711651E+04  0.20408711651E+04  0.50400001928E-02 0. -1.
    10030    2    1    2    0    0  0.00000000000E+00  0.00000000000E+00 -0.53805935579E+03  0.35436829743E+04  0.35025963445E+04 0.  0.
        2    1    3    3  502    0 -0.22170726023E+03  0.77784472832E+03 -0.18405855368E+04  0.20104605564E+04  0.25500000920E-02 0. -1.
       -2    1    3    3    0  502  0.22170726023E+03 -0.77784472832E+03  0.13025261810E+04  0.15332224179E+04  0.25500000920E-02 0.  1.
</event>
<event>
 5   0  0.4700769E-07  0.3509018E+04  0.7818609E-02  0.8111656E-01
        1   -1    0    0  501    0  0.00000000000E+00  0.00000000000E+00  0.15545425955E+04  0.15545425955E+04  0.50400001928E-02 0.  1.
       -1   -1    0    0    0  501  0.00000000000E+00  0.00000000000E+00 -0.19801982313E+04  0.19801982313E+04  0.50400001928E-02 0. -1.
    10030    2    1    2    0    0  0.00000000000E+00  0.00000000000E+00 -0.42565563580E+03  0.35347408268E+04  0.35090183802E+04 0.  0.
        3    1    3    3  502    0  0.17319185616E+04 -0.56155679568E+02  0.64155294572E+02  0.17340159389E+04  0.10100000352E+00 0.  1.
       -3    1    3    3    0  502 -0.17319185616E+04  0.56155679568E+02 -0.48981093037E+03  0.18007248879E+04  0.10100000352E+00 0. -1.
</event>
<event>
 5   0  0.1348388E-06  0.3510564E+04  0.7818609E-02  0.8111291E-01
       -2   -1    0    0    0  501  0.00000000000E+00  0.00000000000E+00  0.10957870936E+04  0.10957870936E+04  0.25500000920E-02 0.  1.
        2   -1    0    0  501    0  0.00000000000E+00  0.00000000000E+00 -0.28116910176E+04  0.28116910176E+04  0.25500000920E-02 0. -1.
    10030    2    1    2    0    0  0.00000000000E+00  0.00000000000E+00 -0.17159039239E+04  0.39074781112E+04  0.35105639025E+04 0.  0.
        5    1    3    3  502    0 -0.14677228871E+03 -0.15247578914E+04  0.96017480138E+02  0.15348192658E+04  0.46999998093E+01 0.  1.
       -5    1    3    3    0  502  0.14677228871E+03  0.15247578914E+04 -0.18119214041E+04  0.23726588454E+04  0.46999998093E+01 0. -1.
</event>
<event>
 5   0  0.4557237E-07  0.3492799E+04  0.7818609E-02  0.8115499E-01
       -1   -1    0    0    0  501  0.00000000000E+00  0.00000000000E+00  0.15562805360E+04  0.15562805360E+04  0.50400001928E-02 0. -1.
        1   -1    0    0  501    0  0.00000000000E+00  0.00000000000E+00 -0.19597434273E+04  0.19597434273E+04  0.50400001928E-02 0.  1.
    10030    2    1    2    0    0  0.00000000000E+00  0.00000000000E+00 -0.40346289134E+03  0.35160239633E+04  0.34927986209E+04 0.  0.
        2    1    3    3  502    0  0.10908653774E+00 -0.15468588956E+04 -0.10177623421E+04  0.18516513278E+04  0.25500000920E-02 0.  1.
       -2    1    3    3    0  502 -0.10908653774E+00  0.15468588956E+04  0.61429945075E+03  0.16643726355E+04  0.25500000920E-02 0. -1.
</event>
<event>
 5   0  0.4409125E-07  0.3145698E+04  0.7818609E-02  0.8203307E-01
        1   -1    0    0  501    0  0.00000000000E+00  0.00000000000E+00  0.13867394361E+04  0.13867394361E+04  0.50400001928E-02 0.  1.
       -1   -1    0    0    0  501  0.00000000000E+00  0.00000000000E+00 -0.17839355877E+04  0.17839355877E+04  0.50400001928E-02 0. -1.
    10030    2    1    2    0    0  0.00000000000E+00  0.00000000000E+00 -0.39719615157E+03  0.31706750238E+04  0.31456979073E+04 0.  0.
        5    1    3    3  502    0 -0.48644040445E+03 -0.10523389311E+04 -0.12699536388E+04  0.17195481464E+04  0.46999998093E+01 0. -1.
       -5    1    3    3    0  502  0.48644040445E+03  0.10523389311E+04  0.87275748725E+03  0.14511268775E+04  0.46999998093E+01 0.  1.
</event>
<event>
 5   0  0.4409125E-07  0.2932123E+04  0.7818609E-02  0.8263384E-01
        1   -1    0    0  501    0  0.00000000000E+00  0.00000000000E+00  0.22557682884E+04  0.22557682884E+04  0.50400001928E-02 0.  1.
       -1   -1    0    0    0  501  0.00000000000E+00  0.00000000000E+00 -0.95281802889E+03  0.95281802890E+03  0.50400001928E-02 0. -1.
    10030    2    1    2    0    0  0.00000000000E+00  0.00000000000E+00  0.13029502595E+04  0.32085863173E+04  0.29321232540E+04 0.  0.
        5    1    3    3  502    0  0.13952646646E+04  0.39346570927E+03  0.89056097213E+03  0.17013816984E+04  0.46999998093E+01 0.  1.
       -5    1    3    3    0  502 -0.13952646646E+04 -0.39346570927E+03  0.41238928735E+03  0.15072046188E+04  0.46999998093E+01 0. -1.
</event>
<event>
 5   0  0.1378620E-06  0.3456011E+04  0.7818609E-02  0.8124295E-01
        2   -1    0    0  501    0  0.00000000000E+00  0.00000000000E+00  0.22555454733E+04  0.22555454733E+04  0.25500000920E-02 0.  1.
       -2   -1    0    0    0  501  0.00000000000E+00  0.00000000000E+00 -0.13238494472E+04  0.13238494472E+04  0.25500000920E-02 0. -1.
    10030    2    1    2    0    0  0.00000000000E+00  0.00000000000E+00  0.93169602609E+03  0.35793949205E+04  0.34560107800E+04 0.  0.
        2    1    3    3  502    0 -0.52339726969E+03  0.26386695640E+03 -0.12177424299E+04  0.13514684969E+04  0.25500000920E-02 0. -1.
       -2    1    3    3    0  502  0.52339726969E+03 -0.26386695640E+03  0.21494384560E+04  0.22279264235E+04  0.25500000920E-02 0.  1.
</event>
<event>
 5   0  0.1378620E-06  0.3636417E+04  0.7818609E-02  0.8082200E-01
        2   -1    0    0  501    0  0.00000000000E+00  0.00000000000E+00  0.30594370743E+04  0.30594370743E+04  0.25500000920E-02 0. -1.
       -2   -1    0    0    0  501  0.00000000000E+00  0.00000000000E+00 -0.10805526464E+04  0.10805526464E+04  0.25500000920E-02 0.  1.
    10030    2    1    2    0    0  0.00000000000E+00  0.00000000000E+00  0.19788844279E+04  0.41399897207E+04  0.36364173727E+04 0.  0.
        2    1    3    3  502    0 -0.88066644900E+03  0.11600881158E+04 -0.24962249437E+03  0.14777311056E+04  0.25500000920E-02 0.  1.
       -2    1    3    3    0  502  0.88066644900E+03 -0.11600881158E+04  0.22285069223E+04  0.26622586151E+04  0.25500000920E-02 0. -1.
</event>
<event>
 5   0  0.1348388E-06  0.3370686E+04  0.7818609E-02  0.8145139E-01
        2   -1    0    0  501    0  0.00000000000E+00  0.00000000000E+00  0.19629825830E+04  0.19629825830E+04  0.25500000920E-02 0. -1.
       -2   -1    0    0    0  501  0.00000000000E+00  0.00000000000E+00 -0.14469719654E+04  0.14469719655E+04  0.25500000920E-02 0.  1.
    10030    2    1    2    0    0  0.00000000000E+00  0.00000000000E+00  0.51601061758E+03  0.34099545485E+04  0.33706858449E+04 0.  0.
        5    1    3    3  502    0 -0.44451125960E+02 -0.49884364813E+03  0.18859567237E+04  0.19513266619E+04  0.46999998093E+01 0. -1.
       -5    1    3    3    0  502  0.44451125960E+02  0.49884364813E+03 -0.13699461061E+04  0.14586278866E+04  0.46999998093E+01 0.  1.
</event>
<event>
 5   0  0.1387133E-06  0.3386853E+04  0.7818609E-02  0.8141141E-01
        2   -1    0    0  501    0  0.00000000000E+00  0.00000000000E+00  0.14104467493E+04  0.14104467493E+04  0.25500000920E-02 0. -1.
       -2   -1    0    0    0  501  0.00000000000E+00  0.00000000000E+00 -0.20331810939E+04  0.20331810939E+04  0.25500000920E-02 0.  1.
    10030    2    1    2    0    0  0.00000000000E+00  0.00000000000E+00 -0.62273434462E+03  0.34436278433E+04  0.33868532090E+04 0.  0.
        4    1    3    3  502    0 -0.15584829165E+04  0.49656059894E+03  0.13444683905E+03  0.16411943806E+04  0.12699999809E+01 0. -1.
       -4    1    3    3    0  502  0.15584829165E+04 -0.49656059894E+03 -0.75718118366E+03  0.18024334627E+04  0.12699999809E+01 0.  1.
</event>
<event>
 5   0  0.4693374E-07  0.2614579E+04  0.7818609E-02  0.8363266E-01
        1   -1    0    0  501    0  0.00000000000E+00  0.00000000000E+00  0.20604169650E+04  0.20604169651E+04  0.50400001928E-02 0. -1.
       -1   -1    0    0    0  501  0.00000000000E+00  0.00000000000E+00 -0.82944677139E+03  0.82944677141E+03  0.50400001928E-02 0.  1.
    10030    2    1    2    0    0  0.00000000000E+00  0.00000000000E+00  0.12309701937E+04  0.28898637365E+04  0.26145792774E+04 0.  0.
        1    1    3    3  502    0 -0.17759763146E+03  0.12735194258E+04  0.35483021043E+03  0.13339029668E+04  0.50400001928E-02 0.  1.
       -1    1    3    3    0  502  0.17759763146E+03 -0.12735194258E+04  0.87613998322E+03  0.15559607697E+04  0.50400001928E-02 0. -1.
</event>
<event>
 5   0  0.1387133E-06  0.3477790E+04  0.7818609E-02  0.8119074E-01
       -2   -1    0    0    0  501  0.00000000000E+00  0.00000000000E+00  0.16401199603E+04  0.16401199603E+04  0.25500000920E-02 0.  1.
        2   -1    0    0  501    0  0.00000000000E+00  0.00000000000E+00 -0.18436185965E+04  0.18436185965E+04  0.25500000920E-02 0. -1.
    10030    2    1    2    0    0  0.00000000000E+00  0.00000000000E+00 -0.20349863620E+03  0.34837385568E+04  0.34777899070E+04 0.  0.
        4    1    3    3  502    0 -0.49279060613E+03  0.13039284328E+04  0.93958742572E+03  0.16810407737E+04  0.12699999809E+01 0.  1.
       -4    1    3    3    0  502  0.49279060613E+03 -0.13039284328E+04 -0.11430860619E+04  0.18026977831E+04  0.12699999809E+01 0. -1.
</event>
<event>
 5   0  0.4591195E-07  0.3279473E+04  0.7818609E-02  0.8168138E-01
       -1   -1    0    0    0  501  0.00000000000E+00  0.00000000000E+00  0.13742049281E+04  0.13742049282E+04  0.50400001928E-02 0. -1.
        1   -1    0    0  501    0  0.00000000000E+00  0.00000000000E+00 -0.19565757200E+04  0.19565757200E+04  0.50400001928E-02 0.  1.
    10030    2    1    2    0    0  0.00000000000E+00  0.00000000000E+00 -0.58237079184E+03  0.33307806482E+04  0.32794731264E+04 0.  0.
        4    1    3    3  502    0 -0.38552254970E+03  0.31799981333E+03 -0.18773429761E+04  0.19427222602E+04  0.12699999809E+01 0.  1.
       -4    1    3    3    0  502  0.38552254970E+03 -0.31799981333E+03  0.12949721842E+04  0.13880583880E+04  0.12699999809E+01 0. -1.
</event>
<event>
 5   0  0.1442864E-06  0.3405670E+04  0.7818609E-02  0.8136516E-01
        2   -1    0    0  501    0  0.00000000000E+00  0.00000000000E+00  0.24732194971E+04  0.24732194971E+04  0.25500000920E-02 0. -1.
       -2   -1    0    0    0  501  0.00000000000E+00  0.00000000000E+00 -0.11724182448E+04  0.11724182448E+04  0.25500000920E-02 0.  1.
    10030    2    1    2    0    0  0.00000000000E+00  0.00000000000E+00  0.13008012522E+04  0.36456377419E+04  0.34056703668E+04 0.  0.
        1    1    3    3  502    0 -0.15630912745E+04  0.44040709965E+03  0.11987807546E+04  0.20184865726E+04  0.50400001928E-02 0. -1.
       -1    1    3    3    0  502  0.15630912745E+04 -0.44040709965E+03  0.10202049760E+03  0.16271511694E+04  0.50400001928E-02 0.  1.
</event>
<event>
 5   0  0.4700769E-07  0.3354919E+04  0.7818609E-02  0.8149060E-01
        1   -1    0    0  501    0  0.00000000000E+00  0.00000000000E+00  0.22325513689E+04  0.22325513689E+04  0.50400001928E-02 0. -1.
       -1   -1    0    0    0  501  0.00000000000E+00  0.00000000000E+00 -0.12603831107E+04  0.12603831107E+04  0.50400001928E-02 0.  1.
    10030    2    1    2    0    0  0.00000000000E+00  0.00000000000E+00  0.97216825822E+03  0.34929344797E+04  0.33549188004E+04 0.  0.
        3    1    3    3  502    0  0.14619906770E+04 -0.72579338987E+03  0.88888121132E+03  0.18585754228E+04  0.10100000352E+00 0. -1.
       -3    1    3    3    0  502 -0.14619906770E+04  0.72579338987E+03  0.83287046897E+02  0.16343590568E+04  0.10100000352E+00 0.  1.
</event>
<event>
 5   0  0.1361560E-06  0.3469178E+04  0.7818609E-02  0.8121133E-01
        2   -1    0    0  501    0  0.00000000000E+00  0.00000000000E+00  0.12261455948E+04  0.12261455948E+04  0.25500000920E-02 0.  1.
       -2   -1    0    0    0  501  0.00000000000E+00  0.00000000000E+00 -0.24538675710E+04  0.24538675710E+04  0.25500000920E-02 0. -1.
    10030    2    1    2    0    0  0.00000000000E+00  0.00000000000E+00 -0.12277219762E+04  0.36800131658E+04  0.34691779501E+04 0.  0.
        3    1    3    3  502    0 -0.10998837979E+04 -0.10565322357E+04  0.26267085223E+03  0.15475789869E+04  0.10100000352E+00 0.  1.
       -3    1    3    3    0  502  0.10998837979E+04  0.10565322357E+04 -0.14903928284E+04  0.21324341788E+04  0.10100000352E+00 0. -1.
</event>
<event>
 5   0  0.4409125E-07  0.3329996E+04  0.7818609E-02  0.8155305E-01
       -1   -1    0    0    0  501  0.00000000000E+00  0.00000000000E+00  0.13165910416E+04  0.13165910416E+04  0.50400001928E-02 0.  1.
        1   -1    0    0  501    0  0.00000000000E+00  0.00000000000E+00 -0.21056033098E+04  0.21056033098E+04  0.50400001928E-02 0. -1.
    10030    2    1    2    0    0  0.00000000000E+00  0.00000000000E+00 -0.78901226811E+03  0.34221943514E+04  0.33299960690E+04 0.  0.
        5    1    3    3  502    0  0.18836304174E+03 -0.11160277329E+04 -0.16494623691E+04  0.20004366356E+04  0.46999998093E+01 0. -1.
       -5    1    3    3    0  502 -0.18836304174E+03  0.11160277329E+04  0.86045010099E+03  0.14217577158E+04  0.46999998093E+01 0.  1.
</event>
<event>
 5   0  0.1442864E-06  0.3489656E+04  0.7818609E-02  0.8116246E-01
       -2   -1    0    0    0  501  0.00000000000E+00  0.00000000000E+00  0.19264589750E+04  0.19264589750E+04  0.25500000920E-02 0. -1.
        2   -1    0    0  501    0  0.00000000000E+00  0.00000000000E+00 -0.15803218595E+04  0.15803218595E+04  0.25500000920E-02 0.  1.
    10030    2    1    2    0    0  0.00000000000E+00  0.00000000000E+00  0.34613711551E+03  0.35067808346E+04  0.34896562752E+04 0.  0.
        1    1    3    3  502    0 -0.43070486674E+03 -0.93871419279E+03  0.15862890805E+04  0.18928824752E+04  0.50400001928E-02 0. -1.
       -1    1    3    3    0  502  0.43070486674E+03  0.93871419279E+03 -0.12401519650E+04  0.16138983593E+04  0.50400001928E-02 0.  1.
</event>
<event>
 5   0  0.1361560E-06  0.3310712E+04  0.7818609E-02  0.8160175E-01
        2   -1    0    0  501    0  0.00000000000E+00  0.00000000000E+00  0.20654291685E+04  0.20654291685E+04  0.25500000920E-02 0.  1.
       -2   -1    0    0    0  501  0.00000000000E+00  0.00000000000E+00 -0.13266995116E+04  0.13266995116E+04  0.25500000920E-02 0. -1.
    10030    2    1    2    0    0  0.00000000000E+00  0.00000000000E+00  0.73872965696E+03  0.33921286801E+04  0.33107122310E+04 0.  0.
        3    1    3    3  502    0 -0.98824614256E+03 -0.60796679738E+03 -0.84032617712E+03  0.14326207311E+04  0.10100000352E+00 0. -1.
       -3    1    3    3    0  502  0.98824614256E+03  0.60796679738E+03  0.15790558341E+04  0.19595079490E+04  0.10100000352E+00 0.  1.
</event>
<event>
 5   0  0.4409125E-07  0.3477014E+04  0.7818609E-02  0.8119259E-01
       -3   -1    0    0    0  501  0.00000000000E+00  0.00000000000E+00  0.18703792398E+04  0.18703792426E+04  0.10100000352E+00 0.  1.
        3   -1    0    0  501    0  0.00000000000E+00  0.00000000000E+00 -0.16159323691E+04  0.16159323723E+04  0.10100000352E+00 0. -1.
    10030    2    1    2    0    0  0.00000000000E+00  0.00000000000E+00  0.25444687073E+03  0.34863116148E+04  0.34770138719E+04 0.  0.
        5    1    3    3  502    0  0.12314978089E+03  0.13399199578E+04  0.12309999558E+04  0.18237144357E+04  0.46999998093E+01 0.  1.
       -5    1    3    3    0  502 -0.12314978089E+03 -0.13399199578E+04 -0.97655308508E+03  0.16625971791E+04  0.46999998093E+01 0. -1.
</event>
<event>
 5   0  0.4591195E-07  0.2925121E+04  0.7818609E-02  0.8265442E-01
        1   -1    0    0  501    0  0.00000000000E+00  0.00000000000E+00  0.26000054867E+04  0.26000054867E+04  0.50400001928E-02 0.  1.
       -1   -1    0    0    0  501  0.00000000000E+00  0.00000000000E+00 -0.82272242634E+03  0.82272242636E+03  0.50400001928E-02 0. -1.
    10030    2    1    2    0    0  0.00000000000E+00  0.00000000000E+00  0.17772830603E+04  0.34227279130E+04  0.29251207309E+04 0.  0.
        4    1    3    3  502    0 -0.13539640686E+04  0.21366277784E+03  0.14855272376E+04  0.20213023693E+04  0.12699999809E+01 0. -1.
       -4    1    3    3    0  502  0.13539640686E+04 -0.21366277784E+03  0.29175582278E+03  0.14014255438E+04  0.12699999809E+01 0.  1.
</event>
<event>
 5   0  0.4557237E-07  0.3507347E+04  0.7818609E-02  0.8112051E-01
       -1   -1    0    0    0  501  0.00000000000E+00  0.00000000000E+00  0.14993317773E+04  0.14993317773E+04  0.50400001928E-02 0.  1.
        1   -1    0    0  501    0  0.00000000000E+00  0.00000000000E+00 -0.20511605584E+04  0.20511605584E+04  0.50400001928E-02 0. -1.
    10030    2    1    2    0    0  0.00000000000E+00  0.00000000000E+00 -0.55182878113E+03  0.35504923357E+04  0.35073466926E+04 0.  0.
        2    1    3    3  502    0 -0.14999094762E+04  0.51083755445E+03  0.48478608146E+03  0.16570156875E+04  0.25500000920E-02 0.  1.
       -2    1    3    3    0  502  0.14999094762E+04 -0.51083755445E+03 -0.10366148626E+04  0.18934766482E+04  0.25500000920E-02 0. -1.
</event>
<event>
 5   0  0.1387133E-06  0.3504193E+04  0.7818609E-02  0.8112797E-01
        2   -1    0    0  501    0  0.00000000000E+00  0.00000000000E+00  0.19825750868E+04  0.19825750868E+04  0.25500000920E-02 0.  1.
       -2   -1    0    0    0  501  0.00000000000E+00  0.00000000000E+00 -0.15484111356E+04  0.15484111356E+04  0.25500000920E-02 0. -1.
    10030    2    1    2    0    0  0.00000000000E+00  0.00000000000E+00  0.43416395115E+03  0.35309862224E+04  0.35041925413E+04 0.  0.
        4    1    3    3  502    0 -0.73911500508E+03  0.59274452095E+03 -0.12680266954E+04  0.15828867208E+04  0.12699999809E+01 0. -1.
       -4    1    3    3    0  502  0.73911500508E+03 -0.59274452095E+03  0.17021906466E+04  0.19480995016E+04  0.12699999809E+01 0.  1.
</event>
<event>
 5   0  0.1442864E-06  0.3531818E+04  0.7818609E-02  0.8106291E-01
       -2   -1    0    0    0  501  0.00000000000E+00  0.00000000000E+00  0.28479867597E+04  0.28479867597E+04  0.25500000920E-02 0.  1.
        2   -1    0    0  501    0  0.00000000000E+00  0.00000000000E+00 -0.10949608540E+04  0.10949608540E+04  0.25500000920E-02 0. -1.
    10030    2    1    2    0    0  0.00000000000E+00  0.00000000000E+00  0.17530259057E+04  0.39429476137E+04  0.35318176706E+04 0.  0.
        1    1    3    3  502    0  0.13248390882E+04  0.46046093835E+03 -0.32133093625E+03  0.14389150274E+04  0.50400001928E-02 0. -1.
       -1    1    3    3    0  502 -0.13248390882E+04 -0.46046093835E+03  0.20743568419E+04  0.25040325863E+04  0.50400001928E-02 0.  1.
</event>
<event>
 5   0  0.4693374E-07  0.3494964E+04  0.7818609E-02  0.8114984E-01
       -1   -1    0    0    0  501  0.00000000000E+00  0.00000000000E+00  0.16721798537E+04  0.16721798537E+04  0.50400001928E-02 0. -1.
        1   -1    0    0  501    0  0.00000000000E+00  0.00000000000E+00 -0.18261749319E+04  0.18261749319E+04  0.50400001928E-02 0.  1.
    10030    2    1    2    0    0  0.00000000000E+00  0.00000000000E+00 -0.15399507818E+03  0.34983547856E+04  0.34949637654E+04 0.  0.
        1    1    3    3  502    0  0.10384370580E+04  0.19487899396E+03  0.13162450448E+04  0.16878478497E+04  0.50400001928E-02 0. -1.
       -1    1    3    3    0  502 -0.10384370580E+04 -0.19487899396E+03 -0.14702401230E+04  0.18105069359E+04  0.50400001928E-02 0.  1.
</event>
<event>
 5   0  0.1348388E-06  0.3488666E+04  0.7818609E-02  0.8116481E-01
        2   -1    0    0  501    0  0.00000000000E+00  0.00000000000E+00  0.26762629818E+04  0.26762629818E+04  0.25500000920E-02 0. -1.
       -2   -1    0    0    0  501  0.00000000000E+00  0.00000000000E+00 -0.11369201345E+04  0.11369201345E+04  0.25500000920E-02 0.  1.
    10030    2    1    2    0    0  0.00000000000E+00  0.00000000000E+00  0.15393428473E+04  0.38131831163E+04  0.34886658019E+04 0.  0.
        5    1    3    3  502    0 -0.17906167760E+03 -0.13833458764E+04 -0.37511621835E+03  0.14444525487E+04  0.46999998093E+01 0.  1.
       -5    1    3    3    0  502  0.17906167760E+03  0.13833458764E+04  0.19144590656E+04  0.23687305677E+04  0.46999998093E+01 0. -1.
</event>
<event>
 5   0  0.4591195E-07  0.3473307E+04  0.7818609E-02  0.8120145E-01
        1   -1    0    0  501    0  0.00000000000E+00  0.00000000000E+00  0.17365370985E+04  0.17365370985E+04  0.50400001928E-02 0.  1.
       -1   -1    0    0    0  501  0.00000000000E+00  0.00000000000E+00 -0.17367694416E+04  0.17367694416E+04  0.50400001928E-02 0. -1.
    10030    2    1    2    0    0  0.00000000000E+00  0.00000000000E+00 -0.23234308221E+00  0.34733065402E+04  0.34733065324E+04 0.  0.
        4    1    3    3  502    0  0.20003261044E+03  0.16886753957E+04 -0.35271412556E+03  0.17366768567E+04  0.12699999809E+01 0. -1.
       -4    1    3    3    0  502 -0.20003261044E+03 -0.16886753957E+04  0.35248178248E+03  0.17366296834E+04  0.12699999809E+01 0.  1.
</event>
<event>
 5   0  0.4409125E-07  0.3362169E+04  0.7818609E-02  0.8147254E-01
       -1   -1    0    0    0  501  0.00000000000E+00  0.00000000000E+00  0.14876803307E+04  0.14876803308E+04  0.50400001928E-02 0. -1.
        1   -1    0    0  501    0  0.00000000000E+00  0.00000000000E+00 -0.18996321060E+04  0.18996321060E+04  0.50400001928E-02 0.  1.
    10030    2    1    2    0    0  0.00000000000E+00  0.00000000000E+00 -0.41195177530E+03  0.33873124368E+04  0.33621691331E+04 0.  0.
        5    1    3    3  502    0  0.11434219755E+04  0.12314748196E+04 -0.25191496014E+03  0.16992431499E+04  0.46999998093E+01 0. -1.
       -5    1    3    3    0  502 -0.11434219755E+04 -0.12314748196E+04 -0.16003681516E+03  0.16880692869E+04  0.46999998093E+01 0.  1.
</event>
<event>
 5   0  0.4557237E-07  0.2987178E+04  0.7818609E-02  0.8247402E-01
        1   -1    0    0  501    0  0.00000000000E+00  0.00000000000E+00  0.11398704092E+04  0.11398704092E+04  0.50400001928E-02 0. -1.
       -1   -1    0    0    0  501  0.00000000000E+00  0.00000000000E+00 -0.19570712616E+04  0.19570712616E+04  0.50400001928E-02 0.  1.
    10030    2    1    2    0    0  0.00000000000E+00  0.00000000000E+00 -0.81720085239E+03  0.30969416708E+04  0.29871776779E+04 0.  0.
        2    1    3    3  502    0  0.23916876472E+03 -0.12440434350E+04  0.41164894179E+03  0.13320287600E+04  0.25500000920E-02 0. -1.
       -2    1    3    3    0  502 -0.23916876472E+03  0.12440434350E+04 -0.12288497942E+04  0.17649129108E+04  0.25500000920E-02 0.  1.
</event>
<event>
 5   0  0.1387133E-06  0.3479033E+04  0.7818609E-02  0.8118777E-01
        2   -1    0    0  501    0  0.00000000000E+00  0.00000000000E+00  0.15858471709E+04  0.15858471709E+04  0.25500000920E-02 0.  1.
       -2   -1    0    0    0  501  0.00000000000E+00  0.00000000000E+00 -0.19080769626E+04  0.19080769626E+04  0.25500000920E-02 0. -1.
    10030    2    1    2    0    0  0.00000000000E+00  0.00000000000E+00 -0.32222979168E+03  0.34939241334E+04  0.34790334594E+04 0.  0.
        4    1    3    3  502    0 -0.10703411891E+04 -0.41365464661E+03  0.11518354753E+04  0.16258742273E+04  0.12699999809E+01 0.  1.
       -4    1    3    3    0  502  0.10703411891E+04  0.41365464661E+03 -0.14740652670E+04  0.18680499062E+04  0.12699999809E+01 0. -1.
</event>
<event>
 5   0  0.4693374E-07  0.3085976E+04  0.7818609E-02  0.8219597E-01
       -1   -1    0    0    0  501  0.00000000000E+00  0.00000000000E+00  0.13432864148E+04  0.13432864148E+04  0.50400001928E-02 0. -1.
        1   -1    0    0  501    0  0.00000000000E+00  0.00000000000E+00 -0.17723787748E+04  0.17723787748E+04  0.50400001928E-02 0.  1.
    10030    2    1    2    0    0  0.00000000000E+00  0.00000000000E+00 -0.42909235993E+03  0.31156651896E+04  0.30859762346E+04 0.  0.
        1    1    3    3  502    0 -0.61990735845E+03  0.89132787299E+03 -0.13214798723E+04  0.17102805510E+04  0.50400001928E-02 0.  1.
       -1    1    3    3    0  502  0.61990735845E+03 -0.89132787299E+03  0.89238751233E+03  0.14053846386E+04  0.50400001928E-02 0. -1.
</event>
<event>
 5   0  0.4700769E-07  0.3516732E+04  0.7818609E-02  0.8109836E-01
       -1   -1    0    0    0  501  0.00000000000E+00  0.00000000000E+00  0.17172417747E+04  0.17172417747E+04  0.50400001928E-02 0.  1.
        1   -1    0    0  501    0  0.00000000000E+00  0.00000000000E+00 -0.18004751177E+04  0.18004751177E+04  0.50400001928E-02 0. -1.
    10030    2    1    2    0    0  0.00000000000E+00  0.00000000000E+00 -0.83233342991E+02  0.35177168923E+04  0.35167320548E+04 0.  0.
        3    1    3    3  502    0  0.11828113576E+04  0.12245325422E+02 -0.13430030817E+04  0.17896507881E+04  0.10100000352E+00 0. -1.
       -3    1    3    3    0  502 -0.11828113576E+04 -0.12245325422E+02  0.12597697387E+04  0.17280661042E+04  0.10100000352E+00 0.  1.
</event>
<event>
 5   0  0.1378620E-06  0.3517119E+04  0.7818609E-02  0.8109745E-01
        2   -1    0    0  501    0  0.00000000000E+00  0.00000000000E+00  0.24174443406E+04  0.24174443406E+04  0.25500000920E-02 0.  1.
       -2   -1    0    0    0  501  0.00000000000E+00  0.00000000000E+00 -0.12792565167E+04  0.12792565167E+04  0.25500000920E-02 0. -1.
    10030    2    1    2    0    0  0.00000000000E+00  0.00000000000E+00  0.11381878239E+04  0.36967008572E+04  0.35171189496E+04 0.  0.
        2    1    3    3  502    0  0.34114585015E+03 -0.61450804579E+03  0.22633973257E+04  0.23700143636E+04  0.25500000920E-02 0.  1.
       -2    1    3    3    0  502 -0.34114585015E+03  0.61450804579E+03 -0.11252095018E+04  0.13266864936E+04  0.25500000920E-02 0. -1.
</event>
<event>
 5   0  0.1387133E-06  0.3502618E+04  0.7818609E-02  0.8113170E-01
        2   -1    0    0  501    0  0.00000000000E+00  0.00000000000E+00  0.27947059219E+04  0.27947059219E+04  0.25500000920E-02 0.  1.
       -2   -1    0    0    0  501  0.00000000000E+00  0.00000000000E+00 -0.10974619088E+04  0.10974619088E+04  0.25500000920E-02 0. -1.
    10030    2    1    2    0    0  0.00000000000E+00  0.00000000000E+00  0.16972440130E+04  0.38921678307E+04  0.35026180469E+04 0.  0.
        4    1    3    3  502    0 -0.12453839495E+04 -0.11457693751E+04  0.34757162765E+03  0.17275926291E+04  0.12699999809E+01 0. -1.
       -4    1    3    3    0  502  0.12453839495E+04  0.11457693751E+04  0.13496723854E+04  0.21645752016E+04  0.12699999809E+01 0.  1.
</event>
<event>
 5   0  0.4409125E-07  0.2934747E+04  0.7818609E-02  0.8262614E-01
       -1   -1    0    0    0  501  0.00000000000E+00  0.00000000000E+00  0.25951196606E+04  0.25951196606E+04  0.50400001928E-02 0. -1.
        1   -1    0    0  501    0  0.00000000000E+00  0.00000000000E+00 -0.82970553263E+03  0.82970553265E+03  0.50400001928E-02 0.  1.
    10030    2    1    2    0    0  0.00000000000E+00  0.00000000000E+00  0.17654141280E+04  0.34248251933E+04  0.29347471035E+04 0.  0.
        5    1    3    3  502    0 -0.75083896642E+03 -0.57632366140E+03 -0.42581003228E+03  0.10379038442E+04  0.46999998093E+01 0.  1.
       -5    1    3    3    0  502  0.75083896642E+03  0.57632366140E+03  0.21912241603E+04  0.23869213491E+04  0.46999998093E+01 0. -1.
</event>
<event>
 5   0  0.1387133E-06  0.3452624E+04  0.7818609E-02  0.8125110E-01
       -2   -1    0    0    0  501  0.00000000000E+00  0.00000000000E+00  0.18210089635E+04  0.18210089635E+04  0.25500000920E-02 0. -1.
        2   -1    0    0  501    0  0.00000000000E+00  0.00000000000E+00 -0.16365396725E+04  0.16365396725E+04  0.25500000920E-02 0.  1.
    10030    2    1    2    0    0  0.00000000000E+00  0.00000000000E+00  0.18446929098E+03  0.34575486360E+04  0.34526241688E+04 0.  0.
        4    1    3    3  502    0  0.13730197654E+04  0.47106114024E+03 -0.84348016991E+03  0.16788514777E+04  0.12699999809E+01 0.  1.
       -4    1    3    3    0  502 -0.13730197654E+04 -0.47106114024E+03  0.10279494609E+04  0.17786971584E+04  0.12699999809E+01 0. -1.
</event>
<event>
 5   0  0.4557237E-07  0.3498095E+04  0.7818609E-02  0.8114241E-01
       -1   -1    0    0    0  501  0.00000000000E+00  0.00000000000E+00  0.22548802649E+04  0.22548802649E+04  0.50400001928E-02 0.  1.
        1   -1    0    0  501    0  0.00000000000E+00  0.00000000000E+00 -0.13566874714E+04  0.13566874714E+04  0.50400001928E-02 0. -1.
    10030    2    1    2    0    0  0.00000000000E+00  0.00000000000E+00  0.89819279350E+03  0.36115677363E+04  0.34980953703E+04 0.  0.
        2    1    3    3  502    0  0.23571407470E+03  0.16322066812E+04  0.10506705163E+04  0.19553946683E+04  0.25500000920E-02 0.  1.
       -2    1    3    3    0  502 -0.23571407470E+03 -0.16322066812E+04 -0.15247772277E+03  0.16561730680E+04  0.25500000920E-02 0. -1.
</event>
<event>
 5   0  0.1348388E-06  0.3133364E+04  0.7818609E-02  0.8206641E-01
        2   -1    0    0  501    0  0.00000000000E+00  0.00000000000E+00  0.24324891293E+04  0.24324891293E+04  0.25500000920E-02 0.  1.
       -2   -1    0    0    0  501  0.00000000000E+00  0.00000000000E+00 -0.10090459106E+04  0.10090459106E+04  0.25500000920E-02 0. -1.
    10030    2    1    2    0    0  0.00000000000E+00  0.00000000000E+00  0.14234432186E+04  0.34415350399E+04  0.31333644592E+04 0.  0.
        5    1    3    3  502    0  0.12315806770E+04 -0.96833216426E+03  0.71567785874E+03  0.17224038527E+04  0.46999998093E+01 0.  1.
       -5    1    3    3    0  502 -0.12315806770E+04  0.96833216426E+03  0.70776535991E+03  0.17191311872E+04  0.46999998093E+01 0. -1.
</event>
<event>
 5   0  0.4591195E-07  0.3513039E+04  0.7818609E-02  0.8110707E-01
       -1   -1    0    0    0  501  0.00000000000E+00  0.00000000000E+00  0.12242584933E+04  0.12242584933E+04  0.50400001928E-02 0.  1.
        1   -1    0    0  501    0  0.00000000000E+00  0.00000000000E+00 -0.25201879024E+04  0.25201879024E+04  0.50400001928E-02 0. -1.
    10030    2    1    2    0    0  0.00000000000E+00  0.00000000000E+00 -0.12959294091E+04  0.37444463957E+04  0.35130393930E+04 0.  0.
        4    1    3    3  502    0 -0.86891332524E+03  0.11124014054E+03 -0.22707422168E+04  0.24338563154E+04  0.12699999809E+01 0. -1.
       -4    1    3    3    0  502  0.86891332524E+03 -0.11124014054E+03  0.97481280770E+03  0.13105900803E+04  0.12699999809E+01 0.  1.
</event>
<event>
 5   0  0.1361560E-06  0.3500674E+04  0.7818609E-02  0.8113630E-01
       -2   -1    0    0    0  501  0.00000000000E+00  0.00000000000E+00  0.15169234401E+04  0.15169234401E+04  0.25500000920E-02 0. -1.
        2   -1    0    0  501    0  0.00000000000E+00  0.00000000000E+00 -0.20196667124E+04  0.20196667124E+04  0.25500000920E-02 0.  1.
    10030    2    1    2    0    0  0.00000000000E+00  0.00000000000E+00 -0.50274327228E+03  0.35365901525E+04  0.35006740935E+04 0.  0.
        3    1    3    3  502    0  0.10994197812E+04 -0.96212345594E+03  0.72250743234E+03  0.16298534903E+04  0.10100000352E+00 0. -1.
       -3    1    3    3    0  502 -0.10994197812E+04  0.96212345594E+03 -0.12252507046E+04  0.19067366622E+04  0.10100000352E+00 0.  1.
</event>
<event>
 5   0  0.4557237E-07  0.3845541E+04  0.7818609E-02  0.8036452E-01
       -1   -1    0    0    0  501  0.00000000000E+00  0.00000000000E+00  0.13998204999E+04  0.13998205000E+04  0.50400001928E-02 0.  1.
        1   -1    0    0  501    0  0.00000000000E+00  0.00000000000E+00 -0.26410854618E+04  0.26410854618E+04  0.50400001928E-02 0. -1.
    10030    2    1    2    0    0  0.00000000000E+00  0.00000000000E+00 -0.12412649618E+04  0.40409059618E+04  0.38455405714E+04 0.  0.
        2    1    3    3  502    0 -0.19171447512E+03 -0.16256278696E+04  0.43939046031E+03  0.16948405197E+04  0.25500000920E-02 0.  1.
       -2    1    3    3    0  502  0.19171447512E+03  0.16256278696E+04 -0.16806554222E+04  0.23460654421E+04  0.25500000920E-02 0. -1.
</event>
<event>
 5   0  0.1378620E-06  0.3117234E+04  0.7818609E-02  0.8211024E-01
        2   -1    0    0  501    0  0.00000000000E+00  0.00000000000E+00  0.15846529573E+04  0.15846529573E+04  0.25500000920E-02 0.  1.
       -2   -1    0    0    0  501  0.00000000000E+00  0.00000000000E+00 -0.15330089660E+04  0.15330089660E+04  0.25500000920E-02 0. -1.
    10030    2    1    2    0    0  0.00000000000E+00  0.00000000000E+00  0.51643991239E+02  0.31176619233E+04  0.31172341533E+04 0.  0.
        2    1    3    3  502    0 -0.11351471435E+04 -0.21639133996E+03  0.10718636725E+04  0.15761586157E+04  0.25500000920E-02 0.  1.
       -2    1    3    3    0  502  0.11351471435E+04  0.21639133996E+03 -0.10202196812E+04  0.15415033076E+04  0.25500000920E-02 0. -1.
</event>
<event>
 5   0  0.1387133E-06  0.3478688E+04  0.7818609E-02  0.8118859E-01
       -2   -1    0    0    0  501  0.00000000000E+00  0.00000000000E+00  0.10393304831E+04  0.10393304831E+04  0.25500000920E-02 0.  1.
        2   -1    0    0  501    0  0.00000000000E+00  0.00000000000E+00 -0.29108338752E+04  0.29108338752E+04  0.25500000920E-02 0. -1.
    10030    2    1    2    0    0  0.00000000000E+00  0.00000000000E+00 -0.18715033921E+04  0.39501643583E+04  0.34786884757E+04 0.  0.
        4    1    3    3  502    0  0.17016721401E+04 -0.35739109228E+03 -0.88625107131E+03  0.19516298418E+04  0.12699999809E+01 0.  1.
       -4    1    3    3    0  502 -0.17016721401E+04  0.35739109228E+03 -0.98525232079E+03  0.19985345165E+04  0.12699999809E+01 0. -1.
</event>
<event>
 5   0  0.1348388E-06  0.3505719E+04  0.7818609E-02  0.8112436E-01
        2   -1    0    0  501    0  0.00000000000E+00  0.00000000000E+00  0.19870830560E+04  0.19870830560E+04  0.25500000920E-02 0.  1.
       -2   -1    0    0    0  501  0.00000000000E+00  0.00000000000E+00 -0.15462446806E+04  0.15462446806E+04  0.25500000920E-02 0. -1.
    10030    2    1    2    0    0  0.00000000000E+00  0.00000000000E+00  0.44083837542E+03  0.35333277365E+04  0.35057191018E+04 0.  0.
        5    1    3    3  502    0 -0.92785172144E+03 -0.34400605148E+03  0.16786185177E+04  0.19485972386E+04  0.46999998093E+01 0.  1.
       -5    1    3    3    0  502  0.92785172144E+03  0.34400605148E+03 -0.12377801423E+04  0.15847304979E+04  0.46999998093E+01 0. -1.
</event>
<event>
 5   0  0.4693374E-07  0.3481037E+04  0.7818609E-02  0.8118299E-01
       -1   -1    0    0    0  501  0.00000000000E+00  0.00000000000E+00  0.15471793129E+04  0.15471793129E+04  0.50400001928E-02 0.  1.
        1   -1    0    0  501    0  0.00000000000E+00  0.00000000000E+00 -0.19580178866E+04  0.19580178866E+04  0.50400001928E-02 0. -1.
    10030    2    1    2    0    0  0.00000000000E+00  0.00000000000E+00 -0.41083857369E+03  0.35051971994E+04  0.34810370686E+04 0.  0.
        1    1    3    3  502    0  0.12386768551E+04 -0.69424120515E+03 -0.12189405711E+04  0.18713918131E+04  0.50400001928E-02 0. -1.
       -1    1    3    3    0  502 -0.12386768551E+04  0.69424120515E+03  0.80810199737E+03  0.16338053863E+04  0.50400001928E-02 0.  1.
</event>
<event>
 5   0  0.4557237E-07  0.3519748E+04  0.7818609E-02  0.8109126E-01
       -1   -1    0    0    0  501  0.00000000000E+00  0.00000000000E+00  0.16842346342E+04  0.16842346342E+04  0.50400001928E-02 0. -1.
        1   -1    0    0  501    0  0.00000000000E+00  0.00000000000E+00 -0.18389100010E+04  0.18389100010E+04  0.50400001928E-02 0.  1.
    10030    2    1    2    0    0  0.00000000000E+00  0.00000000000E+00 -0.15467536676E+03  0.35231446352E+04  0.35197476687E+04 0.  0.
        2    1    3    3  502    0  0.11319175708E+04 -0.11565873718E+04  0.61486727665E+03  0.17311826893E+04  0.25500000920E-02 0.  1.
       -2    1    3    3    0  502 -0.11319175708E+04  0.11565873718E+04 -0.76954264340E+03  0.17919619459E+04  0.25500000920E-02 0. -1.
</event>
<event>
 5   0  0.1348388E-06  0.3507886E+04  0.7818609E-02  0.8111924E-01
       -2   -1    0    0    0  501  0.00000000000E+00  0.00000000000E+00  0.15529848948E+04  0.15529848948E+04  0.25500000920E-02 0. -1.
        2   -1    0    0  501    0  0.00000000000E+00  0.00000000000E+00 -0.19809053743E+04  0.19809053743E+04  0.25500000920E-02 0.  1.
    10030    2    1    2    0    0  0.00000000000E+00  0.00000000000E+00 -0.42792047943E+03  0.35338902691E+04  0.35078860440E+04 0.  0.
        5    1    3    3  502    0  0.16468438267E+03  0.15751262341E+04 -0.97330544560E+03  0.18588946123E+04  0.46999998093E+01 0.  1.
       -5    1    3    3    0  502 -0.16468438267E+03 -0.15751262341E+04  0.54538496616E+03  0.16749956568E+04  0.46999998093E+01 0. -1.
</event>
<event>
 5   0  0.4700769E-07  0.3487097E+04  0.7818609E-02  0.8116855E-01
        1   -1    0    0  501    0  0.00000000000E+00  0.00000000000E+00  0.25251617334E+04  0.25251617334E+04  0.50400001928E-02 0. -1.
       -1   -1    0    0    0  501  0.00000000000E+00  0.00000000000E+00 -0.12038680647E+04  0.12038680647E+04  0.50400001928E-02 0.  1.
    10030    2    1    2    0    0  0.00000000000E+00  0.00000000000E+00  0.13212936687E+04  0.37290297981E+04  0.34870971131E+04 0.  0.
        3    1    3    3  502    0  0.98350012852E+03 -0.14395174102E+04  0.68404356632E+03  0.18728049786E+04  0.10100000352E+00 0. -1.
       -3    1    3    3    0  502 -0.98350012852E+03  0.14395174102E+04  0.63725010236E+03  0.18562248194E+04  0.10100000352E+00 0.  1.
</event>
<event>
 5   0  0.1442864E-06  0.2815813E+04  0.7818609E-02  0.8298376E-01
        2   -1    0    0  501    0  0.00000000000E+00  0.00000000000E+00  0.18463919045E+04  0.18463919045E+04  0.25500000920E-02 0. -1.
       -2   -1    0    0    0  501  0.00000000000E+00  0.00000000000E+00 -0.10735538173E+04  0.10735538173E+04  0.25500000920E-02 0.  1.
    10030    2    1    2    0    0  0.00000000000E+00  0.00000000000E+00  0.77283808717E+03  0.29199457218E+04  0.28158132589E+04 0.  0.
        1    1    3    3  502    0  0.39988916954E+03 -0.14207654701E+03  0.17784883323E+04  0.18284194927E+04  0.50400001928E-02 0. -1.
       -1    1    3    3    0  502 -0.39988916954E+03  0.14207654701E+03 -0.10056502451E+04  0.10915262291E+04  0.50400001928E-02 0.  1.
</event>
<event>
 5   0  0.4693374E-07  0.3466980E+04  0.7818609E-02  0.8121660E-01
       -1   -1    0    0    0  501  0.00000000000E+00  0.00000000000E+00  0.19642069027E+04  0.19642069027E+04  0.50400001928E-02 0. -1.
        1   -1    0    0  501    0  0.00000000000E+00  0.00000000000E+00 -0.15298731614E+04  0.15298731614E+04  0.50400001928E-02 0.  1.
    10030    2    1    2    0    0  0.00000000000E+00  0.00000000000E+00  0.43433374130E+03  0.34940800640E+04  0.34669799098E+04 0.  0.
        1    1    3    3  502    0  0.42664607138E+03  0.13987948501E+04  0.11552127642E+04  0.18636443957E+04  0.50400001928E-02 0. -1.
       -1    1    3    3    0  502 -0.42664607138E+03 -0.13987948501E+04 -0.72087902293E+03  0.16304356683E+04  0.50400001928E-02 0.  1.
</event>
<event>
 5   0  0.1442864E-06  0.3532886E+04  0.7818609E-02  0.8106040E-01
       -2   -1    0    0    0  501  0.00000000000E+00  0.00000000000E+00  0.17197874824E+04  0.17197874824E+04  0.25500000920E-02 0.  1.
        2   -1    0    0  501    0  0.00000000000E+00  0.00000000000E+00 -0.18143643484E+04  0.18143643484E+04  0.25500000920E-02 0. -1.
    10030    2    1    2    0    0  0.00000000000E+00  0.00000000000E+00 -0.94576866064E+02  0.35341518308E+04  0.35328861261E+04 0.  0.
        1    1    3    3  502    0 -0.14612123440E+04 -0.96031502661E+03 -0.29832580368E+03  0.17737938859E+04  0.50400001928E-02 0.  1.
       -1    1    3    3    0  502  0.14612123440E+04  0.96031502661E+03  0.20374893762E+03  0.17603579449E+04  0.50400001928E-02 0. -1.
</event>
<event>
 5   0  0.1442864E-06  0.3525475E+04  0.7818609E-02  0.8107779E-01
        2   -1    0    0  501    0  0.00000000000E+00  0.00000000000E+00  0.21365402512E+04  0.21365402512E+04  0.25500000920E-02 0.  1.
       -2   -1    0    0    0  501  0.00000000000E+00  0.00000000000E+00 -0.14543342528E+04  0.14543342528E+04  0.25500000920E-02 0. -1.
    10030    2    1    2    0    0  0.00000000000E+00  0.00000000000E+00  0.68220599842E+03  0.35908745039E+04  0.35254750997E+04 0.  0.
        1    1    3    3  502    0  0.72711518831E+03 -0.29052798941E+03 -0.12674784168E+04  0.14898337312E+04  0.50400001928E-02 0. -1.
       -1    1    3    3    0  502 -0.72711518831E+03  0.29052798941E+03  0.19496844152E+04  0.21010407727E+04  0.50400001928E-02 0.  1.
</event>
<event>
 5   0  0.1348388E-06  0.3502933E+04  0.7818609E-02  0.8113095E-01
        2   -1    0    0  501    0  0.00000000000E+00  0.00000000000E+00  0.30110156738E+04  0.30110156738E+04  0.25500000920E-02 0. -1.
       -2   -1    0    0    0  501  0.00000000000E+00  0.00000000000E+00 -0.10188037574E+04  0.10188037574E+04  0.25500000920E-02 0.  1.
    10030    2    1    2    0    0  0.00000000000E+00  0.00000000000E+00  0.19922119164E+04  0.40298194311E+04  0.35029325325E+04 0.  0.
        5    1    3    3  502    0 -0.10855177998E+03  0.14169049452E+04  0.21739227212E+04  0.25971840905E+04  0.46999998093E+01 0. -1.
       -5    1    3    3    0  502  0.10855177998E+03 -0.14169049452E+04 -0.18171080475E+03  0.14326353406E+04  0.46999998093E+01 0.  1.
</event>
<event>
 5   0  0.1361560E-06  0.3530153E+04  0.7818609E-02  0.8106681E-01
        2   -1    0    0  501    0  0.00000000000E+00  0.00000000000E+00  0.12439139206E+04  0.12439139206E+04  0.25500000920E-02 0.  1.
       -2   -1    0    0    0  501  0.00000000000E+00  0.00000000000E+00 -0.25045907548E+04  0.25045907548E+04  0.25500000920E-02 0. -1.
    10030    2    1    2    0    0  0.00000000000E+00  0.00000000000E+00 -0.12606768342E+04  0.37485046754E+04  0.35301531442E+04 0.  0.
        3    1    3    3  502    0  0.14104296395E+04 -0.15211502091E+03  0.48488283452E+03  0.14991871534E+04  0.10100000352E+00 0.  1.
       -3    1    3    3    0  502 -0.14104296395E+04  0.15211502091E+03 -0.17455596687E+04  0.22493175220E+04  0.10100000352E+00 0. -1.
</event>
<event>
 5   0  0.4591195E-07  0.3469876E+04  0.7818609E-02  0.8120966E-01
       -1   -1    0    0    0  501  0.00000000000E+00  0.00000000000E+00  0.19612093416E+04  0.19612093416E+04  0.50400001928E-02 0.  1.
        1   -1    0    0  501    0  0.00000000000E+00  0.00000000000E+00 -0.15347722125E+04  0.15347722125E+04  0.50400001928E-02 0. -1.
    10030    2    1    2    0    0  0.00000000000E+00  0.00000000000E+00  0.42643712913E+03  0.34959815540E+04  0.34698758481E+04 0.  0.
        4    1    3    3  502    0  0.14024118832E+04 -0.91267799061E+03  0.67521812681E+03  0.18043451267E+04  0.12699999809E+01 0.  1.
       -4    1    3    3    0  502 -0.14024118832E+04  0.91267799061E+03 -0.24878099768E+03  0.16916364273E+04  0.12699999809E+01 0. -1.
</event>
<event>
 5   0  0.4700769E-07  0.3493562E+04  0.7818609E-02  0.8115317E-01
       -1   -1    0    0    0  501  0.00000000000E+00  0.00000000000E+00  0.19745323746E+04  0.19745323746E+04  0.50400001928E-02 0. -1.
        1   -1    0    0  501    0  0.00000000000E+00  0.00000000000E+00 -0.15452998548E+04  0.15452998548E+04  0.50400001928E-02 0.  1.
    10030    2    1    2    0    0  0.00000000000E+00  0.00000000000E+00  0.42923251978E+03  0.35198322295E+04  0.34935624179E+04 0.  0.
        3    1    3    3  502    0  0.38903585789E+03  0.81176394394E+03  0.17228480300E+04  0.19438402568E+04  0.10100000352E+00 0. -1.
       -3    1    3    3    0  502 -0.38903585789E+03 -0.81176394394E+03 -0.12936155102E+04  0.15759919726E+04  0.10100000352E+00 0.  1.
</event>
<event>
 5   0  0.4557237E-07  0.3471861E+04  0.7818609E-02  0.8120491E-01
        1   -1    0    0  501    0  0.00000000000E+00  0.00000000000E+00  0.22777304491E+04  0.22777304491E+04  0.50400001928E-02 0.  1.
       -1   -1    0    0    0  501  0.00000000000E+00  0.00000000000E+00 -0.13230073181E+04  0.13230073181E+04  0.50400001928E-02 0. -1.
    10030    2    1    2    0    0  0.00000000000E+00  0.00000000000E+00  0.95472313102E+03  0.36007377673E+04  0.34718606268E+04 0.  0.
        2    1    3    3  502    0 -0.38591548409E+03 -0.14577435336E+04 -0.41450602008E+03  0.15638932865E+04  0.25500000920E-02 0. -1.
       -2    1    3    3    0  502  0.38591548409E+03  0.14577435336E+04  0.13692291511E+04  0.20368444808E+04  0.25500000920E-02 0.  1.
</event>
<event>
 5   0  0.4693374E-07  0.2950676E+04  0.7818609E-02  0.8257958E-01
       -1   -1    0    0    0  501  0.00000000000E+00  0.00000000000E+00  0.10850170122E+04  0.10850170122E+04  0.50400001928E-02 0.  1.
        1   -1    0    0  501    0  0.00000000000E+00  0.00000000000E+00 -0.20060719776E+04  0.20060719776E+04  0.50400001928E-02 0. -1.
    10030    2    1    2    0    0  0.00000000000E+00  0.00000000000E+00 -0.92105496540E+03  0.30910889899E+04  0.29506760063E+04 0.  0.
        1    1    3    3  502    0  0.47426686836E+03  0.14676527995E+03  0.99488422411E+03  0.11118739718E+04  0.50400001928E-02 0.  1.
       -1    1    3    3    0  502 -0.47426686836E+03 -0.14676527995E+03 -0.19159391895E+04  0.19792150181E+04  0.50400001928E-02 0. -1.
</event>
<event>
 5   0  0.1442864E-06  0.3477007E+04  0.7818609E-02  0.8119261E-01
       -2   -1    0    0    0  501  0.00000000000E+00  0.00000000000E+00  0.11508222390E+04  0.11508222390E+04  0.25500000920E-02 0.  1.
        2   -1    0    0  501    0  0.00000000000E+00  0.00000000000E+00 -0.26262907871E+04  0.26262907871E+04  0.25500000920E-02 0. -1.
    10030    2    1    2    0    0  0.00000000000E+00  0.00000000000E+00 -0.14754685482E+04  0.37771130261E+04  0.34770066689E+04 0.  0.
        1    1    3    3  502    0 -0.96180807757E+03 -0.84494876165E+03  0.53995516901E+03  0.13894476501E+04  0.50400001928E-02 0.  1.
       -1    1    3    3    0  502  0.96180807757E+03  0.84494876165E+03 -0.20154237172E+04  0.23876653760E+04  0.50400001928E-02 0. -1.
</event>
<event>
 5   0  0.4700769E-07  0.2739370E+04  0.7818609E-02  0.8322343E-01
        1   -1    0    0  501    0  0.00000000000E+00  0.00000000000E+00  0.15194977000E+04  0.15194977000E+04  0.50400001928E-02 0.  1.
       -1   -1    0    0    0  501  0.00000000000E+00  0.00000000000E+00 -0.12346431859E+04  0.12346431859E+04  0.50400001928E-02 0. -1.
    10030    2    1    2    0    0  0.00000000000E+00  0.00000000000E+00  0.28485451408E+03  0.27541408860E+04  0.27393703520E+04 0.  0.
        3    1    3    3  502    0  0.24245663393E+03 -0.11365265717E+04 -0.58643655750E+03  0.13016857200E+04  0.10100000352E+00 0. -1.
       -3    1    3    3    0  502 -0.24245663393E+03  0.11365265717E+04  0.87129107157E+03  0.14524551660E+04  0.10100000352E+00 0.  1.
</event>
<event>
 5   0  0.1378620E-06  0.3466587E+04  0.7818609E-02  0.8121754E-01
        2   -1    0    0  501    0  0.00000000000E+00  0.00000000000E+00  0.12158472136E+04  0.12158472136E+04  0.25500000920E-02 0. -1.
       -2   -1    0    0    0  501  0.00000000000E+00  0.00000000000E+00 -0.24709571678E+04  0.24709571678E+04  0.25500000920E-02 0.  1.
    10030    2    1    2    0    0  0.00000000000E+00  0.00000000000E+00 -0.12551099543E+04  0.36868043814E+04  0.34665870174E+04 0.  0.
        2    1    3    3  502    0 -0.30421389495E+03 -0.31113750726E+03  0.11568097112E+04  0.12359455289E+04  0.25500000920E-02 0. -1.
       -2    1    3    3    0  502  0.30421389495E+03  0.31113750726E+03 -0.24119196655E+04  0.24508588525E+04  0.25500000920E-02 0.  1.
</event>
<event>
 5   0  0.4409125E-07  0.3233433E+04  0.7818609E-02  0.8180043E-01
        1   -1    0    0  501    0  0.00000000000E+00  0.00000000000E+00  0.25336711784E+04  0.25336711784E+04  0.50400001928E-02 0. -1.
       -1   -1    0    0    0  501  0.00000000000E+00  0.00000000000E+00 -0.10316145887E+04  0.10316145887E+04  0.50400001928E-02 0.  1.
    10030    2    1    2    0    0  0.00000000000E+00  0.00000000000E+00  0.15020565897E+04  0.35652857671E+04  0.32334329438E+04 0.  0.
        5    1    3    3  502    0 -0.22603733244E+03 -0.15876902710E+04  0.52533385860E+03  0.16875577102E+04  0.46999998093E+01 0.  1.
       -5    1    3    3    0  502  0.22603733244E+03  0.15876902710E+04  0.97672273110E+03  0.18777280569E+04  0.46999998093E+01 0. -1.
</event>
<event>
 5   0  0.1387133E-06  0.3470169E+04  0.7818609E-02  0.8120896E-01
       -2   -1    0    0    0  501  0.00000000000E+00  0.00000000000E+00  0.13566481956E+04  0.13566481956E+04  0.25500000920E-02 0. -1.
        2   -1    0    0  501    0  0.00000000000E+00  0.00000000000E+00 -0.22190859074E+04  0.22190859074E+04  0.25500000920E-02 0.  1.
    10030    2    1    2    0    0  0.00000000000E+00  0.00000000000E+00 -0.86243771179E+03  0.35757341030E+04  0.34701693862E+04 0.  0.
        4    1    3    3  502    0  0.22759828101E+03  0.77981123031E+03 -0.20110290108E+04  0.21689042919E+04  0.12699999809E+01 0.  1.
       -4    1    3    3    0  502 -0.22759828101E+03 -0.77981123031E+03  0.11485912990E+04  0.14068298111E+04  0.12699999809E+01 0. -1.
</event>
<event>
 5   0  0.1442864E-06  0.3652678E+04  0.7818609E-02  0.8078531E-01
       -2   -1    0    0    0  501  0.00000000000E+00  0.00000000000E+00  0.19760712286E+04  0.19760712286E+04  0.25500000920E-02 0. -1.
        2   -1    0    0  501    0  0.00000000000E+00  0.00000000000E+00 -0.16879528123E+04  0.16879528123E+04  0.25500000920E-02 0.  1.
    10030    2    1    2    0    0  0.00000000000E+00  0.00000000000E+00  0.28811841634E+03  0.36640240409E+04  0.36526784625E+04 0.  0.
        1    1    3    3  502    0 -0.10183488773E+04  0.15069552502E+04 -0.22487900461E+02  0.18189156847E+04  0.50400001928E-02 0.  1.
       -1    1    3    3    0  502  0.10183488773E+04 -0.15069552502E+04  0.31060631680E+03  0.18451083562E+04  0.50400001928E-02 0. -1.
</event>
<event>
 5   0  0.1442864E-06  0.3524244E+04  0.7818609E-02  0.8108068E-01
       -2   -1    0    0    0  501  0.00000000000E+00  0.00000000000E+00  0.22587612055E+04  0.22587612055E+04  0.25500000920E-02 0. -1.
        2   -1    0    0  501    0  0.00000000000E+00  0.00000000000E+00 -0.13746797022E+04  0.13746797022E+04  0.25500000920E-02 0.  1.
    10030    2    1    2    0    0  0.00000000000E+00  0.00000000000E+00  0.88408150333E+03  0.36334409078E+04  0.35242435679E+04 0.  0.
        1    1    3    3  502    0  0.12597367016E+04 -0.12321034090E+04  0.43420162864E+03  0.18148130543E+04  0.50400001928E-02 0. -1.
       -1    1    3    3    0  502 -0.12597367016E+04  0.12321034090E+04  0.44987987469E+03  0.18186278535E+04  0.50400001928E-02 0.  1.
</event>
<event>
 5   0  0.4591195E-07  0.3575296E+04  0.7818609E-02  0.8096174E-01
       -1   -1    0    0    0  501  0.00000000000E+00  0.00000000000E+00  0.12264539375E+04  0.12264539375E+04  0.50400001928E-02 0. -1.
        1   -1    0    0  501    0  0.00000000000E+00  0.00000000000E+00 -0.26056305225E+04  0.26056305225E+04  0.50400001928E-02 0.  1.
    10030    2    1    2    0    0  0.00000000000E+00  0.00000000000E+00 -0.13791765850E+04  0.38320844600E+04  0.35752962473E+04 0.  0.
        4    1    3    3  502    0  0.17544099380E+04  0.20781750086E+03 -0.39695539804E+03  0.18107229344E+04  0.12699999809E+01 0.  1.
       -4    1    3    3    0  502 -0.17544099380E+04 -0.20781750086E+03 -0.98222118693E+03  0.20213615256E+04  0.12699999809E+01 0. -1.
</event>
<event>
 5   0  0.1387133E-06  0.3524468E+04  0.7818609E-02  0.8108016E-01
       -2   -1    0    0    0  501  0.00000000000E+00  0.00000000000E+00  0.15435725907E+04  0.15435725907E+04  0.25500000920E-02 0.  1.
        2   -1    0    0  501    0  0.00000000000E+00  0.00000000000E+00 -0.20118709993E+04  0.20118709993E+04  0.25500000920E-02 0. -1.
    10030    2    1    2    0    0  0.00000000000E+00  0.00000000000E+00 -0.46829840860E+03  0.35554435899E+04  0.35244681474E+04 0.  0.
        4    1    3    3  502    0 -0.29495482735E+03  0.14407862532E+04 -0.12135598675E+04  0.19067229852E+04  0.12699999809E+01 0. -1.
       -4    1    3    3    0  502  0.29495482735E+03 -0.14407862532E+04  0.74526145885E+03  0.16487206047E+04  0.12699999809E+01 0.  1.
</event>
<event>
 5   0  0.1387133E-06  0.2924495E+04  0.7818609E-02  0.8265627E-01
        2   -1    0    0  501    0  0.00000000000E+00  0.00000000000E+00  0.29613998143E+04  0.29613998143E+04  0.25500000920E-02 0. -1.
       -2   -1    0    0    0  501  0.00000000000E+00  0.00000000000E+00 -0.72201232078E+03  0.72201232078E+03  0.25500000920E-02 0.  1.
    10030    2    1    2    0    0  0.00000000000E+00  0.00000000000E+00  0.22393874935E+04  0.36834121351E+04  0.29244945907E+04 0.  0.
        4    1    3    3  502    0 -0.17343137645E+03 -0.66679465522E+03 -0.50475957972E+03  0.85409449172E+03  0.12699999809E+01 0.  1.
       -4    1    3    3    0  502  0.17343137645E+03  0.66679465522E+03  0.27441470733E+04  0.28293176434E+04  0.12699999809E+01 0. -1.
</event>
<event>
 5   0  0.4557237E-07  0.3490290E+04  0.7818609E-02  0.8116095E-01
       -1   -1    0    0    0  501  0.00000000000E+00  0.00000000000E+00  0.13453106642E+04  0.13453106642E+04  0.50400001928E-02 0. -1.
        1   -1    0    0  501    0  0.00000000000E+00  0.00000000000E+00 -0.22638126791E+04  0.22638126791E+04  0.50400001928E-02 0.  1.
    10030    2    1    2    0    0  0.00000000000E+00  0.00000000000E+00 -0.91850201491E+03  0.36091233433E+04  0.34902901536E+04 0.  0.
        2    1    3    3  502    0 -0.11731395832E+04  0.10303249751E+04  0.34684488009E+03  0.15994147076E+04  0.25500000920E-02 0. -1.
       -2    1    3    3    0  502  0.11731395832E+04 -0.10303249751E+04 -0.12653468950E+04  0.20097086358E+04  0.25500000920E-02 0.  1.
</event>
<event>
 5   0  0.1442864E-06  0.3519067E+04  0.7818609E-02  0.8109286E-01
       -2   -1    0    0    0  501  0.00000000000E+00  0.00000000000E+00  0.23156357738E+04  0.23156357738E+04  0.25500000920E-02 0. -1.
        2   -1    0    0  501    0  0.00000000000E+00  0.00000000000E+00 -0.13369797795E+04  0.13369797795E+04  0.25500000920E-02 0.  1.
    10030    2    1    2    0    0  0.00000000000E+00  0.00000000000E+00  0.97865599428E+03  0.36526155533E+04  0.35190670390E+04 0.  0.
        1    1    3    3  502    0  0.17986121934E+02 -0.15247941435E+04 -0.42184638328E+03  0.15821741534E+04  0.50400001928E-02 0.  1.
       -1    1    3    3    0  502 -0.17986121934E+02  0.15247941435E+04  0.14005023776E+04  0.20704413999E+04  0.50400001928E-02 0. -1.
</event>
<event>
 5   0  0.4409125E-07  0.2909452E+04  0.7818609E-02  0.8270071E-01
       -1   -1    0    0    0  501  0.00000000000E+00  0.00000000000E+00  0.89893666026E+03  0.89893666027E+03  0.50400001928E-02 0.  1.
        1   -1    0    0  501    0  0.00000000000E+00  0.00000000000E+00 -0.23541450487E+04  0.23541450487E+04  0.50400001928E-02 0. -1.
    10030    2    1    2    0    0  0.00000000000E+00  0.00000000000E+00 -0.14552083884E+04  0.32530817090E+04  0.29094516926E+04 0.  0.
        5    1    3    3  502    0  0.50076668327E+03  0.49749893101E+03  0.69460686942E+03  0.99033996712E+03  0.46999998093E+01 0.  1.
       -5    1    3    3    0  502 -0.50076668327E+03 -0.49749893101E+03 -0.21498152579E+04  0.22627417419E+04  0.46999998093E+01 0. -1.
</event>
<event>
 5   0  0.4409125E-07  0.3395054E+04  0.7818609E-02  0.8139121E-01
       -1   -1    0    0    0  501  0.00000000000E+00  0.00000000000E+00  0.20464900056E+04  0.20464900057E+04  0.50400001928E-02 0.  1.
        1   -1    0    0  501    0  0.00000000000E+00  0.00000000000E+00 -0.14080685203E+04  0.14080685203E+04  0.50400001928E-02 0. -1.
    10030    2    1    2    0    0  0.00000000000E+00  0.00000000000E+00  0.63842148531E+03  0.34545585260E+04  0.33950541405E+04 0.  0.
        5    1    3    3  502    0 -0.21164400222E+03  0.14109803782E+04  0.12550683862E+04  0.19002309216E+04  0.46999998093E+01 0.  1.
       -5    1    3    3    0  502  0.21164400222E+03 -0.14109803782E+04 -0.61664690085E+03  0.15543276044E+04  0.46999998093E+01 0. -1.
</event>
<event>
 5   0  0.4409125E-07  0.3451212E+04  0.7818609E-02  0.8125450E-01
       -1   -1    0    0    0  501  0.00000000000E+00  0.00000000000E+00  0.11673781467E+04  0.11673781468E+04  0.50400001928E-02 0.  1.
        1   -1    0    0  501    0  0.00000000000E+00  0.00000000000E+00 -0.25507722750E+04  0.25507722750E+04  0.50400001928E-02 0. -1.
    10030    2    1    2    0    0  0.00000000000E+00  0.00000000000E+00 -0.13833941282E+04  0.37181504217E+04  0.34512118516E+04 0.  0.
        5    1    3    3  502    0  0.11306787794E+04  0.12390549917E+04 -0.25540246396E+03  0.16967452028E+04  0.46999998093E+01 0. -1.
       -5    1    3    3    0  502 -0.11306787794E+04 -0.12390549917E+04 -0.11279916643E+04  0.20214052190E+04  0.46999998093E+01 0.  1.
</event>
<event>
 5   0  0.4557237E-07  0.3246574E+04  0.7818609E-02  0.8176624E-01
        1   -1    0    0  501    0  0.00000000000E+00  0.00000000000E+00  0.26845345667E+04  0.26845345667E+04  0.50400001928E-02 0.  1.
       -1   -1    0    0    0  501  0.00000000000E+00  0.00000000000E+00 -0.98157105658E+03  0.98157105659E+03  0.50400001928E-02 0. -1.
    10030    2    1    2    0    0  0.00000000000E+00  0.00000000000E+00  0.17029635101E+04  0.36661056233E+04  0.32465744600E+04 0.  0.
        2    1    3    3  502    0  0.15506559611E+04 -0.11236930071E+03  0.32436250111E+03  0.15881976582E+04  0.25500000920E-02 0. -1.
       -2    1    3    3    0  502 -0.15506559611E+04  0.11236930071E+03  0.13786010090E+04  0.20779079651E+04  0.25500000920E-02 0.  1.
</event>
<event>
 5   0  0.1361560E-06  0.3461683E+04  0.7818609E-02  0.8122931E-01
        2   -1    0    0  501    0  0.00000000000E+00  0.00000000000E+00  0.14628730446E+04  0.14628730446E+04  0.25500000920E-02 0. -1.
       -2   -1    0    0    0  501  0.00000000000E+00  0.00000000000E+00 -0.20478967666E+04  0.20478967666E+04  0.25500000920E-02 0.  1.
    10030    2    1    2    0    0  0.00000000000E+00  0.00000000000E+00 -0.58502372205E+03  0.35107698112E+04  0.34616833928E+04 0.  0.
        3    1    3    3  502    0 -0.15185616971E+04 -0.62452756713E+03 -0.84776833913E+03  0.18479111118E+04  0.10100000352E+00 0. -1.
       -3    1    3    3    0  502  0.15185616971E+04  0.62452756713E+03  0.26274461707E+03  0.16628586994E+04  0.10100000352E+00 0.  1.
</event>
<event>
 5   0  0.1348388E-06  0.3450987E+04  0.7818609E-02  0.8125505E-01
        2   -1    0    0  501    0  0.00000000000E+00  0.00000000000E+00  0.14075215053E+04  0.14075215053E+04  0.25500000920E-02 0.  1.
       -2   -1    0    0    0  501  0.00000000000E+00  0.00000000000E+00 -0.21152977519E+04  0.21152977519E+04  0.25500000920E-02 0. -1.
    10030    2    1    2    0    0  0.00000000000E+00  0.00000000000E+00 -0.70777624661E+03  0.35228192573E+04  0.34509865697E+04 0.  0.
        5    1    3    3  502    0 -0.65001054322E+03  0.17662695351E+03  0.12677608551E+04  0.14356010806E+04  0.46999998093E+01 0.  1.
       -5    1    3    3    0  502  0.65001054322E+03 -0.17662695351E+03 -0.19755371017E+04  0.20872181767E+04  0.46999998093E+01 0. -1.
</event>
<event>
 5   0  0.1378620E-06  0.3621906E+04  0.7818609E-02  0.8085492E-01
        2   -1    0    0  501    0  0.00000000000E+00  0.00000000000E+00  0.13324619256E+04  0.13324619256E+04  0.25500000920E-02 0. -1.
       -2   -1    0    0    0  501  0.00000000000E+00  0.00000000000E+00 -0.24612718824E+04  0.24612718824E+04  0.25500000920E-02 0.  1.
    10030    2    1    2    0    0  0.00000000000E+00  0.00000000000E+00 -0.11288099568E+04  0.37937338080E+04  0.36219061677E+04 0.  0.
        2    1    3    3  502    0  0.12856847587E+03  0.18049617884E+04 -0.63945734999E+03  0.19191984298E+04  0.25500000920E-02 0.  1.
       -2    1    3    3    0  502 -0.12856847587E+03 -0.18049617884E+04 -0.48935260680E+03  0.18745353782E+04  0.25500000920E-02 0. -1.
</event>
<event>
 5   0  0.4591195E-07  0.3397472E+04  0.7818609E-02  0.8138527E-01
       -1   -1    0    0    0  501  0.00000000000E+00  0.00000000000E+00  0.21861063166E+04  0.21861063166E+04  0.50400001928E-02 0.  1.
        1   -1    0    0  501    0  0.00000000000E+00  0.00000000000E+00 -0.13200202729E+04  0.13200202729E+04  0.50400001928E-02 0. -1.
    10030    2    1    2    0    0  0.00000000000E+00  0.00000000000E+00  0.86608604377E+03  0.35061265895E+04  0.33974723879E+04 0.  0.
        4    1    3    3  502    0 -0.14961002527E+04  0.38205732411E+03 -0.29771260889E+03  0.15725514858E+04  0.12699999809E+01 0. -1.
       -4    1    3    3    0  502  0.14961002527E+04 -0.38205732411E+03  0.11637986527E+04  0.19335751037E+04  0.12699999809E+01 0.  1.
</event>
<event>
 5   0  0.1442864E-06  0.3508227E+04  0.7818609E-02  0.8111843E-01
        2   -1    0    0  501    0  0.00000000000E+00  0.00000000000E+00  0.19997133512E+04  0.19997133512E+04  0.25500000920E-02 0. -1.
       -2   -1    0    0    0  501  0.00000000000E+00  0.00000000000E+00 -0.15386780359E+04  0.15386780359E+04  0.25500000920E-02 0.  1.
    10030    2    1    2    0    0  0.00000000000E+00  0.00000000000E+00  0.46103531531E+03  0.35383913871E+04  0.35082274793E+04 0.  0.
        1    1    3    3  502    0 -0.63227485463E+03  0.83751567476E+03  0.16482029497E+04  0.19539132429E+04  0.50400001928E-02 0. -1.
       -1    1    3    3    0  502  0.63227485463E+03 -0.83751567476E+03 -0.11871676344E+04  0.15844781442E+04  0.50400001928E-02 0.  1.
</event>
<event>
 5   0  0.4557237E-07  0.3466966E+04  0.7818609E-02  0.8121664E-01
        1   -1    0    0  501    0  0.00000000000E+00  0.00000000000E+00  0.89986411223E+03  0.89986411224E+03  0.50400001928E-02 0. -1.
       -1   -1    0    0    0  501  0.00000000000E+00  0.00000000000E+00 -0.33393518213E+04  0.33393518213E+04  0.50400001928E-02 0.  1.
    10030    2    1    2    0    0  0.00000000000E+00  0.00000000000E+00 -0.24394877090E+04  0.42392159335E+04  0.34669657409E+04 0.  0.
        2    1    3    3  502    0 -0.19484931885E+03 -0.16509462749E+04 -0.61901245153E+03  0.17739127021E+04  0.25500000920E-02 0. -1.
       -2    1    3    3    0  502  0.19484931885E+03  0.16509462749E+04 -0.18204752575E+04  0.24653032314E+04  0.25500000920E-02 0.  1.
</event>
<event>
 5   0  0.4693374E-07  0.3454156E+04  0.7818609E-02  0.8124741E-01
        1   -1    0    0  501    0  0.00000000000E+00  0.00000000000E+00  0.17366899287E+04  0.17366899287E+04  0.50400001928E-02 0.  1.
       -1   -1    0    0    0  501  0.00000000000E+00  0.00000000000E+00 -0.17175195295E+04  0.17175195295E+04  0.50400001928E-02 0. -1.
    10030    2    1    2    0    0  0.00000000000E+00  0.00000000000E+00  0.19170399248E+02  0.34542094582E+04  0.34541562612E+04 0.  0.
        1    1    3    3  502    0 -0.68302154026E+03  0.13113765904E+04  0.90210770287E+03  0.17320581093E+04  0.50400001928E-02 0.  1.
       -1    1    3    3    0  502  0.68302154026E+03 -0.13113765904E+04 -0.88293730362E+03  0.17221513489E+04  0.50400001928E-02 0. -1.
</event>
<event>
 5   0  0.4700769E-07  0.3496127E+04  0.7818609E-02  0.8114708E-01
        1   -1    0    0  501    0  0.00000000000E+00  0.00000000000E+00  0.24216298036E+04  0.24216298036E+04  0.50400001928E-02 0. -1.
       -1   -1    0    0    0  501  0.00000000000E+00  0.00000000000E+00 -0.12618471407E+04  0.12618471407E+04  0.50400001928E-02 0.  1.
    10030    2    1    2    0    0  0.00000000000E+00  0.00000000000E+00  0.11597826629E+04  0.36834769444E+04  0.34961273682E+04 0.  0.
        3    1    3    3  502    0  0.13698745521E+04  0.82024779963E+03  0.13296164722E+04  0.20777975635E+04  0.10100000352E+00 0.  1.
       -3    1    3    3    0  502 -0.13698745521E+04 -0.82024779963E+03 -0.16983380931E+03  0.16056793809E+04  0.10100000352E+00 0. -1.
</event>
<event>
 5   0  0.4557237E-07  0.3577993E+04  0.7818609E-02  0.8095551E-01
        1   -1    0    0  501    0  0.00000000000E+00  0.00000000000E+00  0.11545621161E+04  0.11545621161E+04  0.50400001928E-02 0.  1.
       -1   -1    0    0    0  501  0.00000000000E+00  0.00000000000E+00 -0.27720543985E+04  0.27720543986E+04  0.50400001928E-02 0. -1.
    10030    2    1    2    0    0  0.00000000000E+00  0.00000000000E+00 -0.16174922825E+04  0.39266165146E+04  0.35779932880E+04 0.  0.
        2    1    3    3  502    0  0.15744306766E+04  0.32468382454E+03 -0.16702556175E+04  0.23181901063E+04  0.25500000920E-02 0. -1.
       -2    1    3    3    0  502 -0.15744306766E+04 -0.32468382454E+03  0.52763335036E+02  0.16084264083E+04  0.25500000920E-02 0.  1.
</event>
<event>
 5   0  0.4700769E-07  0.3499849E+04  0.7818609E-02  0.8113826E-01
        1   -1    0    0  501    0  0.00000000000E+00  0.00000000000E+00  0.14555572440E+04  0.14555572440E+04  0.50400001928E-02 0. -1.
       -1   -1    0    0    0  501  0.00000000000E+00  0.00000000000E+00 -0.21038238176E+04  0.21038238176E+04  0.50400001928E-02 0.  1.
    10030    2    1    2    0    0  0.00000000000E+00  0.00000000000E+00 -0.64826657364E+03  0.35593810616E+04  0.34998491383E+04 0.  0.
        3    1    3    3  502    0  0.62161681610E+03  0.13946014059E+04  0.54534497616E+03  0.16213333095E+04  0.10100000352E+00 0. -1.
       -3    1    3    3    0  502 -0.62161681610E+03 -0.13946014059E+04 -0.11936115498E+04  0.19380477521E+04  0.10100000352E+00 0.  1.
</event>
<event>
 5   0  0.4693374E-07  0.3588411E+04  0.7818609E-02  0.8093152E-01
       -1   -1    0    0    0  501  0.00000000000E+00  0.00000000000E+00  0.18832608976E+04  0.18832608976E+04  0.50400001928E-02 0.  1.
        1   -1    0    0  501    0  0.00000000000E+00  0.00000000000E+00 -0.17093608963E+04  0.17093608963E+04  0.50400001928E-02 0. -1.
    10030    2    1    2    0    0  0.00000000000E+00  0.00000000000E+00  0.17390000130E+03  0.35926217940E+04  0.35884105317E+04 0.  0.
        1    1    3    3  502    0 -0.91122370943E+03  0.32769443664E+03 -0.14252729679E+04  0.17231121048E+04  0.50400001928E-02 0. -1.
       -1    1    3    3    0  502  0.91122370943E+03 -0.32769443664E+03  0.15991729692E+04  0.18695096892E+04  0.50400001928E-02 0.  1.
</event>
<event>
 5   0  0.4557237E-07  0.3439325E+04  0.7818609E-02  0.8128322E-01
       -1   -1    0    0    0  501  0.00000000000E+00  0.00000000000E+00  0.11678595994E+04  0.11678595994E+04  0.50400001928E-02 0.  1.
        1   -1    0    0  501    0  0.00000000000E+00  0.00000000000E+00 -0.25321866226E+04  0.25321866227E+04  0.50400001928E-02 0. -1.
    10030    2    1    2    0    0  0.00000000000E+00  0.00000000000E+00 -0.13643270232E+04  0.37000462221E+04  0.34393246167E+04 0.  0.
        2    1    3    3  502    0  0.12101394585E+04 -0.59351205233E+03 -0.18310842735E+04  0.22736674519E+04  0.25500000920E-02 0. -1.
       -2    1    3    3    0  502 -0.12101394585E+04  0.59351205233E+03  0.46675725027E+03  0.14263787702E+04  0.25500000920E-02 0.  1.
</event>
<event>
 5   0  0.1378620E-06  0.3489421E+04  0.7818609E-02  0.8116302E-01
        2   -1    0    0  501    0  0.00000000000E+00  0.00000000000E+00  0.15922437949E+04  0.15922437949E+04  0.25500000920E-02 0. -1.
       -2   -1    0    0    0  501  0.00000000000E+00  0.00000000000E+00 -0.19117763379E+04  0.19117763379E+04  0.25500000920E-02 0.  1.
    10030    2    1    2    0    0  0.00000000000E+00  0.00000000000E+00 -0.31953254301E+03  0.35040201329E+04  0.34894205888E+04 0.  0.
        2    1    3    3  502    0 -0.16012094703E+03 -0.16864960137E+04  0.25924022151E+03  0.17138007511E+04  0.25500000920E-02 0. -1.
       -2    1    3    3    0  502  0.16012094703E+03  0.16864960137E+04 -0.57877276451E+03  0.17902193818E+04  0.25500000920E-02 0.  1.
</event>
<event>
 5   0  0.4557237E-07  0.3427129E+04  0.7818609E-02  0.8131280E-01
        1   -1    0    0  501    0  0.00000000000E+00  0.00000000000E+00  0.27747386242E+04  0.27747386242E+04  0.50400001928E-02 0.  1.
       -1   -1    0    0    0  501  0.00000000000E+00  0.00000000000E+00 -0.10582272403E+04  0.10582272403E+04  0.50400001928E-02 0. -1.
    10030    2    1    2    0    0  0.00000000000E+00  0.00000000000E+00  0.17165113840E+04  0.38329658645E+04  0.34271294092E+04 0.  0.
        2    1    3    3  502    0  0.55266237039E+02  0.16618168831E+04  0.13215758200E+04  0.21239708939E+04  0.25500000920E-02 0.  1.
       -2    1    3    3    0  502 -0.55266237039E+02 -0.16618168831E+04  0.39493556393E+03  0.17089949706E+04  0.25500000920E-02 0. -1.
</event>
<event>
 5   0  0.4409125E-07  0.3484005E+04  0.7818609E-02  0.8117591E-01
       -1   -1    0    0    0  501  0.00000000000E+00  0.00000000000E+00  0.11514995530E+04  0.11514995530E+04  0.50400001928E-02 0. -1.
        1   -1    0    0  501    0  0.00000000000E+00  0.00000000000E+00 -0.26353224149E+04  0.26353224149E+04  0.50400001928E-02 0.  1.
    10030    2    1    2    0    0  0.00000000000E+00  0.00000000000E+00 -0.14838228619E+04  0.37868219679E+04  0.34840049270E+04 0.  0.
        5    1    3    3  502    0 -0.16466529122E+04 -0.31193167352E+03 -0.22544506317E+03  0.16910395468E+04  0.46999998093E+01 0. -1.
       -5    1    3    3    0  502  0.16466529122E+04  0.31193167352E+03 -0.12583777988E+04  0.20957824211E+04  0.46999998093E+01 0.  1.
</event>
<event>
 5   0  0.1361560E-06  0.3070294E+04  0.7818609E-02  0.8223938E-01
        2   -1    0    0  501    0  0.00000000000E+00  0.00000000000E+00  0.14719186860E+04  0.14719186860E+04  0.25500000920E-02 0. -1.
       -2   -1    0    0    0  501  0.00000000000E+00  0.00000000000E+00 -0.16010914486E+04  0.16010914486E+04  0.25500000920E-02 0.  1.
    10030    2    1    2    0    0  0.00000000000E+00  0.00000000000E+00 -0.12917276263E+03  0.30730101345E+04  0.30702940713E+04 0.  0.
        3    1    3    3  502    0  0.92821000013E+03  0.10935245062E+04  0.48298694210E+03  0.15134880397E+04  0.10100000352E+00 0. -1.
       -3    1    3    3    0  502 -0.92821000013E+03 -0.10935245062E+04 -0.61215970473E+03  0.15595220948E+04  0.10100000352E+00 0.  1.
</event>
<event>
 5   0  0.1361560E-06  0.3062104E+04  0.7818609E-02  0.8226216E-01
       -2   -1    0    0    0  501  0.00000000000E+00  0.00000000000E+00  0.11162248338E+04  0.11162248338E+04  0.25500000920E-02 0. -1.
        2   -1    0    0  501    0  0.00000000000E+00  0.00000000000E+00 -0.21000432142E+04  0.21000432142E+04  0.25500000920E-02 0.  1.
    10030    2    1    2    0    0  0.00000000000E+00  0.00000000000E+00 -0.98381838048E+03  0.32162680480E+04  0.30621041052E+04 0.  0.
        3    1    3    3  502    0  0.50319243546E+03  0.37859697018E+03  0.97390921321E+03  0.11597575000E+04  0.10100000352E+00 0. -1.
       -3    1    3    3    0  502 -0.50319243546E+03 -0.37859697018E+03 -0.19577275937E+04  0.20565105480E+04  0.10100000352E+00 0.  1.
</event>
<event>
 5   0  0.1387133E-06  0.3431824E+04  0.7818609E-02  0.8130140E-01
        2   -1    0    0  501    0  0.00000000000E+00  0.00000000000E+00  0.26203343363E+04  0.26203343363E+04  0.25500000920E-02 0.  1.
       -2   -1    0    0    0  501  0.00000000000E+00  0.00000000000E+00 -0.11236555417E+04  0.11236555417E+04  0.25500000920E-02 0. -1.
    10030    2    1    2    0    0  0.00000000000E+00  0.00000000000E+00  0.14966787946E+04  0.37439898780E+04  0.34318235374E+04 0.  0.
        4    1    3    3  502    0 -0.85735191735E+03 -0.12105574238E+04  0.16892587490E+04  0.22481321848E+04  0.12699999809E+01 0.  1.
       -4    1    3    3    0  502  0.85735191735E+03  0.12105574238E+04 -0.19257995441E+03  0.14958576932E+04  0.12699999809E+01 0. -1.
</event>
<event>
 5   0  0.1361560E-06  0.3475131E+04  0.7818609E-02  0.8119709E-01
       -2   -1    0    0    0  501  0.00000000000E+00  0.00000000000E+00  0.14559400844E+04  0.14559400844E+04  0.25500000920E-02 0.  1.
        2   -1    0    0  501    0  0.00000000000E+00  0.00000000000E+00 -0.20736667808E+04  0.20736667808E+04  0.25500000920E-02 0. -1.
    10030    2    1    2    0    0  0.00000000000E+00  0.00000000000E+00 -0.61772669646E+03  0.35296068652E+04  0.34751314150E+04 0.  0.
        3    1    3    3  502    0 -0.45698606634E+03 -0.50273910052E+03 -0.19331673514E+04  0.20490775697E+04  0.10100000352E+00 0. -1.
       -3    1    3    3    0  502  0.45698606634E+03  0.50273910052E+03  0.13154406549E+04  0.14805292955E+04  0.10100000352E+00 0.  1.
</event>
<event>
 5   0  0.1442864E-06  0.3505723E+04  0.7818609E-02  0.8112435E-01
       -2   -1    0    0    0  501  0.00000000000E+00  0.00000000000E+00  0.15563366874E+04  0.15563366874E+04  0.25500000920E-02 0. -1.
        2   -1    0    0  501    0  0.00000000000E+00  0.00000000000E+00 -0.19742021265E+04  0.19742021265E+04  0.25500000920E-02 0.  1.
    10030    2    1    2    0    0  0.00000000000E+00  0.00000000000E+00 -0.41786543906E+03  0.35305388138E+04  0.35057228628E+04 0.  0.
        1    1    3    3  502    0  0.33951476933E+03 -0.13489987379E+02  0.15228535064E+04  0.15602996701E+04  0.50400001928E-02 0. -1.
       -1    1    3    3    0  502 -0.33951476933E+03  0.13489987379E+02 -0.19407189455E+04  0.19702391438E+04  0.50400001928E-02 0.  1.
</event>
<event>
 5   0  0.1348388E-06  0.3403956E+04  0.7818609E-02  0.8136936E-01
        2   -1    0    0  501    0  0.00000000000E+00  0.00000000000E+00  0.16804390059E+04  0.16804390059E+04  0.25500000920E-02 0. -1.
       -2   -1    0    0    0  501  0.00000000000E+00  0.00000000000E+00 -0.17237928152E+04  0.17237928152E+04  0.25500000920E-02 0.  1.
    10030    2    1    2    0    0  0.00000000000E+00  0.00000000000E+00 -0.43353809359E+02  0.34042318211E+04  0.34039557487E+04 0.  0.
        5    1    3    3  502    0 -0.36171349950E+03  0.30164648955E+03  0.16139615748E+04  0.16812856139E+04  0.46999998093E+01 0. -1.
       -5    1    3    3    0  502  0.36171349950E+03 -0.30164648955E+03 -0.16573153842E+04  0.17229462073E+04  0.46999998093E+01 0.  1.
</event>
<event>
 5   0  0.1348388E-06  0.3443570E+04  0.7818609E-02  0.8127295E-01
        2   -1    0    0  501    0  0.00000000000E+00  0.00000000000E+00  0.15430565949E+04  0.15430565949E+04  0.25500000920E-02 0.  1.
       -2   -1    0    0    0  501  0.00000000000E+00  0.00000000000E+00 -0.19212152047E+04  0.19212152047E+04  0.25500000920E-02 0. -1.
    10030    2    1    2    0    0  0.00000000000E+00  0.00000000000E+00 -0.37815860981E+03  0.34642717995E+04  0.34435701193E+04 0.  0.
        5    1    3    3  502    0  0.14369038023E+03 -0.16651658901E+04  0.22704650197E+03  0.16867117628E+04  0.46999998093E+01 0.  1.
       -5    1    3    3    0  502 -0.14369038023E+03  0.16651658901E+04 -0.60520511178E+03  0.17775600367E+04  0.46999998093E+01 0. -1.
</event>
<event>
 5   0  0.4409125E-07  0.3505958E+04  0.7818609E-02  0.8112379E-01
        1   -1    0    0  501    0  0.00000000000E+00  0.00000000000E+00  0.15274122211E+04  0.15274122211E+04  0.50400001928E-02 0.  1.
       -1   -1    0    0    0  501  0.00000000000E+00  0.00000000000E+00 -0.20118578199E+04  0.20118578199E+04  0.50400001928E-02 0. -1.
    10030    2    1    2    0    0  0.00000000000E+00  0.00000000000E+00 -0.48444559879E+03  0.35392700410E+04  0.35059584830E+04 0.  0.
        5    1    3    3  502    0 -0.79259090227E+03 -0.12028196717E+03  0.13315138293E+04  0.15542262569E+04  0.46999998093E+01 0.  1.
       -5    1    3    3    0  502  0.79259090227E+03  0.12028196717E+03 -0.18159594281E+04  0.19850437841E+04  0.46999998093E+01 0. -1.
</event>
<event>
 5   0  0.4693374E-07  0.3504960E+04  0.7818609E-02  0.8112615E-01
        1   -1    0    0  501    0  0.00000000000E+00  0.00000000000E+00  0.19544582992E+04  0.19544582993E+04  0.50400001928E-02 0. -1.
       -1   -1    0    0    0  501  0.00000000000E+00  0.00000000000E+00 -0.15713750039E+04  0.15713750039E+04  0.50400001928E-02 0.  1.
    10030    2    1    2    0    0  0.00000000000E+00  0.00000000000E+00  0.38308329538E+03  0.35258333031E+04  0.35049604378E+04 0.  0.
        1    1    3    3  502    0 -0.43087536869E+03 -0.60115628572E+02 -0.15161897923E+04  0.15773709007E+04  0.50400001928E-02 0.  1.
       -1    1    3    3    0  502  0.43087536869E+03  0.60115628572E+02  0.18992730877E+04  0.19484624024E+04  0.50400001928E-02 0. -1.
</event>
<event>
 5   0  0.4700769E-07  0.3391487E+04  0.7818609E-02  0.8139999E-01
        1   -1    0    0  501    0  0.00000000000E+00  0.00000000000E+00  0.16601661219E+04  0.16601661219E+04  0.50400001928E-02 0.  1.
       -1   -1    0    0    0  501  0.00000000000E+00  0.00000000000E+00 -0.17320836550E+04  0.17320836550E+04  0.50400001928E-02 0. -1.
    10030    2    1    2    0    0  0.00000000000E+00  0.00000000000E+00 -0.71917533060E+02  0.33922497769E+04  0.33914873459E+04 0.  0.
        3    1    3    3  502    0 -0.11327986159E+04  0.17057448240E+03 -0.12865271016E+04  0.17226376146E+04  0.10100000352E+00 0.  1.
       -3    1    3    3    0  502  0.11327986159E+04 -0.17057448240E+03  0.12146095685E+04  0.16696121622E+04  0.10100000352E+00 0. -1.
</event>
<event>
 5   0  0.4693374E-07  0.3521001E+04  0.7818609E-02  0.8108831E-01
        1   -1    0    0  501    0  0.00000000000E+00  0.00000000000E+00  0.28192791572E+04  0.28192791572E+04  0.50400001928E-02 0.  1.
       -1   -1    0    0    0  501  0.00000000000E+00  0.00000000000E+00 -0.10993458300E+04  0.10993458301E+04  0.50400001928E-02 0. -1.
    10030    2    1    2    0    0  0.00000000000E+00  0.00000000000E+00  0.17199333271E+04  0.39186249872E+04  0.35210014400E+04 0.  0.
        1    1    3    3  502    0 -0.10315026255E+04  0.35833574823E+03  0.23968410120E+04  0.26338657923E+04  0.50400001928E-02 0.  1.
       -1    1    3    3    0  502  0.10315026255E+04 -0.35833574823E+03 -0.67690768492E+03  0.12847591949E+04  0.50400001928E-02 0. -1.
</event>
<event>
 5   0  0.4591195E-07  0.3542880E+04  0.7818609E-02  0.8103702E-01
       -1   -1    0    0    0  501  0.00000000000E+00  0.00000000000E+00  0.25947548216E+04  0.25947548216E+04  0.50400001928E-02 0. -1.
        1   -1    0    0  501    0  0.00000000000E+00  0.00000000000E+00 -0.12093627580E+04  0.12093627580E+04  0.50400001928E-02 0.  1.
    10030    2    1    2    0    0  0.00000000000E+00  0.00000000000E+00  0.13853920636E+04  0.38041175796E+04  0.35428800980E+04 0.  0.
        4    1    3    3  502    0  0.76974195562E+03  0.83476127860E+03 -0.76721730404E+03  0.13703842800E+04  0.12699999809E+01 0.  1.
       -4    1    3    3    0  502 -0.76974195562E+03 -0.83476127860E+03  0.21526093677E+04  0.24337332995E+04  0.12699999809E+01 0. -1.
</event>
<event>
 5   0  0.1387133E-06  0.3583629E+04  0.7818609E-02  0.8094252E-01
        2   -1    0    0  501    0  0.00000000000E+00  0.00000000000E+00  0.19969077449E+04  0.19969077449E+04  0.25500000920E-02 0.  1.
       -2   -1    0    0    0  501  0.00000000000E+00  0.00000000000E+00 -0.16077854209E+04  0.16077854209E+04  0.25500000920E-02 0. -1.
    10030    2    1    2    0    0  0.00000000000E+00  0.00000000000E+00  0.38912232407E+03  0.36046931658E+04  0.35836289758E+04 0.  0.
        4    1    3    3  502    0 -0.11696292427E+04  0.45202530840E+01 -0.11708211175E+04  0.16549551958E+04  0.12699999809E+01 0. -1.
       -4    1    3    3    0  502  0.11696292427E+04 -0.45202530840E+01  0.15599434415E+04  0.19497379700E+04  0.12699999809E+01 0.  1.
</event>
<event>
 5   0  0.1348388E-06  0.3498495E+04  0.7818609E-02  0.8114147E-01
        2   -1    0    0  501    0  0.00000000000E+00  0.00000000000E+00  0.22637036466E+04  0.22637036466E+04  0.25500000920E-02 0.  1.
       -2   -1    0    0    0  501  0.00000000000E+00  0.00000000000E+00 -0.13517082532E+04  0.13517082532E+04  0.25500000920E-02 0. -1.
    10030    2    1    2    0    0  0.00000000000E+00  0.00000000000E+00  0.91199539335E+03  0.36154118998E+04  0.34984950490E+04 0.  0.
        5    1    3    3  502    0 -0.22006392876E+03  0.87960696064E+03  0.20018865060E+04  0.21976597122E+04  0.46999998093E+01 0.  1.
       -5    1    3    3    0  502  0.22006392876E+03 -0.87960696064E+03 -0.10898911126E+04  0.14177521876E+04  0.46999998093E+01 0. -1.
</event>
<event>
 5   0  0.4693374E-07  0.3642425E+04  0.7818609E-02  0.8080842E-01
        1   -1    0    0  501    0  0.00000000000E+00  0.00000000000E+00  0.20631691622E+04  0.20631691622E+04  0.50400001928E-02 0.  1.
       -1   -1    0    0    0  501  0.00000000000E+00  0.00000000000E+00 -0.16076314259E+04  0.16076314259E+04  0.50400001928E-02 0. -1.
    10030    2    1    2    0    0  0.00000000000E+00  0.00000000000E+00  0.45553773632E+03  0.36708005882E+04  0.36424253361E+04 0.  0.
        1    1    3    3  502    0 -0.24738818531E+03 -0.95648584412E+03 -0.13141005829E+04  0.16440579145E+04  0.50400001928E-02 0. -1.
       -1    1    3    3    0  502  0.24738818531E+03  0.95648584412E+03  0.17696383192E+04  0.20267426737E+04  0.50400001928E-02 0.  1.
</event>
<event>
 5   0  0.1361560E-06  0.3512227E+04  0.7818609E-02  0.8110898E-01
       -2   -1    0    0    0  501  0.00000000000E+00  0.00000000000E+00  0.20210476898E+04  0.20210476898E+04  0.25500000920E-02 0.  1.
        2   -1    0    0  501    0  0.00000000000E+00  0.00000000000E+00 -0.15259086929E+04  0.15259086929E+04  0.25500000920E-02 0. -1.
    10030    2    1    2    0    0  0.00000000000E+00  0.00000000000E+00  0.49513899692E+03  0.35469563828E+04  0.35122267801E+04 0.  0.
        3    1    3    3  502    0  0.13978621701E+04 -0.10135994257E+04  0.57094160790E+03  0.18186194688E+04  0.10100000352E+00 0.  1.
       -3    1    3    3    0  502 -0.13978621701E+04  0.10135994257E+04 -0.75802610980E+02  0.17283369140E+04  0.10100000352E+00 0. -1.
</event>
<event>
 5   0  0.1442864E-06  0.3508296E+04  0.7818609E-02  0.8111827E-01
        2   -1    0    0  501    0  0.00000000000E+00  0.00000000000E+00  0.16603435053E+04  0.16603435053E+04  0.25500000920E-02 0. -1.
       -2   -1    0    0    0  501  0.00000000000E+00  0.00000000000E+00 -0.18532520038E+04  0.18532520039E+04  0.25500000920E-02 0.  1.
    10030    2    1    2    0    0  0.00000000000E+00  0.00000000000E+00 -0.19290849857E+03  0.35135955091E+04  0.35082958417E+04 0.  0.
        1    1    3    3  502    0  0.16557559519E+04  0.54059843080E+03  0.11185151357E+03  0.17453610505E+04  0.50400001928E-02 0.  1.
       -1    1    3    3    0  502 -0.16557559519E+04 -0.54059843080E+03 -0.30476001214E+03  0.17682344586E+04  0.50400001928E-02 0. -1.
</event>
<event>
 5   0  0.1378620E-06  0.2560072E+04  0.7818609E-02  0.8381892E-01
       -2   -1    0    0    0  501  0.00000000000E+00  0.00000000000E+00  0.10136157532E+04  0.10136157532E+04  0.25500000920E-02 0.  1.
        2   -1    0    0  501    0  0.00000000000E+00  0.00000000000E+00 -0.16164819737E+04  0.16164819737E+04  0.25500000920E-02 0. -1.
    10030    2    1    2    0    0  0.00000000000E+00  0.00000000000E+00 -0.60286622050E+03  0.26300977269E+04  0.25600715563E+04 0.  0.
        2    1    3    3  502    0 -0.12979226877E+03  0.35109030380E+03  0.95613331292E+03  0.10267917737E+04  0.25500000920E-02 0.  1.
       -2    1    3    3    0  502  0.12979226877E+03 -0.35109030380E+03 -0.15589995334E+04  0.16033059532E+04  0.25500000920E-02 0. -1.
</event>
<event>
 5   0  0.4557237E-07  0.3151862E+04  0.7818609E-02  0.8201647E-01
        1   -1    0    0  501    0  0.00000000000E+00  0.00000000000E+00  0.28441498002E+04  0.28441498002E+04  0.50400001928E-02 0. -1.
       -1   -1    0    0    0  501  0.00000000000E+00  0.00000000000E+00 -0.87321625754E+03  0.87321625756E+03  0.50400001928E-02 0.  1.
    10030    2    1    2    0    0  0.00000000000E+00  0.00000000000E+00  0.19709335427E+04  0.37173660578E+04  0.31518615734E+04 0.  0.
        2    1    3    3  502    0  0.75109849846E+02  0.15596247173E+04  0.73392373433E+03  0.17253158540E+04  0.25500000920E-02 0. -1.
       -2    1    3    3    0  502 -0.75109849846E+02 -0.15596247173E+04  0.12370098084E+04  0.19920502038E+04  0.25500000920E-02 0.  1.
</event>
<event>
 5   0  0.4591195E-07  0.3507877E+04  0.7818609E-02  0.8111926E-01
       -1   -1    0    0    0  501  0.00000000000E+00  0.00000000000E+00  0.31626786143E+04  0.31626786143E+04  0.50400001928E-02 0.  1.
        1   -1    0    0  501    0  0.00000000000E+00  0.00000000000E+00 -0.97268801409E+03  0.97268801411E+03  0.50400001928E-02 0. -1.
    10030    2    1    2    0    0  0.00000000000E+00  0.00000000000E+00  0.21899906002E+04  0.41353666284E+04  0.35078766116E+04 0.  0.
        4    1    3    3  502    0 -0.88484489069E+03 -0.93535069477E+03 -0.30904399177E+03  0.13241379099E+04  0.12699999809E+01 0. -1.
       -4    1    3    3    0  502  0.88484489069E+03  0.93535069477E+03  0.24990345919E+04  0.28112287184E+04  0.12699999809E+01 0.  1.
</event>
<event>
 5   0  0.1348388E-06  0.3519133E+04  0.7818609E-02  0.8109271E-01
        2   -1    0    0  501    0  0.00000000000E+00  0.00000000000E+00  0.19641157561E+04  0.19641157561E+04  0.25500000920E-02 0.  1.
       -2   -1    0    0    0  501  0.00000000000E+00  0.00000000000E+00 -0.15763193945E+04  0.15763193945E+04  0.25500000920E-02 0. -1.
    10030    2    1    2    0    0  0.00000000000E+00  0.00000000000E+00  0.38779636153E+03  0.35404351506E+04  0.35191327110E+04 0.  0.
        5    1    3    3  502    0  0.64699750976E+03 -0.88701450399E+03 -0.11894347063E+04  0.16186962403E+04  0.46999998093E+01 0. -1.
       -5    1    3    3    0  502 -0.64699750976E+03  0.88701450399E+03  0.15772310678E+04  0.19217389103E+04  0.46999998093E+01 0.  1.
</event>
<event>
 5   0  0.4557237E-07  0.3471143E+04  0.7818609E-02  0.8120663E-01
       -1   -1    0    0    0  501  0.00000000000E+00  0.00000000000E+00  0.15863272391E+04  0.15863272391E+04  0.50400001928E-02 0.  1.
        1   -1    0    0  501    0  0.00000000000E+00  0.00000000000E+00 -0.18988572609E+04  0.18988572609E+04  0.50400001928E-02 0. -1.
    10030    2    1    2    0    0  0.00000000000E+00  0.00000000000E+00 -0.31253002180E+03  0.34851845001E+04  0.34711433253E+04 0.  0.
        2    1    3    3  502    0 -0.57616606668E+03 -0.49666126072E+03 -0.17225654956E+04  0.18830484941E+04  0.25500000920E-02 0. -1.
       -2    1    3    3    0  502  0.57616606668E+03  0.49666126072E+03  0.14100354738E+04  0.16021360060E+04  0.25500000920E-02 0.  1.
</event>
<event>
 5   0  0.4409125E-07  0.3501608E+04  0.7818609E-02  0.8113409E-01
        1   -1    0    0  501    0  0.00000000000E+00  0.00000000000E+00  0.26939535825E+04  0.26939535825E+04  0.50400001928E-02 0.  1.
       -1   -1    0    0    0  501  0.00000000000E+00  0.00000000000E+00 -0.11378497205E+04  0.11378497205E+04  0.50400001928E-02 0. -1.
    10030    2    1    2    0    0  0.00000000000E+00  0.00000000000E+00  0.15561038621E+04  0.38318033030E+04  0.35016078198E+04 0.  0.
        5    1    3    3  502    0  0.64340517865E+03 -0.33280761742E+03 -0.96616511543E+03  0.12075712213E+04  0.46999998093E+01 0. -1.
       -5    1    3    3    0  502 -0.64340517865E+03  0.33280761742E+03  0.25222689775E+04  0.26242320818E+04  0.46999998093E+01 0.  1.
</event>
<event>
 5   0  0.4591195E-07  0.3575498E+04  0.7818609E-02  0.8096127E-01
        1   -1    0    0  501    0  0.00000000000E+00  0.00000000000E+00  0.23688266605E+04  0.23688266605E+04  0.50400001928E-02 0. -1.
       -1   -1    0    0    0  501  0.00000000000E+00  0.00000000000E+00 -0.13492110042E+04  0.13492110043E+04  0.50400001928E-02 0.  1.
    10030    2    1    2    0    0  0.00000000000E+00  0.00000000000E+00  0.10196156562E+04  0.37180376647E+04  0.35754982856E+04 0.  0.
        4    1    3    3  502    0 -0.13740541177E+04 -0.24808807105E+03  0.16707715376E+04  0.21773955895E+04  0.12699999809E+01 0. -1.
       -4    1    3    3    0  502  0.13740541177E+04  0.24808807105E+03 -0.65115588133E+03  0.15406420753E+04  0.12699999809E+01 0.  1.
</event>
<event>
 5   0  0.4700769E-07  0.3469539E+04  0.7818609E-02  0.8121047E-01
       -1   -1    0    0    0  501  0.00000000000E+00  0.00000000000E+00  0.15961432064E+04  0.15961432064E+04  0.50400001928E-02 0. -1.
        1   -1    0    0  501    0  0.00000000000E+00  0.00000000000E+00 -0.18854351737E+04  0.18854351738E+04  0.50400001928E-02 0.  1.
    10030    2    1    2    0    0  0.00000000000E+00  0.00000000000E+00 -0.28929196739E+03  0.34815783801E+04  0.34695386112E+04 0.  0.
        3    1    3    3  502    0 -0.87325865780E+03  0.33821931227E+03  0.13207130225E+04  0.16190293032E+04  0.10100000352E+00 0. -1.
       -3    1    3    3    0  502  0.87325865780E+03 -0.33821931227E+03 -0.16100049898E+04  0.18625490770E+04  0.10100000352E+00 0.  1.
</event>
<event>
 5   0  0.4409125E-07  0.2778412E+04  0.7818609E-02  0.8310002E-01
        1   -1    0    0  501    0  0.00000000000E+00  0.00000000000E+00  0.24724779878E+04  0.24724779879E+04  0.50400001928E-02 0. -1.
       -1   -1    0    0    0  501  0.00000000000E+00  0.00000000000E+00 -0.78055003089E+03  0.78055003091E+03  0.50400001928E-02 0.  1.
    10030    2    1    2    0    0  0.00000000000E+00  0.00000000000E+00  0.16919279570E+04  0.32530280188E+04  0.27784116109E+04 0.  0.
        5    1    3    3  502    0  0.13684410364E+04 -0.74939423926E+02  0.11119853892E+04  0.17648740417E+04  0.46999998093E+01 0.  1.
       -5    1    3    3    0  502 -0.13684410364E+04  0.74939423926E+02  0.57994256777E+03  0.14881539770E+04  0.46999998093E+01 0. -1.
</event>
<event>
 5   0  0.4693374E-07  0.2629308E+04  0.7818609E-02  0.8358313E-01
        1   -1    0    0  501    0  0.00000000000E+00  0.00000000000E+00  0.14216365099E+04  0.14216365099E+04  0.50400001928E-02 0.  1.
       -1   -1    0    0    0  501  0.00000000000E+00  0.00000000000E+00 -0.12157226979E+04  0.12157226980E+04  0.50400001928E-02 0. -1.
    10030    2    1    2    0    0  0.00000000000E+00  0.00000000000E+00  0.20591381194E+03  0.26373592079E+04  0.26293084820E+04 0.  0.
        1    1    3    3  502    0  0.57752375088E+03 -0.78499548765E+03  0.98802146453E+03  0.13877816878E+04  0.50400001928E-02 0.  1.
       -1    1    3    3    0  502 -0.57752375088E+03  0.78499548765E+03 -0.78210765260E+03  0.12495775201E+04  0.50400001928E-02 0. -1.
</event>
<event>
 5   0  0.1442864E-06  0.2582150E+04  0.7818609E-02  0.8374290E-01
       -2   -1    0    0    0  501  0.00000000000E+00  0.00000000000E+00  0.10103880286E+04  0.10103880286E+04  0.25500000920E-02 0. -1.
        2   -1    0    0  501    0  0.00000000000E+00  0.00000000000E+00 -0.16497367188E+04  0.16497367188E+04  0.25500000920E-02 0.  1.
    10030    2    1    2    0    0  0.00000000000E+00  0.00000000000E+00 -0.63934869020E+03  0.26601247474E+04  0.25821496711E+04 0.  0.
        1    1    3    3  502    0  0.24863121535E+03  0.10388164371E+04  0.42742655934E+03  0.11505001238E+04  0.50400001928E-02 0. -1.
       -1    1    3    3    0  502 -0.24863121535E+03 -0.10388164371E+04 -0.10667752495E+04  0.15096246236E+04  0.50400001928E-02 0.  1.
</event>
<event>
 5   0  0.4693374E-07  0.3474597E+04  0.7818609E-02  0.8119837E-01
        1   -1    0    0  501    0  0.00000000000E+00  0.00000000000E+00  0.15229726210E+04  0.15229726210E+04  0.50400001928E-02 0. -1.
       -1   -1    0    0    0  501  0.00000000000E+00  0.00000000000E+00 -0.19817856562E+04  0.19817856562E+04  0.50400001928E-02 0.  1.
    10030    2    1    2    0    0  0.00000000000E+00  0.00000000000E+00 -0.45881303527E+03  0.35047582772E+04  0.34745965493E+04 0.  0.
        1    1    3    3  502    0  0.31026350654E+03 -0.86120399160E+03  0.12599846684E+04  0.15574007587E+04  0.50400001928E-02 0. -1.
       -1    1    3    3    0  502 -0.31026350654E+03  0.86120399160E+03 -0.17187977037E+04  0.19473575185E+04  0.50400001928E-02 0.  1.
</event>
<event>
 5   0  0.1387133E-06  0.2751621E+04  0.7818609E-02  0.8318448E-01
       -2   -1    0    0    0  501  0.00000000000E+00  0.00000000000E+00  0.11365161033E+04  0.11365161033E+04  0.25500000920E-02 0. -1.
        2   -1    0    0  501    0  0.00000000000E+00  0.00000000000E+00 -0.16654880934E+04  0.16654880934E+04  0.25500000920E-02 0.  1.
    10030    2    1    2    0    0  0.00000000000E+00  0.00000000000E+00 -0.52897199006E+03  0.28020041968E+04  0.27516206411E+04 0.  0.
        4    1    3    3  502    0 -0.28631992988E+03 -0.78549410320E+03  0.84816552980E+03  0.11909519164E+04  0.12699999809E+01 0. -1.
       -4    1    3    3    0  502  0.28631992988E+03  0.78549410320E+03 -0.13771375199E+04  0.16110522803E+04  0.12699999809E+01 0.  1.
</event>
<event>
 5   0  0.1348388E-06  0.2529499E+04  0.7818609E-02  0.8392551E-01
       -2   -1    0    0    0  501  0.00000000000E+00  0.00000000000E+00  0.12543500113E+04  0.12543500113E+04  0.25500000920E-02 0. -1.
        2   -1    0    0  501    0  0.00000000000E+00  0.00000000000E+00 -0.12752356222E+04  0.12752356222E+04  0.25500000920E-02 0.  1.
    10030    2    1    2    0    0  0.00000000000E+00  0.00000000000E+00 -0.20885610903E+02  0.25295856334E+04  0.25294994106E+04 0.  0.
        5    1    3    3  502    0 -0.79907539744E+03  0.98033007112E+03 -0.93528612277E+01  0.12647838176E+04  0.46999998093E+01 0.  1.
       -5    1    3    3    0  502  0.79907539744E+03 -0.98033007112E+03 -0.11532749675E+02  0.12648018159E+04  0.46999998093E+01 0. -1.
</event>
<event>
 5   0  0.4557237E-07  0.3505452E+04  0.7818609E-02  0.8112499E-01
        1   -1    0    0  501    0  0.00000000000E+00  0.00000000000E+00  0.13097089056E+04  0.13097089056E+04  0.50400001928E-02 0.  1.
       -1   -1    0    0    0  501  0.00000000000E+00  0.00000000000E+00 -0.23455968920E+04  0.23455968920E+04  0.50400001928E-02 0. -1.
    10030    2    1    2    0    0  0.00000000000E+00  0.00000000000E+00 -0.10358879864E+04  0.36553057976E+04  0.35054524036E+04 0.  0.
        2    1    3    3  502    0 -0.19726875815E+03  0.15760170936E+04 -0.12907778478E+04  0.20466685844E+04  0.25500000920E-02 0. -1.
       -2    1    3    3    0  502  0.19726875815E+03 -0.15760170936E+04  0.25488986138E+03  0.16086372132E+04  0.25500000920E-02 0.  1.
</event>
<event>
 5   0  0.4693374E-07  0.3487508E+04  0.7818609E-02  0.8116757E-01
       -1   -1    0    0    0  501  0.00000000000E+00  0.00000000000E+00  0.13956756919E+04  0.13956756919E+04  0.50400001928E-02 0. -1.
        1   -1    0    0  501    0  0.00000000000E+00  0.00000000000E+00 -0.21786423470E+04  0.21786423470E+04  0.50400001928E-02 0.  1.
    10030    2    1    2    0    0  0.00000000000E+00  0.00000000000E+00 -0.78296665513E+03  0.35743180389E+04  0.34875080875E+04 0.  0.
        1    1    3    3  502    0 -0.16725327448E+04 -0.41347907299E+03 -0.66715335562E+03  0.18475454869E+04  0.50400001928E-02 0.  1.
       -1    1    3    3    0  502  0.16725327448E+04  0.41347907299E+03 -0.11581329951E+03  0.17267725520E+04  0.50400001928E-02 0. -1.
</event>
<event>
 5   0  0.1378620E-06  0.2818712E+04  0.7818609E-02  0.8297483E-01
        2   -1    0    0  501    0  0.00000000000E+00  0.00000000000E+00  0.12894316714E+04  0.12894316714E+04  0.25500000920E-02 0. -1.
       -2   -1    0    0    0  501  0.00000000000E+00  0.00000000000E+00 -0.15404337366E+04  0.15404337366E+04  0.25500000920E-02 0.  1.
    10030    2    1    2    0    0  0.00000000000E+00  0.00000000000E+00 -0.25100206524E+03  0.28298654080E+04  0.28187117964E+04 0.  0.
        2    1    3    3  502    0  0.67823479218E+02 -0.12312571957E+04  0.55961391508E+03  0.13541647020E+04  0.25500000920E-02 0. -1.
       -2    1    3    3    0  502 -0.67823479218E+02  0.12312571957E+04 -0.81061598033E+03  0.14757007060E+04  0.25500000920E-02 0.  1.
</event>
<event>
 5   0  0.4700769E-07  0.3569568E+04  0.7818609E-02  0.8097498E-01
       -1   -1    0    0    0  501  0.00000000000E+00  0.00000000000E+00  0.11537603970E+04  0.11537603970E+04  0.50400001928E-02 0.  1.
        1   -1    0    0  501    0  0.00000000000E+00  0.00000000000E+00 -0.27609315404E+04  0.27609315404E+04  0.50400001928E-02 0. -1.
    10030    2    1    2    0    0  0.00000000000E+00  0.00000000000E+00 -0.16071711434E+04  0.39146919373E+04  0.35695677441E+04 0.  0.
        3    1    3    3  502    0 -0.53642227822E+03  0.47786004241E+03  0.98819605848E+03  0.12217325980E+04  0.10100000352E+00 0.  1.
       -3    1    3    3    0  502  0.53642227822E+03 -0.47786004241E+03 -0.25953672019E+04  0.26929593394E+04  0.10100000352E+00 0. -1.
</event>
<event>
 5   0  0.4700769E-07  0.3531848E+04  0.7818609E-02  0.8106284E-01
        1   -1    0    0  501    0  0.00000000000E+00  0.00000000000E+00  0.14226502309E+04  0.14226502309E+04  0.50400001928E-02 0.  1.
       -1   -1    0    0    0  501  0.00000000000E+00  0.00000000000E+00 -0.21920265753E+04  0.21920265754E+04  0.50400001928E-02 0. -1.
    10030    2    1    2    0    0  0.00000000000E+00  0.00000000000E+00 -0.76937634447E+03  0.36146768062E+04  0.35318477394E+04 0.  0.
        3    1    3    3  502    0  0.13508719403E+04  0.97892853356E+03 -0.97734647311E+03  0.19334844741E+04  0.10100000352E+00 0. -1.
       -3    1    3    3    0  502 -0.13508719403E+04 -0.97892853356E+03  0.20797012864E+03  0.16811923321E+04  0.10100000352E+00 0.  1.
</event>
<event>
 5   0  0.1378620E-06  0.3542088E+04  0.7818609E-02  0.8103887E-01
       -2   -1    0    0    0  501  0.00000000000E+00  0.00000000000E+00  0.16840207502E+04  0.16840207502E+04  0.25500000920E-02 0. -1.
        2   -1    0    0  501    0  0.00000000000E+00  0.00000000000E+00 -0.18625642108E+04  0.18625642108E+04  0.25500000920E-02 0.  1.
    10030    2    1    2    0    0  0.00000000000E+00  0.00000000000E+00 -0.17854346058E+03  0.35465849609E+04  0.35420879602E+04 0.  0.
        2    1    3    3  502    0  0.76146769545E+03 -0.10847467937E+04 -0.12655347279E+04  0.18325083370E+04  0.25500000920E-02 0.  1.
       -2    1    3    3    0  502 -0.76146769545E+03  0.10847467937E+04  0.10869912673E+04  0.17140766240E+04  0.25500000920E-02 0. -1.
</event>
<event>
 5   0  0.4409125E-07  0.3419585E+04  0.7818609E-02  0.8133116E-01
       -1   -1    0    0    0  501  0.00000000000E+00  0.00000000000E+00  0.12512592784E+04  0.12512592784E+04  0.50400001928E-02 0. -1.
        1   -1    0    0  501    0  0.00000000000E+00  0.00000000000E+00 -0.23363581625E+04  0.23363581625E+04  0.50400001928E-02 0.  1.
    10030    2    1    2    0    0  0.00000000000E+00  0.00000000000E+00 -0.10850988841E+04  0.35876174409E+04  0.34195846698E+04 0.  0.
        5    1    3    3  502    0 -0.14745592662E+04  0.65840486829E+02  0.36281972200E+03  0.15199737629E+04  0.46999998093E+01 0. -1.
       -5    1    3    3    0  502  0.14745592662E+04 -0.65840486829E+02 -0.14479186061E+04  0.20676436780E+04  0.46999998093E+01 0.  1.
</event>
<event>
 5   0  0.1361560E-06  0.3449752E+04  0.7818609E-02  0.8125802E-01
       -2   -1    0    0    0  501  0.00000000000E+00  0.00000000000E+00  0.19176993081E+04  0.19176993081E+04  0.25500000920E-02 0. -1.
        2   -1    0    0  501    0  0.00000000000E+00  0.00000000000E+00 -0.15514405979E+04  0.15514405979E+04  0.25500000920E-02 0.  1.
    10030    2    1    2    0    0  0.00000000000E+00  0.00000000000E+00  0.36625871023E+03  0.34691399060E+04  0.34497516207E+04 0.  0.
        3    1    3    3  502    0  0.14295897997E+04 -0.94831540441E+03  0.27684937856E+01  0.17155281334E+04  0.10100000352E+00 0.  1.
       -3    1    3    3    0  502 -0.14295897997E+04  0.94831540441E+03  0.36349021644E+03  0.17536117727E+04  0.10100000352E+00 0. -1.
</event>
<event>
 5   0  0.1361560E-06  0.3360886E+04  0.7818609E-02  0.8147574E-01
       -2   -1    0    0    0  501  0.00000000000E+00  0.00000000000E+00  0.13804072447E+04  0.13804072447E+04  0.25500000920E-02 0.  1.
        2   -1    0    0  501    0  0.00000000000E+00  0.00000000000E+00 -0.20456919418E+04  0.20456919418E+04  0.25500000920E-02 0. -1.
    10030    2    1    2    0    0  0.00000000000E+00  0.00000000000E+00 -0.66528469705E+03  0.34260991865E+04  0.33608855839E+04 0.  0.
        3    1    3    3  502    0  0.10683519584E+04  0.12924133940E+04 -0.44514535344E+03  0.17348955830E+04  0.10100000352E+00 0. -1.
       -3    1    3    3    0  502 -0.10683519584E+04 -0.12924133940E+04 -0.22013934361E+03  0.16912036036E+04  0.10100000352E+00 0.  1.
</event>
<event>
 5   0  0.1378620E-06  0.3493755E+04  0.7818609E-02  0.8115272E-01
        2   -1    0    0  501    0  0.00000000000E+00  0.00000000000E+00  0.22703605567E+04  0.22703605567E+04  0.25500000920E-02 0. -1.
       -2   -1    0    0    0  501  0.00000000000E+00  0.00000000000E+00 -0.13440949521E+04  0.13440949521E+04  0.25500000920E-02 0.  1.
    10030    2    1    2    0    0  0.00000000000E+00  0.00000000000E+00  0.92626560457E+03  0.36144555088E+04  0.34937545212E+04 0.  0.
        2    1    3    3  502    0 -0.76341461859E+02  0.90308622325E+03 -0.10818412032E+04  0.14113019288E+04  0.25500000920E-02 0.  1.
       -2    1    3    3    0  502  0.76341461859E+02 -0.90308622325E+03  0.20081068077E+04  0.22031535799E+04  0.25500000920E-02 0. -1.
</event>
<event>
 5   0  0.4591195E-07  0.3505533E+04  0.7818609E-02  0.8112480E-01
       -1   -1    0    0    0  501  0.00000000000E+00  0.00000000000E+00  0.18860067427E+04  0.18860067428E+04  0.50400001928E-02 0.  1.
        1   -1    0    0  501    0  0.00000000000E+00  0.00000000000E+00 -0.16289389995E+04  0.16289389995E+04  0.50400001928E-02 0. -1.
    10030    2    1    2    0    0  0.00000000000E+00  0.00000000000E+00  0.25706774322E+03  0.35149457423E+04  0.35055327336E+04 0.  0.
        4    1    3    3  502    0  0.16533959884E+04  0.27690732977E+03  0.64156425100E+03  0.17949936671E+04  0.12699999809E+01 0.  1.
       -4    1    3    3    0  502 -0.16533959884E+04 -0.27690732977E+03 -0.38449650777E+03  0.17199520752E+04  0.12699999809E+01 0. -1.
</event>
<event>
 5   0  0.1442864E-06  0.3517911E+04  0.7818609E-02  0.8109558E-01
        2   -1    0    0  501    0  0.00000000000E+00  0.00000000000E+00  0.20872066482E+04  0.20872066482E+04  0.25500000920E-02 0. -1.
       -2   -1    0    0    0  501  0.00000000000E+00  0.00000000000E+00 -0.14823280160E+04  0.14823280160E+04  0.25500000920E-02 0.  1.
    10030    2    1    2    0    0  0.00000000000E+00  0.00000000000E+00  0.60487863217E+03  0.35695346642E+04  0.35179112495E+04 0.  0.
        1    1    3    3  502    0 -0.16704454416E+04 -0.21730059651E+03  0.81614662143E+03  0.18718180548E+04  0.50400001928E-02 0. -1.
       -1    1    3    3    0  502  0.16704454416E+04  0.21730059651E+03 -0.21126798926E+03  0.16977166094E+04  0.50400001928E-02 0.  1.
</event>
<event>
 5   0  0.1378620E-06  0.3484924E+04  0.7818609E-02  0.8117372E-01
        2   -1    0    0  501    0  0.00000000000E+00  0.00000000000E+00  0.16075967565E+04  0.16075967565E+04  0.25500000920E-02 0. -1.
       -2   -1    0    0    0  501  0.00000000000E+00  0.00000000000E+00 -0.18886417763E+04  0.18886417763E+04  0.25500000920E-02 0.  1.
    10030    2    1    2    0    0  0.00000000000E+00  0.00000000000E+00 -0.28104501977E+03  0.34962385328E+04  0.34849243285E+04 0.  0.
        2    1    3    3  502    0  0.87221859316E+02 -0.17393518562E+04 -0.19746823680E+03  0.17526968468E+04  0.25500000920E-02 0. -1.
       -2    1    3    3    0  502 -0.87221859316E+02  0.17393518562E+04 -0.83576782966E+02  0.17435416860E+04  0.25500000920E-02 0.  1.
</event>
<event>
 5   0  0.1442864E-06  0.3502562E+04  0.7818609E-02  0.8113183E-01
       -2   -1    0    0    0  501  0.00000000000E+00  0.00000000000E+00  0.12595578763E+04  0.12595578763E+04  0.25500000920E-02 0.  1.
        2   -1    0    0  501    0  0.00000000000E+00  0.00000000000E+00 -0.24349689704E+04  0.24349689704E+04  0.25500000920E-02 0. -1.
    10030    2    1    2    0    0  0.00000000000E+00  0.00000000000E+00 -0.11754110942E+04  0.36945268467E+04  0.35025615456E+04 0.  0.
        1    1    3    3  502    0 -0.13523667764E+04  0.65302150940E+03  0.36258806644E+03  0.15449281846E+04  0.50400001928E-02 0.  1.
       -1    1    3    3    0  502  0.13523667764E+04 -0.65302150940E+03 -0.15379991606E+04  0.21495986620E+04  0.50400001928E-02 0. -1.
</event>
<event>
 5   0  0.1361560E-06  0.3509483E+04  0.7818609E-02  0.8111546E-01
       -2   -1    0    0    0  501  0.00000000000E+00  0.00000000000E+00  0.12119666995E+04  0.12119666995E+04  0.25500000920E-02 0.  1.
        2   -1    0    0  501    0  0.00000000000E+00  0.00000000000E+00 -0.25405956668E+04  0.25405956668E+04  0.25500000920E-02 0. -1.
    10030    2    1    2    0    0  0.00000000000E+00  0.00000000000E+00 -0.13286289673E+04  0.37525623664E+04  0.35094827797E+04 0.  0.
        3    1    3    3  502    0 -0.16045608540E+04  0.62419734651E+03 -0.30189960319E+03  0.17479648859E+04  0.10100000352E+00 0.  1.
       -3    1    3    3    0  502  0.16045608540E+04 -0.62419734651E+03 -0.10267293641E+04  0.20045974805E+04  0.10100000352E+00 0. -1.
</event>
<event>
 5   0  0.4557237E-07  0.3443771E+04  0.7818609E-02  0.8127246E-01
       -1   -1    0    0    0  501  0.00000000000E+00  0.00000000000E+00  0.12605628341E+04  0.12605628341E+04  0.50400001928E-02 0. -1.
        1   -1    0    0  501    0  0.00000000000E+00  0.00000000000E+00 -0.23520370738E+04  0.23520370738E+04  0.50400001928E-02 0.  1.
    10030    2    1    2    0    0  0.00000000000E+00  0.00000000000E+00 -0.10914742397E+04  0.36125999079E+04  0.34437714905E+04 0.  0.
        2    1    3    3  502    0 -0.30880466610E+03  0.13823456051E+04  0.48137006091E+03  0.14959802236E+04  0.25500000920E-02 0. -1.
       -2    1    3    3    0  502  0.30880466610E+03 -0.13823456051E+04 -0.15728443006E+04  0.21166196843E+04  0.25500000920E-02 0.  1.
</event>
<event>
 5   0  0.1361560E-06  0.3551035E+04  0.7818609E-02  0.8101801E-01
       -2   -1    0    0    0  501  0.00000000000E+00  0.00000000000E+00  0.17530913766E+04  0.17530913766E+04  0.25500000920E-02 0. -1.
        2   -1    0    0  501    0  0.00000000000E+00  0.00000000000E+00 -0.17982300915E+04  0.17982300916E+04  0.25500000920E-02 0.  1.
    10030    2    1    2    0    0  0.00000000000E+00  0.00000000000E+00 -0.45138714969E+02  0.35513214681E+04  0.35510345910E+04 0.  0.
        3    1    3    3  502    0 -0.16268509891E+04  0.25309714467E+03  0.64213413335E+03  0.17672120871E+04  0.10100000352E+00 0. -1.
       -3    1    3    3    0  502  0.16268509891E+04 -0.25309714467E+03 -0.68727284832E+03  0.17841093810E+04  0.10100000352E+00 0.  1.
</event>
<event>
 5   0  0.1387133E-06  0.3482332E+04  0.7818609E-02  0.8117990E-01
       -2   -1    0    0    0  501  0.00000000000E+00  0.00000000000E+00  0.16246076233E+04  0.16246076233E+04  0.25500000920E-02 0.  1.
        2   -1    0    0  501    0  0.00000000000E+00  0.00000000000E+00 -0.18660869608E+04  0.18660869608E+04  0.25500000920E-02 0. -1.
    10030    2    1    2    0    0  0.00000000000E+00  0.00000000000E+00 -0.24147933756E+03  0.34906945841E+04  0.34823320360E+04 0.  0.
        4    1    3    3  502    0  0.30950214605E+03 -0.16743076153E+04  0.24422245191E+03  0.17200999354E+04  0.12699999809E+01 0.  1.
       -4    1    3    3    0  502 -0.30950214605E+03  0.16743076153E+04 -0.48570178946E+03  0.17705946487E+04  0.12699999809E+01 0. -1.
</event>
<event>
 5   0  0.4693374E-07  0.3526033E+04  0.7818609E-02  0.8107648E-01
       -1   -1    0    0    0  501  0.00000000000E+00  0.00000000000E+00  0.17395157549E+04  0.17395157549E+04  0.50400001928E-02 0. -1.
        1   -1    0    0  501    0  0.00000000000E+00  0.00000000000E+00 -0.17868351272E+04  0.17868351272E+04  0.50400001928E-02 0.  1.
    10030    2    1    2    0    0  0.00000000000E+00  0.00000000000E+00 -0.47319372313E+02  0.35263508820E+04  0.35260333833E+04 0.  0.
        1    1    3    3  502    0 -0.67607400774E+03  0.49687396822E+03 -0.15743695400E+04  0.17839840955E+04  0.50400001928E-02 0.  1.
       -1    1    3    3    0  502  0.67607400774E+03 -0.49687396822E+03  0.15270501677E+04  0.17423667866E+04  0.50400001928E-02 0. -1.
</event>
<event>
 5   0  0.4557237E-07  0.3193026E+04  0.7818609E-02  0.8190661E-01
        1   -1    0    0  501    0  0.00000000000E+00  0.00000000000E+00  0.16899576149E+04  0.16899576149E+04  0.50400001928E-02 0.  1.
       -1   -1    0    0    0  501  0.00000000000E+00  0.00000000000E+00 -0.15082356267E+04  0.15082356267E+04  0.50400001928E-02 0. -1.
    10030    2    1    2    0    0  0.00000000000E+00  0.00000000000E+00  0.18172198820E+03  0.31981932416E+04  0.31930263278E+04 0.  0.
        2    1    3    3  502    0 -0.66234842633E+03  0.12511797182E+04 -0.64836997836E+03  0.15570933671E+04  0.25500000920E-02 0. -1.
       -2    1    3    3    0  502  0.66234842633E+03 -0.12511797182E+04  0.83009196656E+03  0.16410998745E+04  0.25500000920E-02 0.  1.
</event>
<event>
 5   0  0.4409125E-07  0.3507768E+04  0.7818609E-02  0.8111951E-01
       -1   -1    0    0    0  501  0.00000000000E+00  0.00000000000E+00  0.19113480304E+04  0.19113480304E+04  0.50400001928E-02 0.  1.
        1   -1    0    0  501    0  0.00000000000E+00  0.00000000000E+00 -0.16093928777E+04  0.16093928777E+04  0.50400001928E-02 0. -1.
    10030    2    1    2    0    0  0.00000000000E+00  0.00000000000E+00  0.30195515274E+03  0.35207409081E+04  0.35077684684E+04 0.  0.
        5    1    3    3  502    0  0.49809866986E+03  0.25128349073E+03  0.18199083263E+04  0.19035057352E+04  0.46999998093E+01 0.  1.
       -5    1    3    3    0  502 -0.49809866986E+03 -0.25128349073E+03 -0.15179531736E+04  0.16172351730E+04  0.46999998093E+01 0. -1.
</event>
<event>
 5   0  0.4700769E-07  0.3131775E+04  0.7818609E-02  0.8207071E-01
       -1   -1    0    0    0  501  0.00000000000E+00  0.00000000000E+00  0.18321416734E+04  0.18321416734E+04  0.50400001928E-02 0. -1.
        1   -1    0    0  501    0  0.00000000000E+00  0.00000000000E+00 -0.13383268227E+04  0.13383268227E+04  0.50400001928E-02 0.  1.
    10030    2    1    2    0    0  0.00000000000E+00  0.00000000000E+00  0.49381485072E+03  0.31704684961E+04  0.31317754354E+04 0.  0.
        3    1    3    3  502    0 -0.48205142550E+03  0.22359770408E+03  0.17380739660E+04  0.18174902012E+04  0.10100000352E+00 0. -1.
       -3    1    3    3    0  502  0.48205142550E+03 -0.22359770408E+03 -0.12442591153E+04  0.13529782948E+04  0.10100000352E+00 0.  1.
</event>
<event>
 5   0  0.1387133E-06  0.3529270E+04  0.7818609E-02  0.8106888E-01
       -2   -1    0    0    0  501  0.00000000000E+00  0.00000000000E+00  0.12104963573E+04  0.12104963573E+04  0.25500000920E-02 0. -1.
        2   -1    0    0  501    0  0.00000000000E+00  0.00000000000E+00 -0.25724461902E+04  0.25724461902E+04  0.25500000920E-02 0.  1.
    10030    2    1    2    0    0  0.00000000000E+00  0.00000000000E+00 -0.13619498329E+04  0.37829425475E+04  0.35292700337E+04 0.  0.
        4    1    3    3  502    0  0.11580251757E+03  0.15762743387E+04 -0.15221654151E+04  0.21943199807E+04  0.12699999809E+01 0.  1.
       -4    1    3    3    0  502 -0.11580251757E+03 -0.15762743387E+04  0.16021558224E+03  0.15886225668E+04  0.12699999809E+01 0. -1.
</event>
<event>
 5   0  0.4693374E-07  0.3535879E+04  0.7818609E-02  0.8105339E-01
        1   -1    0    0  501    0  0.00000000000E+00  0.00000000000E+00  0.12953191519E+04  0.12953191519E+04  0.50400001928E-02 0. -1.
       -1   -1    0    0    0  501  0.00000000000E+00  0.00000000000E+00 -0.24130044052E+04  0.24130044052E+04  0.50400001928E-02 0.  1.
    10030    2    1    2    0    0  0.00000000000E+00  0.00000000000E+00 -0.11176852533E+04  0.37083235571E+04  0.35358794208E+04 0.  0.
        1    1    3    3  502    0 -0.10777528551E+04  0.12698385885E+04  0.63007615017E+02  0.16667366970E+04  0.50400001928E-02 0. -1.
       -1    1    3    3    0  502  0.10777528551E+04 -0.12698385885E+04 -0.11806928683E+04  0.20415868600E+04  0.50400001928E-02 0.  1.
</event>
<event>
 5   0  0.1348388E-06  0.3427333E+04  0.7818609E-02  0.8131230E-01
        2   -1    0    0  501    0  0.00000000000E+00  0.00000000000E+00  0.14672363584E+04  0.14672363584E+04  0.25500000920E-02 0. -1.
       -2   -1    0    0    0  501  0.00000000000E+00  0.00000000000E+00 -0.20014853838E+04  0.20014853838E+04  0.25500000920E-02 0.  1.
    10030    2    1    2    0    0  0.00000000000E+00  0.00000000000E+00 -0.53424902541E+03  0.34687217422E+04  0.34273325640E+04 0.  0.
        5    1    3    3  502    0  0.12911039463E+04  0.88929824642E+03  0.43320682144E+03  0.16264965451E+04  0.46999998093E+01 0. -1.
       -5    1    3    3    0  502 -0.12911039463E+04 -0.88929824642E+03 -0.96745584685E+03  0.18422251971E+04  0.46999998093E+01 0.  1.
</event>
<event>
 5   0  0.1348388E-06  0.3462986E+04  0.7818609E-02  0.8122618E-01
        2   -1    0    0  501    0  0.00000000000E+00  0.00000000000E+00  0.20985676786E+04  0.20985676787E+04  0.25500000920E-02 0. -1.
       -2   -1    0    0    0  501  0.00000000000E+00  0.00000000000E+00 -0.14286259195E+04  0.14286259195E+04  0.25500000920E-02 0.  1.
    10030    2    1    2    0    0  0.00000000000E+00  0.00000000000E+00  0.66994175920E+03  0.35271935981E+04  0.34629860984E+04 0.  0.
        5    1    3    3  502    0  0.68762838926E+03 -0.93376479744E+03  0.16446169209E+04  0.20123459954E+04  0.46999998093E+01 0. -1.
       -5    1    3    3    0  502 -0.68762838926E+03  0.93376479744E+03 -0.97467516169E+03  0.15148476027E+04  0.46999998093E+01 0.  1.
</event>
<event>
 5   0  0.1348388E-06  0.3179690E+04  0.7818609E-02  0.8194202E-01
       -2   -1    0    0    0  501  0.00000000000E+00  0.00000000000E+00  0.10225627322E+04  0.10225627322E+04  0.25500000920E-02 0. -1.
        2   -1    0    0  501    0  0.00000000000E+00  0.00000000000E+00 -0.24718349832E+04  0.24718349832E+04  0.25500000920E-02 0.  1.
    10030    2    1    2    0    0  0.00000000000E+00  0.00000000000E+00 -0.14492722509E+04  0.34943977154E+04  0.31796895031E+04 0.  0.
        5    1    3    3  502    0 -0.15639079334E+04 -0.73203736453E+02 -0.42083887313E+03  0.16212014860E+04  0.46999998093E+01 0.  1.
       -5    1    3    3    0  502  0.15639079334E+04  0.73203736453E+02 -0.10284333778E+04  0.18731962294E+04  0.46999998093E+01 0. -1.
</event>
<event>
 5   0  0.1378620E-06  0.3442535E+04  0.7818609E-02  0.8127545E-01
        2   -1    0    0  501    0  0.00000000000E+00  0.00000000000E+00  0.13325749439E+04  0.13325749439E+04  0.25500000920E-02 0. -1.
       -2   -1    0    0    0  501  0.00000000000E+00  0.00000000000E+00 -0.22233365485E+04  0.22233365485E+04  0.25500000920E-02 0.  1.
    10030    2    1    2    0    0  0.00000000000E+00  0.00000000000E+00 -0.89076160458E+03  0.35559114923E+04  0.34425354472E+04 0.  0.
        2    1    3    3  502    0 -0.61914060836E+03  0.34331278382E+03  0.11752275452E+04  0.13719907228E+04  0.25500000920E-02 0. -1.
       -2    1    3    3    0  502  0.61914060836E+03 -0.34331278382E+03 -0.20659891498E+04  0.21839207695E+04  0.25500000920E-02 0.  1.
</event>
<event>
 5   0  0.4591195E-07  0.3689300E+04  0.7818609E-02  0.8070337E-01
       -1   -1    0    0    0  501  0.00000000000E+00  0.00000000000E+00  0.18556204034E+04  0.18556204034E+04  0.50400001928E-02 0. -1.
        1   -1    0    0  501    0  0.00000000000E+00  0.00000000000E+00 -0.18337441548E+04  0.18337441548E+04  0.50400001928E-02 0.  1.
    10030    2    1    2    0    0  0.00000000000E+00  0.00000000000E+00  0.21876248599E+02  0.36893645583E+04  0.36892996996E+04 0.  0.
        4    1    3    3  502    0  0.17329183627E+04  0.11234416847E+03 -0.61124979126E+03  0.18409929887E+04  0.12699999809E+01 0. -1.
       -4    1    3    3    0  502 -0.17329183627E+04 -0.11234416847E+03  0.63312603986E+03  0.18483715696E+04  0.12699999809E+01 0.  1.
</event>
<event>
 5   0  0.1442864E-06  0.3475391E+04  0.7818609E-02  0.8119647E-01
       -2   -1    0    0    0  501  0.00000000000E+00  0.00000000000E+00  0.29104004392E+04  0.29104004392E+04  0.25500000920E-02 0.  1.
        2   -1    0    0  501    0  0.00000000000E+00  0.00000000000E+00 -0.10375154231E+04  0.10375154231E+04  0.25500000920E-02 0. -1.
    10030    2    1    2    0    0  0.00000000000E+00  0.00000000000E+00  0.18728850162E+04  0.39479158623E+04  0.34753908229E+04 0.  0.
        1    1    3    3  502    0  0.14846781150E+03  0.28835446889E+03  0.28757130336E+04  0.28939447891E+04  0.50400001928E-02 0.  1.
       -1    1    3    3    0  502 -0.14846781150E+03 -0.28835446889E+03 -0.10028280174E+04  0.10539710732E+04  0.50400001928E-02 0. -1.
</event>
<event>
 5   0  0.1348388E-06  0.3563237E+04  0.7818609E-02  0.8098965E-01
        2   -1    0    0  501    0  0.00000000000E+00  0.00000000000E+00  0.96069038364E+03  0.96069038364E+03  0.25500000920E-02 0. -1.
       -2   -1    0    0    0  501  0.00000000000E+00  0.00000000000E+00 -0.33040444710E+04  0.33040444710E+04  0.25500000920E-02 0.  1.
    10030    2    1    2    0    0  0.00000000000E+00  0.00000000000E+00 -0.23433540874E+04  0.42647348547E+04  0.35632365908E+04 0.  0.
        5    1    3    3  502    0 -0.11063530393E+04  0.10016155486E+04 -0.23363321866E+04  0.27723132815E+04  0.46999998093E+01 0. -1.
       -5    1    3    3    0  502  0.11063530393E+04 -0.10016155486E+04 -0.70219008278E+01  0.14924215732E+04  0.46999998093E+01 0.  1.
</event>
<event>
 5   0  0.1387133E-06  0.3386673E+04  0.7818609E-02  0.8141185E-01
       -2   -1    0    0    0  501  0.00000000000E+00  0.00000000000E+00  0.19273923349E+04  0.19273923349E+04  0.25500000920E-02 0.  1.
        2   -1    0    0  501    0  0.00000000000E+00  0.00000000000E+00 -0.14877034417E+04  0.14877034417E+04  0.25500000920E-02 0. -1.
    10030    2    1    2    0    0  0.00000000000E+00  0.00000000000E+00  0.43968889317E+03  0.34150957766E+04  0.33866728275E+04 0.  0.
        4    1    3    3  502    0 -0.14425990736E+03 -0.81420087324E+03  0.17099650503E+04  0.18993988705E+04  0.12699999809E+01 0.  1.
       -4    1    3    3    0  502  0.14425990736E+03  0.81420087324E+03 -0.12702761572E+04  0.15156969061E+04  0.12699999809E+01 0. -1.
</event>
<event>
 5   0  0.1361560E-06  0.3535453E+04  0.7818609E-02  0.8105439E-01
        2   -1    0    0  501    0  0.00000000000E+00  0.00000000000E+00  0.15978700430E+04  0.15978700430E+04  0.25500000920E-02 0.  1.
       -2   -1    0    0    0  501  0.00000000000E+00  0.00000000000E+00 -0.19556390340E+04  0.19556390340E+04  0.25500000920E-02 0. -1.
    10030    2    1    2    0    0  0.00000000000E+00  0.00000000000E+00 -0.35776899098E+03  0.35535090770E+04  0.35354530274E+04 0.  0.
        3    1    3    3  502    0  0.74033669934E+03  0.15286996258E+04  0.31334720833E+03  0.17271964155E+04  0.10100000352E+00 0.  1.
       -3    1    3    3    0  502 -0.74033669934E+03 -0.15286996258E+04 -0.67111619931E+03  0.18263126615E+04  0.10100000352E+00 0. -1.
</event>
<event>
 5   0  0.1348388E-06  0.3453610E+04  0.7818609E-02  0.8124872E-01
        2   -1    0    0  501    0  0.00000000000E+00  0.00000000000E+00  0.13038299826E+04  0.13038299826E+04  0.25500000920E-02 0. -1.
       -2   -1    0    0    0  501  0.00000000000E+00  0.00000000000E+00 -0.22869978099E+04  0.22869978099E+04  0.25500000920E-02 0.  1.
    10030    2    1    2    0    0  0.00000000000E+00  0.00000000000E+00 -0.98316782732E+03  0.35908277925E+04  0.34536104671E+04 0.  0.
        5    1    3    3  502    0  0.57889532128E+03 -0.72778484211E+03  0.10212321690E+04  0.13812051992E+04  0.46999998093E+01 0. -1.
       -5    1    3    3    0  502 -0.57889532128E+03  0.72778484211E+03 -0.20043999963E+04  0.22096225933E+04  0.46999998093E+01 0.  1.
</event>
<event>
 5   0  0.4591195E-07  0.3141958E+04  0.7818609E-02  0.8204316E-01
        1   -1    0    0  501    0  0.00000000000E+00  0.00000000000E+00  0.20600847618E+04  0.20600847619E+04  0.50400001928E-02 0.  1.
       -1   -1    0    0    0  501  0.00000000000E+00  0.00000000000E+00 -0.11979970414E+04  0.11979970414E+04  0.50400001928E-02 0. -1.
    10030    2    1    2    0    0  0.00000000000E+00  0.00000000000E+00  0.86208772043E+03  0.32580818033E+04  0.31419582746E+04 0.  0.
        4    1    3    3  502    0 -0.29015116179E+03 -0.43114793323E+03  0.19683674749E+04  0.20358163881E+04  0.12699999809E+01 0.  1.
       -4    1    3    3    0  502  0.29015116179E+03  0.43114793323E+03 -0.11062797545E+04  0.12222654152E+04  0.12699999809E+01 0. -1.
</event>
<event>
 5   0  0.4700769E-07  0.3466633E+04  0.7818609E-02  0.8121743E-01
       -1   -1    0    0    0  501  0.00000000000E+00  0.00000000000E+00  0.13914579804E+04  0.13914579804E+04  0.50400001928E-02 0.  1.
        1   -1    0    0  501    0  0.00000000000E+00  0.00000000000E+00 -0.21591645227E+04  0.21591645227E+04  0.50400001928E-02 0. -1.
    10030    2    1    2    0    0  0.00000000000E+00  0.00000000000E+00 -0.76770654231E+03  0.35506225031E+04  0.34666333559E+04 0.  0.
        3    1    3    3  502    0 -0.86468980334E+03  0.49049052203E+03  0.10704483443E+04  0.14608658652E+04  0.10100000352E+00 0.  1.
       -3    1    3    3    0  502  0.86468980334E+03 -0.49049052203E+03 -0.18381548866E+04  0.20897566379E+04  0.10100000352E+00 0. -1.
</event>
<event>
 5   0  0.4409125E-07  0.3354340E+04  0.7818609E-02  0.8149205E-01
       -1   -1    0    0    0  501  0.00000000000E+00  0.00000000000E+00  0.12296911654E+04  0.12296911654E+04  0.50400001928E-02 0. -1.
        1   -1    0    0  501    0  0.00000000000E+00  0.00000000000E+00 -0.22874838416E+04  0.22874838416E+04  0.50400001928E-02 0.  1.
    10030    2    1    2    0    0  0.00000000000E+00  0.00000000000E+00 -0.10577926762E+04  0.35171750070E+04  0.33543396793E+04 0.  0.
        5    1    3    3  502    0  0.12154589000E+04  0.21161881981E+03 -0.17201620214E+04  0.21168614343E+04  0.46999998093E+01 0.  1.
       -5    1    3    3    0  502 -0.12154589000E+04 -0.21161881981E+03  0.66236934514E+03  0.14003135727E+04  0.46999998093E+01 0. -1.
</event>
<event>
 5   0  0.1442864E-06  0.3522417E+04  0.7818609E-02  0.8108498E-01
        2   -1    0    0  501    0  0.00000000000E+00  0.00000000000E+00  0.32003224287E+04  0.32003224287E+04  0.25500000920E-02 0. -1.
       -2   -1    0    0    0  501  0.00000000000E+00  0.00000000000E+00 -0.96923209138E+03  0.96923209138E+03  0.25500000920E-02 0.  1.
    10030    2    1    2    0    0  0.00000000000E+00  0.00000000000E+00  0.22310903373E+04  0.41695545201E+04  0.35224168979E+04 0.  0.
        1    1    3    3  502    0 -0.41267785941E+03  0.17118523094E+04  0.11550511964E+04  0.21059165727E+04  0.50400001928E-02 0. -1.
       -1    1    3    3    0  502  0.41267785941E+03 -0.17118523094E+04  0.10760391409E+04  0.20636379474E+04  0.50400001928E-02 0.  1.
</event>
<event>
 5   0  0.1348388E-06  0.3463763E+04  0.7818609E-02  0.8122432E-01
       -2   -1    0    0    0  501  0.00000000000E+00  0.00000000000E+00  0.11926547832E+04  0.11926547832E+04  0.25500000920E-02 0.  1.
        2   -1    0    0  501    0  0.00000000000E+00  0.00000000000E+00 -0.25149052564E+04  0.25149052564E+04  0.25500000920E-02 0. -1.
    10030    2    1    2    0    0  0.00000000000E+00  0.00000000000E+00 -0.13222504732E+04  0.37075600395E+04  0.34637631462E+04 0.  0.
        5    1    3    3  502    0  0.11296475434E+03  0.15035850778E+04 -0.15730672137E+04  0.21790116271E+04  0.46999998093E+01 0. -1.
       -5    1    3    3    0  502 -0.11296475434E+03 -0.15035850778E+04  0.25081674055E+03  0.15285484125E+04  0.46999998093E+01 0.  1.
</event>
<event>
 5   0  0.4409125E-07  0.2623422E+04  0.7818609E-02  0.8360288E-01
       -1   -1    0    0    0  501  0.00000000000E+00  0.00000000000E+00  0.91352353827E+03  0.91352353829E+03  0.50400001928E-02 0.  1.
        1   -1    0    0  501    0  0.00000000000E+00  0.00000000000E+00 -0.18834610291E+04  0.18834610291E+04  0.50400001928E-02 0. -1.
    10030    2    1    2    0    0  0.00000000000E+00  0.00000000000E+00 -0.96993749078E+03  0.27969845673E+04  0.26234221799E+04 0.  0.
        5    1    3    3  502    0 -0.30273362383E+03 -0.12711405677E+04 -0.60707955252E+03  0.14408378337E+04  0.46999998093E+01 0. -1.
       -5    1    3    3    0  502  0.30273362383E+03  0.12711405677E+04 -0.36285793826E+03  0.13561467337E+04  0.46999998093E+01 0.  1.
</event>
<event>
 5   0  0.4693374E-07  0.3591115E+04  0.7818609E-02  0.8092530E-01
       -1   -1    0    0    0  501  0.00000000000E+00  0.00000000000E+00  0.11424024553E+04  0.11424024553E+04  0.50400001928E-02 0.  1.
        1   -1    0    0  501    0  0.00000000000E+00  0.00000000000E+00 -0.28221462353E+04  0.28221462353E+04  0.50400001928E-02 0. -1.
    10030    2    1    2    0    0  0.00000000000E+00  0.00000000000E+00 -0.16797437799E+04  0.39645486906E+04  0.35911150294E+04 0.  0.
        1    1    3    3  502    0  0.23308059766E+03 -0.43525419788E+03  0.10659884810E+04  0.11747783720E+04  0.50400001928E-02 0.  1.
       -1    1    3    3    0  502 -0.23308059766E+03  0.43525419788E+03 -0.27457322609E+04  0.27897703186E+04  0.50400001928E-02 0. -1.
</event>
<event>
 5   0  0.1387133E-06  0.3281690E+04  0.7818609E-02  0.8167570E-01
        2   -1    0    0  501    0  0.00000000000E+00  0.00000000000E+00  0.14855868020E+04  0.14855868020E+04  0.25500000920E-02 0. -1.
       -2   -1    0    0    0  501  0.00000000000E+00  0.00000000000E+00 -0.18123296096E+04  0.18123296096E+04  0.25500000920E-02 0.  1.
    10030    2    1    2    0    0  0.00000000000E+00  0.00000000000E+00 -0.32674280756E+03  0.32979164116E+04  0.32816903870E+04 0.  0.
        4    1    3    3  502    0  0.52697803814E+03 -0.41503948341E+03 -0.16682425943E+04  0.17980541126E+04  0.12699999809E+01 0.  1.
       -4    1    3    3    0  502 -0.52697803814E+03  0.41503948341E+03  0.13414997867E+04  0.14998622991E+04  0.12699999809E+01 0. -1.
</event>
<event>
 5   0  0.4693374E-07  0.3070240E+04  0.7818609E-02  0.8223953E-01
       -1   -1    0    0    0  501  0.00000000000E+00  0.00000000000E+00  0.13291360542E+04  0.13291360542E+04  0.50400001928E-02 0.  1.
        1   -1    0    0  501    0  0.00000000000E+00  0.00000000000E+00 -0.17730262451E+04  0.17730262451E+04  0.50400001928E-02 0. -1.
    10030    2    1    2    0    0  0.00000000000E+00  0.00000000000E+00 -0.44389019092E+03  0.31021622993E+04  0.30702398000E+04 0.  0.
        1    1    3    3  502    0 -0.11527292101E+04  0.46790510261E+03 -0.11306700739E+04  0.16811111304E+04  0.50400001928E-02 0. -1.
       -1    1    3    3    0  502  0.11527292101E+04 -0.46790510261E+03  0.68677988294E+03  0.14210511689E+04  0.50400001928E-02 0.  1.
</event>
<event>
 5   0  0.1387133E-06  0.3527428E+04  0.7818609E-02  0.8107321E-01
        2   -1    0    0  501    0  0.00000000000E+00  0.00000000000E+00  0.20943373563E+04  0.20943373563E+04  0.25500000920E-02 0.  1.
       -2   -1    0    0    0  501  0.00000000000E+00  0.00000000000E+00 -0.14852844744E+04  0.14852844744E+04  0.25500000920E-02 0. -1.
    10030    2    1    2    0    0  0.00000000000E+00  0.00000000000E+00  0.60905288198E+03  0.35796218307E+04  0.35274278218E+04 0.  0.
        4    1    3    3  502    0  0.35066867628E+03 -0.60355295096E+03 -0.13391435199E+04  0.15101495505E+04  0.12699999809E+01 0. -1.
       -4    1    3    3    0  502 -0.35066867628E+03  0.60355295096E+03  0.19481964019E+04  0.20694722802E+04  0.12699999809E+01 0.  1.
</event>
<event>
 5   0  0.1442864E-06  0.3474996E+04  0.7818609E-02  0.8119741E-01
       -2   -1    0    0    0  501  0.00000000000E+00  0.00000000000E+00  0.16416985276E+04  0.16416985276E+04  0.25500000920E-02 0.  1.
        2   -1    0    0  501    0  0.00000000000E+00  0.00000000000E+00 -0.18388878836E+04  0.18388878836E+04  0.25500000920E-02 0. -1.
    10030    2    1    2    0    0  0.00000000000E+00  0.00000000000E+00 -0.19718935598E+03  0.34805864113E+04  0.34749961330E+04 0.  0.
        1    1    3    3  502    0  0.52215861981E+03 -0.85684575445E+03 -0.15193494584E+04  0.18207847341E+04  0.50400001928E-02 0. -1.
       -1    1    3    3    0  502 -0.52215861981E+03  0.85684575445E+03  0.13221601024E+04  0.16598016772E+04  0.50400001928E-02 0.  1.
</event>
<event>
 5   0  0.4557237E-07  0.3491858E+04  0.7818609E-02  0.8115722E-01
       -1   -1    0    0    0  501  0.00000000000E+00  0.00000000000E+00  0.14797988210E+04  0.14797988210E+04  0.50400001928E-02 0.  1.
        1   -1    0    0  501    0  0.00000000000E+00  0.00000000000E+00 -0.20599206224E+04  0.20599206224E+04  0.50400001928E-02 0. -1.
    10030    2    1    2    0    0  0.00000000000E+00  0.00000000000E+00 -0.58012180142E+03  0.35397194434E+04  0.34918580202E+04 0.  0.
        2    1    3    3  502    0 -0.11533504002E+04  0.13103484676E+04 -0.25740355641E+03  0.17645075355E+04  0.25500000920E-02 0. -1.
       -2    1    3    3    0  502  0.11533504002E+04 -0.13103484676E+04 -0.32271824501E+03  0.17752119079E+04  0.25500000920E-02 0.  1.
</event>
<event>
 5   0  0.4693374E-07  0.3497973E+04  0.7818609E-02  0.8114270E-01
       -1   -1    0    0    0  501  0.00000000000E+00  0.00000000000E+00  0.12790055937E+04  0.12790055937E+04  0.50400001928E-02 0.  1.
        1   -1    0    0  501    0  0.00000000000E+00  0.00000000000E+00 -0.23916657280E+04  0.23916657280E+04  0.50400001928E-02 0. -1.
    10030    2    1    2    0    0  0.00000000000E+00  0.00000000000E+00 -0.11126601343E+04  0.36706713217E+04  0.34979730385E+04 0.  0.
        1    1    3    3  502    0  0.13399379848E+04  0.33489275250E+03  0.56966349735E+03  0.14940225764E+04  0.50400001928E-02 0.  1.
       -1    1    3    3    0  502 -0.13399379848E+04 -0.33489275250E+03 -0.16823236317E+04  0.21766487453E+04  0.50400001928E-02 0. -1.
</event>
<event>
 5   0  0.1387133E-06  0.3481809E+04  0.7818609E-02  0.8118114E-01
        2   -1    0    0  501    0  0.00000000000E+00  0.00000000000E+00  0.13033049008E+04  0.13033049008E+04  0.25500000920E-02 0. -1.
       -2   -1    0    0    0  501  0.00000000000E+00  0.00000000000E+00 -0.23254335191E+04  0.23254335191E+04  0.25500000920E-02 0.  1.
    10030    2    1    2    0    0  0.00000000000E+00  0.00000000000E+00 -0.10221286183E+04  0.36287384200E+04  0.34818092435E+04 0.  0.
        4    1    3    3  502    0 -0.72664720310E+03 -0.11323249322E+04  0.64035174389E+03  0.14900429117E+04  0.12699999809E+01 0. -1.
       -4    1    3    3    0  502  0.72664720310E+03  0.11323249322E+04 -0.16624803622E+04  0.21386955083E+04  0.12699999809E+01 0.  1.
</event>
<event>
 5   0  0.4591195E-07  0.3296450E+04  0.7818609E-02  0.8163799E-01
        1   -1    0    0  501    0  0.00000000000E+00  0.00000000000E+00  0.23411465943E+04  0.23411465943E+04  0.50400001928E-02 0.  1.
       -1   -1    0    0    0  501  0.00000000000E+00  0.00000000000E+00 -0.11603911882E+04  0.11603911882E+04  0.50400001928E-02 0. -1.
    10030    2    1    2    0    0  0.00000000000E+00  0.00000000000E+00  0.11807554061E+04  0.35015377825E+04  0.32964501381E+04 0.  0.
        4    1    3    3  502    0 -0.14813341339E+04  0.10982416464E+03  0.13491233205E+04  0.20066259019E+04  0.12699999809E+01 0.  1.
       -4    1    3    3    0  502  0.14813341339E+04 -0.10982416464E+03 -0.16836791441E+03  0.14949118806E+04  0.12699999809E+01 0. -1.
</event>
<event>
 5   0  0.1387133E-06  0.3529767E+04  0.7818609E-02  0.8106771E-01
       -2   -1    0    0    0  501  0.00000000000E+00  0.00000000000E+00  0.13041400350E+04  0.13041400350E+04  0.25500000920E-02 0.  1.
        2   -1    0    0  501    0  0.00000000000E+00  0.00000000000E+00 -0.23884050362E+04  0.23884050362E+04  0.25500000920E-02 0. -1.
    10030    2    1    2    0    0  0.00000000000E+00  0.00000000000E+00 -0.10842650012E+04  0.36925450711E+04  0.35297674866E+04 0.  0.
        4    1    3    3  502    0 -0.30694960723E+03 -0.17272509349E+04 -0.74389770807E+03  0.19055181097E+04  0.12699999809E+01 0. -1.
       -4    1    3    3    0  502  0.30694960723E+03  0.17272509349E+04 -0.34036729313E+03  0.17870269614E+04  0.12699999809E+01 0.  1.
</event>
<event>
 5   0  0.4557237E-07  0.3488651E+04  0.7818609E-02  0.8116485E-01
        1   -1    0    0  501    0  0.00000000000E+00  0.00000000000E+00  0.14430463626E+04  0.14430463626E+04  0.50400001928E-02 0.  1.
       -1   -1    0    0    0  501  0.00000000000E+00  0.00000000000E+00 -0.21085053312E+04  0.21085053312E+04  0.50400001928E-02 0. -1.
    10030    2    1    2    0    0  0.00000000000E+00  0.00000000000E+00 -0.66545896868E+03  0.35515516938E+04  0.34886507126E+04 0.  0.
        2    1    3    3  502    0 -0.11428672212E+03 -0.29319872779E+03 -0.20793690496E+04  0.21030460274E+04  0.25500000920E-02 0. -1.
       -2    1    3    3    0  502  0.11428672212E+03  0.29319872779E+03  0.14139100809E+04  0.14485056664E+04  0.25500000920E-02 0.  1.
</event>
<event>
 5   0  0.1442864E-06  0.3484210E+04  0.7818609E-02  0.8117542E-01
       -2   -1    0    0    0  501  0.00000000000E+00  0.00000000000E+00  0.14153203907E+04  0.14153203907E+04  0.25500000920E-02 0. -1.
        2   -1    0    0  501    0  0.00000000000E+00  0.00000000000E+00 -0.21443415906E+04  0.21443415906E+04  0.25500000920E-02 0.  1.
    10030    2    1    2    0    0  0.00000000000E+00  0.00000000000E+00 -0.72902119996E+03  0.35596619813E+04  0.34842103138E+04 0.  0.
        1    1    3    3  502    0 -0.12330451574E+04 -0.92194016456E+03  0.46834613953E+03  0.16092613627E+04  0.50400001928E-02 0. -1.
       -1    1    3    3    0  502  0.12330451574E+04  0.92194016456E+03 -0.11973673395E+04  0.19504006186E+04  0.50400001928E-02 0.  1.
</event>
<event>
 5   0  0.4700769E-07  0.3515319E+04  0.7818609E-02  0.8110169E-01
        1   -1    0    0  501    0  0.00000000000E+00  0.00000000000E+00  0.24399440033E+04  0.24399440033E+04  0.50400001928E-02 0.  1.
       -1   -1    0    0    0  501  0.00000000000E+00  0.00000000000E+00 -0.12661632820E+04  0.12661632820E+04  0.50400001928E-02 0. -1.
    10030    2    1    2    0    0  0.00000000000E+00  0.00000000000E+00  0.11737807213E+04  0.37061072853E+04  0.35153193352E+04 0.  0.
        3    1    3    3  502    0  0.10737359219E+04  0.45346430604E+03 -0.80012177062E+03  0.14137657391E+04  0.10100000352E+00 0. -1.
       -3    1    3    3    0  502 -0.10737359219E+04 -0.45346430604E+03  0.19739024919E+04  0.22923415463E+04  0.10100000352E+00 0.  1.
</event>
<event>
 5   0  0.4693374E-07  0.3442360E+04  0.7818609E-02  0.8127587E-01
       -1   -1    0    0    0  501  0.00000000000E+00  0.00000000000E+00  0.17452889059E+04  0.17452889059E+04  0.50400001928E-02 0.  1.
        1   -1    0    0  501    0  0.00000000000E+00  0.00000000000E+00 -0.16974040756E+04  0.16974040756E+04  0.50400001928E-02 0. -1.
    10030    2    1    2    0    0  0.00000000000E+00  0.00000000000E+00  0.47884830273E+02  0.34426929815E+04  0.34423599475E+04 0.  0.
        1    1    3    3  502    0 -0.11028665261E+03  0.76117663459E+03  0.15638665238E+04  0.17427654802E+04  0.50400001928E-02 0.  1.
       -1    1    3    3    0  502  0.11028665261E+03 -0.76117663459E+03 -0.15159816935E+04  0.16999275013E+04  0.50400001928E-02 0. -1.
</event>
<event>
 5   0  0.4700769E-07  0.3405363E+04  0.7818609E-02  0.8136591E-01
        1   -1    0    0  501    0  0.00000000000E+00  0.00000000000E+00  0.20147788725E+04  0.20147788725E+04  0.50400001928E-02 0.  1.
       -1   -1    0    0    0  501  0.00000000000E+00  0.00000000000E+00 -0.14389289586E+04  0.14389289586E+04  0.50400001928E-02 0. -1.
    10030    2    1    2    0    0  0.00000000000E+00  0.00000000000E+00  0.57584991385E+03  0.34537078311E+04  0.34053626326E+04 0.  0.
        3    1    3    3  502    0  0.50118364419E+03  0.62828273683E+03  0.18103013602E+04  0.19806855549E+04  0.10100000352E+00 0.  1.
       -3    1    3    3    0  502 -0.50118364419E+03 -0.62828273683E+03 -0.12344514463E+04  0.14730222762E+04  0.10100000352E+00 0. -1.
</event>
<event>
 5   0  0.1361560E-06  0.3510773E+04  0.7818609E-02  0.8111242E-01
        2   -1    0    0  501    0  0.00000000000E+00  0.00000000000E+00  0.28004298200E+04  0.28004298201E+04  0.25500000920E-02 0.  1.
       -2   -1    0    0    0  501  0.00000000000E+00  0.00000000000E+00 -0.11003243755E+04  0.11003243755E+04  0.25500000920E-02 0. -1.
    10030    2    1    2    0    0  0.00000000000E+00  0.00000000000E+00  0.17001054446E+04  0.39007541955E+04  0.35107726744E+04 0.  0.
        3    1    3    3  502    0 -0.11389304292E+04 -0.95202519614E+03 -0.19096988036E+03  0.14966576102E+04  0.10100000352E+00 0. -1.
       -3    1    3    3    0  502  0.11389304292E+04  0.95202519614E+03  0.18910753249E+04  0.24040965853E+04  0.10100000352E+00 0.  1.
</event>
<event>
 5   0  0.1378620E-06  0.3451409E+04  0.7818609E-02  0.8125403E-01
       -2   -1    0    0    0  501  0.00000000000E+00  0.00000000000E+00  0.10509407208E+04  0.10509407208E+04  0.25500000920E-02 0. -1.
        2   -1    0    0  501    0  0.00000000000E+00  0.00000000000E+00 -0.28337043288E+04  0.28337043288E+04  0.25500000920E-02 0.  1.
    10030    2    1    2    0    0  0.00000000000E+00  0.00000000000E+00 -0.17827636080E+04  0.38846450496E+04  0.34514085645E+04 0.  0.
        2    1    3    3  502    0 -0.17221465105E+04  0.10301191992E+03 -0.84559065098E+03  0.19213077860E+04  0.25500000920E-02 0.  1.
       -2    1    3    3    0  502  0.17221465105E+04 -0.10301191992E+03 -0.93717295703E+03  0.19633372636E+04  0.25500000920E-02 0. -1.
</event>
<event>
 5   0  0.4591195E-07  0.3417734E+04  0.7818609E-02  0.8133567E-01
       -1   -1    0    0    0  501  0.00000000000E+00  0.00000000000E+00  0.11677214757E+04  0.11677214757E+04  0.50400001928E-02 0. -1.
        1   -1    0    0  501    0  0.00000000000E+00  0.00000000000E+00 -0.25007902971E+04  0.25007902971E+04  0.50400001928E-02 0.  1.
    10030    2    1    2    0    0  0.00000000000E+00  0.00000000000E+00 -0.13330688214E+04  0.36685117728E+04  0.34177340658E+04 0.  0.
        4    1    3    3  502    0  0.40100161186E+03  0.15398192778E+04 -0.13354628245E+04  0.20773320076E+04  0.12699999809E+01 0.  1.
       -4    1    3    3    0  502 -0.40100161186E+03 -0.15398192778E+04  0.23940031015E+01  0.15911797652E+04  0.12699999809E+01 0. -1.
</event>
<event>
 5   0  0.1442864E-06  0.3539272E+04  0.7818609E-02  0.8104546E-01
       -2   -1    0    0    0  501  0.00000000000E+00  0.00000000000E+00  0.34123541822E+04  0.34123541822E+04  0.25500000920E-02 0. -1.
        2   -1    0    0  501    0  0.00000000000E+00  0.00000000000E+00 -0.91772757101E+03  0.91772757101E+03  0.25500000920E-02 0.  1.
    10030    2    1    2    0    0  0.00000000000E+00  0.00000000000E+00  0.24946266112E+04  0.43300817532E+04  0.35392719675E+04 0.  0.
        1    1    3    3  502    0 -0.11951165614E+03  0.43838441730E+03 -0.84514132813E+03  0.95954562050E+03  0.50400001928E-02 0.  1.
       -1    1    3    3    0  502  0.11951165614E+03 -0.43838441730E+03  0.33397679393E+04  0.33705361327E+04  0.50400001928E-02 0. -1.
</event>
<event>
 5   0  0.1348388E-06  0.3535329E+04  0.7818609E-02  0.8105468E-01
        2   -1    0    0  501    0  0.00000000000E+00  0.00000000000E+00  0.13094050252E+04  0.13094050252E+04  0.25500000920E-02 0. -1.
       -2   -1    0    0    0  501  0.00000000000E+00  0.00000000000E+00 -0.23863031946E+04  0.23863031946E+04  0.25500000920E-02 0.  1.
    10030    2    1    2    0    0  0.00000000000E+00  0.00000000000E+00 -0.10768981694E+04  0.36957082198E+04  0.35353287794E+04 0.  0.
        5    1    3    3  502    0  0.10976420200E+04  0.13153735988E+04 -0.83277525419E+02  0.17152209609E+04  0.46999998093E+01 0. -1.
       -5    1    3    3    0  502 -0.10976420200E+04 -0.13153735988E+04 -0.99362064401E+03  0.19804872589E+04  0.46999998093E+01 0.  1.
</event>
<event>
 5   0  0.4591195E-07  0.3473090E+04  0.7818609E-02  0.8120197E-01
       -1   -1    0    0    0  501  0.00000000000E+00  0.00000000000E+00  0.16867310028E+04  0.16867310028E+04  0.50400001928E-02 0.  1.
        1   -1    0    0  501    0  0.00000000000E+00  0.00000000000E+00 -0.17878301103E+04  0.17878301103E+04  0.50400001928E-02 0. -1.
    10030    2    1    2    0    0  0.00000000000E+00  0.00000000000E+00 -0.10109910755E+03  0.34745611131E+04  0.34730899642E+04 0.  0.
        4    1    3    3  502    0  0.14737423909E+04  0.77874262304E+03 -0.53781864900E+03  0.17514585978E+04  0.12699999809E+01 0.  1.
       -4    1    3    3    0  502 -0.14737423909E+04 -0.77874262304E+03  0.43671954146E+03  0.17231025153E+04  0.12699999809E+01 0. -1.
</event>
<event>
 5   0  0.1442864E-06  0.3566951E+04  0.7818609E-02  0.8098104E-01
        2   -1    0    0  501    0  0.00000000000E+00  0.00000000000E+00  0.28449542714E+04  0.28449542714E+04  0.25500000920E-02 0.  1.
       -2   -1    0    0    0  501  0.00000000000E+00  0.00000000000E+00 -0.11180445037E+04  0.11180445037E+04  0.25500000920E-02 0. -1.
    10030    2    1    2    0    0  0.00000000000E+00  0.00000000000E+00  0.17269097678E+04  0.39629987751E+04  0.35669513517E+04 0.  0.
        1    1    3    3  502    0 -0.55833033093E+03 -0.72586770960E+03  0.25637951801E+04  0.27224368525E+04  0.50400001928E-02 0.  1.
       -1    1    3    3    0  502  0.55833033093E+03  0.72586770960E+03 -0.83688541237E+03  0.12405619226E+04  0.50400001928E-02 0. -1.
</event>
<event>
 5   0  0.4693374E-07  0.3467264E+04  0.7818609E-02  0.8121592E-01
        1   -1    0    0  501    0  0.00000000000E+00  0.00000000000E+00  0.18121870455E+04  0.18121870455E+04  0.50400001928E-02 0.  1.
       -1   -1    0    0    0  501  0.00000000000E+00  0.00000000000E+00 -0.16584819503E+04  0.16584819503E+04  0.50400001928E-02 0. -1.
    10030    2    1    2    0    0  0.00000000000E+00  0.00000000000E+00  0.15370509517E+03  0.34706689959E+04  0.34672637659E+04 0.  0.
        1    1    3    3  502    0  0.50933191497E+03 -0.15238329991E+04 -0.57493478068E+03  0.17064688719E+04  0.50400001928E-02 0. -1.
       -1    1    3    3    0  502 -0.50933191497E+03  0.15238329991E+04  0.72863987585E+03  0.17642001240E+04  0.50400001928E-02 0.  1.
</event>
<event>
 5   0  0.1442864E-06  0.3322638E+04  0.7818609E-02  0.8157159E-01
       -2   -1    0    0    0  501  0.00000000000E+00  0.00000000000E+00  0.90172180727E+03  0.90172180728E+03  0.25500000920E-02 0.  1.
        2   -1    0    0  501    0  0.00000000000E+00  0.00000000000E+00 -0.30607896158E+04  0.30607896158E+04  0.25500000920E-02 0. -1.
    10030    2    1    2    0    0  0.00000000000E+00  0.00000000000E+00 -0.21590678085E+04  0.39625114231E+04  0.33226379544E+04 0.  0.
        1    1    3    3  502    0  0.99566701463E+03  0.11240837827E+04 -0.23199325644E+03  0.15194531995E+04  0.50400001928E-02 0.  1.
       -1    1    3    3    0  502 -0.99566701463E+03 -0.11240837827E+04 -0.19270745521E+04  0.24430582236E+04  0.50400001928E-02 0. -1.
</event>
<event>
 5   0  0.4591195E-07  0.3475659E+04  0.7818609E-02  0.8119583E-01
       -1   -1    0    0    0  501  0.00000000000E+00  0.00000000000E+00  0.18172249694E+04  0.18172249694E+04  0.50400001928E-02 0. -1.
        1   -1    0    0  501    0  0.00000000000E+00  0.00000000000E+00 -0.16619030652E+04  0.16619030652E+04  0.50400001928E-02 0.  1.
    10030    2    1    2    0    0  0.00000000000E+00  0.00000000000E+00  0.15532190423E+03  0.34791280346E+04  0.34756592162E+04 0.  0.
        4    1    3    3  502    0  0.63703343766E+03 -0.99465241299E+03 -0.11983289158E+04  0.16825988312E+04  0.12699999809E+01 0.  1.
       -4    1    3    3    0  502 -0.63703343766E+03  0.99465241299E+03  0.13536508200E+04  0.17965292034E+04  0.12699999809E+01 0. -1.
</event>
<event>
 5   0  0.1378620E-06  0.3555767E+04  0.7818609E-02  0.8100700E-01
       -2   -1    0    0    0  501  0.00000000000E+00  0.00000000000E+00  0.14915788042E+04  0.14915788042E+04  0.25500000920E-02 0. -1.
        2   -1    0    0  501    0  0.00000000000E+00  0.00000000000E+00 -0.21191435868E+04  0.21191435868E+04  0.25500000920E-02 0.  1.
    10030    2    1    2    0    0  0.00000000000E+00  0.00000000000E+00 -0.62756478258E+03  0.36107223911E+04  0.35557669537E+04 0.  0.
        2    1    3    3  502    0 -0.21699132649E+03 -0.54150786835E+03  0.13916244161E+04  0.15089514646E+04  0.25500000920E-02 0. -1.
       -2    1    3    3    0  502  0.21699132649E+03  0.54150786835E+03 -0.20191891986E+04  0.21017709264E+04  0.25500000920E-02 0.  1.
</event>
<event>
 5   0  0.1378620E-06  0.3588759E+04  0.7818609E-02  0.8093071E-01
       -2   -1    0    0    0  501  0.00000000000E+00  0.00000000000E+00  0.20142819285E+04  0.20142819285E+04  0.25500000920E-02 0.  1.
        2   -1    0    0  501    0  0.00000000000E+00  0.00000000000E+00 -0.15984842238E+04  0.15984842238E+04  0.25500000920E-02 0. -1.
    10030    2    1    2    0    0  0.00000000000E+00  0.00000000000E+00  0.41579770477E+03  0.36127661523E+04  0.35887590529E+04 0.  0.
        2    1    3    3  502    0 -0.14635579066E+04  0.42925248164E+02 -0.83632188613E+03  0.16862024256E+04  0.25500000920E-02 0. -1.
       -2    1    3    3    0  502  0.14635579066E+04 -0.42925248164E+02  0.12521195909E+04  0.19265637267E+04  0.25500000920E-02 0.  1.
</event>
<event>
 5   0  0.4591195E-07  0.2614976E+04  0.7818609E-02  0.8363132E-01
        1   -1    0    0  501    0  0.00000000000E+00  0.00000000000E+00  0.18500045501E+04  0.18500045501E+04  0.50400001928E-02 0. -1.
       -1   -1    0    0    0  501  0.00000000000E+00  0.00000000000E+00 -0.92406502255E+03  0.92406502256E+03  0.50400001928E-02 0.  1.
    10030    2    1    2    0    0  0.00000000000E+00  0.00000000000E+00  0.92593952757E+03  0.27740695727E+04  0.26149757141E+04 0.  0.
        4    1    3    3  502    0  0.67075848886E+03 -0.55794795752E+02 -0.72616124399E+03  0.99012210095E+03  0.12699999809E+01 0.  1.
       -4    1    3    3    0  502 -0.67075848886E+03  0.55794795752E+02  0.16521007716E+04  0.17839474717E+04  0.12699999809E+01 0. -1.
</event>
<event>
 5   0  0.4409125E-07  0.3500748E+04  0.7818609E-02  0.8113613E-01
        1   -1    0    0  501    0  0.00000000000E+00  0.00000000000E+00  0.27324932266E+04  0.27324932266E+04  0.50400001928E-02 0. -1.
       -1   -1    0    0    0  501  0.00000000000E+00  0.00000000000E+00 -0.11212502421E+04  0.11212502421E+04  0.50400001928E-02 0.  1.
    10030    2    1    2    0    0  0.00000000000E+00  0.00000000000E+00  0.16112429846E+04  0.38537434687E+04  0.35007477440E+04 0.  0.
        5    1    3    3  502    0  0.41167762607E+03  0.14523884235E+04  0.17808862014E+04  0.23346280973E+04  0.46999998093E+01 0. -1.
       -5    1    3    3    0  502 -0.41167762607E+03 -0.14523884235E+04 -0.16964321678E+03  0.15191153714E+04  0.46999998093E+01 0.  1.
</event>
<event>
 5   0  0.4557237E-07  0.3504853E+04  0.7818609E-02  0.8112641E-01
        1   -1    0    0  501    0  0.00000000000E+00  0.00000000000E+00  0.12963965987E+04  0.12963965987E+04  0.50400001928E-02 0. -1.
       -1   -1    0    0    0  501  0.00000000000E+00  0.00000000000E+00 -0.23688725404E+04  0.23688725404E+04  0.50400001928E-02 0.  1.
    10030    2    1    2    0    0  0.00000000000E+00  0.00000000000E+00 -0.10724759417E+04  0.36652691391E+04  0.35048528096E+04 0.  0.
        2    1    3    3  502    0  0.16655259533E+04 -0.72333088585E+02 -0.11011371408E+04  0.19979268704E+04  0.25500000920E-02 0. -1.
       -2    1    3    3    0  502 -0.16655259533E+04  0.72333088585E+02  0.28661199171E+02  0.16673422687E+04  0.25500000920E-02 0.  1.
</event>
<event>
 5   0  0.1361560E-06  0.3545833E+04  0.7818609E-02  0.8103013E-01
       -2   -1    0    0    0  501  0.00000000000E+00  0.00000000000E+00  0.10742461838E+04  0.10742461838E+04  0.25500000920E-02 0. -1.
        2   -1    0    0  501    0  0.00000000000E+00  0.00000000000E+00 -0.29259898794E+04  0.29259898794E+04  0.25500000920E-02 0.  1.
    10030    2    1    2    0    0  0.00000000000E+00  0.00000000000E+00 -0.18517436955E+04  0.40002360632E+04  0.35458333079E+04 0.  0.
        3    1    3    3  502    0  0.25226745126E+03  0.16798638205E+04 -0.14985151340E+04  0.22651995364E+04  0.10100000352E+00 0.  1.
       -3    1    3    3    0  502 -0.25226745126E+03 -0.16798638205E+04 -0.35322856155E+03  0.17350365268E+04  0.10100000352E+00 0. -1.
</event>
<event>
 5   0  0.4557237E-07  0.3505473E+04  0.7818609E-02  0.8112494E-01
        1   -1    0    0  501    0  0.00000000000E+00  0.00000000000E+00  0.19215015599E+04  0.19215015599E+04  0.50400001928E-02 0.  1.
       -1   -1    0    0    0  501  0.00000000000E+00  0.00000000000E+00 -0.15987943268E+04  0.15987943268E+04  0.50400001928E-02 0. -1.
    10030    2    1    2    0    0  0.00000000000E+00  0.00000000000E+00  0.32270723314E+03  0.35202958867E+04  0.35054733164E+04 0.  0.
        2    1    3    3  502    0 -0.11907488898E+04 -0.94452449298E+03 -0.71530750447E+03  0.16797839928E+04  0.25500000920E-02 0. -1.
       -2    1    3    3    0  502  0.11907488898E+04  0.94452449298E+03  0.10380147376E+04  0.18405118940E+04  0.25500000920E-02 0.  1.
</event>
<event>
 5   0  0.4693374E-07  0.3121318E+04  0.7818609E-02  0.8209912E-01
        1   -1    0    0  501    0  0.00000000000E+00  0.00000000000E+00  0.14026597028E+04  0.14026597028E+04  0.50400001928E-02 0. -1.
       -1   -1    0    0    0  501  0.00000000000E+00  0.00000000000E+00 -0.17364555396E+04  0.17364555396E+04  0.50400001928E-02 0.  1.
    10030    2    1    2    0    0  0.00000000000E+00  0.00000000000E+00 -0.33379583676E+03  0.31391152424E+04  0.31213178057E+04 0.  0.
        1    1    3    3  502    0  0.94519577424E+03 -0.11808835167E+04  0.21970948335E+03  0.15284479673E+04  0.50400001928E-02 0.  1.
       -1    1    3    3    0  502 -0.94519577424E+03  0.11808835167E+04 -0.55350532011E+03  0.16106672751E+04  0.50400001928E-02 0. -1.
</event>
<event>
 5   0  0.1442864E-06  0.3517350E+04  0.7818609E-02  0.8109690E-01
        2   -1    0    0  501    0  0.00000000000E+00  0.00000000000E+00  0.18644226811E+04  0.18644226811E+04  0.25500000920E-02 0. -1.
       -2   -1    0    0    0  501  0.00000000000E+00  0.00000000000E+00 -0.16589251676E+04  0.16589251676E+04  0.25500000920E-02 0.  1.
    10030    2    1    2    0    0  0.00000000000E+00  0.00000000000E+00  0.20549751349E+03  0.35233478488E+04  0.35173499734E+04 0.  0.
        1    1    3    3  502    0 -0.10483077792E+04  0.43532128140E+03  0.14483501993E+04  0.18401554603E+04  0.50400001928E-02 0. -1.
       -1    1    3    3    0  502  0.10483077792E+04 -0.43532128140E+03 -0.12428526858E+04  0.16831923885E+04  0.50400001928E-02 0.  1.
</event>
<event>
 5   0  0.4409125E-07  0.2953588E+04  0.7818609E-02  0.8257110E-01
        3   -1    0    0  501    0  0.00000000000E+00  0.00000000000E+00  0.89114335487E+03  0.89114336059E+03  0.10100000352E+00 0. -1.
       -3   -1    0    0    0  501  0.00000000000E+00  0.00000000000E+00 -0.24473276446E+04  0.24473276467E+04  0.10100000352E+00 0.  1.
    10030    2    1    2    0    0  0.00000000000E+00  0.00000000000E+00 -0.15561842897E+04  0.33384710073E+04  0.29535875005E+04 0.  0.
        1    1    3    3  502    0  0.14525044958E+03 -0.11223979187E+04 -0.18504256588E+04  0.21690896477E+04  0.50400001928E-02 0.  1.
       -1    1    3    3    0  502 -0.14525044958E+03  0.11223979187E+04  0.29424136901E+03  0.11693813596E+04  0.50400001928E-02 0. -1.
</event>
<event>
 5   0  0.4409125E-07  0.3365983E+04  0.7818609E-02  0.8146306E-01
        1   -1    0    0  501    0  0.00000000000E+00  0.00000000000E+00  0.17322163253E+04  0.17322163253E+04  0.50400001928E-02 0.  1.
       -1   -1    0    0    0  501  0.00000000000E+00  0.00000000000E+00 -0.16351650303E+04  0.16351650304E+04  0.50400001928E-02 0. -1.
    10030    2    1    2    0    0  0.00000000000E+00  0.00000000000E+00  0.97051294978E+02  0.33673813557E+04  0.33659825075E+04 0.  0.
        5    1    3    3  502    0 -0.45285068151E+03  0.54656012768E+03 -0.14780953423E+04  0.16396919357E+04  0.46999998093E+01 0. -1.
       -5    1    3    3    0  502  0.45285068151E+03 -0.54656012768E+03  0.15751466373E+04  0.17276894200E+04  0.46999998093E+01 0.  1.
</event>
<event>
 5   0  0.1378620E-06  0.3471830E+04  0.7818609E-02  0.8120499E-01
        2   -1    0    0  501    0  0.00000000000E+00  0.00000000000E+00  0.17985983491E+04  0.17985983491E+04  0.25500000920E-02 0.  1.
       -2   -1    0    0    0  501  0.00000000000E+00  0.00000000000E+00 -0.16754160204E+04  0.16754160204E+04  0.25500000920E-02 0. -1.
    10030    2    1    2    0    0  0.00000000000E+00  0.00000000000E+00  0.12318232872E+03  0.34740143695E+04  0.34718297702E+04 0.  0.
        2    1    3    3  502    0 -0.11337727658E+04  0.58779543766E+03  0.12381100365E+04  0.17787244372E+04  0.25500000920E-02 0.  1.
       -2    1    3    3    0  502  0.11337727658E+04 -0.58779543766E+03 -0.11149277078E+04  0.16952899323E+04  0.25500000920E-02 0. -1.
</event>
<event>
 5   0  0.1378620E-06  0.3461838E+04  0.7818609E-02  0.8122894E-01
       -2   -1    0    0    0  501  0.00000000000E+00  0.00000000000E+00  0.19930285419E+04  0.19930285419E+04  0.25500000920E-02 0. -1.
        2   -1    0    0  501    0  0.00000000000E+00  0.00000000000E+00 -0.15032803258E+04  0.15032803258E+04  0.25500000920E-02 0.  1.
    10030    2    1    2    0    0  0.00000000000E+00  0.00000000000E+00  0.48974821613E+03  0.34963088678E+04  0.34618380065E+04 0.  0.
        2    1    3    3  502    0  0.21064322877E+03  0.21256064517E+03 -0.14769560311E+04  0.15069677221E+04  0.25500000920E-02 0.  1.
       -2    1    3    3    0  502 -0.21064322877E+03 -0.21256064517E+03  0.19667042472E+04  0.19893411456E+04  0.25500000920E-02 0. -1.
</event>
<event>
 5   0  0.4700769E-07  0.3504245E+04  0.7818609E-02  0.8112785E-01
       -1   -1    0    0    0  501  0.00000000000E+00  0.00000000000E+00  0.14969970266E+04  0.14969970266E+04  0.50400001928E-02 0.  1.
        1   -1    0    0  501    0  0.00000000000E+00  0.00000000000E+00 -0.20507280270E+04  0.20507280270E+04  0.50400001928E-02 0. -1.
    10030    2    1    2    0    0  0.00000000000E+00  0.00000000000E+00 -0.55373100047E+03  0.35477250536E+04  0.35042452875E+04 0.  0.
        3    1    3    3  502    0 -0.32326275035E+03 -0.34372672490E+03  0.14314617577E+04  0.15072258096E+04  0.10100000352E+00 0.  1.
       -3    1    3    3    0  502  0.32326275035E+03  0.34372672490E+03 -0.19851927582E+04  0.20404992440E+04  0.10100000352E+00 0. -1.
</event>
<event>
 5   0  0.1348388E-06  0.3597925E+04  0.7818609E-02  0.8090967E-01
       -2   -1    0    0    0  501  0.00000000000E+00  0.00000000000E+00  0.15204304298E+04  0.15204304298E+04  0.25500000920E-02 0.  1.
        2   -1    0    0  501    0  0.00000000000E+00  0.00000000000E+00 -0.21285194044E+04  0.21285194044E+04  0.25500000920E-02 0. -1.
    10030    2    1    2    0    0  0.00000000000E+00  0.00000000000E+00 -0.60808897454E+03  0.36489498342E+04  0.35979247757E+04 0.  0.
        5    1    3    3  502    0  0.17660710958E+04 -0.13370233102E+03  0.15640279203E+02  0.17712001968E+04  0.46999998093E+01 0.  1.
       -5    1    3    3    0  502 -0.17660710958E+04  0.13370233102E+03 -0.62372925375E+03  0.18777496374E+04  0.46999998093E+01 0. -1.
</event>
<event>
 5   0  0.4591195E-07  0.3482636E+04  0.7818609E-02  0.8117917E-01
        1   -1    0    0  501    0  0.00000000000E+00  0.00000000000E+00  0.13620155021E+04  0.13620155021E+04  0.50400001928E-02 0. -1.
       -1   -1    0    0    0  501  0.00000000000E+00  0.00000000000E+00 -0.22262507421E+04  0.22262507421E+04  0.50400001928E-02 0.  1.
    10030    2    1    2    0    0  0.00000000000E+00  0.00000000000E+00 -0.86423523995E+03  0.35882662442E+04  0.34826357962E+04 0.  0.
        4    1    3    3  502    0 -0.13859789342E+04  0.10342852095E+04 -0.22221596248E+03  0.17435782310E+04  0.12699999809E+01 0. -1.
       -4    1    3    3    0  502  0.13859789342E+04 -0.10342852095E+04 -0.64201927746E+03  0.18446880132E+04  0.12699999809E+01 0.  1.
</event>
<event>
 5   0  0.1378620E-06  0.3512655E+04  0.7818609E-02  0.8110797E-01
       -2   -1    0    0    0  501  0.00000000000E+00  0.00000000000E+00  0.11466109968E+04  0.11466109968E+04  0.25500000920E-02 0.  1.
        2   -1    0    0  501    0  0.00000000000E+00  0.00000000000E+00 -0.26902645600E+04  0.26902645600E+04  0.25500000920E-02 0. -1.
    10030    2    1    2    0    0  0.00000000000E+00  0.00000000000E+00 -0.15436535632E+04  0.38368755569E+04  0.35126553654E+04 0.  0.
        2    1    3    3  502    0 -0.10234178424E+04 -0.25698129341E+03 -0.23054352845E+04  0.25354398665E+04  0.25500000920E-02 0. -1.
       -2    1    3    3    0  502  0.10234178424E+04  0.25698129341E+03  0.76178172136E+03  0.13014356904E+04  0.25500000920E-02 0.  1.
</event>
<event>
 5   0  0.4409125E-07  0.3460702E+04  0.7818609E-02  0.8123167E-01
       -1   -1    0    0    0  501  0.00000000000E+00  0.00000000000E+00  0.24201056278E+04  0.24201056278E+04  0.50400001928E-02 0.  1.
        1   -1    0    0  501    0  0.00000000000E+00  0.00000000000E+00 -0.12371832056E+04  0.12371832056E+04  0.50400001928E-02 0. -1.
    10030    2    1    2    0    0  0.00000000000E+00  0.00000000000E+00  0.11829224222E+04  0.36572888335E+04  0.34607016852E+04 0.  0.
        5    1    3    3  502    0 -0.13354781870E+04  0.13361910205E+03 -0.56270203551E+03  0.14553390407E+04  0.46999998093E+01 0. -1.
       -5    1    3    3    0  502  0.13354781870E+04 -0.13361910205E+03  0.17456244578E+04  0.22019497928E+04  0.46999998093E+01 0.  1.
</event>
<event>
 5   0  0.4409125E-07  0.3514631E+04  0.7818609E-02  0.8110331E-01
        3   -1    0    0  501    0  0.00000000000E+00  0.00000000000E+00  0.20362928477E+04  0.20362928502E+04  0.10100000352E+00 0. -1.
       -3   -1    0    0    0  501  0.00000000000E+00  0.00000000000E+00 -0.15165591014E+04  0.15165591048E+04  0.10100000352E+00 0.  1.
    10030    2    1    2    0    0  0.00000000000E+00  0.00000000000E+00  0.51973374631E+03  0.35528519550E+04  0.35146313956E+04 0.  0.
        1    1    3    3  502    0 -0.76312179131E+03 -0.16348941954E+03  0.18514969690E+04  0.20092597355E+04  0.50400001928E-02 0. -1.
       -1    1    3    3    0  502  0.76312179131E+03  0.16348941954E+03 -0.13317632227E+04  0.15435922194E+04  0.50400001928E-02 0.  1.
</event>
<event>
 5   0  0.4557237E-07  0.3471243E+04  0.7818609E-02  0.8120639E-01
        1   -1    0    0  501    0  0.00000000000E+00  0.00000000000E+00  0.20818943692E+04  0.20818943692E+04  0.50400001928E-02 0. -1.
       -1   -1    0    0    0  501  0.00000000000E+00  0.00000000000E+00 -0.14469429042E+04  0.14469429042E+04  0.50400001928E-02 0.  1.
    10030    2    1    2    0    0  0.00000000000E+00  0.00000000000E+00  0.63495146495E+03  0.35288372734E+04  0.34712431691E+04 0.  0.
        2    1    3    3  502    0  0.11826489324E+04 -0.77834937816E+03 -0.70312167741E+03  0.15807802963E+04  0.25500000920E-02 0.  1.
       -2    1    3    3    0  502 -0.11826489324E+04  0.77834937816E+03  0.13380731424E+04  0.19480569771E+04  0.25500000920E-02 0. -1.
</event>
<event>
 5   0  0.4409125E-07  0.3569075E+04  0.7818609E-02  0.8097612E-01
       -1   -1    0    0    0  501  0.00000000000E+00  0.00000000000E+00  0.27845288867E+04  0.27845288867E+04  0.50400001928E-02 0.  1.
        1   -1    0    0  501    0  0.00000000000E+00  0.00000000000E+00 -0.11436671208E+04  0.11436671208E+04  0.50400001928E-02 0. -1.
    10030    2    1    2    0    0  0.00000000000E+00  0.00000000000E+00  0.16408617659E+04  0.39281960076E+04  0.35690750257E+04 0.  0.
        5    1    3    3  502    0 -0.14609320960E+04  0.64864306484E+03  0.16936685335E+04  0.23288614399E+04  0.46999998093E+01 0.  1.
       -5    1    3    3    0  502  0.14609320960E+04 -0.64864306484E+03 -0.52806767588E+02  0.15993345677E+04  0.46999998093E+01 0. -1.
</event>
<event>
 5   0  0.1378620E-06  0.3507315E+04  0.7818609E-02  0.8112059E-01
        2   -1    0    0  501    0  0.00000000000E+00  0.00000000000E+00  0.16586383720E+04  0.16586383720E+04  0.25500000920E-02 0. -1.
       -2   -1    0    0    0  501  0.00000000000E+00  0.00000000000E+00 -0.18541197913E+04  0.18541197913E+04  0.25500000920E-02 0.  1.
    10030    2    1    2    0    0  0.00000000000E+00  0.00000000000E+00 -0.19548141928E+03  0.35127581633E+04  0.35073147747E+04 0.  0.
        2    1    3    3  502    0 -0.15373689899E+03 -0.16212719410E+04 -0.74925509723E+03  0.17926351947E+04  0.25500000920E-02 0.  1.
       -2    1    3    3    0  502  0.15373689899E+03  0.16212719410E+04  0.55377367795E+03  0.17201229686E+04  0.25500000920E-02 0. -1.
</event>
<event>
 5   0  0.1378620E-06  0.3497397E+04  0.7818609E-02  0.8114407E-01
       -2   -1    0    0    0  501  0.00000000000E+00  0.00000000000E+00  0.16077293535E+04  0.16077293535E+04  0.25500000920E-02 0. -1.
        2   -1    0    0  501    0  0.00000000000E+00  0.00000000000E+00 -0.19020280278E+04  0.19020280278E+04  0.25500000920E-02 0.  1.
    10030    2    1    2    0    0  0.00000000000E+00  0.00000000000E+00 -0.29429867429E+03  0.35097573813E+04  0.34973969128E+04 0.  0.
        2    1    3    3  502    0  0.29898381054E+03  0.51841117525E+03 -0.17960646774E+04  0.18931428343E+04  0.25500000920E-02 0.  1.
       -2    1    3    3    0  502 -0.29898381054E+03 -0.51841117525E+03  0.15017660031E+04  0.16166145470E+04  0.25500000920E-02 0. -1.
</event>
<event>
 5   0  0.4591195E-07  0.3507676E+04  0.7818609E-02  0.8111973E-01
       -1   -1    0    0    0  501  0.00000000000E+00  0.00000000000E+00  0.20941882308E+04  0.20941882308E+04  0.50400001928E-02 0. -1.
        1   -1    0    0  501    0  0.00000000000E+00  0.00000000000E+00 -0.14688016501E+04  0.14688016502E+04  0.50400001928E-02 0.  1.
    10030    2    1    2    0    0  0.00000000000E+00  0.00000000000E+00  0.62538658066E+03  0.35629898810E+04  0.35076756573E+04 0.  0.
        4    1    3    3  502    0 -0.17218240124E+03  0.30234436856E+03  0.20587790517E+04  0.20879731064E+04  0.12699999809E+01 0. -1.
       -4    1    3    3    0  502  0.17218240124E+03 -0.30234436856E+03 -0.14333924710E+04  0.14750167746E+04  0.12699999809E+01 0.  1.
</event>
<event>
 5   0  0.1387133E-06  0.3481510E+04  0.7818609E-02  0.8118186E-01
        2   -1    0    0  501    0  0.00000000000E+00  0.00000000000E+00  0.27990336606E+04  0.27990336606E+04  0.25500000920E-02 0. -1.
       -2   -1    0    0    0  501  0.00000000000E+00  0.00000000000E+00 -0.10825981719E+04  0.10825981719E+04  0.25500000920E-02 0.  1.
    10030    2    1    2    0    0  0.00000000000E+00  0.00000000000E+00  0.17164354887E+04  0.38816318325E+04  0.34815104332E+04 0.  0.
        4    1    3    3  502    0 -0.84178932036E+03  0.38001005970E+03 -0.78689937038E+03  0.12133544978E+04  0.12699999809E+01 0.  1.
       -4    1    3    3    0  502  0.84178932036E+03 -0.38001005970E+03  0.25033348591E+04  0.26682773347E+04  0.12699999809E+01 0. -1.
</event>
<event>
 5   0  0.4409125E-07  0.3527006E+04  0.7818609E-02  0.8107419E-01
       -3   -1    0    0    0  501  0.00000000000E+00  0.00000000000E+00  0.19440875849E+04  0.19440875876E+04  0.10100000352E+00 0.  1.
        3   -1    0    0  501    0  0.00000000000E+00  0.00000000000E+00 -0.15996931698E+04  0.15996931729E+04  0.10100000352E+00 0. -1.
    10030    2    1    2    0    0  0.00000000000E+00  0.00000000000E+00  0.34439441518E+03  0.35437807605E+04  0.35270064595E+04 0.  0.
        1    1    3    3  502    0  0.93893210500E+03 -0.10118673753E+04  0.12749023666E+04  0.18790543173E+04  0.50400001928E-02 0.  1.
       -1    1    3    3    0  502 -0.93893210500E+03  0.10118673753E+04 -0.93050795142E+03  0.16647264432E+04  0.50400001928E-02 0. -1.
</event>
<event>
 5   0  0.4409125E-07  0.3197833E+04  0.7818609E-02  0.8189390E-01
       -1   -1    0    0    0  501  0.00000000000E+00  0.00000000000E+00  0.12724326165E+04  0.12724326165E+04  0.50400001928E-02 0. -1.
        1   -1    0    0  501    0  0.00000000000E+00  0.00000000000E+00 -0.20091698796E+04  0.20091698796E+04  0.50400001928E-02 0.  1.
    10030    2    1    2    0    0  0.00000000000E+00  0.00000000000E+00 -0.73673726305E+03  0.32816024961E+04  0.31978325703E+04 0.  0.
        5    1    3    3  502    0  0.13916164556E+03  0.14145458696E+04 -0.11198111571E+04  0.18095041029E+04  0.46999998093E+01 0.  1.
       -5    1    3    3    0  502 -0.13916164556E+03 -0.14145458696E+04  0.38307389407E+03  0.14720983932E+04  0.46999998093E+01 0. -1.
</event>
<event>
 5   0  0.1378620E-06  0.3474742E+04  0.7818609E-02  0.8119802E-01
       -2   -1    0    0    0  501  0.00000000000E+00  0.00000000000E+00  0.99024067589E+03  0.99024067589E+03  0.25500000920E-02 0. -1.
        2   -1    0    0  501    0  0.00000000000E+00  0.00000000000E+00 -0.30482056813E+04  0.30482056813E+04  0.25500000920E-02 0.  1.
    10030    2    1    2    0    0  0.00000000000E+00  0.00000000000E+00 -0.20579650054E+04  0.40384463572E+04  0.34747415755E+04 0.  0.
        2    1    3    3  502    0 -0.10688183644E+04  0.81331632551E+03  0.25189808910E+03  0.13664950745E+04  0.25500000920E-02 0. -1.
       -2    1    3    3    0  502  0.10688183644E+04 -0.81331632551E+03 -0.23098630945E+04  0.26719512826E+04  0.25500000920E-02 0.  1.
</event>
<event>
 5   0  0.4693374E-07  0.3271572E+04  0.7818609E-02  0.8170167E-01
        1   -1    0    0  501    0  0.00000000000E+00  0.00000000000E+00  0.19085265682E+04  0.19085265682E+04  0.50400001928E-02 0.  1.
       -1   -1    0    0    0  501  0.00000000000E+00  0.00000000000E+00 -0.14020219421E+04  0.14020219421E+04  0.50400001928E-02 0. -1.
    10030    2    1    2    0    0  0.00000000000E+00  0.00000000000E+00  0.50650462612E+03  0.33105485103E+04  0.32715721760E+04 0.  0.
        1    1    3    3  502    0 -0.79637763247E+03  0.14167664837E+04  0.44080204471E+03  0.16839688375E+04  0.50400001928E-02 0.  1.
       -1    1    3    3    0  502  0.79637763247E+03 -0.14167664837E+04  0.65702581411E+02  0.16265796729E+04  0.50400001928E-02 0. -1.
</event>
<event>
 5   0  0.1378620E-06  0.3506612E+04  0.7818609E-02  0.8112225E-01
        2   -1    0    0  501    0  0.00000000000E+00  0.00000000000E+00  0.11110085508E+04  0.11110085508E+04  0.25500000920E-02 0. -1.
       -2   -1    0    0    0  501  0.00000000000E+00  0.00000000000E+00 -0.27669285678E+04  0.27669285678E+04  0.25500000920E-02 0.  1.
    10030    2    1    2    0    0  0.00000000000E+00  0.00000000000E+00 -0.16559200171E+04  0.38779371186E+04  0.35066116399E+04 0.  0.
        2    1    3    3  502    0  0.15407656175E+04  0.32828586207E+03 -0.16791032534E+04  0.23024156946E+04  0.25500000920E-02 0.  1.
       -2    1    3    3    0  502 -0.15407656175E+04 -0.32828586207E+03  0.23183236332E+02  0.15755214240E+04  0.25500000920E-02 0. -1.
</event>
<event>
 5   0  0.1378620E-06  0.3498337E+04  0.7818609E-02  0.8114184E-01
       -2   -1    0    0    0  501  0.00000000000E+00  0.00000000000E+00  0.15598136611E+04  0.15598136611E+04  0.25500000920E-02 0. -1.
        2   -1    0    0  501    0  0.00000000000E+00  0.00000000000E+00 -0.19615103723E+04  0.19615103723E+04  0.25500000920E-02 0.  1.
    10030    2    1    2    0    0  0.00000000000E+00  0.00000000000E+00 -0.40169671125E+03  0.35213240334E+04  0.34983371336E+04 0.  0.
        2    1    3    3  502    0  0.17032533352E+04  0.19203500823E+03 -0.55191120193E+03  0.18007096776E+04  0.25500000920E-02 0. -1.
       -2    1    3    3    0  502 -0.17032533352E+04 -0.19203500823E+03  0.15021449068E+03  0.17206143558E+04  0.25500000920E-02 0.  1.
</event>
<event>
 5   0  0.4700769E-07  0.3664728E+04  0.7818609E-02  0.8075824E-01
        1   -1    0    0  501    0  0.00000000000E+00  0.00000000000E+00  0.24438356673E+04  0.24438356673E+04  0.50400001928E-02 0. -1.
       -1   -1    0    0    0  501  0.00000000000E+00  0.00000000000E+00 -0.13738882998E+04  0.13738882998E+04  0.50400001928E-02 0.  1.
    10030    2    1    2    0    0  0.00000000000E+00  0.00000000000E+00  0.10699473675E+04  0.38177239671E+04  0.36647276733E+04 0.  0.
        3    1    3    3  502    0 -0.11078315849E+04 -0.12663324166E+03 -0.97976939057E+03  0.14843432444E+04  0.10100000352E+00 0.  1.
       -3    1    3    3    0  502  0.11078315849E+04  0.12663324166E+03  0.20497167581E+04  0.23333807227E+04  0.10100000352E+00 0. -1.
</event>
<event>
 5   0  0.4693374E-07  0.3482381E+04  0.7818609E-02  0.8117978E-01
        1   -1    0    0  501    0  0.00000000000E+00  0.00000000000E+00  0.20929799323E+04  0.20929799323E+04  0.50400001928E-02 0. -1.
       -1   -1    0    0    0  501  0.00000000000E+00  0.00000000000E+00 -0.14485301239E+04  0.14485301239E+04  0.50400001928E-02 0.  1.
    10030    2    1    2    0    0  0.00000000000E+00  0.00000000000E+00  0.64444980842E+03  0.35415100562E+04  0.34823810709E+04 0.  0.
        1    1    3    3  502    0  0.42260852543E+03  0.10715710659E+04  0.16501064773E+04  0.20123900967E+04  0.50400001928E-02 0. -1.
       -1    1    3    3    0  502 -0.42260852543E+03 -0.10715710659E+04 -0.10056566688E+04  0.15291199595E+04  0.50400001928E-02 0.  1.
</event>
<event>
 5   0  0.4700769E-07  0.3633317E+04  0.7818609E-02  0.8082902E-01
        1   -1    0    0  501    0  0.00000000000E+00  0.00000000000E+00  0.23521406725E+04  0.23521406725E+04  0.50400001928E-02 0.  1.
       -1   -1    0    0    0  501  0.00000000000E+00  0.00000000000E+00 -0.14030825197E+04  0.14030825197E+04  0.50400001928E-02 0. -1.
    10030    2    1    2    0    0  0.00000000000E+00  0.00000000000E+00  0.94905815276E+03  0.37552231922E+04  0.36333166455E+04 0.  0.
        3    1    3    3  502    0 -0.66321078066E+03  0.11988844899E+04 -0.75842353291E+03  0.15660072877E+04  0.10100000352E+00 0. -1.
       -3    1    3    3    0  502  0.66321078066E+03 -0.11988844899E+04  0.17074816857E+04  0.21892159045E+04  0.10100000352E+00 0.  1.
</event>
<event>
 5   0  0.4591195E-07  0.3609948E+04  0.7818609E-02  0.8088217E-01
       -1   -1    0    0    0  501  0.00000000000E+00  0.00000000000E+00  0.14598522366E+04  0.14598522367E+04  0.50400001928E-02 0. -1.
        1   -1    0    0  501    0  0.00000000000E+00  0.00000000000E+00 -0.22316858591E+04  0.22316858591E+04  0.50400001928E-02 0.  1.
    10030    2    1    2    0    0  0.00000000000E+00  0.00000000000E+00 -0.77183362248E+03  0.36915380958E+04  0.36099482506E+04 0.  0.
        4    1    3    3  502    0 -0.91823625373E+03  0.14290604232E+04 -0.10100878282E+04  0.19762718802E+04  0.12699999809E+01 0.  1.
       -4    1    3    3    0  502  0.91823625373E+03 -0.14290604232E+04  0.23825420572E+03  0.17152662156E+04  0.12699999809E+01 0. -1.
</event>
<event>
 5   0  0.4591195E-07  0.3412309E+04  0.7818609E-02  0.8134892E-01
       -1   -1    0    0    0  501  0.00000000000E+00  0.00000000000E+00  0.87017613451E+03  0.87017613452E+03  0.50400001928E-02 0.  1.
        1   -1    0    0  501    0  0.00000000000E+00  0.00000000000E+00 -0.33452579078E+04  0.33452579079E+04  0.50400001928E-02 0. -1.
    10030    2    1    2    0    0  0.00000000000E+00  0.00000000000E+00 -0.24750817733E+04  0.42154340424E+04  0.34123092446E+04 0.  0.
        4    1    3    3  502    0 -0.30110232772E+03  0.10527106120E+04 -0.28539766333E+04  0.30568033108E+04  0.12699999809E+01 0. -1.
       -4    1    3    3    0  502  0.30110232772E+03 -0.10527106120E+04  0.37889486000E+03  0.11586307316E+04  0.12699999809E+01 0.  1.
</event>
<event>
 5   0  0.1442864E-06  0.3527962E+04  0.7818609E-02  0.8107195E-01
       -2   -1    0    0    0  501  0.00000000000E+00  0.00000000000E+00  0.13936210524E+04  0.13936210524E+04  0.25500000920E-02 0. -1.
        2   -1    0    0  501    0  0.00000000000E+00  0.00000000000E+00 -0.22327653232E+04  0.22327653232E+04  0.25500000920E-02 0.  1.
    10030    2    1    2    0    0  0.00000000000E+00  0.00000000000E+00 -0.83914427080E+03  0.36263863757E+04  0.35279618817E+04 0.  0.
        1    1    3    3  502    0 -0.10763318020E+04 -0.13292435520E+04  0.24035031397E+02  0.17105426774E+04  0.50400001928E-02 0.  1.
       -1    1    3    3    0  502  0.10763318020E+04  0.13292435520E+04 -0.86317930219E+03  0.19158436983E+04  0.50400001928E-02 0. -1.
</event>
<event>
 5   0  0.1361560E-06  0.3477854E+04  0.7818609E-02  0.8119058E-01
       -2   -1    0    0    0  501  0.00000000000E+00  0.00000000000E+00  0.10487044079E+04  0.10487044079E+04  0.25500000920E-02 0.  1.
        2   -1    0    0  501    0  0.00000000000E+00  0.00000000000E+00 -0.28834305589E+04  0.28834305589E+04  0.25500000920E-02 0. -1.
    10030    2    1    2    0    0  0.00000000000E+00  0.00000000000E+00 -0.18347261510E+04  0.39321349669E+04  0.34778535548E+04 0.  0.
        3    1    3    3  502    0  0.92608413965E+03  0.80546488335E+02 -0.25789326862E+04  0.27413524729E+04  0.10100000352E+00 0. -1.
       -3    1    3    3    0  502 -0.92608413965E+03 -0.80546488335E+02  0.74420653526E+03  0.11907824939E+04  0.10100000352E+00 0.  1.
</event>
<event>
 5   0  0.4409125E-07  0.2724343E+04  0.7818609E-02  0.8327149E-01
        3   -1    0    0  501    0  0.00000000000E+00  0.00000000000E+00  0.17558182160E+04  0.17558182189E+04  0.10100000352E+00 0. -1.
       -3   -1    0    0    0  501  0.00000000000E+00  0.00000000000E+00 -0.10567789973E+04  0.10567790021E+04  0.10100000352E+00 0.  1.
    10030    2    1    2    0    0  0.00000000000E+00  0.00000000000E+00  0.69903921876E+03  0.28125972210E+04  0.27243434619E+04 0.  0.
        1    1    3    3  502    0 -0.10727292254E+04  0.74920209552E+03  0.74055060049E+03  0.15034849394E+04  0.50400001928E-02 0. -1.
       -1    1    3    3    0  502  0.10727292254E+04 -0.74920209552E+03 -0.41511381725E+02  0.13091122816E+04  0.50400001928E-02 0.  1.
</event>
<event>
 5   0  0.1378620E-06  0.3520335E+04  0.7818609E-02  0.8108988E-01
       -2   -1    0    0    0  501  0.00000000000E+00  0.00000000000E+00  0.16887492057E+04  0.16887492057E+04  0.25500000920E-02 0.  1.
        2   -1    0    0  501    0  0.00000000000E+00  0.00000000000E+00 -0.18346064117E+04  0.18346064117E+04  0.25500000920E-02 0. -1.
    10030    2    1    2    0    0  0.00000000000E+00  0.00000000000E+00 -0.14585720601E+03  0.35233556174E+04  0.35203352798E+04 0.  0.
        2    1    3    3  502    0  0.10677700921E+04 -0.11221271931E+03 -0.14689247297E+04  0.18194681985E+04  0.25500000920E-02 0. -1.
       -2    1    3    3    0  502 -0.10677700921E+04  0.11221271931E+03  0.13230675236E+04  0.17038874189E+04  0.25500000920E-02 0.  1.
</event>
<event>
 5   0  0.1387133E-06  0.3523196E+04  0.7818609E-02  0.8108315E-01
        2   -1    0    0  501    0  0.00000000000E+00  0.00000000000E+00  0.17200053637E+04  0.17200053637E+04  0.25500000920E-02 0. -1.
       -2   -1    0    0    0  501  0.00000000000E+00  0.00000000000E+00 -0.18041963490E+04  0.18041963490E+04  0.25500000920E-02 0.  1.
    10030    2    1    2    0    0  0.00000000000E+00  0.00000000000E+00 -0.84190985305E+02  0.35242017127E+04  0.35231959341E+04 0.  0.
        4    1    3    3  502    0 -0.73816104694E+03 -0.14694480643E+04 -0.67399288771E+03  0.17771964918E+04  0.12699999809E+01 0.  1.
       -4    1    3    3    0  502  0.73816104694E+03  0.14694480643E+04  0.58980190240E+03  0.17470052209E+04  0.12699999809E+01 0. -1.
</event>
<event>
 5   0  0.4591195E-07  0.3539609E+04  0.7818609E-02  0.8104467E-01
        1   -1    0    0  501    0  0.00000000000E+00  0.00000000000E+00  0.22050193265E+04  0.22050193265E+04  0.50400001928E-02 0. -1.
       -1   -1    0    0    0  501  0.00000000000E+00  0.00000000000E+00 -0.14204900076E+04  0.14204900076E+04  0.50400001928E-02 0.  1.
    10030    2    1    2    0    0  0.00000000000E+00  0.00000000000E+00  0.78452931894E+03  0.36255093341E+04  0.35396089727E+04 0.  0.
        4    1    3    3  502    0 -0.43761170539E+03  0.81907728127E+03  0.19354175025E+04  0.21466797897E+04  0.12699999809E+01 0. -1.
       -4    1    3    3    0  502  0.43761170539E+03 -0.81907728127E+03 -0.11508881836E+04  0.14788295444E+04  0.12699999809E+01 0.  1.
</event>
<event>
 5   0  0.1348388E-06  0.3500395E+04  0.7818609E-02  0.8113696E-01
       -2   -1    0    0    0  501  0.00000000000E+00  0.00000000000E+00  0.16321363131E+04  0.16321363131E+04  0.25500000920E-02 0.  1.
        2   -1    0    0  501    0  0.00000000000E+00  0.00000000000E+00 -0.18767983049E+04  0.18767983049E+04  0.25500000920E-02 0. -1.
    10030    2    1    2    0    0  0.00000000000E+00  0.00000000000E+00 -0.24466199179E+03  0.35089346179E+04  0.35003946439E+04 0.  0.
        5    1    3    3  502    0  0.79248806294E+03  0.70107690308E+03  0.12752089033E+04  0.16570232319E+04  0.46999998093E+01 0.  1.
       -5    1    3    3    0  502 -0.79248806294E+03 -0.70107690308E+03 -0.15198708951E+04  0.18519113860E+04  0.46999998093E+01 0. -1.
</event>
<event>
 5   0  0.1361560E-06  0.3499232E+04  0.7818609E-02  0.8113972E-01
        2   -1    0    0  501    0  0.00000000000E+00  0.00000000000E+00  0.27615022071E+04  0.27615022071E+04  0.25500000920E-02 0.  1.
       -2   -1    0    0    0  501  0.00000000000E+00  0.00000000000E+00 -0.11085113139E+04  0.11085113139E+04  0.25500000920E-02 0. -1.
    10030    2    1    2    0    0  0.00000000000E+00  0.00000000000E+00  0.16529908933E+04  0.38700135210E+04  0.34992321671E+04 0.  0.
        3    1    3    3  502    0  0.15478557144E+04  0.74833236528E+03  0.46761537050E+03  0.17817190538E+04  0.10100000352E+00 0. -1.
       -3    1    3    3    0  502 -0.15478557144E+04 -0.74833236528E+03  0.11853755228E+04  0.20882944672E+04  0.10100000352E+00 0.  1.
</event>
<event>
 5   0  0.4591195E-07  0.3811545E+04  0.7818609E-02  0.8043682E-01
        1   -1    0    0  501    0  0.00000000000E+00  0.00000000000E+00  0.15156819643E+04  0.15156819643E+04  0.50400001928E-02 0. -1.
       -1   -1    0    0    0  501  0.00000000000E+00  0.00000000000E+00 -0.23962602319E+04  0.23962602319E+04  0.50400001928E-02 0.  1.
    10030    2    1    2    0    0  0.00000000000E+00  0.00000000000E+00 -0.88057826767E+03  0.39119421962E+04  0.38115447867E+04 0.  0.
        4    1    3    3  502    0 -0.33168696083E+03  0.61176457355E+03 -0.22611958635E+04  0.23658572399E+04  0.12699999809E+01 0.  1.
       -4    1    3    3    0  502  0.33168696083E+03 -0.61176457355E+03  0.13806175958E+04  0.15460849563E+04  0.12699999809E+01 0. -1.
</event>
<event>
 5   0  0.4700769E-07  0.3529077E+04  0.7818609E-02  0.8106933E-01
        1   -1    0    0  501    0  0.00000000000E+00  0.00000000000E+00  0.22072569126E+04  0.22072569126E+04  0.50400001928E-02 0.  1.
       -1   -1    0    0    0  501  0.00000000000E+00  0.00000000000E+00 -0.14106178286E+04  0.14106178286E+04  0.50400001928E-02 0. -1.
    10030    2    1    2    0    0  0.00000000000E+00  0.00000000000E+00  0.79663908397E+03  0.36178747412E+04  0.35290769067E+04 0.  0.
        3    1    3    3  502    0  0.40450157517E+03  0.13369577346E+04  0.15036504852E+04  0.20523260706E+04  0.10100000352E+00 0.  1.
       -3    1    3    3    0  502 -0.40450157517E+03 -0.13369577346E+04 -0.70701140119E+03  0.15655486706E+04  0.10100000352E+00 0. -1.
</event>
<event>
 5   0  0.1387133E-06  0.3513881E+04  0.7818609E-02  0.8110508E-01
        2   -1    0    0  501    0  0.00000000000E+00  0.00000000000E+00  0.15886294829E+04  0.15886294829E+04  0.25500000920E-02 0. -1.
       -2   -1    0    0    0  501  0.00000000000E+00  0.00000000000E+00 -0.19430830737E+04  0.19430830737E+04  0.25500000920E-02 0.  1.
    10030    2    1    2    0    0  0.00000000000E+00  0.00000000000E+00 -0.35445359084E+03  0.35317125566E+04  0.35138805094E+04 0.  0.
        4    1    3    3  502    0  0.91295791829E+03 -0.13492768766E+04 -0.83843857084E+03  0.18322175363E+04  0.12699999809E+01 0.  1.
       -4    1    3    3    0  502 -0.91295791829E+03  0.13492768766E+04  0.48398498000E+03  0.16994950203E+04  0.12699999809E+01 0. -1.
</event>
<event>
 5   0  0.1361560E-06  0.3535724E+04  0.7818609E-02  0.8105376E-01
       -2   -1    0    0    0  501  0.00000000000E+00  0.00000000000E+00  0.13836993143E+04  0.13836993143E+04  0.25500000920E-02 0.  1.
        2   -1    0    0  501    0  0.00000000000E+00  0.00000000000E+00 -0.22586820378E+04  0.22586820378E+04  0.25500000920E-02 0. -1.
    10030    2    1    2    0    0  0.00000000000E+00  0.00000000000E+00 -0.87498272351E+03  0.36423813522E+04  0.35357244163E+04 0.  0.
        3    1    3    3  502    0  0.57860875289E+03  0.28706954849E+02  0.12831393571E+04  0.14078560999E+04  0.10100000352E+00 0.  1.
       -3    1    3    3    0  502 -0.57860875289E+03 -0.28706954849E+02 -0.21581220806E+04  0.22345252523E+04  0.10100000352E+00 0. -1.
</event>
<event>
 5   0  0.1378620E-06  0.3315437E+04  0.7818609E-02  0.8158979E-01
       -2   -1    0    0    0  501  0.00000000000E+00  0.00000000000E+00  0.12186348590E+04  0.12186348590E+04  0.25500000920E-02 0. -1.
        2   -1    0    0  501    0  0.00000000000E+00  0.00000000000E+00 -0.22550069000E+04  0.22550069000E+04  0.25500000920E-02 0.  1.
    10030    2    1    2    0    0  0.00000000000E+00  0.00000000000E+00 -0.10363720410E+04  0.34736417590E+04  0.33154366322E+04 0.  0.
        2    1    3    3  502    0 -0.82643721674E+03  0.96025371844E+02  0.98404198228E+03  0.12886263881E+04  0.25500000920E-02 0. -1.
       -2    1    3    3    0  502  0.82643721674E+03 -0.96025371844E+02 -0.20204140233E+04  0.21850153709E+04  0.25500000920E-02 0.  1.
</event>
<event>
 5   0  0.1378620E-06  0.3502272E+04  0.7818609E-02  0.8113252E-01
        2   -1    0    0  501    0  0.00000000000E+00  0.00000000000E+00  0.30888633130E+04  0.30888633130E+04  0.25500000920E-02 0. -1.
       -2   -1    0    0    0  501  0.00000000000E+00  0.00000000000E+00 -0.99275283144E+03  0.99275283145E+03  0.25500000920E-02 0.  1.
    10030    2    1    2    0    0  0.00000000000E+00  0.00000000000E+00  0.20961104816E+04  0.40816161445E+04  0.35022722909E+04 0.  0.
        2    1    3    3  502    0  0.13672750684E+04  0.29943657294E+02  0.23226533492E+04  0.26953768411E+04  0.25500000920E-02 0. -1.
       -2    1    3    3    0  502 -0.13672750684E+04 -0.29943657294E+02 -0.22654286758E+03  0.13862393033E+04  0.25500000920E-02 0.  1.
</event>
<event>
 5   0  0.1387133E-06  0.2508054E+04  0.7818609E-02  0.8400122E-01
       -2   -1    0    0    0  501  0.00000000000E+00  0.00000000000E+00  0.84465451198E+03  0.84465451198E+03  0.25500000920E-02 0. -1.
        2   -1    0    0  501    0  0.00000000000E+00  0.00000000000E+00 -0.18618073474E+04  0.18618073474E+04  0.25500000920E-02 0.  1.
    10030    2    1    2    0    0  0.00000000000E+00  0.00000000000E+00 -0.10171528354E+04  0.27064618594E+04  0.25080542071E+04 0.  0.
        4    1    3    3  502    0 -0.76054170970E+02 -0.16218413072E+03  0.83077659603E+03  0.84987016337E+03  0.12699999809E+01 0. -1.
       -4    1    3    3    0  502  0.76054170970E+02  0.16218413072E+03 -0.18479294314E+04  0.18565916960E+04  0.12699999809E+01 0.  1.
</event>
<event>
 5   0  0.1348388E-06  0.3495143E+04  0.7818609E-02  0.8114942E-01
       -2   -1    0    0    0  501  0.00000000000E+00  0.00000000000E+00  0.23585196986E+04  0.23585196986E+04  0.25500000920E-02 0. -1.
        2   -1    0    0  501    0  0.00000000000E+00  0.00000000000E+00 -0.12948825663E+04  0.12948825663E+04  0.25500000920E-02 0.  1.
    10030    2    1    2    0    0  0.00000000000E+00  0.00000000000E+00  0.10636371323E+04  0.36534022650E+04  0.34951429385E+04 0.  0.
        5    1    3    3  502    0  0.12087817892E+04  0.12196924459E+04  0.87081953492E+03  0.19253965381E+04  0.46999998093E+01 0. -1.
       -5    1    3    3    0  502 -0.12087817892E+04 -0.12196924459E+04  0.19281759739E+03  0.17280057269E+04  0.46999998093E+01 0.  1.
</event>
<event>
 5   0  0.1348388E-06  0.3470129E+04  0.7818609E-02  0.8120906E-01
        2   -1    0    0  501    0  0.00000000000E+00  0.00000000000E+00  0.14920204140E+04  0.14920204140E+04  0.25500000920E-02 0.  1.
       -2   -1    0    0    0  501  0.00000000000E+00  0.00000000000E+00 -0.20176991449E+04  0.20176991449E+04  0.25500000920E-02 0. -1.
    10030    2    1    2    0    0  0.00000000000E+00  0.00000000000E+00 -0.52567873095E+03  0.35097195589E+04  0.34701287085E+04 0.  0.
        5    1    3    3  502    0  0.12256312104E+04 -0.25717307179E+03  0.95174304150E+03  0.15729420713E+04  0.46999998093E+01 0.  1.
       -5    1    3    3    0  502 -0.12256312104E+04  0.25717307179E+03 -0.14774217724E+04  0.19367774876E+04  0.46999998093E+01 0. -1.
</event>
<event>
 5   0  0.1361560E-06  0.2997058E+04  0.7818609E-02  0.8244571E-01
        2   -1    0    0  501    0  0.00000000000E+00  0.00000000000E+00  0.22546265282E+04  0.22546265282E+04  0.25500000920E-02 0. -1.
       -2   -1    0    0    0  501  0.00000000000E+00  0.00000000000E+00 -0.99599174430E+03  0.99599174431E+03  0.25500000920E-02 0.  1.
    10030    2    1    2    0    0  0.00000000000E+00  0.00000000000E+00  0.12586347839E+04  0.32506182725E+04  0.29970581633E+04 0.  0.
        3    1    3    3  502    0  0.12748020647E+04 -0.19500971510E+03 -0.19842750388E+03  0.13048074868E+04  0.10100000352E+00 0.  1.
       -3    1    3    3    0  502 -0.12748020647E+04  0.19500971510E+03  0.14570622878E+04  0.19458107857E+04  0.10100000352E+00 0. -1.
</event>
<event>
 5   0  0.4693374E-07  0.3426913E+04  0.7818609E-02  0.8131332E-01
       -1   -1    0    0    0  501  0.00000000000E+00  0.00000000000E+00  0.13357867456E+04  0.13357867456E+04  0.50400001928E-02 0.  1.
        1   -1    0    0  501    0  0.00000000000E+00  0.00000000000E+00 -0.21979057434E+04  0.21979057434E+04  0.50400001928E-02 0. -1.
    10030    2    1    2    0    0  0.00000000000E+00  0.00000000000E+00 -0.86211899779E+03  0.35336924890E+04  0.34269131066E+04 0.  0.
        1    1    3    3  502    0 -0.42866447783E+03  0.16583116779E+04 -0.47923244557E+03  0.17785990534E+04  0.50400001928E-02 0. -1.
       -1    1    3    3    0  502  0.42866447783E+03 -0.16583116779E+04 -0.38288655222E+03  0.17550934356E+04  0.50400001928E-02 0.  1.
</event>
<event>
 5   0  0.4693374E-07  0.3228168E+04  0.7818609E-02  0.8181418E-01
       -1   -1    0    0    0  501  0.00000000000E+00  0.00000000000E+00  0.30927888592E+04  0.30927888592E+04  0.50400001928E-02 0.  1.
        1   -1    0    0  501    0  0.00000000000E+00  0.00000000000E+00 -0.84236814679E+03  0.84236814681E+03  0.50400001928E-02 0. -1.
    10030    2    1    2    0    0  0.00000000000E+00  0.00000000000E+00  0.22504207124E+04  0.39351570060E+04  0.32281677898E+04 0.  0.
        1    1    3    3  502    0  0.50647171523E+03 -0.66686137515E+03 -0.55686341804E+03  0.10056413667E+04  0.50400001928E-02 0. -1.
       -1    1    3    3    0  502 -0.50647171523E+03  0.66686137515E+03  0.28072841304E+04  0.29295156393E+04  0.50400001928E-02 0.  1.
</event>
<event>
 5   0  0.1378620E-06  0.3513099E+04  0.7818609E-02  0.8110693E-01
        2   -1    0    0  501    0  0.00000000000E+00  0.00000000000E+00  0.27068060640E+04  0.27068060640E+04  0.25500000920E-02 0.  1.
       -2   -1    0    0    0  501  0.00000000000E+00  0.00000000000E+00 -0.11398920935E+04  0.11398920935E+04  0.25500000920E-02 0. -1.
    10030    2    1    2    0    0  0.00000000000E+00  0.00000000000E+00  0.15669139704E+04  0.38466981575E+04  0.35130993900E+04 0.  0.
        2    1    3    3  502    0  0.14282297627E+04  0.17287639831E+03  0.18869993754E+04  0.23728660196E+04  0.25500000920E-02 0.  1.
       -2    1    3    3    0  502 -0.14282297627E+04 -0.17287639831E+03 -0.32008540501E+03  0.14738321379E+04  0.25500000920E-02 0. -1.
</event>
<event>
 5   0  0.1387133E-06  0.3518352E+04  0.7818609E-02  0.8109454E-01
       -2   -1    0    0    0  501  0.00000000000E+00  0.00000000000E+00  0.17987628800E+04  0.17987628800E+04  0.25500000920E-02 0.  1.
        2   -1    0    0  501    0  0.00000000000E+00  0.00000000000E+00 -0.17204603259E+04  0.17204603259E+04  0.25500000920E-02 0. -1.
    10030    2    1    2    0    0  0.00000000000E+00  0.00000000000E+00  0.78302554102E+02  0.35192232060E+04  0.35183519840E+04 0.  0.
        4    1    3    3  502    0  0.14604789231E+04  0.67552993033E+03 -0.67191095211E+03  0.17437905012E+04  0.12699999809E+01 0. -1.
       -4    1    3    3    0  502 -0.14604789231E+04 -0.67552993033E+03  0.75021350621E+03  0.17754327048E+04  0.12699999809E+01 0.  1.
</event>
<event>
 5   0  0.4409125E-07  0.3510929E+04  0.7818609E-02  0.8111205E-01
       -1   -1    0    0    0  501  0.00000000000E+00  0.00000000000E+00  0.14146649659E+04  0.14146649659E+04  0.50400001928E-02 0. -1.
        1   -1    0    0  501    0  0.00000000000E+00  0.00000000000E+00 -0.21783641022E+04  0.21783641022E+04  0.50400001928E-02 0.  1.
    10030    2    1    2    0    0  0.00000000000E+00  0.00000000000E+00 -0.76369913634E+03  0.35930290681E+04  0.35109288676E+04 0.  0.
        5    1    3    3  502    0 -0.11829812865E+03 -0.91411198242E+03 -0.19107862642E+04  0.21214903726E+04  0.46999998093E+01 0.  1.
       -5    1    3    3    0  502  0.11829812865E+03  0.91411198242E+03  0.11470871278E+04  0.14715386955E+04  0.46999998093E+01 0. -1.
</event>
<event>
 5   0  0.1442864E-06  0.3273890E+04  0.7818609E-02  0.8169571E-01
        2   -1    0    0  501    0  0.00000000000E+00  0.00000000000E+00  0.16411754811E+04  0.16411754811E+04  0.25500000920E-02 0.  1.
       -2   -1    0    0    0  501  0.00000000000E+00  0.00000000000E+00 -0.16327257175E+04  0.16327257175E+04  0.25500000920E-02 0. -1.
    10030    2    1    2    0    0  0.00000000000E+00  0.00000000000E+00  0.84497636508E+01  0.32739011986E+04  0.32738902944E+04 0.  0.
        1    1    3    3  502    0 -0.40984246650E+03  0.78226564342E+03 -0.13740681513E+04  0.16333932988E+04  0.50400001928E-02 0. -1.
       -1    1    3    3    0  502  0.40984246650E+03 -0.78226564342E+03  0.13825179149E+04  0.16405078998E+04  0.50400001928E-02 0.  1.
</event>
<event>
 5   0  0.4409125E-07  0.3528673E+04  0.7818609E-02  0.8107028E-01
        1   -1    0    0  501    0  0.00000000000E+00  0.00000000000E+00  0.13355664216E+04  0.13355664216E+04  0.50400001928E-02 0.  1.
       -1   -1    0    0    0  501  0.00000000000E+00  0.00000000000E+00 -0.23307592708E+04  0.23307592708E+04  0.50400001928E-02 0. -1.
    10030    2    1    2    0    0  0.00000000000E+00  0.00000000000E+00 -0.99519284914E+03  0.36663256924E+04  0.35286733025E+04 0.  0.
        5    1    3    3  502    0  0.22054200683E+03  0.47956003391E+03  0.12515988475E+04  0.13583587037E+04  0.46999998093E+01 0.  1.
       -5    1    3    3    0  502 -0.22054200683E+03 -0.47956003391E+03 -0.22467916966E+04  0.23079669887E+04  0.46999998093E+01 0. -1.
</event>
<event>
 5   0  0.4591195E-07  0.2988070E+04  0.7818609E-02  0.8247146E-01
        1   -1    0    0  501    0  0.00000000000E+00  0.00000000000E+00  0.16885402887E+04  0.16885402887E+04  0.50400001928E-02 0.  1.
       -1   -1    0    0    0  501  0.00000000000E+00  0.00000000000E+00 -0.13219350912E+04  0.13219350912E+04  0.50400001928E-02 0. -1.
    10030    2    1    2    0    0  0.00000000000E+00  0.00000000000E+00  0.36660519750E+03  0.30104753799E+04  0.29880700531E+04 0.  0.
        4    1    3    3  502    0 -0.12664483561E+03  0.78339826460E+03 -0.10920434792E+04  0.13499304903E+04  0.12699999809E+01 0. -1.
       -4    1    3    3    0  502  0.12664483561E+03 -0.78339826460E+03  0.14586486767E+04  0.16605448896E+04  0.12699999809E+01 0.  1.
</event>
<event>
 5   0  0.4693374E-07  0.3604987E+04  0.7818609E-02  0.8089350E-01
       -1   -1    0    0    0  501  0.00000000000E+00  0.00000000000E+00  0.12145178710E+04  0.12145178710E+04  0.50400001928E-02 0.  1.
        1   -1    0    0  501    0  0.00000000000E+00  0.00000000000E+00 -0.26751209354E+04  0.26751209354E+04  0.50400001928E-02 0. -1.
    10030    2    1    2    0    0  0.00000000000E+00  0.00000000000E+00 -0.14606030644E+04  0.38896388064E+04  0.36049866480E+04 0.  0.
        1    1    3    3  502    0  0.30707263443E+03 -0.16015292016E+04 -0.15589214072E+04  0.22559754742E+04  0.50400001928E-02 0. -1.
       -1    1    3    3    0  502 -0.30707263443E+03  0.16015292016E+04  0.98318342832E+02  0.16336633322E+04  0.50400001928E-02 0.  1.
</event>
<event>
 5   0  0.4693374E-07  0.3495259E+04  0.7818609E-02  0.8114915E-01
       -1   -1    0    0    0  501  0.00000000000E+00  0.00000000000E+00  0.23502932979E+04  0.23502932979E+04  0.50400001928E-02 0.  1.
        1   -1    0    0  501    0  0.00000000000E+00  0.00000000000E+00 -0.12995008662E+04  0.12995008662E+04  0.50400001928E-02 0. -1.
    10030    2    1    2    0    0  0.00000000000E+00  0.00000000000E+00  0.10507924317E+04  0.36497941641E+04  0.34952586036E+04 0.  0.
        1    1    3    3  502    0 -0.10173170729E+04 -0.13324360933E+04  0.97112629909E+01  0.16764290257E+04  0.50400001928E-02 0. -1.
       -1    1    3    3    0  502  0.10173170729E+04  0.13324360933E+04  0.10410811687E+04  0.19733651384E+04  0.50400001928E-02 0.  1.
</event>
<event>
 5   0  0.4693374E-07  0.3452496E+04  0.7818609E-02  0.8125141E-01
        1   -1    0    0  501    0  0.00000000000E+00  0.00000000000E+00  0.18066725584E+04  0.18066725584E+04  0.50400001928E-02 0.  1.
       -1   -1    0    0    0  501  0.00000000000E+00  0.00000000000E+00 -0.16494034824E+04  0.16494034824E+04  0.50400001928E-02 0. -1.
    10030    2    1    2    0    0  0.00000000000E+00  0.00000000000E+00  0.15726907606E+03  0.34560760408E+04  0.34524959142E+04 0.  0.
        1    1    3    3  502    0  0.13083376039E+04  0.10005502584E+04 -0.43870297843E+03  0.17044965264E+04  0.50400001928E-02 0. -1.
       -1    1    3    3    0  502 -0.13083376039E+04 -0.10005502584E+04  0.59597205448E+03  0.17515795144E+04  0.50400001928E-02 0.  1.
</event>
<event>
 5   0  0.4557237E-07  0.3471764E+04  0.7818609E-02  0.8120514E-01
       -1   -1    0    0    0  501  0.00000000000E+00  0.00000000000E+00  0.14526617734E+04  0.14526617734E+04  0.50400001928E-02 0.  1.
        1   -1    0    0  501    0  0.00000000000E+00  0.00000000000E+00 -0.20743208014E+04  0.20743208014E+04  0.50400001928E-02 0. -1.
    10030    2    1    2    0    0  0.00000000000E+00  0.00000000000E+00 -0.62165902796E+03  0.35269825748E+04  0.34717641245E+04 0.  0.
        2    1    3    3  502    0  0.18995138551E+03 -0.36272861710E+03  0.14029010561E+04  0.14614324998E+04  0.25500000920E-02 0.  1.
       -2    1    3    3    0  502 -0.18995138551E+03  0.36272861710E+03 -0.20245600840E+04  0.20655500750E+04  0.25500000920E-02 0. -1.
</event>
<event>
 5   0  0.4409125E-07  0.3525473E+04  0.7818609E-02  0.8107779E-01
       -1   -1    0    0    0  501  0.00000000000E+00  0.00000000000E+00  0.14948640428E+04  0.14948640428E+04  0.50400001928E-02 0. -1.
        1   -1    0    0  501    0  0.00000000000E+00  0.00000000000E+00 -0.20786109754E+04  0.20786109754E+04  0.50400001928E-02 0.  1.
    10030    2    1    2    0    0  0.00000000000E+00  0.00000000000E+00 -0.58374693264E+03  0.35734750182E+04  0.35254734752E+04 0.  0.
        5    1    3    3  502    0 -0.13717949217E+04 -0.15845202976E+03  0.81862115266E+03  0.16053320637E+04  0.46999998093E+01 0. -1.
       -5    1    3    3    0  502  0.13717949217E+04  0.15845202976E+03 -0.14023680853E+04  0.19681429546E+04  0.46999998093E+01 0.  1.
</event>
<event>
 5   0  0.1361560E-06  0.3454578E+04  0.7818609E-02  0.8124639E-01
        2   -1    0    0  501    0  0.00000000000E+00  0.00000000000E+00  0.17450776566E+04  0.17450776566E+04  0.25500000920E-02 0. -1.
       -2   -1    0    0    0  501  0.00000000000E+00  0.00000000000E+00 -0.17096820804E+04  0.17096820804E+04  0.25500000920E-02 0.  1.
    10030    2    1    2    0    0  0.00000000000E+00  0.00000000000E+00  0.35395576144E+02  0.34547597370E+04  0.34545784104E+04 0.  0.
        3    1    3    3  502    0 -0.10027277276E+04 -0.97443184531E+03  0.10319244140E+04  0.17377710790E+04  0.10100000352E+00 0. -1.
       -3    1    3    3    0  502  0.10027277276E+04  0.97443184531E+03 -0.99652883781E+03  0.17169886580E+04  0.10100000352E+00 0.  1.
</event>
<event>
 5   0  0.4700769E-07  0.3462584E+04  0.7818609E-02  0.8122715E-01
       -1   -1    0    0    0  501  0.00000000000E+00  0.00000000000E+00  0.13487535432E+04  0.13487535432E+04  0.50400001928E-02 0. -1.
        1   -1    0    0  501    0  0.00000000000E+00  0.00000000000E+00 -0.22223270886E+04  0.22223270886E+04  0.50400001928E-02 0.  1.
    10030    2    1    2    0    0  0.00000000000E+00  0.00000000000E+00 -0.87357354534E+03  0.35710806318E+04  0.34625837376E+04 0.  0.
        3    1    3    3  502    0  0.15441161679E+04 -0.18118555541E+03 -0.12223957077E+04  0.19777194497E+04  0.10100000352E+00 0.  1.
       -3    1    3    3    0  502 -0.15441161679E+04  0.18118555541E+03  0.34882216233E+03  0.15933611821E+04  0.10100000352E+00 0. -1.
</event>
<event>
 5   0  0.4557237E-07  0.3405179E+04  0.7818609E-02  0.8136636E-01
        1   -1    0    0  501    0  0.00000000000E+00  0.00000000000E+00  0.20412330022E+04  0.20412330022E+04  0.50400001928E-02 0. -1.
       -1   -1    0    0    0  501  0.00000000000E+00  0.00000000000E+00 -0.14201277479E+04  0.14201277480E+04  0.50400001928E-02 0.  1.
    10030    2    1    2    0    0  0.00000000000E+00  0.00000000000E+00  0.62110525424E+03  0.34613607501E+04  0.34051793647E+04 0.  0.
        2    1    3    3  502    0 -0.55534396776E+03 -0.14271561741E+04 -0.44578666598E+03  0.15949631405E+04  0.25500000920E-02 0.  1.
       -2    1    3    3    0  502  0.55534396776E+03  0.14271561741E+04  0.10668919202E+04  0.18663976097E+04  0.25500000920E-02 0. -1.
</event>
<event>
 5   0  0.1348388E-06  0.3477840E+04  0.7818609E-02  0.8119062E-01
        2   -1    0    0  501    0  0.00000000000E+00  0.00000000000E+00  0.15595583470E+04  0.15595583470E+04  0.25500000920E-02 0.  1.
       -2   -1    0    0    0  501  0.00000000000E+00  0.00000000000E+00 -0.19389096364E+04  0.19389096364E+04  0.25500000920E-02 0. -1.
    10030    2    1    2    0    0  0.00000000000E+00  0.00000000000E+00 -0.37935128940E+03  0.34984679835E+04  0.34778399662E+04 0.  0.
        5    1    3    3  502    0  0.38528220031E+03  0.11548337764E+04  0.10593561237E+04  0.16137970479E+04  0.46999998093E+01 0.  1.
       -5    1    3    3    0  502 -0.38528220031E+03 -0.11548337764E+04 -0.14387074131E+04  0.18846709356E+04  0.46999998093E+01 0. -1.
</event>
<event>
 5   0  0.1361560E-06  0.3491742E+04  0.7818609E-02  0.8115750E-01
       -2   -1    0    0    0  501  0.00000000000E+00  0.00000000000E+00  0.90376736992E+03  0.90376736992E+03  0.25500000920E-02 0.  1.
        2   -1    0    0  501    0  0.00000000000E+00  0.00000000000E+00 -0.33726220645E+04  0.33726220645E+04  0.25500000920E-02 0. -1.
    10030    2    1    2    0    0  0.00000000000E+00  0.00000000000E+00 -0.24688546946E+04  0.42763894344E+04  0.34917421285E+04 0.  0.
        3    1    3    3  502    0 -0.10540578172E+04 -0.12952810181E+04 -0.18580406589E+04  0.24982205464E+04  0.10100000352E+00 0. -1.
       -3    1    3    3    0  502  0.10540578172E+04  0.12952810181E+04 -0.61081403569E+03  0.17781688881E+04  0.10100000352E+00 0.  1.
</event>
<event>
 5   0  0.4693374E-07  0.3496117E+04  0.7818609E-02  0.8114711E-01
        1   -1    0    0  501    0  0.00000000000E+00  0.00000000000E+00  0.14528865397E+04  0.14528865398E+04  0.50400001928E-02 0.  1.
       -1   -1    0    0    0  501  0.00000000000E+00  0.00000000000E+00 -0.21031979176E+04  0.21031979176E+04  0.50400001928E-02 0. -1.
    10030    2    1    2    0    0  0.00000000000E+00  0.00000000000E+00 -0.65031137789E+03  0.35560844574E+04  0.34961166714E+04 0.  0.
        1    1    3    3  502    0  0.15847710728E+04 -0.19448522530E+03 -0.10489683494E+04  0.19104079287E+04  0.50400001928E-02 0. -1.
       -1    1    3    3    0  502 -0.15847710728E+04  0.19448522530E+03  0.39865697155E+03  0.16456765287E+04  0.50400001928E-02 0.  1.
</event>
<event>
 5   0  0.1387133E-06  0.3738817E+04  0.7818609E-02  0.8059414E-01
       -2   -1    0    0    0  501  0.00000000000E+00  0.00000000000E+00  0.13655387211E+04  0.13655387211E+04  0.25500000920E-02 0.  1.
        2   -1    0    0  501    0  0.00000000000E+00  0.00000000000E+00 -0.25592009370E+04  0.25592009370E+04  0.25500000920E-02 0. -1.
    10030    2    1    2    0    0  0.00000000000E+00  0.00000000000E+00 -0.11936622159E+04  0.39247396582E+04  0.37388169116E+04 0.  0.
        4    1    3    3  502    0 -0.92364758644E+03 -0.13408729376E+04  0.36733178707E+03  0.16691313170E+04  0.12699999809E+01 0.  1.
       -4    1    3    3    0  502  0.92364758644E+03  0.13408729376E+04 -0.15609940029E+04  0.22556083412E+04  0.12699999809E+01 0. -1.
</event>
<event>
 5   0  0.1442864E-06  0.3563445E+04  0.7818609E-02  0.8098917E-01
        2   -1    0    0  501    0  0.00000000000E+00  0.00000000000E+00  0.19778844048E+04  0.19778844048E+04  0.25500000920E-02 0.  1.
       -2   -1    0    0    0  501  0.00000000000E+00  0.00000000000E+00 -0.16050158835E+04  0.16050158835E+04  0.25500000920E-02 0. -1.
    10030    2    1    2    0    0  0.00000000000E+00  0.00000000000E+00  0.37286852129E+03  0.35829002882E+04  0.35634454593E+04 0.  0.
        1    1    3    3  502    0 -0.32191768122E+03  0.17443541095E+04  0.17787691471E+02  0.17738992798E+04  0.50400001928E-02 0. -1.
       -1    1    3    3    0  502  0.32191768122E+03 -0.17443541095E+04  0.35508082982E+03  0.18090010084E+04  0.50400001928E-02 0.  1.
</event>
<event>
 5   0  0.1361560E-06  0.2639373E+04  0.7818609E-02  0.8354949E-01
        2   -1    0    0  501    0  0.00000000000E+00  0.00000000000E+00  0.17858659011E+04  0.17858659011E+04  0.25500000920E-02 0.  1.
       -2   -1    0    0    0  501  0.00000000000E+00  0.00000000000E+00 -0.97519782460E+03  0.97519782461E+03  0.25500000920E-02 0. -1.
    10030    2    1    2    0    0  0.00000000000E+00  0.00000000000E+00  0.81066807653E+03  0.27610637257E+04  0.26393730633E+04 0.  0.
        3    1    3    3  502    0 -0.12230525869E+04 -0.39550018403E+03  0.71793335131E+03  0.14723132591E+04  0.10100000352E+00 0.  1.
       -3    1    3    3    0  502  0.12230525869E+04  0.39550018403E+03  0.92734725216E+02  0.12887504666E+04  0.10100000352E+00 0. -1.
</event>
<event>
 5   0  0.4409125E-07  0.3452148E+04  0.7818609E-02  0.8125225E-01
        1   -1    0    0  501    0  0.00000000000E+00  0.00000000000E+00  0.16568882671E+04  0.16568882672E+04  0.50400001928E-02 0.  1.
       -1   -1    0    0    0  501  0.00000000000E+00  0.00000000000E+00 -0.17981481751E+04  0.17981481751E+04  0.50400001928E-02 0. -1.
    10030    2    1    2    0    0  0.00000000000E+00  0.00000000000E+00 -0.14125990795E+03  0.34550364423E+04  0.34521475136E+04 0.  0.
        5    1    3    3  502    0 -0.54507123283E+02  0.10499675147E+04 -0.14406822825E+04  0.17835331052E+04  0.46999998093E+01 0. -1.
       -5    1    3    3    0  502  0.54507123283E+02 -0.10499675147E+04  0.12994223745E+04  0.16715033370E+04  0.46999998093E+01 0.  1.
</event>
<event>
 5   0  0.4557237E-07  0.3515694E+04  0.7818609E-02  0.8110081E-01
       -1   -1    0    0    0  501  0.00000000000E+00  0.00000000000E+00  0.17645564480E+04  0.17645564480E+04  0.50400001928E-02 0. -1.
        1   -1    0    0  501    0  0.00000000000E+00  0.00000000000E+00 -0.17511634219E+04  0.17511634219E+04  0.50400001928E-02 0.  1.
    10030    2    1    2    0    0  0.00000000000E+00  0.00000000000E+00  0.13393026157E+02  0.35157198699E+04  0.35156943597E+04 0.  0.
        2    1    3    3  502    0  0.11904013789E+04  0.12838115825E+04  0.16417490975E+03  0.17584598440E+04  0.25500000920E-02 0. -1.
       -2    1    3    3    0  502 -0.11904013789E+04 -0.12838115825E+04 -0.15078188359E+03  0.17572600259E+04  0.25500000920E-02 0.  1.
</event>
<event>
 5   0  0.4700769E-07  0.3430698E+04  0.7818609E-02  0.8130413E-01
        1   -1    0    0  501    0  0.00000000000E+00  0.00000000000E+00  0.17817655657E+04  0.17817655658E+04  0.50400001928E-02 0.  1.
       -1   -1    0    0    0  501  0.00000000000E+00  0.00000000000E+00 -0.16514078017E+04  0.16514078017E+04  0.50400001928E-02 0. -1.
    10030    2    1    2    0    0  0.00000000000E+00  0.00000000000E+00  0.13035776405E+03  0.34331733675E+04  0.34306976294E+04 0.  0.
        3    1    3    3  502    0  0.87077991307E+03  0.63453315540E+03 -0.12705245843E+04  0.16658699565E+04  0.10100000352E+00 0. -1.
       -3    1    3    3    0  502 -0.87077991307E+03 -0.63453315540E+03  0.14008823484E+04  0.17673034110E+04  0.10100000352E+00 0.  1.
</event>
<event>
 5   0  0.1378620E-06  0.3558757E+04  0.7818609E-02  0.8100005E-01
       -2   -1    0    0    0  501  0.00000000000E+00  0.00000000000E+00  0.14779862205E+04  0.14779862205E+04  0.25500000920E-02 0.  1.
        2   -1    0    0  501    0  0.00000000000E+00  0.00000000000E+00 -0.21422310740E+04  0.21422310740E+04  0.25500000920E-02 0. -1.
    10030    2    1    2    0    0  0.00000000000E+00  0.00000000000E+00 -0.66424485351E+03  0.36202172945E+04  0.35587570912E+04 0.  0.
        2    1    3    3  502    0 -0.21920703448E+03  0.25640024268E+03  0.14451609309E+04  0.14840090716E+04  0.25500000920E-02 0.  1.
       -2    1    3    3    0  502  0.21920703448E+03 -0.25640024268E+03 -0.21094057844E+04  0.21362082229E+04  0.25500000920E-02 0. -1.
</event>
<event>
 5   0  0.1387133E-06  0.3524032E+04  0.7818609E-02  0.8108118E-01
       -2   -1    0    0    0  501  0.00000000000E+00  0.00000000000E+00  0.11268220872E+04  0.11268220872E+04  0.25500000920E-02 0. -1.
        2   -1    0    0  501    0  0.00000000000E+00  0.00000000000E+00 -0.27552706875E+04  0.27552706875E+04  0.25500000920E-02 0.  1.
    10030    2    1    2    0    0  0.00000000000E+00  0.00000000000E+00 -0.16284486003E+04  0.38820927747E+04  0.35240317064E+04 0.  0.
        4    1    3    3  502    0 -0.57071862963E+03 -0.10477581611E+04 -0.22425701681E+04  0.25402046158E+04  0.12699999809E+01 0.  1.
       -4    1    3    3    0  502  0.57071862963E+03  0.10477581611E+04  0.61412156776E+03  0.13418881590E+04  0.12699999809E+01 0. -1.
</event>
<event>
 5   0  0.4557237E-07  0.3482201E+04  0.7818609E-02  0.8118021E-01
       -1   -1    0    0    0  501  0.00000000000E+00  0.00000000000E+00  0.14267594734E+04  0.14267594734E+04  0.50400001928E-02 0.  1.
        1   -1    0    0  501    0  0.00000000000E+00  0.00000000000E+00 -0.21246963688E+04  0.21246963689E+04  0.50400001928E-02 0. -1.
    10030    2    1    2    0    0  0.00000000000E+00  0.00000000000E+00 -0.69793689544E+03  0.35514558423E+04  0.34822008399E+04 0.  0.
        2    1    3    3  502    0  0.15077981088E+04  0.18452756960E+03 -0.12167280419E+04  0.19462612078E+04  0.25500000920E-02 0. -1.
       -2    1    3    3    0  502 -0.15077981088E+04 -0.18452756960E+03  0.51879114648E+03  0.16051946345E+04  0.25500000920E-02 0.  1.
</event>
<event>
 5   0  0.4409125E-07  0.3487018E+04  0.7818609E-02  0.8116873E-01
        1   -1    0    0  501    0  0.00000000000E+00  0.00000000000E+00  0.24400648916E+04  0.24400648916E+04  0.50400001928E-02 0. -1.
       -1   -1    0    0    0  501  0.00000000000E+00  0.00000000000E+00 -0.12457963339E+04  0.12457963339E+04  0.50400001928E-02 0.  1.
    10030    2    1    2    0    0  0.00000000000E+00  0.00000000000E+00  0.11942685577E+04  0.36858612255E+04  0.34870181510E+04 0.  0.
        5    1    3    3  502    0 -0.54280015041E+03 -0.40218377935E+03 -0.11018216497E+04  0.12924460659E+04  0.46999998093E+01 0.  1.
       -5    1    3    3    0  502  0.54280015041E+03  0.40218377935E+03  0.22960902073E+04  0.23934151595E+04  0.46999998093E+01 0. -1.
</event>
<event>
 5   0  0.4557237E-07  0.3512042E+04  0.7818609E-02  0.8110942E-01
        1   -1    0    0  501    0  0.00000000000E+00  0.00000000000E+00  0.21360461766E+04  0.21360461766E+04  0.50400001928E-02 0.  1.
       -1   -1    0    0    0  501  0.00000000000E+00  0.00000000000E+00 -0.14436067183E+04  0.14436067183E+04  0.50400001928E-02 0. -1.
    10030    2    1    2    0    0  0.00000000000E+00  0.00000000000E+00  0.69243945828E+03  0.35796528950E+04  0.35120424891E+04 0.  0.
        2    1    3    3  502    0 -0.79247374218E+03  0.87225116274E+03  0.16731161954E+04  0.20464981129E+04  0.25500000920E-02 0.  1.
       -2    1    3    3    0  502  0.79247374218E+03 -0.87225116274E+03 -0.98067673712E+03  0.15331547820E+04  0.25500000920E-02 0. -1.
</event>
<event>
 5   0  0.1378620E-06  0.3457951E+04  0.7818609E-02  0.8123828E-01
       -2   -1    0    0    0  501  0.00000000000E+00  0.00000000000E+00  0.18105920781E+04  0.18105920781E+04  0.25500000920E-02 0.  1.
        2   -1    0    0  501    0  0.00000000000E+00  0.00000000000E+00 -0.16510378509E+04  0.16510378509E+04  0.25500000920E-02 0. -1.
    10030    2    1    2    0    0  0.00000000000E+00  0.00000000000E+00  0.15955422722E+03  0.34616299290E+04  0.34579508692E+04 0.  0.
        2    1    3    3  502    0  0.97308848368E+03 -0.13118155006E+04  0.64747388983E+03  0.17569813723E+04  0.25500000920E-02 0.  1.
       -2    1    3    3    0  502 -0.97308848368E+03  0.13118155006E+04 -0.48791966260E+03  0.17046485567E+04  0.25500000920E-02 0. -1.
</event>
<event>
 5   0  0.1361560E-06  0.2908406E+04  0.7818609E-02  0.8270381E-01
       -2   -1    0    0    0  501  0.00000000000E+00  0.00000000000E+00  0.12381630877E+04  0.12381630878E+04  0.25500000920E-02 0.  1.
        2   -1    0    0  501    0  0.00000000000E+00  0.00000000000E+00 -0.17079387430E+04  0.17079387430E+04  0.25500000920E-02 0. -1.
    10030    2    1    2    0    0  0.00000000000E+00  0.00000000000E+00 -0.46977565527E+03  0.29461018308E+04  0.29084062356E+04 0.  0.
        3    1    3    3  502    0 -0.96655281904E+03 -0.73635492083E+03 -0.10441566059E+04  0.16020942385E+04  0.10100000352E+00 0. -1.
       -3    1    3    3    0  502  0.96655281904E+03  0.73635492083E+03  0.57438095058E+03  0.13440075922E+04  0.10100000352E+00 0.  1.
</event>
<event>
 5   0  0.1378620E-06  0.3506183E+04  0.7818609E-02  0.8112326E-01
       -2   -1    0    0    0  501  0.00000000000E+00  0.00000000000E+00  0.13421667998E+04  0.13421667998E+04  0.25500000920E-02 0.  1.
        2   -1    0    0  501    0  0.00000000000E+00  0.00000000000E+00 -0.22898268972E+04  0.22898268972E+04  0.25500000920E-02 0. -1.
    10030    2    1    2    0    0  0.00000000000E+00  0.00000000000E+00 -0.94766009747E+03  0.36319936970E+04  0.35061829038E+04 0.  0.
        2    1    3    3  502    0  0.13979903139E+04  0.10576378501E+04 -0.49334479178E+03  0.18210886369E+04  0.25500000920E-02 0.  1.
       -2    1    3    3    0  502 -0.13979903139E+04 -0.10576378501E+04 -0.45431530569E+03  0.18109050601E+04  0.25500000920E-02 0. -1.
</event>
<event>
 5   0  0.4700769E-07  0.3426172E+04  0.7818609E-02  0.8131513E-01
       -1   -1    0    0    0  501  0.00000000000E+00  0.00000000000E+00  0.11408845025E+04  0.11408845025E+04  0.50400001928E-02 0.  1.
        1   -1    0    0  501    0  0.00000000000E+00  0.00000000000E+00 -0.25722702334E+04  0.25722702334E+04  0.50400001928E-02 0. -1.
    10030    2    1    2    0    0  0.00000000000E+00  0.00000000000E+00 -0.14313857308E+04  0.37131547359E+04  0.34261717678E+04 0.  0.
        3    1    3    3  502    0  0.10566852792E+04 -0.12706960447E+04 -0.12044815600E+04  0.20450007471E+04  0.10100000352E+00 0. -1.
       -3    1    3    3    0  502 -0.10566852792E+04  0.12706960447E+04 -0.22690417085E+03  0.16681539888E+04  0.10100000352E+00 0.  1.
</event>
<event>
 5   0  0.4409125E-07  0.4275532E+04  0.7818609E-02  0.7951158E-01
       -1   -1    0    0    0  501  0.00000000000E+00  0.00000000000E+00  0.24524918436E+04  0.24524918436E+04  0.50400001928E-02 0. -1.
        1   -1    0    0  501    0  0.00000000000E+00  0.00000000000E+00 -0.18634287321E+04  0.18634287321E+04  0.50400001928E-02 0.  1.
    10030    2    1    2    0    0  0.00000000000E+00  0.00000000000E+00  0.58906311152E+03  0.43159205757E+04  0.42755321384E+04 0.  0.
        5    1    3    3  502    0  0.96043764451E+03 -0.40637537322E+03 -0.15892264297E+04  0.19008535314E+04  0.46999998093E+01 0.  1.
       -5    1    3    3    0  502 -0.96043764451E+03  0.40637537322E+03  0.21782895413E+04  0.24150670443E+04  0.46999998093E+01 0. -1.
</event>
<event>
 5   0  0.1348388E-06  0.3550696E+04  0.7818609E-02  0.8101880E-01
       -2   -1    0    0    0  501  0.00000000000E+00  0.00000000000E+00  0.17554634696E+04  0.17554634696E+04  0.25500000920E-02 0. -1.
        2   -1    0    0  501    0  0.00000000000E+00  0.00000000000E+00 -0.17954572898E+04  0.17954572898E+04  0.25500000920E-02 0.  1.
    10030    2    1    2    0    0  0.00000000000E+00  0.00000000000E+00 -0.39993820255E+02  0.35509207594E+04  0.35506955282E+04 0.  0.
        5    1    3    3  502    0  0.10284122554E+04 -0.60114284138E+03 -0.13364516018E+04  0.17902875347E+04  0.46999998093E+01 0.  1.
       -5    1    3    3    0  502 -0.10284122554E+04  0.60114284138E+03  0.12964577815E+04  0.17606332248E+04  0.46999998093E+01 0. -1.
</event>
<event>
 5   0  0.4409125E-07  0.3488890E+04  0.7818609E-02  0.8116428E-01
       -1   -1    0    0    0  501  0.00000000000E+00  0.00000000000E+00  0.11403386679E+04  0.11403386679E+04  0.50400001928E-02 0.  1.
        1   -1    0    0  501    0  0.00000000000E+00  0.00000000000E+00 -0.26685824889E+04  0.26685824889E+04  0.50400001928E-02 0. -1.
    10030    2    1    2    0    0  0.00000000000E+00  0.00000000000E+00 -0.15282438210E+04  0.38089211568E+04  0.34888896804E+04 0.  0.
        5    1    3    3  502    0 -0.77830399488E+03 -0.68364947141E+03  0.76816595959E+03  0.12896645842E+04  0.46999998093E+01 0.  1.
       -5    1    3    3    0  502  0.77830399488E+03  0.68364947141E+03 -0.22964097806E+04  0.25192565726E+04  0.46999998093E+01 0. -1.
</event>
<event>
 5   0  0.4557237E-07  0.2884294E+04  0.7818609E-02  0.8277566E-01
       -1   -1    0    0    0  501  0.00000000000E+00  0.00000000000E+00  0.12867719146E+04  0.12867719146E+04  0.50400001928E-02 0. -1.
        1   -1    0    0  501    0  0.00000000000E+00  0.00000000000E+00 -0.16162836547E+04  0.16162836547E+04  0.50400001928E-02 0.  1.
    10030    2    1    2    0    0  0.00000000000E+00  0.00000000000E+00 -0.32951174007E+03  0.29030555693E+04  0.28842943074E+04 0.  0.
        2    1    3    3  502    0  0.38652354140E+03 -0.86055304892E+03  0.93313558359E+03  0.13269114573E+04  0.25500000920E-02 0. -1.
       -2    1    3    3    0  502 -0.38652354140E+03  0.86055304892E+03 -0.12626473237E+04  0.15761441121E+04  0.25500000920E-02 0.  1.
</event>
<event>
 5   0  0.1348388E-06  0.3727872E+04  0.7818609E-02  0.8061813E-01
       -2   -1    0    0    0  501  0.00000000000E+00  0.00000000000E+00  0.23035928531E+04  0.23035928531E+04  0.25500000920E-02 0. -1.
        2   -1    0    0  501    0  0.00000000000E+00  0.00000000000E+00 -0.15081904146E+04  0.15081904146E+04  0.25500000920E-02 0.  1.
    10030    2    1    2    0    0  0.00000000000E+00  0.00000000000E+00  0.79540243854E+03  0.38117832677E+04  0.37278715966E+04 0.  0.
        5    1    3    3  502    0  0.95843031138E+03  0.32410929753E+03 -0.12029746086E+04  0.15718796066E+04  0.46999998093E+01 0.  1.
       -5    1    3    3    0  502 -0.95843031138E+03 -0.32410929753E+03  0.19983770472E+04  0.22399036611E+04  0.46999998093E+01 0. -1.
</event>
<event>
 5   0  0.4693374E-07  0.3472659E+04  0.7818609E-02  0.8120300E-01
       -1   -1    0    0    0  501  0.00000000000E+00  0.00000000000E+00  0.18037550725E+04  0.18037550726E+04  0.50400001928E-02 0. -1.
        1   -1    0    0  501    0  0.00000000000E+00  0.00000000000E+00 -0.16714243119E+04  0.16714243119E+04  0.50400001928E-02 0.  1.
    10030    2    1    2    0    0  0.00000000000E+00  0.00000000000E+00  0.13233076069E+03  0.34751793844E+04  0.34726589703E+04 0.  0.
        1    1    3    3  502    0 -0.77973489288E+03 -0.11236374657E+04 -0.10043270547E+04  0.16968265941E+04  0.50400001928E-02 0.  1.
       -1    1    3    3    0  502  0.77973489288E+03  0.11236374657E+04  0.11366578154E+04  0.17783527903E+04  0.50400001928E-02 0. -1.
</event>
<event>
 5   0  0.1361560E-06  0.3491280E+04  0.7818609E-02  0.8115859E-01
       -2   -1    0    0    0  501  0.00000000000E+00  0.00000000000E+00  0.14136374839E+04  0.14136374839E+04  0.25500000920E-02 0.  1.
        2   -1    0    0  501    0  0.00000000000E+00  0.00000000000E+00 -0.21556161271E+04  0.21556161271E+04  0.25500000920E-02 0. -1.
    10030    2    1    2    0    0  0.00000000000E+00  0.00000000000E+00 -0.74197864326E+03  0.35692536110E+04  0.34912804288E+04 0.  0.
        3    1    3    3  502    0 -0.24581175458E+02  0.17420148467E+04 -0.25881276883E+03  0.17613074745E+04  0.10100000352E+00 0.  1.
       -3    1    3    3    0  502  0.24581175458E+02 -0.17420148467E+04 -0.48316587443E+03  0.18079461365E+04  0.10100000352E+00 0. -1.
</event>
<event>
 5   0  0.1442864E-06  0.3593271E+04  0.7818609E-02  0.8092035E-01
        2   -1    0    0  501    0  0.00000000000E+00  0.00000000000E+00  0.12372001418E+04  0.12372001418E+04  0.25500000920E-02 0.  1.
       -2   -1    0    0    0  501  0.00000000000E+00  0.00000000000E+00 -0.26090360757E+04  0.26090360757E+04  0.25500000920E-02 0. -1.
    10030    2    1    2    0    0  0.00000000000E+00  0.00000000000E+00 -0.13718359340E+04  0.38462362175E+04  0.35932713801E+04 0.  0.
        1    1    3    3  502    0 -0.37691938085E+03  0.18373438158E+03 -0.25559257396E+04  0.25900932279E+04  0.50400001928E-02 0. -1.
       -1    1    3    3    0  502  0.37691938085E+03 -0.18373438158E+03  0.11840898056E+04  0.12561429897E+04  0.50400001928E-02 0.  1.
</event>
<event>
 5   0  0.1361560E-06  0.3504945E+04  0.7818609E-02  0.8112619E-01
        2   -1    0    0  501    0  0.00000000000E+00  0.00000000000E+00  0.20938444106E+04  0.20938444106E+04  0.25500000920E-02 0.  1.
       -2   -1    0    0    0  501  0.00000000000E+00  0.00000000000E+00 -0.14667568171E+04  0.14667568171E+04  0.25500000920E-02 0. -1.
    10030    2    1    2    0    0  0.00000000000E+00  0.00000000000E+00  0.62708759353E+03  0.35606012277E+04  0.35049453994E+04 0.  0.
        3    1    3    3  502    0 -0.12405815779E+04 -0.65843646301E+03 -0.75123106976E+03  0.15927741075E+04  0.10100000352E+00 0. -1.
       -3    1    3    3    0  502  0.12405815779E+04  0.65843646301E+03  0.13783186633E+04  0.19678271202E+04  0.10100000352E+00 0.  1.
</event>
<event>
 5   0  0.4557237E-07  0.3465980E+04  0.7818609E-02  0.8121900E-01
        1   -1    0    0  501    0  0.00000000000E+00  0.00000000000E+00  0.10443872431E+04  0.10443872431E+04  0.50400001928E-02 0.  1.
       -1   -1    0    0    0  501  0.00000000000E+00  0.00000000000E+00 -0.28756141702E+04  0.28756141702E+04  0.50400001928E-02 0. -1.
    10030    2    1    2    0    0  0.00000000000E+00  0.00000000000E+00 -0.18312269271E+04  0.39200014134E+04  0.34659802397E+04 0.  0.
        2    1    3    3  502    0 -0.34027835098E+03  0.15969649426E+04 -0.25888845430E+03  0.16532119090E+04  0.25500000920E-02 0.  1.
       -2    1    3    3    0  502  0.34027835098E+03 -0.15969649426E+04 -0.15723384728E+04  0.22667895044E+04  0.25500000920E-02 0. -1.
</event>
<event>
 5   0  0.1387133E-06  0.3465094E+04  0.7818609E-02  0.8122112E-01
        2   -1    0    0  501    0  0.00000000000E+00  0.00000000000E+00  0.20684775274E+04  0.20684775274E+04  0.25500000920E-02 0. -1.
       -2   -1    0    0    0  501  0.00000000000E+00  0.00000000000E+00 -0.14511728950E+04  0.14511728950E+04  0.25500000920E-02 0.  1.
    10030    2    1    2    0    0  0.00000000000E+00  0.00000000000E+00  0.61730463239E+03  0.35196504224E+04  0.34650936620E+04 0.  0.
        4    1    3    3  502    0 -0.71373172886E+03 -0.30545318335E+02  0.19119115406E+04  0.20410177239E+04  0.12699999809E+01 0. -1.
       -4    1    3    3    0  502  0.71373172886E+03  0.30545318335E+02 -0.12946069082E+04  0.14786326985E+04  0.12699999809E+01 0.  1.
</event>
<event>
 5   0  0.4409125E-07  0.3577848E+04  0.7818609E-02  0.8095585E-01
       -1   -1    0    0    0  501  0.00000000000E+00  0.00000000000E+00  0.34405339440E+04  0.34405339440E+04  0.50400001928E-02 0.  1.
        1   -1    0    0  501    0  0.00000000000E+00  0.00000000000E+00 -0.93016071416E+03  0.93016071417E+03  0.50400001928E-02 0. -1.
    10030    2    1    2    0    0  0.00000000000E+00  0.00000000000E+00  0.25103732298E+04  0.43706946581E+04  0.35778482419E+04 0.  0.
        5    1    3    3  502    0 -0.13048736594E+04 -0.86835960409E+03  0.23085162242E+04  0.27903427955E+04  0.46999998093E+01 0.  1.
       -5    1    3    3    0  502  0.13048736594E+04  0.86835960409E+03  0.20185700560E+03  0.15803518626E+04  0.46999998093E+01 0. -1.
</event>
<event>
 5   0  0.4557237E-07  0.3580621E+04  0.7818609E-02  0.8094945E-01
        1   -1    0    0  501    0  0.00000000000E+00  0.00000000000E+00  0.22600459182E+04  0.22600459182E+04  0.50400001928E-02 0.  1.
       -1   -1    0    0    0  501  0.00000000000E+00  0.00000000000E+00 -0.14182064901E+04  0.14182064901E+04  0.50400001928E-02 0. -1.
    10030    2    1    2    0    0  0.00000000000E+00  0.00000000000E+00  0.84183942814E+03  0.36782524083E+04  0.35806210574E+04 0.  0.
        2    1    3    3  502    0 -0.19941322736E+03  0.17584245395E+03  0.22396532552E+04  0.22553786616E+04  0.25500000920E-02 0.  1.
       -2    1    3    3    0  502  0.19941322736E+03 -0.17584245395E+03 -0.13978138271E+04  0.14228737467E+04  0.25500000920E-02 0. -1.
</event>
<event>
 5   0  0.4557237E-07  0.3486989E+04  0.7818609E-02  0.8116880E-01
        1   -1    0    0  501    0  0.00000000000E+00  0.00000000000E+00  0.19358696270E+04  0.19358696270E+04  0.50400001928E-02 0.  1.
       -1   -1    0    0    0  501  0.00000000000E+00  0.00000000000E+00 -0.15702361996E+04  0.15702361996E+04  0.50400001928E-02 0. -1.
    10030    2    1    2    0    0  0.00000000000E+00  0.00000000000E+00  0.36563342737E+03  0.35061058266E+04  0.34869887100E+04 0.  0.
        2    1    3    3  502    0 -0.35656240897E+03  0.13813362834E+04  0.11905819410E+04  0.18581474747E+04  0.25500000920E-02 0.  1.
       -2    1    3    3    0  502  0.35656240897E+03 -0.13813362834E+04 -0.82494851364E+03  0.16479583519E+04  0.25500000920E-02 0. -1.
</event>
<event>
 5   0  0.4700769E-07  0.3189784E+04  0.7818609E-02  0.8191520E-01
       -1   -1    0    0    0  501  0.00000000000E+00  0.00000000000E+00  0.22813745724E+04  0.22813745724E+04  0.50400001928E-02 0. -1.
        1   -1    0    0  501    0  0.00000000000E+00  0.00000000000E+00 -0.11149774376E+04  0.11149774376E+04  0.50400001928E-02 0.  1.
    10030    2    1    2    0    0  0.00000000000E+00  0.00000000000E+00  0.11663971348E+04  0.33963520100E+04  0.31897844285E+04 0.  0.
        3    1    3    3  502    0  0.85781038506E+03 -0.77508511404E+03  0.17530222035E+04  0.20999243907E+04  0.10100000352E+00 0. -1.
       -3    1    3    3    0  502 -0.85781038506E+03  0.77508511404E+03 -0.58662506868E+03  0.12964276193E+04  0.10100000352E+00 0.  1.
</event>
<event>
 5   0  0.4409125E-07  0.3669438E+04  0.7818609E-02  0.8074769E-01
        1   -1    0    0  501    0  0.00000000000E+00  0.00000000000E+00  0.19116149975E+04  0.19116149975E+04  0.50400001928E-02 0.  1.
       -1   -1    0    0    0  501  0.00000000000E+00  0.00000000000E+00 -0.17609161147E+04  0.17609161147E+04  0.50400001928E-02 0. -1.
    10030    2    1    2    0    0  0.00000000000E+00  0.00000000000E+00  0.15069888282E+03  0.36725311122E+04  0.36694379157E+04 0.  0.
        5    1    3    3  502    0  0.13071922109E+04 -0.89254746200E+02 -0.12100437684E+04  0.17835206467E+04  0.46999998093E+01 0. -1.
       -5    1    3    3    0  502 -0.13071922109E+04  0.89254746200E+02  0.13607426512E+04  0.18890104655E+04  0.46999998093E+01 0.  1.
</event>
<event>
 5   0  0.1348388E-06  0.2815321E+04  0.7818609E-02  0.8298528E-01
        2   -1    0    0  501    0  0.00000000000E+00  0.00000000000E+00  0.90660007968E+03  0.90660007969E+03  0.25500000920E-02 0. -1.
       -2   -1    0    0    0  501  0.00000000000E+00  0.00000000000E+00 -0.21856470310E+04  0.21856470310E+04  0.25500000920E-02 0.  1.
    10030    2    1    2    0    0  0.00000000000E+00  0.00000000000E+00 -0.12790469513E+04  0.30922471107E+04  0.28153207792E+04 0.  0.
        5    1    3    3  502    0  0.12986762819E+04 -0.39070096170E+03 -0.10538242314E+04  0.17174908813E+04  0.46999998093E+01 0. -1.
       -5    1    3    3    0  502 -0.12986762819E+04  0.39070096170E+03 -0.22522271987E+03  0.13747562294E+04  0.46999998093E+01 0.  1.
</event>
<event>
 5   0  0.4700769E-07  0.3386120E+04  0.7818609E-02  0.8141321E-01
        1   -1    0    0  501    0  0.00000000000E+00  0.00000000000E+00  0.14003316898E+04  0.14003316898E+04  0.50400001928E-02 0.  1.
       -1   -1    0    0    0  501  0.00000000000E+00  0.00000000000E+00 -0.20469811295E+04  0.20469811295E+04  0.50400001928E-02 0. -1.
    10030    2    1    2    0    0  0.00000000000E+00  0.00000000000E+00 -0.64664943965E+03  0.34473128193E+04  0.33861202248E+04 0.  0.
        3    1    3    3  502    0 -0.25113045737E+03  0.16241341081E+04 -0.73758657887E+03  0.18013639497E+04  0.10100000352E+00 0.  1.
       -3    1    3    3    0  502  0.25113045737E+03 -0.16241341081E+04  0.90937139220E+02  0.16459488696E+04  0.10100000352E+00 0. -1.
</event>
<event>
 5   0  0.4409125E-07  0.3451199E+04  0.7818609E-02  0.8125454E-01
       -1   -1    0    0    0  501  0.00000000000E+00  0.00000000000E+00  0.12502652787E+04  0.12502652787E+04  0.50400001928E-02 0. -1.
        1   -1    0    0  501    0  0.00000000000E+00  0.00000000000E+00 -0.23816490557E+04  0.23816490557E+04  0.50400001928E-02 0.  1.
    10030    2    1    2    0    0  0.00000000000E+00  0.00000000000E+00 -0.11313837770E+04  0.36319143344E+04  0.34511987022E+04 0.  0.
        5    1    3    3  502    0 -0.24673895480E+03 -0.11205972633E+04 -0.19219968067E+04  0.22384620062E+04  0.46999998093E+01 0.  1.
       -5    1    3    3    0  502  0.24673895480E+03  0.11205972633E+04  0.79061302969E+03  0.13934523282E+04  0.46999998093E+01 0. -1.
</event>
<event>
 5   0  0.4591195E-07  0.3499544E+04  0.7818609E-02  0.8113898E-01
       -1   -1    0    0    0  501  0.00000000000E+00  0.00000000000E+00  0.18960537165E+04  0.18960537165E+04  0.50400001928E-02 0.  1.
        1   -1    0    0  501    0  0.00000000000E+00  0.00000000000E+00 -0.16147764097E+04  0.16147764097E+04  0.50400001928E-02 0. -1.
    10030    2    1    2    0    0  0.00000000000E+00  0.00000000000E+00  0.28127730678E+03  0.35108301262E+04  0.34995444348E+04 0.  0.
        4    1    3    3  502    0  0.52775629721E+03  0.16553611120E+04  0.34856068660E+03  0.17720731603E+04  0.12699999809E+01 0.  1.
       -4    1    3    3    0  502 -0.52775629721E+03 -0.16553611120E+04 -0.67283379824E+02  0.17387569659E+04  0.12699999809E+01 0. -1.
</event>
<event>
 5   0  0.4557237E-07  0.3418309E+04  0.7818609E-02  0.8133427E-01
       -1   -1    0    0    0  501  0.00000000000E+00  0.00000000000E+00  0.15084915127E+04  0.15084915127E+04  0.50400001928E-02 0.  1.
        1   -1    0    0  501    0  0.00000000000E+00  0.00000000000E+00 -0.19365101622E+04  0.19365101622E+04  0.50400001928E-02 0. -1.
    10030    2    1    2    0    0  0.00000000000E+00  0.00000000000E+00 -0.42801864947E+03  0.34450016749E+04  0.34183090229E+04 0.  0.
        2    1    3    3  502    0  0.12779268255E+04 -0.10981429379E+04 -0.50294346617E+03  0.17583989916E+04  0.25500000920E-02 0. -1.
       -2    1    3    3    0  502 -0.12779268255E+04  0.10981429379E+04  0.74924816706E+02  0.16866026834E+04  0.25500000920E-02 0.  1.
</event>
<event>
 5   0  0.1378620E-06  0.3504073E+04  0.7818609E-02  0.8112825E-01
        2   -1    0    0  501    0  0.00000000000E+00  0.00000000000E+00  0.18479068465E+04  0.18479068465E+04  0.25500000920E-02 0. -1.
       -2   -1    0    0    0  501  0.00000000000E+00  0.00000000000E+00 -0.16611398331E+04  0.16611398331E+04  0.25500000920E-02 0.  1.
    10030    2    1    2    0    0  0.00000000000E+00  0.00000000000E+00  0.18676701336E+03  0.35090466796E+04  0.35040728706E+04 0.  0.
        2    1    3    3  502    0 -0.26349915127E+03 -0.80003032420E+03  0.16318425648E+04  0.18364069480E+04  0.25500000920E-02 0. -1.
       -2    1    3    3    0  502  0.26349915127E+03  0.80003032420E+03 -0.14450755514E+04  0.16726397316E+04  0.25500000920E-02 0.  1.
</event>
<event>
 5   0  0.1361560E-06  0.3517680E+04  0.7818609E-02  0.8109613E-01
        2   -1    0    0  501    0  0.00000000000E+00  0.00000000000E+00  0.12656797828E+04  0.12656797828E+04  0.25500000920E-02 0.  1.
       -2   -1    0    0    0  501  0.00000000000E+00  0.00000000000E+00 -0.24441553191E+04  0.24441553191E+04  0.25500000920E-02 0. -1.
    10030    2    1    2    0    0  0.00000000000E+00  0.00000000000E+00 -0.11784755363E+04  0.37098351018E+04  0.35176799020E+04 0.  0.
        3    1    3    3  502    0 -0.13770834737E+04 -0.38736718648E+03  0.48994140962E+03  0.15121027828E+04  0.10100000352E+00 0.  1.
       -3    1    3    3    0  502  0.13770834737E+04  0.38736718648E+03 -0.16684169459E+04  0.21977323191E+04  0.10100000352E+00 0. -1.
</event>
<event>
 5   0  0.1387133E-06  0.3479955E+04  0.7818609E-02  0.8118557E-01
       -2   -1    0    0    0  501  0.00000000000E+00  0.00000000000E+00  0.11691480229E+04  0.11691480229E+04  0.25500000920E-02 0. -1.
        2   -1    0    0  501    0  0.00000000000E+00  0.00000000000E+00 -0.25895110434E+04  0.25895110434E+04  0.25500000920E-02 0.  1.
    10030    2    1    2    0    0  0.00000000000E+00  0.00000000000E+00 -0.14203630205E+04  0.37586590664E+04  0.34799550093E+04 0.  0.
        4    1    3    3  502    0 -0.91116441168E+03 -0.10070133494E+04 -0.18850593783E+04  0.23233051766E+04  0.12699999809E+01 0.  1.
       -4    1    3    3    0  502  0.91116441168E+03  0.10070133494E+04  0.46469635784E+03  0.14353538897E+04  0.12699999809E+01 0. -1.
</event>
<event>
 5   0  0.4409125E-07  0.3527073E+04  0.7818609E-02  0.8107404E-01
        1   -1    0    0  501    0  0.00000000000E+00  0.00000000000E+00  0.20522132056E+04  0.20522132056E+04  0.50400001928E-02 0. -1.
       -1   -1    0    0    0  501  0.00000000000E+00  0.00000000000E+00 -0.15154668469E+04  0.15154668470E+04  0.50400001928E-02 0.  1.
    10030    2    1    2    0    0  0.00000000000E+00  0.00000000000E+00  0.53674635864E+03  0.35676800525E+04  0.35270730505E+04 0.  0.
        5    1    3    3  502    0  0.17061322069E+04 -0.41548561570E+03  0.43310880504E+03  0.18086239884E+04  0.46999998093E+01 0.  1.
       -5    1    3    3    0  502 -0.17061322069E+04  0.41548561570E+03  0.10363755360E+03  0.17590560642E+04  0.46999998093E+01 0. -1.
</event>
<event>
 5   0  0.1442864E-06  0.3452820E+04  0.7818609E-02  0.8125063E-01
        2   -1    0    0  501    0  0.00000000000E+00  0.00000000000E+00  0.11715464163E+04  0.11715464163E+04  0.25500000920E-02 0.  1.
       -2   -1    0    0    0  501  0.00000000000E+00  0.00000000000E+00 -0.25440655961E+04  0.25440655961E+04  0.25500000920E-02 0. -1.
    10030    2    1    2    0    0  0.00000000000E+00  0.00000000000E+00 -0.13725191798E+04  0.37156120124E+04  0.34528196779E+04 0.  0.
        1    1    3    3  502    0 -0.55003012460E+03 -0.50301705595E+02  0.10739040936E+04  0.12076147572E+04  0.50400001928E-02 0.  1.
       -1    1    3    3    0  502  0.55003012460E+03  0.50301705595E+02 -0.24464232734E+04  0.25079972552E+04  0.50400001928E-02 0. -1.
</event>
<event>
 5   0  0.1348388E-06  0.3434634E+04  0.7818609E-02  0.8129458E-01
       -2   -1    0    0    0  501  0.00000000000E+00  0.00000000000E+00  0.17239068526E+04  0.17239068526E+04  0.25500000920E-02 0.  1.
        2   -1    0    0  501    0  0.00000000000E+00  0.00000000000E+00 -0.17107519999E+04  0.17107519999E+04  0.25500000920E-02 0. -1.
    10030    2    1    2    0    0  0.00000000000E+00  0.00000000000E+00  0.13154852756E+02  0.34346588525E+04  0.34346336607E+04 0.  0.
        5    1    3    3  502    0 -0.73130642764E+03  0.14967976347E+04  0.42364493537E+03  0.17189268081E+04  0.46999998093E+01 0.  1.
       -5    1    3    3    0  502  0.73130642764E+03 -0.14967976347E+04 -0.41049008262E+03  0.17157320444E+04  0.46999998093E+01 0. -1.
</event>
<event>
 5   0  0.4591195E-07  0.2834898E+04  0.7818609E-02  0.8292515E-01
       -1   -1    0    0    0  501  0.00000000000E+00  0.00000000000E+00  0.10404925604E+04  0.10404925604E+04  0.50400001928E-02 0.  1.
        1   -1    0    0  501    0  0.00000000000E+00  0.00000000000E+00 -0.19309716914E+04  0.19309716914E+04  0.50400001928E-02 0. -1.
    10030    2    1    2    0    0  0.00000000000E+00  0.00000000000E+00 -0.89047913101E+03  0.29714642519E+04  0.28348980083E+04 0.  0.
        4    1    3    3  502    0 -0.45435051557E+03 -0.10699483470E+04 -0.12954471316E+04  0.17405196752E+04  0.12699999809E+01 0. -1.
       -4    1    3    3    0  502  0.45435051557E+03  0.10699483470E+04  0.40496800055E+03  0.12309445766E+04  0.12699999809E+01 0.  1.
</event>
<event>
 5   0  0.4557237E-07  0.3492880E+04  0.7818609E-02  0.8115479E-01
        1   -1    0    0  501    0  0.00000000000E+00  0.00000000000E+00  0.20989390524E+04  0.20989390524E+04  0.50400001928E-02 0.  1.
       -1   -1    0    0    0  501  0.00000000000E+00  0.00000000000E+00 -0.14531400878E+04  0.14531400879E+04  0.50400001928E-02 0. -1.
    10030    2    1    2    0    0  0.00000000000E+00  0.00000000000E+00  0.64579896451E+03  0.35520791402E+04  0.34928798885E+04 0.  0.
        2    1    3    3  502    0  0.16776246899E+04 -0.32432021414E+03  0.69019150648E+03  0.18428164632E+04  0.25500000920E-02 0. -1.
       -2    1    3    3    0  502 -0.16776246899E+04  0.32432021414E+03 -0.44392541978E+02  0.17092626770E+04  0.25500000920E-02 0.  1.
</event>
<event>
 5   0  0.4557237E-07  0.3495091E+04  0.7818609E-02  0.8114954E-01
       -1   -1    0    0    0  501  0.00000000000E+00  0.00000000000E+00  0.24117596292E+04  0.24117596292E+04  0.50400001928E-02 0. -1.
        1   -1    0    0  501    0  0.00000000000E+00  0.00000000000E+00 -0.12662602035E+04  0.12662602035E+04  0.50400001928E-02 0.  1.
    10030    2    1    2    0    0  0.00000000000E+00  0.00000000000E+00  0.11454994257E+04  0.36780198328E+04  0.34950909796E+04 0.  0.
        2    1    3    3  502    0 -0.32511876632E+03  0.15742975425E+04 -0.14854411277E+03  0.16143668474E+04  0.25500000920E-02 0.  1.
       -2    1    3    3    0  502  0.32511876632E+03 -0.15742975425E+04  0.12940435385E+04  0.20636529854E+04  0.25500000920E-02 0. -1.
</event>
<event>
 5   0  0.4409125E-07  0.3511831E+04  0.7818609E-02  0.8110992E-01
        1   -1    0    0  501    0  0.00000000000E+00  0.00000000000E+00  0.96356169863E+03  0.96356169865E+03  0.50400001928E-02 0.  1.
       -1   -1    0    0    0  501  0.00000000000E+00  0.00000000000E+00 -0.31998363155E+04  0.31998363155E+04  0.50400001928E-02 0. -1.
    10030    2    1    2    0    0  0.00000000000E+00  0.00000000000E+00 -0.22362746168E+04  0.41633980141E+04  0.35118312690E+04 0.  0.
        5    1    3    3  502    0  0.16740576452E+04  0.20459976222E+03 -0.53869385602E+03  0.17704641263E+04  0.46999998093E+01 0.  1.
       -5    1    3    3    0  502 -0.16740576452E+04 -0.20459976222E+03 -0.16975807608E+04  0.23929338878E+04  0.46999998093E+01 0. -1.
</event>
<event>
 5   0  0.4557237E-07  0.3480806E+04  0.7818609E-02  0.8118354E-01
        1   -1    0    0  501    0  0.00000000000E+00  0.00000000000E+00  0.24449374049E+04  0.24449374049E+04  0.50400001928E-02 0. -1.
       -1   -1    0    0    0  501  0.00000000000E+00  0.00000000000E+00 -0.12388876379E+04  0.12388876379E+04  0.50400001928E-02 0.  1.
    10030    2    1    2    0    0  0.00000000000E+00  0.00000000000E+00  0.12060497670E+04  0.36838250427E+04  0.34808060712E+04 0.  0.
        2    1    3    3  502    0 -0.12907467178E+04  0.18481139982E+03  0.18230037535E+04  0.22413221608E+04  0.25500000920E-02 0. -1.
       -2    1    3    3    0  502  0.12907467178E+04 -0.18481139982E+03 -0.61695398652E+03  0.14425028820E+04  0.25500000920E-02 0.  1.
</event>
<event>
 5   0  0.1378620E-06  0.3581878E+04  0.7818609E-02  0.8094656E-01
        2   -1    0    0  501    0  0.00000000000E+00  0.00000000000E+00  0.20199734241E+04  0.20199734241E+04  0.25500000920E-02 0. -1.
       -2   -1    0    0    0  501  0.00000000000E+00  0.00000000000E+00 -0.15878731823E+04  0.15878731823E+04  0.25500000920E-02 0.  1.
    10030    2    1    2    0    0  0.00000000000E+00  0.00000000000E+00  0.43210024173E+03  0.36078466064E+04  0.35818775128E+04 0.  0.
        2    1    3    3  502    0 -0.75383368919E+03 -0.78824569214E+03 -0.12147646058E+04  0.16325592025E+04  0.25500000920E-02 0.  1.
       -2    1    3    3    0  502  0.75383368919E+03  0.78824569214E+03  0.16468648475E+04  0.19752874039E+04  0.25500000920E-02 0. -1.
</event>
<event>
 5   0  0.1378620E-06  0.3495429E+04  0.7818609E-02  0.8114874E-01
       -2   -1    0    0    0  501  0.00000000000E+00  0.00000000000E+00  0.15885881933E+04  0.15885881933E+04  0.25500000920E-02 0. -1.
        2   -1    0    0  501    0  0.00000000000E+00  0.00000000000E+00 -0.19227798641E+04  0.19227798641E+04  0.25500000920E-02 0.  1.
    10030    2    1    2    0    0  0.00000000000E+00  0.00000000000E+00 -0.33419167080E+03  0.35113680574E+04  0.34954286664E+04 0.  0.
        2    1    3    3  502    0  0.10831401253E+03  0.16107703038E+04  0.50542880325E+03  0.16916770294E+04  0.25500000920E-02 0. -1.
       -2    1    3    3    0  502 -0.10831401253E+03 -0.16107703038E+04 -0.83962047405E+03  0.18196910280E+04  0.25500000920E-02 0.  1.
</event>
<event>
 5   0  0.1361560E-06  0.3510480E+04  0.7818609E-02  0.8111311E-01
        2   -1    0    0  501    0  0.00000000000E+00  0.00000000000E+00  0.24147769182E+04  0.24147769182E+04  0.25500000920E-02 0. -1.
       -2   -1    0    0    0  501  0.00000000000E+00  0.00000000000E+00 -0.12758392356E+04  0.12758392356E+04  0.25500000920E-02 0.  1.
    10030    2    1    2    0    0  0.00000000000E+00  0.00000000000E+00  0.11389376826E+04  0.36906161539E+04  0.35104798177E+04 0.  0.
        3    1    3    3  502    0  0.10229647559E+02  0.74454609892E+03  0.22405002849E+04  0.23609945099E+04  0.10100000352E+00 0. -1.
       -3    1    3    3    0  502 -0.10229647559E+02 -0.74454609892E+03 -0.11015626023E+04  0.13296216439E+04  0.10100000352E+00 0.  1.
</event>
<event>
 5   0  0.4693374E-07  0.3455784E+04  0.7818609E-02  0.8124349E-01
        1   -1    0    0  501    0  0.00000000000E+00  0.00000000000E+00  0.12269915769E+04  0.12269915769E+04  0.50400001928E-02 0.  1.
       -1   -1    0    0    0  501  0.00000000000E+00  0.00000000000E+00 -0.24332771118E+04  0.24332771118E+04  0.50400001928E-02 0. -1.
    10030    2    1    2    0    0  0.00000000000E+00  0.00000000000E+00 -0.12062855349E+04  0.36602686887E+04  0.34557838592E+04 0.  0.
        1    1    3    3  502    0 -0.13008602090E+04 -0.11188536473E+04 -0.81901577873E+03  0.19012778895E+04  0.50400001928E-02 0.  1.
       -1    1    3    3    0  502  0.13008602090E+04  0.11188536473E+04 -0.38726975620E+03  0.17589907992E+04  0.50400001928E-02 0. -1.
</event>
<event>
 5   0  0.4557237E-07  0.3456910E+04  0.7818609E-02  0.8124078E-01
       -1   -1    0    0    0  501  0.00000000000E+00  0.00000000000E+00  0.12973504955E+04  0.12973504955E+04  0.50400001928E-02 0. -1.
        1   -1    0    0  501    0  0.00000000000E+00  0.00000000000E+00 -0.23028133265E+04  0.23028133265E+04  0.50400001928E-02 0.  1.
    10030    2    1    2    0    0  0.00000000000E+00  0.00000000000E+00 -0.10054628310E+04  0.36001638220E+04  0.34569096084E+04 0.  0.
        2    1    3    3  502    0 -0.82878705364E+03  0.14826712684E+04 -0.83591724404E+03  0.18931348894E+04  0.25500000920E-02 0. -1.
       -2    1    3    3    0  502  0.82878705364E+03 -0.14826712684E+04 -0.16954558694E+03  0.17070289326E+04  0.25500000920E-02 0.  1.
</event>
<event>
 5   0  0.4557237E-07  0.3515167E+04  0.7818609E-02  0.8110205E-01
       -1   -1    0    0    0  501  0.00000000000E+00  0.00000000000E+00  0.18086289339E+04  0.18086289339E+04  0.50400001928E-02 0.  1.
        1   -1    0    0  501    0  0.00000000000E+00  0.00000000000E+00 -0.17079787334E+04  0.17079787334E+04  0.50400001928E-02 0. -1.
    10030    2    1    2    0    0  0.00000000000E+00  0.00000000000E+00  0.10065020049E+03  0.35166076673E+04  0.35151669979E+04 0.  0.
        2    1    3    3  502    0 -0.79417632555E+03  0.15644657952E+04  0.15443741886E+03  0.17612836730E+04  0.25500000920E-02 0. -1.
       -2    1    3    3    0  502  0.79417632555E+03 -0.15644657952E+04 -0.53787218372E+02  0.17553239944E+04  0.25500000920E-02 0.  1.
</event>
<event>
 5   0  0.1361560E-06  0.3398459E+04  0.7818609E-02  0.8138285E-01
        2   -1    0    0  501    0  0.00000000000E+00  0.00000000000E+00  0.19419230927E+04  0.19419230927E+04  0.25500000920E-02 0. -1.
       -2   -1    0    0    0  501  0.00000000000E+00  0.00000000000E+00 -0.14868671858E+04  0.14868671858E+04  0.25500000920E-02 0.  1.
    10030    2    1    2    0    0  0.00000000000E+00  0.00000000000E+00  0.45505590691E+03  0.34287902786E+04  0.33984594887E+04 0.  0.
        3    1    3    3  502    0  0.85393714169E+03 -0.12229630245E+04  0.10487546864E+04  0.18233852044E+04  0.10100000352E+00 0. -1.
       -3    1    3    3    0  502 -0.85393714169E+03  0.12229630245E+04 -0.59369877945E+03  0.16054050742E+04  0.10100000352E+00 0.  1.
</event>
<event>
 5   0  0.1378620E-06  0.2697337E+04  0.7818609E-02  0.8335870E-01
        2   -1    0    0  501    0  0.00000000000E+00  0.00000000000E+00  0.89835295241E+03  0.89835295242E+03  0.25500000920E-02 0.  1.
       -2   -1    0    0    0  501  0.00000000000E+00  0.00000000000E+00 -0.20247127943E+04  0.20247127943E+04  0.25500000920E-02 0. -1.
    10030    2    1    2    0    0  0.00000000000E+00  0.00000000000E+00 -0.11263598419E+04  0.29230657467E+04  0.26973369953E+04 0.  0.
        2    1    3    3  502    0 -0.26351439193E+03 -0.61507191915E+02 -0.19949924522E+04  0.20132605032E+04  0.25500000920E-02 0. -1.
       -2    1    3    3    0  502  0.26351439193E+03  0.61507191915E+02  0.86863261032E+03  0.90980524351E+03  0.25500000920E-02 0.  1.
</event>
<event>
 5   0  0.1378620E-06  0.3530120E+04  0.7818609E-02  0.8106689E-01
       -2   -1    0    0    0  501  0.00000000000E+00  0.00000000000E+00  0.19608011600E+04  0.19608011600E+04  0.25500000920E-02 0. -1.
        2   -1    0    0  501    0  0.00000000000E+00  0.00000000000E+00 -0.15888587669E+04  0.15888587669E+04  0.25500000920E-02 0.  1.
    10030    2    1    2    0    0  0.00000000000E+00  0.00000000000E+00  0.37194239307E+03  0.35496599269E+04  0.35301196089E+04 0.  0.
        2    1    3    3  502    0  0.23856584974E+03  0.13329032605E+04 -0.95250232710E+03  0.16555378128E+04  0.25500000920E-02 0.  1.
       -2    1    3    3    0  502 -0.23856584974E+03 -0.13329032605E+04  0.13244447202E+04  0.18941221141E+04  0.25500000920E-02 0. -1.
</event>
<event>
 5   0  0.4591195E-07  0.3445223E+04  0.7818609E-02  0.8126895E-01
        1   -1    0    0  501    0  0.00000000000E+00  0.00000000000E+00  0.29304071270E+04  0.29304071270E+04  0.50400001928E-02 0. -1.
       -1   -1    0    0    0  501  0.00000000000E+00  0.00000000000E+00 -0.10126205814E+04  0.10126205814E+04  0.50400001928E-02 0.  1.
    10030    2    1    2    0    0  0.00000000000E+00  0.00000000000E+00  0.19177865456E+04  0.39430277084E+04  0.34452231096E+04 0.  0.
        4    1    3    3  502    0  0.78112645407E+03  0.13809061470E+04  0.17269216334E+04  0.23450629554E+04  0.12699999809E+01 0.  1.
       -4    1    3    3    0  502 -0.78112645407E+03 -0.13809061470E+04  0.19086491224E+03  0.15979647530E+04  0.12699999809E+01 0. -1.
</event>
<event>
 5   0  0.1442864E-06  0.3488310E+04  0.7818609E-02  0.8116566E-01
        2   -1    0    0  501    0  0.00000000000E+00  0.00000000000E+00  0.25226058684E+04  0.25226058684E+04  0.25500000920E-02 0.  1.
       -2   -1    0    0    0  501  0.00000000000E+00  0.00000000000E+00 -0.12059264485E+04  0.12059264485E+04  0.25500000920E-02 0. -1.
    10030    2    1    2    0    0  0.00000000000E+00  0.00000000000E+00  0.13166794199E+04  0.37285323169E+04  0.34883102705E+04 0.  0.
        1    1    3    3  502    0 -0.37259244980E+03  0.12246452181E+04 -0.60793638681E+03  0.14170983362E+04  0.50400001928E-02 0. -1.
       -1    1    3    3    0  502  0.37259244980E+03 -0.12246452181E+04  0.19246158067E+04  0.23114339807E+04  0.50400001928E-02 0.  1.
</event>
<event>
 5   0  0.1361560E-06  0.3642782E+04  0.7818609E-02  0.8080762E-01
        2   -1    0    0  501    0  0.00000000000E+00  0.00000000000E+00  0.22132829339E+04  0.22132829339E+04  0.25500000920E-02 0. -1.
       -2   -1    0    0    0  501  0.00000000000E+00  0.00000000000E+00 -0.14988890906E+04  0.14988890906E+04  0.25500000920E-02 0.  1.
    10030    2    1    2    0    0  0.00000000000E+00  0.00000000000E+00  0.71439384333E+03  0.37121720244E+04  0.36427822575E+04 0.  0.
        3    1    3    3  502    0 -0.98967520521E+03  0.10292073984E+04 -0.79515766285E+03  0.16343196137E+04  0.10100000352E+00 0.  1.
       -3    1    3    3    0  502  0.98967520521E+03 -0.10292073984E+04  0.15095515062E+04  0.20778524107E+04  0.10100000352E+00 0. -1.
</event>
<event>
 5   0  0.4557237E-07  0.3514245E+04  0.7818609E-02  0.8110422E-01
        1   -1    0    0  501    0  0.00000000000E+00  0.00000000000E+00  0.19587859028E+04  0.19587859028E+04  0.50400001928E-02 0. -1.
       -1   -1    0    0    0  501  0.00000000000E+00  0.00000000000E+00 -0.15762207719E+04  0.15762207719E+04  0.50400001928E-02 0.  1.
    10030    2    1    2    0    0  0.00000000000E+00  0.00000000000E+00  0.38256513098E+03  0.35350066747E+04  0.35142447426E+04 0.  0.
        2    1    3    3  502    0  0.22235287866E+03  0.15504654139E+04 -0.60972289345E+03  0.16808170065E+04  0.25500000920E-02 0.  1.
       -2    1    3    3    0  502 -0.22235287866E+03 -0.15504654139E+04  0.99228802443E+03  0.18541896683E+04  0.25500000920E-02 0. -1.
</event>
<event>
 5   0  0.1361560E-06  0.2954286E+04  0.7818609E-02  0.8256907E-01
        2   -1    0    0  501    0  0.00000000000E+00  0.00000000000E+00  0.16251545350E+04  0.16251545350E+04  0.25500000920E-02 0.  1.
       -2   -1    0    0    0  501  0.00000000000E+00  0.00000000000E+00 -0.13426117490E+04  0.13426117490E+04  0.25500000920E-02 0. -1.
    10030    2    1    2    0    0  0.00000000000E+00  0.00000000000E+00  0.28254278602E+03  0.29677662840E+04  0.29542860881E+04 0.  0.
        3    1    3    3  502    0  0.49180998419E+03  0.39674207147E+03 -0.11999876199E+04  0.13561901157E+04  0.10100000352E+00 0. -1.
       -3    1    3    3    0  502 -0.49180998419E+03 -0.39674207147E+03  0.14825304059E+04  0.16115761683E+04  0.10100000352E+00 0.  1.
</event>
<event>
 5   0  0.1378620E-06  0.3481779E+04  0.7818609E-02  0.8118122E-01
        2   -1    0    0  501    0  0.00000000000E+00  0.00000000000E+00  0.16783814673E+04  0.16783814673E+04  0.25500000920E-02 0.  1.
       -2   -1    0    0    0  501  0.00000000000E+00  0.00000000000E+00 -0.18057254799E+04  0.18057254799E+04  0.25500000920E-02 0. -1.
    10030    2    1    2    0    0  0.00000000000E+00  0.00000000000E+00 -0.12734401261E+03  0.34841069473E+04  0.34817789595E+04 0.  0.
        2    1    3    3  502    0  0.93713367066E+02 -0.15168906095E+04  0.78598750155E+03  0.17109984421E+04  0.25500000920E-02 0. -1.
       -2    1    3    3    0  502 -0.93713367066E+02  0.15168906095E+04 -0.91333151416E+03  0.17731085052E+04  0.25500000920E-02 0.  1.
</event>
<event>
 5   0  0.1348388E-06  0.3527320E+04  0.7818609E-02  0.8107346E-01
       -2   -1    0    0    0  501  0.00000000000E+00  0.00000000000E+00  0.16937451732E+04  0.16937451732E+04  0.25500000920E-02 0. -1.
        2   -1    0    0  501    0  0.00000000000E+00  0.00000000000E+00 -0.18364603823E+04  0.18364603823E+04  0.25500000920E-02 0.  1.
    10030    2    1    2    0    0  0.00000000000E+00  0.00000000000E+00 -0.14271520917E+03  0.35302055555E+04  0.35273196103E+04 0.  0.
        5    1    3    3  502    0 -0.92565281783E+03 -0.14979815526E+04  0.27170629121E+02  0.17611195883E+04  0.46999998093E+01 0.  1.
       -5    1    3    3    0  502  0.92565281783E+03  0.14979815526E+04 -0.16988583829E+03  0.17690859672E+04  0.46999998093E+01 0. -1.
</event>
<event>
 5   0  0.4409125E-07  0.3494045E+04  0.7818609E-02  0.8115203E-01
        1   -1    0    0  501    0  0.00000000000E+00  0.00000000000E+00  0.21902835468E+04  0.21902835468E+04  0.50400001928E-02 0.  1.
       -1   -1    0    0    0  501  0.00000000000E+00  0.00000000000E+00 -0.13934670934E+04  0.13934670934E+04  0.50400001928E-02 0. -1.
    10030    2    1    2    0    0  0.00000000000E+00  0.00000000000E+00  0.79681645339E+03  0.35837506401E+04  0.34940452473E+04 0.  0.
        5    1    3    3  502    0 -0.31784105435E+03 -0.10548928689E+04  0.17890358249E+04  0.21010695309E+04  0.46999998093E+01 0.  1.
       -5    1    3    3    0  502  0.31784105435E+03  0.10548928689E+04 -0.99221937153E+03  0.14826811093E+04  0.46999998093E+01 0. -1.
</event>
<event>
 5   0  0.4409125E-07  0.3660716E+04  0.7818609E-02  0.8076724E-01
       -1   -1    0    0    0  501  0.00000000000E+00  0.00000000000E+00  0.13232588749E+04  0.13232588749E+04  0.50400001928E-02 0.  1.
        1   -1    0    0  501    0  0.00000000000E+00  0.00000000000E+00 -0.25317871120E+04  0.25317871120E+04  0.50400001928E-02 0. -1.
    10030    2    1    2    0    0  0.00000000000E+00  0.00000000000E+00 -0.12085282371E+04  0.38550459869E+04  0.36607156488E+04 0.  0.
        5    1    3    3  502    0 -0.15779152657E+04 -0.43770643077E+03 -0.14654691527E+04  0.21975043647E+04  0.46999998093E+01 0. -1.
       -5    1    3    3    0  502  0.15779152657E+04  0.43770643077E+03  0.25694091558E+03  0.16575416222E+04  0.46999998093E+01 0.  1.
</event>
<event>
 5   0  0.1442864E-06  0.3484175E+04  0.7818609E-02  0.8117550E-01
       -2   -1    0    0    0  501  0.00000000000E+00  0.00000000000E+00  0.19965389093E+04  0.19965389093E+04  0.25500000920E-02 0. -1.
        2   -1    0    0  501    0  0.00000000000E+00  0.00000000000E+00 -0.15200653484E+04  0.15200653484E+04  0.25500000920E-02 0.  1.
    10030    2    1    2    0    0  0.00000000000E+00  0.00000000000E+00  0.47647356098E+03  0.35166042577E+04  0.34841754334E+04 0.  0.
        1    1    3    3  502    0 -0.69939423893E+03  0.14484648142E+04  0.91354342158E+03  0.18498011252E+04  0.50400001928E-02 0. -1.
       -1    1    3    3    0  502  0.69939423893E+03 -0.14484648142E+04 -0.43706986060E+03  0.16668031325E+04  0.50400001928E-02 0.  1.
</event>
<event>
 5   0  0.4591195E-07  0.3492984E+04  0.7818609E-02  0.8115455E-01
        1   -1    0    0  501    0  0.00000000000E+00  0.00000000000E+00  0.94251018903E+03  0.94251018905E+03  0.50400001928E-02 0. -1.
       -1   -1    0    0    0  501  0.00000000000E+00  0.00000000000E+00 -0.32362872420E+04  0.32362872420E+04  0.50400001928E-02 0.  1.
    10030    2    1    2    0    0  0.00000000000E+00  0.00000000000E+00 -0.22937770530E+04  0.41787974311E+04  0.34929836532E+04 0.  0.
        4    1    3    3  502    0 -0.52093587730E+03 -0.39919870987E+03  0.78937214988E+03  0.10265689466E+04  0.12699999809E+01 0. -1.
       -4    1    3    3    0  502  0.52093587730E+03  0.39919870987E+03 -0.30831492029E+04  0.31522284845E+04  0.12699999809E+01 0.  1.
</event>
<event>
 5   0  0.1378620E-06  0.3483590E+04  0.7818609E-02  0.8117690E-01
        2   -1    0    0  501    0  0.00000000000E+00  0.00000000000E+00  0.19447497754E+04  0.19447497754E+04  0.25500000920E-02 0.  1.
       -2   -1    0    0    0  501  0.00000000000E+00  0.00000000000E+00 -0.15600206769E+04  0.15600206769E+04  0.25500000920E-02 0. -1.
    10030    2    1    2    0    0  0.00000000000E+00  0.00000000000E+00  0.38472909857E+03  0.35047704523E+04  0.34835900224E+04 0.  0.
        2    1    3    3  502    0 -0.11349654331E+04  0.51086991482E+03  0.14182619564E+04  0.18869556383E+04  0.25500000920E-02 0.  1.
       -2    1    3    3    0  502  0.11349654331E+04 -0.51086991482E+03 -0.10335328578E+04  0.16178148140E+04  0.25500000920E-02 0. -1.
</event>
<event>
 5   0  0.4693374E-07  0.3503875E+04  0.7818609E-02  0.8112872E-01
        1   -1    0    0  501    0  0.00000000000E+00  0.00000000000E+00  0.14711201085E+04  0.14711201085E+04  0.50400001928E-02 0.  1.
       -1   -1    0    0    0  501  0.00000000000E+00  0.00000000000E+00 -0.20863590134E+04  0.20863590134E+04  0.50400001928E-02 0. -1.
    10030    2    1    2    0    0  0.00000000000E+00  0.00000000000E+00 -0.61523890485E+03  0.35574791219E+04  0.35038748255E+04 0.  0.
        1    1    3    3  502    0  0.44554093332E+03 -0.96998437409E+03  0.11028448951E+04  0.15348105003E+04  0.50400001928E-02 0.  1.
       -1    1    3    3    0  502 -0.44554093332E+03  0.96998437409E+03 -0.17180837999E+04  0.20226686216E+04  0.50400001928E-02 0. -1.
</event>
<event>
 5   0  0.1387133E-06  0.3243460E+04  0.7818609E-02  0.8177433E-01
        2   -1    0    0  501    0  0.00000000000E+00  0.00000000000E+00  0.29730055786E+04  0.29730055786E+04  0.25500000920E-02 0.  1.
       -2   -1    0    0    0  501  0.00000000000E+00  0.00000000000E+00 -0.88462934910E+03  0.88462934910E+03  0.25500000920E-02 0. -1.
    10030    2    1    2    0    0  0.00000000000E+00  0.00000000000E+00  0.20883762295E+04  0.38576349277E+04  0.32434598748E+04 0.  0.
        4    1    3    3  502    0  0.10226382959E+04 -0.12586290360E+04  0.10541562229E+04  0.19342138169E+04  0.12699999809E+01 0.  1.
       -4    1    3    3    0  502 -0.10226382959E+04  0.12586290360E+04  0.10342200066E+04  0.19234211107E+04  0.12699999809E+01 0. -1.
</event>
<event>
 5   0  0.4591195E-07  0.3453431E+04  0.7818609E-02  0.8124916E-01
        1   -1    0    0  501    0  0.00000000000E+00  0.00000000000E+00  0.21692436678E+04  0.21692436678E+04  0.50400001928E-02 0. -1.
       -1   -1    0    0    0  501  0.00000000000E+00  0.00000000000E+00 -0.13744635082E+04  0.13744635082E+04  0.50400001928E-02 0.  1.
    10030    2    1    2    0    0  0.00000000000E+00  0.00000000000E+00  0.79478015966E+03  0.35437071760E+04  0.34534309096E+04 0.  0.
        4    1    3    3  502    0 -0.14949135435E+04 -0.14733343237E+03  0.12711604745E+04  0.19678221992E+04  0.12699999809E+01 0. -1.
       -4    1    3    3    0  502  0.14949135435E+04  0.14733343237E+03 -0.47638031484E+03  0.15758849768E+04  0.12699999809E+01 0.  1.
</event>
<event>
 5   0  0.1348388E-06  0.3517996E+04  0.7818609E-02  0.8109538E-01
       -2   -1    0    0    0  501  0.00000000000E+00  0.00000000000E+00  0.16742011882E+04  0.16742011882E+04  0.25500000920E-02 0.  1.
        2   -1    0    0  501    0  0.00000000000E+00  0.00000000000E+00 -0.18480896654E+04  0.18480896654E+04  0.25500000920E-02 0. -1.
    10030    2    1    2    0    0  0.00000000000E+00  0.00000000000E+00 -0.17388847716E+03  0.35222908536E+04  0.35179959714E+04 0.  0.
        5    1    3    3  502    0  0.83215297069E+03  0.43559520796E+03 -0.15759821543E+04  0.18346562600E+04  0.46999998093E+01 0. -1.
       -5    1    3    3    0  502 -0.83215297069E+03 -0.43559520796E+03  0.14020936771E+04  0.16876345935E+04  0.46999998093E+01 0.  1.
</event>
<event>
 5   0  0.4591195E-07  0.3470515E+04  0.7818609E-02  0.8120813E-01
        1   -1    0    0  501    0  0.00000000000E+00  0.00000000000E+00  0.15470586384E+04  0.15470586385E+04  0.50400001928E-02 0. -1.
       -1   -1    0    0    0  501  0.00000000000E+00  0.00000000000E+00 -0.19463503192E+04  0.19463503192E+04  0.50400001928E-02 0.  1.
    10030    2    1    2    0    0  0.00000000000E+00  0.00000000000E+00 -0.39929168077E+03  0.34934089577E+04  0.34705147023E+04 0.  0.
        4    1    3    3  502    0 -0.57825109764E+03  0.10107343936E+04  0.10953706089E+04  0.15986859385E+04  0.12699999809E+01 0. -1.
       -4    1    3    3    0  502  0.57825109764E+03 -0.10107343936E+04 -0.14946622897E+04  0.18947230192E+04  0.12699999809E+01 0.  1.
</event>
<event>
 5   0  0.4409125E-07  0.3363656E+04  0.7818609E-02  0.8146884E-01
        1   -1    0    0  501    0  0.00000000000E+00  0.00000000000E+00  0.17136807567E+04  0.17136807567E+04  0.50400001928E-02 0.  1.
       -1   -1    0    0    0  501  0.00000000000E+00  0.00000000000E+00 -0.16505677022E+04  0.16505677023E+04  0.50400001928E-02 0. -1.
    10030    2    1    2    0    0  0.00000000000E+00  0.00000000000E+00  0.63113054418E+02  0.33642484589E+04  0.33636564087E+04 0.  0.
        5    1    3    3  502    0  0.15848519799E+03 -0.15028792117E+04  0.76976538914E+03  0.16959729736E+04  0.46999998093E+01 0.  1.
       -5    1    3    3    0  502 -0.15848519799E+03  0.15028792117E+04 -0.70665233472E+03  0.16682754853E+04  0.46999998093E+01 0. -1.
</event>
<event>
 5   0  0.1442864E-06  0.3495973E+04  0.7818609E-02  0.8114745E-01
       -2   -1    0    0    0  501  0.00000000000E+00  0.00000000000E+00  0.13176809029E+04  0.13176809029E+04  0.25500000920E-02 0.  1.
        2   -1    0    0  501    0  0.00000000000E+00  0.00000000000E+00 -0.23188142163E+04  0.23188142163E+04  0.25500000920E-02 0. -1.
    10030    2    1    2    0    0  0.00000000000E+00  0.00000000000E+00 -0.10011333135E+04  0.36364951192E+04  0.34959732323E+04 0.  0.
        1    1    3    3  502    0 -0.17344420871E+04 -0.41350636694E+02 -0.27878788022E+03  0.17571914839E+04  0.50400001928E-02 0.  1.
       -1    1    3    3    0  502  0.17344420871E+04  0.41350636694E+02 -0.72234543326E+03  0.18793036353E+04  0.50400001928E-02 0. -1.
</event>
<event>
 5   0  0.4409125E-07  0.3501071E+04  0.7818609E-02  0.8113536E-01
       -1   -1    0    0    0  501  0.00000000000E+00  0.00000000000E+00  0.14512351710E+04  0.14512351710E+04  0.50400001928E-02 0.  1.
        1   -1    0    0  501    0  0.00000000000E+00  0.00000000000E+00 -0.21115625225E+04  0.21115625225E+04  0.50400001928E-02 0. -1.
    10030    2    1    2    0    0  0.00000000000E+00  0.00000000000E+00 -0.66032735145E+03  0.35627976935E+04  0.35010705782E+04 0.  0.
        5    1    3    3  502    0 -0.69076946263E+03 -0.62263321467E+03 -0.18393886104E+04  0.20611179298E+04  0.46999998093E+01 0. -1.
       -5    1    3    3    0  502  0.69076946263E+03  0.62263321467E+03  0.11790612589E+04  0.15016797637E+04  0.46999998093E+01 0.  1.
</event>
<event>
 5   0  0.1442864E-06  0.3561801E+04  0.7818609E-02  0.8099298E-01
        2   -1    0    0  501    0  0.00000000000E+00  0.00000000000E+00  0.11021554913E+04  0.11021554913E+04  0.25500000920E-02 0.  1.
       -2   -1    0    0    0  501  0.00000000000E+00  0.00000000000E+00 -0.28776401838E+04  0.28776401838E+04  0.25500000920E-02 0. -1.
    10030    2    1    2    0    0  0.00000000000E+00  0.00000000000E+00 -0.17754846925E+04  0.39797956751E+04  0.35618011907E+04 0.  0.
        1    1    3    3  502    0  0.58848384947E+03 -0.78112963819E+03  0.77525182804E+03  0.12479952523E+04  0.50400001928E-02 0.  1.
       -1    1    3    3    0  502 -0.58848384947E+03  0.78112963819E+03 -0.25507365206E+04  0.27318004228E+04  0.50400001928E-02 0. -1.
</event>
<event>
 5   0  0.4700769E-07  0.3497344E+04  0.7818609E-02  0.8114420E-01
       -1   -1    0    0    0  501  0.00000000000E+00  0.00000000000E+00  0.14678130318E+04  0.14678130318E+04  0.50400001928E-02 0.  1.
        1   -1    0    0  501    0  0.00000000000E+00  0.00000000000E+00 -0.20832724715E+04  0.20832724715E+04  0.50400001928E-02 0. -1.
    10030    2    1    2    0    0  0.00000000000E+00  0.00000000000E+00 -0.61545943971E+03  0.35510855033E+04  0.34973444111E+04 0.  0.
        3    1    3    3  502    0  0.16517455542E+04 -0.24681268940E+03 -0.83403293881E+03  0.18667594469E+04  0.10100000352E+00 0. -1.
       -3    1    3    3    0  502 -0.16517455542E+04  0.24681268940E+03  0.21857349910E+03  0.16843260564E+04  0.10100000352E+00 0.  1.
</event>
<event>
 5   0  0.4409125E-07  0.3529051E+04  0.7818609E-02  0.8106940E-01
       -1   -1    0    0    0  501  0.00000000000E+00  0.00000000000E+00  0.11413750332E+04  0.11413750332E+04  0.50400001928E-02 0.  1.
        1   -1    0    0  501    0  0.00000000000E+00  0.00000000000E+00 -0.27278940692E+04  0.27278940692E+04  0.50400001928E-02 0. -1.
    10030    2    1    2    0    0  0.00000000000E+00  0.00000000000E+00 -0.15865190360E+04  0.38692691024E+04  0.35290509680E+04 0.  0.
        5    1    3    3  502    0  0.56027867939E+03  0.24395346775E+03  0.10216476552E+04  0.11904669312E+04  0.46999998093E+01 0.  1.
       -5    1    3    3    0  502 -0.56027867939E+03 -0.24395346775E+03 -0.26081666912E+04  0.26788021712E+04  0.46999998093E+01 0. -1.
</event>
<event>
 5   0  0.1387133E-06  0.3399213E+04  0.7818609E-02  0.8138100E-01
       -2   -1    0    0    0  501  0.00000000000E+00  0.00000000000E+00  0.18737370426E+04  0.18737370426E+04  0.25500000920E-02 0. -1.
        2   -1    0    0  501    0  0.00000000000E+00  0.00000000000E+00 -0.15416581489E+04  0.15416581489E+04  0.25500000920E-02 0.  1.
    10030    2    1    2    0    0  0.00000000000E+00  0.00000000000E+00  0.33207889377E+03  0.34153951915E+04  0.33992128387E+04 0.  0.
        4    1    3    3  502    0 -0.71127425487E+03 -0.31608599015E+03 -0.13520600667E+04  0.15600927715E+04  0.12699999809E+01 0.  1.
       -4    1    3    3    0  502  0.71127425487E+03  0.31608599015E+03  0.16841389604E+04  0.18553024200E+04  0.12699999809E+01 0. -1.
</event>
<event>
 5   0  0.1378620E-06  0.2699678E+04  0.7818609E-02  0.8335109E-01
        2   -1    0    0  501    0  0.00000000000E+00  0.00000000000E+00  0.16930209346E+04  0.16930209346E+04  0.25500000920E-02 0.  1.
       -2   -1    0    0    0  501  0.00000000000E+00  0.00000000000E+00 -0.10762216630E+04  0.10762216630E+04  0.25500000920E-02 0. -1.
    10030    2    1    2    0    0  0.00000000000E+00  0.00000000000E+00  0.61679927158E+03  0.27692425977E+04  0.26996783555E+04 0.  0.
        2    1    3    3  502    0  0.82552902131E+03 -0.19595212640E+03  0.13852946135E+04  0.16244803991E+04  0.25500000920E-02 0.  1.
       -2    1    3    3    0  502 -0.82552902131E+03  0.19595212640E+03 -0.76849534188E+03  0.11447621986E+04  0.25500000920E-02 0. -1.
</event>
<event>
 5   0  0.4591195E-07  0.3375522E+04  0.7818609E-02  0.8143940E-01
       -1   -1    0    0    0  501  0.00000000000E+00  0.00000000000E+00  0.15216627769E+04  0.15216627769E+04  0.50400001928E-02 0. -1.
        1   -1    0    0  501    0  0.00000000000E+00  0.00000000000E+00 -0.18719902122E+04  0.18719902123E+04  0.50400001928E-02 0.  1.
    10030    2    1    2    0    0  0.00000000000E+00  0.00000000000E+00 -0.35032743532E+03  0.33936529892E+04  0.33755223743E+04 0.  0.
        4    1    3    3  502    0 -0.81205838419E+03  0.11993641212E+04  0.69587488674E+03  0.16069090159E+04  0.12699999809E+01 0. -1.
       -4    1    3    3    0  502  0.81205838419E+03 -0.11993641212E+04 -0.10462023221E+04  0.17867439733E+04  0.12699999809E+01 0.  1.
</event>
<event>
 5   0  0.1348388E-06  0.3514612E+04  0.7818609E-02  0.8110336E-01
       -2   -1    0    0    0  501  0.00000000000E+00  0.00000000000E+00  0.13087804540E+04  0.13087804540E+04  0.25500000920E-02 0.  1.
        2   -1    0    0  501    0  0.00000000000E+00  0.00000000000E+00 -0.23595440227E+04  0.23595440227E+04  0.25500000920E-02 0. -1.
    10030    2    1    2    0    0  0.00000000000E+00  0.00000000000E+00 -0.10507635686E+04  0.36683244767E+04  0.35146124095E+04 0.  0.
        5    1    3    3  502    0 -0.24314178091E+03  0.15501939454E+04 -0.13511100770E+04  0.20706858101E+04  0.46999998093E+01 0. -1.
       -5    1    3    3    0  502  0.24314178091E+03 -0.15501939454E+04  0.30034650837E+03  0.15976386666E+04  0.46999998093E+01 0.  1.
</event>
<event>
 5   0  0.4693374E-07  0.3485017E+04  0.7818609E-02  0.8117350E-01
        1   -1    0    0  501    0  0.00000000000E+00  0.00000000000E+00  0.19493727025E+04  0.19493727025E+04  0.50400001928E-02 0.  1.
       -1   -1    0    0    0  501  0.00000000000E+00  0.00000000000E+00 -0.15575968232E+04  0.15575968232E+04  0.50400001928E-02 0. -1.
    10030    2    1    2    0    0  0.00000000000E+00  0.00000000000E+00  0.39177587931E+03  0.35069695257E+04  0.34850174913E+04 0.  0.
        1    1    3    3  502    0  0.38008659145E+03 -0.15309174915E+04  0.94093157503E+03  0.18367162034E+04  0.50400001928E-02 0. -1.
       -1    1    3    3    0  502 -0.38008659145E+03  0.15309174915E+04 -0.54915569572E+03  0.16702533224E+04  0.50400001928E-02 0.  1.
</event>
<event>
 5   0  0.1387133E-06  0.3409596E+04  0.7818609E-02  0.8135555E-01
       -2   -1    0    0    0  501  0.00000000000E+00  0.00000000000E+00  0.18407796123E+04  0.18407796123E+04  0.25500000920E-02 0.  1.
        2   -1    0    0  501    0  0.00000000000E+00  0.00000000000E+00 -0.15788612916E+04  0.15788612916E+04  0.25500000920E-02 0. -1.
    10030    2    1    2    0    0  0.00000000000E+00  0.00000000000E+00  0.26191832064E+03  0.34196409039E+04  0.34095956806E+04 0.  0.
        4    1    3    3  502    0  0.72386959672E+03 -0.47886359886E+03 -0.13406867222E+04  0.15971036408E+04  0.12699999809E+01 0. -1.
       -4    1    3    3    0  502 -0.72386959672E+03  0.47886359886E+03  0.16026050428E+04  0.18225372631E+04  0.12699999809E+01 0.  1.
</event>
<event>
 5   0  0.4557237E-07  0.3479694E+04  0.7818609E-02  0.8118619E-01
       -1   -1    0    0    0  501  0.00000000000E+00  0.00000000000E+00  0.29613744102E+04  0.29613744102E+04  0.50400001928E-02 0. -1.
        1   -1    0    0  501    0  0.00000000000E+00  0.00000000000E+00 -0.10221833884E+04  0.10221833884E+04  0.50400001928E-02 0.  1.
    10030    2    1    2    0    0  0.00000000000E+00  0.00000000000E+00  0.19391910218E+04  0.39835577986E+04  0.34796940836E+04 0.  0.
        2    1    3    3  502    0 -0.14031783060E+04  0.97275456524E+03  0.58663098982E+03  0.18053522429E+04  0.25500000920E-02 0. -1.
       -2    1    3    3    0  502  0.14031783060E+04 -0.97275456524E+03  0.13525600320E+04  0.21782055557E+04  0.25500000920E-02 0.  1.
</event>
<event>
 5   0  0.4557237E-07  0.3442534E+04  0.7818609E-02  0.8127545E-01
       -1   -1    0    0    0  501  0.00000000000E+00  0.00000000000E+00  0.10597271268E+04  0.10597271268E+04  0.50400001928E-02 0. -1.
        1   -1    0    0  501    0  0.00000000000E+00  0.00000000000E+00 -0.27957762174E+04  0.27957762174E+04  0.50400001928E-02 0.  1.
    10030    2    1    2    0    0  0.00000000000E+00  0.00000000000E+00 -0.17360490906E+04  0.38555033442E+04  0.34425338912E+04 0.  0.
        2    1    3    3  502    0  0.15974083569E+04 -0.17119058077E+03 -0.15599938372E+04  0.22393303565E+04  0.25500000920E-02 0.  1.
       -2    1    3    3    0  502 -0.15974083569E+04  0.17119058077E+03 -0.17605525349E+03  0.16161729877E+04  0.25500000920E-02 0. -1.
</event>
<event>
 5   0  0.1378620E-06  0.3452153E+04  0.7818609E-02  0.8125224E-01
        2   -1    0    0  501    0  0.00000000000E+00  0.00000000000E+00  0.18244548095E+04  0.18244548096E+04  0.25500000920E-02 0. -1.
       -2   -1    0    0    0  501  0.00000000000E+00  0.00000000000E+00 -0.16330031029E+04  0.16330031029E+04  0.25500000920E-02 0.  1.
    10030    2    1    2    0    0  0.00000000000E+00  0.00000000000E+00  0.19145170669E+03  0.34574579124E+04  0.34521531629E+04 0.  0.
        2    1    3    3  502    0  0.61303777828E+03 -0.10339123885E+04 -0.11449473412E+04  0.16600284813E+04  0.25500000920E-02 0.  1.
       -2    1    3    3    0  502 -0.61303777828E+03  0.10339123885E+04  0.13363990479E+04  0.17974294311E+04  0.25500000920E-02 0. -1.
</event>
<event>
 5   0  0.4409125E-07  0.3532325E+04  0.7818609E-02  0.8106172E-01
       -1   -1    0    0    0  501  0.00000000000E+00  0.00000000000E+00  0.16582017915E+04  0.16582017915E+04  0.50400001928E-02 0. -1.
        1   -1    0    0  501    0  0.00000000000E+00  0.00000000000E+00 -0.18811525919E+04  0.18811525919E+04  0.50400001928E-02 0.  1.
    10030    2    1    2    0    0  0.00000000000E+00  0.00000000000E+00 -0.22295080041E+03  0.35393543834E+04  0.35323253519E+04 0.  0.
        5    1    3    3  502    0 -0.47371000498E+02 -0.18981044593E+03 -0.18702564269E+04  0.18804662213E+04  0.46999998093E+01 0.  1.
       -5    1    3    3    0  502  0.47371000498E+02  0.18981044593E+03  0.16473056265E+04  0.16588881621E+04  0.46999998093E+01 0. -1.
</event>
<event>
 5   0  0.4693374E-07  0.3554162E+04  0.7818609E-02  0.8101073E-01
       -1   -1    0    0    0  501  0.00000000000E+00  0.00000000000E+00  0.17991619115E+04  0.17991619115E+04  0.50400001928E-02 0. -1.
        1   -1    0    0  501    0  0.00000000000E+00  0.00000000000E+00 -0.17552708768E+04  0.17552708768E+04  0.50400001928E-02 0.  1.
    10030    2    1    2    0    0  0.00000000000E+00  0.00000000000E+00  0.43891034640E+02  0.35544327883E+04  0.35541617892E+04 0.  0.
        1    1    3    3  502    0 -0.58013430871E+03  0.15189285811E+04  0.73915893735E+03  0.17860727268E+04  0.50400001928E-02 0. -1.
       -1    1    3    3    0  502  0.58013430871E+03 -0.15189285811E+04 -0.69526790271E+03  0.17683600615E+04  0.50400001928E-02 0.  1.
</event>
<event>
 5   0  0.4409125E-07  0.3582911E+04  0.7818609E-02  0.8094417E-01
       -1   -1    0    0    0  501  0.00000000000E+00  0.00000000000E+00  0.16643777505E+04  0.16643777505E+04  0.50400001928E-02 0. -1.
        1   -1    0    0  501    0  0.00000000000E+00  0.00000000000E+00 -0.19282357462E+04  0.19282357462E+04  0.50400001928E-02 0.  1.
    10030    2    1    2    0    0  0.00000000000E+00  0.00000000000E+00 -0.26385799567E+03  0.35926134967E+04  0.35829109248E+04 0.  0.
        5    1    3    3  502    0  0.14671472331E+04 -0.34510381511E+03  0.83902840374E+03  0.17249951881E+04  0.46999998093E+01 0.  1.
       -5    1    3    3    0  502 -0.14671472331E+04  0.34510381511E+03 -0.11028863994E+04  0.18676183086E+04  0.46999998093E+01 0. -1.
</event>
<event>
 5   0  0.1378620E-06  0.3461015E+04  0.7818609E-02  0.8123091E-01
       -2   -1    0    0    0  501  0.00000000000E+00  0.00000000000E+00  0.12452169084E+04  0.12452169084E+04  0.25500000920E-02 0. -1.
        2   -1    0    0  501    0  0.00000000000E+00  0.00000000000E+00 -0.24049276422E+04  0.24049276422E+04  0.25500000920E-02 0.  1.
    10030    2    1    2    0    0  0.00000000000E+00  0.00000000000E+00 -0.11597107337E+04  0.36501445506E+04  0.34610152057E+04 0.  0.
        2    1    3    3  502    0 -0.75272928518E+02  0.17078290668E+04 -0.29625484671E+03  0.17349677430E+04  0.25500000920E-02 0. -1.
       -2    1    3    3    0  502  0.75272928518E+02 -0.17078290668E+04 -0.86345588703E+03  0.19151768075E+04  0.25500000920E-02 0.  1.
</event>
<event>
 5   0  0.1378620E-06  0.3276624E+04  0.7818609E-02  0.8168869E-01
        2   -1    0    0  501    0  0.00000000000E+00  0.00000000000E+00  0.19543860509E+04  0.19543860509E+04  0.25500000920E-02 0. -1.
       -2   -1    0    0    0  501  0.00000000000E+00  0.00000000000E+00 -0.13733548762E+04  0.13733548762E+04  0.25500000920E-02 0.  1.
    10030    2    1    2    0    0  0.00000000000E+00  0.00000000000E+00  0.58103117463E+03  0.33277409271E+04  0.32766236360E+04 0.  0.
        2    1    3    3  502    0  0.30180510652E+03 -0.15814671949E+03 -0.13369725387E+04  0.13797073155E+04  0.25500000920E-02 0.  1.
       -2    1    3    3    0  502 -0.30180510652E+03  0.15814671949E+03  0.19180037134E+04  0.19480336115E+04  0.25500000920E-02 0. -1.
</event>
<event>
 5   0  0.4693374E-07  0.3462397E+04  0.7818609E-02  0.8122760E-01
       -1   -1    0    0    0  501  0.00000000000E+00  0.00000000000E+00  0.13884127783E+04  0.13884127783E+04  0.50400001928E-02 0.  1.
        1   -1    0    0  501    0  0.00000000000E+00  0.00000000000E+00 -0.21586151921E+04  0.21586151921E+04  0.50400001928E-02 0. -1.
    10030    2    1    2    0    0  0.00000000000E+00  0.00000000000E+00 -0.77020241386E+03  0.35470279704E+04  0.34623973869E+04 0.  0.
        1    1    3    3  502    0  0.15409350648E+04  0.40648881601E+03 -0.10778964016E+04  0.19239476823E+04  0.50400001928E-02 0. -1.
       -1    1    3    3    0  502 -0.15409350648E+04 -0.40648881601E+03  0.30769398774E+03  0.16230802881E+04  0.50400001928E-02 0.  1.
</event>
<event>
 5   0  0.1361560E-06  0.3490942E+04  0.7818609E-02  0.8115940E-01
        2   -1    0    0  501    0  0.00000000000E+00  0.00000000000E+00  0.31061216540E+04  0.31061216540E+04  0.25500000920E-02 0. -1.
       -2   -1    0    0    0  501  0.00000000000E+00  0.00000000000E+00 -0.98085927796E+03  0.98085927796E+03  0.25500000920E-02 0.  1.
    10030    2    1    2    0    0  0.00000000000E+00  0.00000000000E+00  0.21252623760E+04  0.40869809320E+04  0.34909415594E+04 0.  0.
        3    1    3    3  502    0 -0.84949824525E+03 -0.39629081342E+03 -0.66116979222E+03  0.11471003364E+04  0.10100000352E+00 0.  1.
       -3    1    3    3    0  502  0.84949824525E+03  0.39629081342E+03  0.27864321683E+04  0.29398805955E+04  0.10100000352E+00 0. -1.
</event>
<event>
 5   0  0.1361560E-06  0.3413563E+04  0.7818609E-02  0.8134586E-01
       -2   -1    0    0    0  501  0.00000000000E+00  0.00000000000E+00  0.15807907002E+04  0.15807907002E+04  0.25500000920E-02 0. -1.
        2   -1    0    0  501    0  0.00000000000E+00  0.00000000000E+00 -0.18428140028E+04  0.18428140028E+04  0.25500000920E-02 0.  1.
    10030    2    1    2    0    0  0.00000000000E+00  0.00000000000E+00 -0.26202330265E+03  0.34236047030E+04  0.34135630873E+04 0.  0.
        3    1    3    3  502    0  0.11291950269E+03 -0.52791768935E+03  0.14929040373E+04  0.15875170473E+04  0.10100000352E+00 0. -1.
       -3    1    3    3    0  502 -0.11291950269E+03  0.52791768935E+03 -0.17549273399E+04  0.18360876557E+04  0.10100000352E+00 0.  1.
</event>
<event>
 5   0  0.1387133E-06  0.3493762E+04  0.7818609E-02  0.8115270E-01
       -2   -1    0    0    0  501  0.00000000000E+00  0.00000000000E+00  0.11476488047E+04  0.11476488047E+04  0.25500000920E-02 0. -1.
        2   -1    0    0  501    0  0.00000000000E+00  0.00000000000E+00 -0.26589963125E+04  0.26589963125E+04  0.25500000920E-02 0.  1.
    10030    2    1    2    0    0  0.00000000000E+00  0.00000000000E+00 -0.15113475079E+04  0.38066451172E+04  0.34937624074E+04 0.  0.
        4    1    3    3  502    0  0.84670062785E+03  0.73618656716E+03  0.70315804077E+03  0.13241244119E+04  0.12699999809E+01 0. -1.
       -4    1    3    3    0  502 -0.84670062785E+03 -0.73618656716E+03 -0.22145055486E+04  0.24825207054E+04  0.12699999809E+01 0.  1.
</event>
<event>
 5   0  0.4591195E-07  0.3545219E+04  0.7818609E-02  0.8103156E-01
       -1   -1    0    0    0  501  0.00000000000E+00  0.00000000000E+00  0.12304154637E+04  0.12304154637E+04  0.50400001928E-02 0.  1.
        1   -1    0    0  501    0  0.00000000000E+00  0.00000000000E+00 -0.25537269486E+04  0.25537269486E+04  0.50400001928E-02 0. -1.
    10030    2    1    2    0    0  0.00000000000E+00  0.00000000000E+00 -0.13233114849E+04  0.37841424123E+04  0.35452193882E+04 0.  0.
        4    1    3    3  502    0 -0.80036499334E+03 -0.59063001510E+03 -0.22277492288E+04  0.24397328085E+04  0.12699999809E+01 0. -1.
       -4    1    3    3    0  502  0.80036499334E+03  0.59063001510E+03  0.90443774394E+03  0.13444096038E+04  0.12699999809E+01 0.  1.
</event>
<event>
 5   0  0.4591195E-07  0.2860300E+04  0.7818609E-02  0.8284788E-01
        1   -1    0    0  501    0  0.00000000000E+00  0.00000000000E+00  0.13394406230E+04  0.13394406230E+04  0.50400001928E-02 0. -1.
       -1   -1    0    0    0  501  0.00000000000E+00  0.00000000000E+00 -0.15270020258E+04  0.15270020258E+04  0.50400001928E-02 0.  1.
    10030    2    1    2    0    0  0.00000000000E+00  0.00000000000E+00 -0.18756140282E+03  0.28664426488E+04  0.28602996660E+04 0.  0.
        4    1    3    3  502    0  0.11802574245E+04  0.55029752257E+03  0.49866742306E+03  0.13944553643E+04  0.12699999809E+01 0. -1.
       -4    1    3    3    0  502 -0.11802574245E+04 -0.55029752257E+03 -0.68622882588E+03  0.14719872845E+04  0.12699999809E+01 0.  1.
</event>
<event>
 5   0  0.1348388E-06  0.3483287E+04  0.7818609E-02  0.8117762E-01
        2   -1    0    0  501    0  0.00000000000E+00  0.00000000000E+00  0.10350936648E+04  0.10350936648E+04  0.25500000920E-02 0.  1.
       -2   -1    0    0    0  501  0.00000000000E+00  0.00000000000E+00 -0.29304806984E+04  0.29304806984E+04  0.25500000920E-02 0. -1.
    10030    2    1    2    0    0  0.00000000000E+00  0.00000000000E+00 -0.18953870337E+04  0.39655743632E+04  0.34832869567E+04 0.  0.
        5    1    3    3  502    0 -0.15931243463E+04  0.19904396876E+03 -0.17161618400E+04  0.23500845167E+04  0.46999998093E+01 0. -1.
       -5    1    3    3    0  502  0.15931243463E+04 -0.19904396876E+03 -0.17922519363E+03  0.16154898465E+04  0.46999998093E+01 0.  1.
</event>
<event>
 5   0  0.4591195E-07  0.3449955E+04  0.7818609E-02  0.8125753E-01
       -1   -1    0    0    0  501  0.00000000000E+00  0.00000000000E+00  0.13917832525E+04  0.13917832525E+04  0.50400001928E-02 0.  1.
        1   -1    0    0  501    0  0.00000000000E+00  0.00000000000E+00 -0.21379387958E+04  0.21379387958E+04  0.50400001928E-02 0. -1.
    10030    2    1    2    0    0  0.00000000000E+00  0.00000000000E+00 -0.74615554326E+03  0.35297220483E+04  0.34499550205E+04 0.  0.
        4    1    3    3  502    0  0.17060293805E+03 -0.10580568465E+04 -0.17559789163E+04  0.20571954745E+04  0.12699999809E+01 0. -1.
       -4    1    3    3    0  502 -0.17060293805E+03  0.10580568465E+04  0.10098233730E+04  0.14725265738E+04  0.12699999809E+01 0.  1.
</event>
<event>
 5   0  0.1361560E-06  0.3449050E+04  0.7818609E-02  0.8125972E-01
       -2   -1    0    0    0  501  0.00000000000E+00  0.00000000000E+00  0.14019494577E+04  0.14019494577E+04  0.25500000920E-02 0.  1.
        2   -1    0    0  501    0  0.00000000000E+00  0.00000000000E+00 -0.21213226804E+04  0.21213226804E+04  0.25500000920E-02 0. -1.
    10030    2    1    2    0    0  0.00000000000E+00  0.00000000000E+00 -0.71937322271E+03  0.35232721381E+04  0.34490504093E+04 0.  0.
        3    1    3    3  502    0 -0.94926127775E+02 -0.42748729443E+03 -0.20635831702E+04  0.21095335662E+04  0.10100000352E+00 0. -1.
       -3    1    3    3    0  502  0.94926127775E+02  0.42748729443E+03  0.13442099475E+04  0.14137385719E+04  0.10100000352E+00 0.  1.
</event>
<event>
 5   0  0.1348388E-06  0.2783128E+04  0.7818609E-02  0.8308526E-01
       -2   -1    0    0    0  501  0.00000000000E+00  0.00000000000E+00  0.19828909920E+04  0.19828909920E+04  0.25500000920E-02 0.  1.
        2   -1    0    0  501    0  0.00000000000E+00  0.00000000000E+00 -0.97657929850E+03  0.97657929850E+03  0.25500000920E-02 0. -1.
    10030    2    1    2    0    0  0.00000000000E+00  0.00000000000E+00  0.10063116935E+04  0.29594702905E+04  0.27831279482E+04 0.  0.
        5    1    3    3  502    0 -0.89018557948E+03  0.88872342786E+03  0.11359839861E+04  0.16949163412E+04  0.46999998093E+01 0.  1.
       -5    1    3    3    0  502  0.89018557948E+03 -0.88872342786E+03 -0.12967229259E+03  0.12645539493E+04  0.46999998093E+01 0. -1.
</event>
<event>
 5   0  0.4591195E-07  0.3452294E+04  0.7818609E-02  0.8125190E-01
       -1   -1    0    0    0  501  0.00000000000E+00  0.00000000000E+00  0.18738441880E+04  0.18738441880E+04  0.50400001928E-02 0.  1.
        1   -1    0    0  501    0  0.00000000000E+00  0.00000000000E+00 -0.15900911155E+04  0.15900911155E+04  0.50400001928E-02 0. -1.
    10030    2    1    2    0    0  0.00000000000E+00  0.00000000000E+00  0.28375307243E+03  0.34639353035E+04  0.34522937275E+04 0.  0.
        4    1    3    3  502    0 -0.27133980271E+03 -0.26115968350E+03 -0.15483667912E+04  0.15935090215E+04  0.12699999809E+01 0. -1.
       -4    1    3    3    0  502  0.27133980271E+03  0.26115968350E+03  0.18321198636E+04  0.18704262820E+04  0.12699999809E+01 0.  1.
</event>
<event>
 5   0  0.4700769E-07  0.3118086E+04  0.7818609E-02  0.8210792E-01
        1   -1    0    0  501    0  0.00000000000E+00  0.00000000000E+00  0.26126242003E+04  0.26126242003E+04  0.50400001928E-02 0.  1.
       -1   -1    0    0    0  501  0.00000000000E+00  0.00000000000E+00 -0.93033451271E+03  0.93033451273E+03  0.50400001928E-02 0. -1.
    10030    2    1    2    0    0  0.00000000000E+00  0.00000000000E+00  0.16822896876E+04  0.35429587130E+04  0.31180856065E+04 0.  0.
        3    1    3    3  502    0 -0.15663565040E+03 -0.12046585636E+04  0.19514743479E+04  0.22986929161E+04  0.10100000352E+00 0.  1.
       -3    1    3    3    0  502  0.15663565040E+03  0.12046585636E+04 -0.26918466035E+03  0.12442657969E+04  0.10100000352E+00 0. -1.
</event>
<event>
 5   0  0.4591195E-07  0.3528920E+04  0.7818609E-02  0.8106970E-01
        1   -1    0    0  501    0  0.00000000000E+00  0.00000000000E+00  0.28265503325E+04  0.28265503325E+04  0.50400001928E-02 0. -1.
       -1   -1    0    0    0  501  0.00000000000E+00  0.00000000000E+00 -0.11014553066E+04  0.11014553066E+04  0.50400001928E-02 0.  1.
    10030    2    1    2    0    0  0.00000000000E+00  0.00000000000E+00  0.17250950259E+04  0.39280056390E+04  0.35289198704E+04 0.  0.
        4    1    3    3  502    0  0.28902573833E+03  0.53560883985E+03  0.27060157214E+04  0.27736141411E+04  0.12699999809E+01 0. -1.
       -4    1    3    3    0  502 -0.28902573833E+03 -0.53560883985E+03 -0.98092069546E+03  0.11543914979E+04  0.12699999809E+01 0.  1.
</event>
<event>
 5   0  0.1348388E-06  0.3373158E+04  0.7818609E-02  0.8144526E-01
        2   -1    0    0  501    0  0.00000000000E+00  0.00000000000E+00  0.24933709851E+04  0.24933709851E+04  0.25500000920E-02 0.  1.
       -2   -1    0    0    0  501  0.00000000000E+00  0.00000000000E+00 -0.11408446708E+04  0.11408446708E+04  0.25500000920E-02 0. -1.
    10030    2    1    2    0    0  0.00000000000E+00  0.00000000000E+00  0.13525263144E+04  0.36342156559E+04  0.33731581645E+04 0.  0.
        5    1    3    3  502    0 -0.15684051141E+04 -0.44887541611E+03  0.21519051647E+03  0.16455129259E+04  0.46999998093E+01 0. -1.
       -5    1    3    3    0  502  0.15684051141E+04  0.44887541611E+03  0.11373357979E+04  0.19887027300E+04  0.46999998093E+01 0.  1.
</event>
<event>
 5   0  0.4591195E-07  0.3523029E+04  0.7818609E-02  0.8108354E-01
       -1   -1    0    0    0  501  0.00000000000E+00  0.00000000000E+00  0.12311812430E+04  0.12311812430E+04  0.50400001928E-02 0. -1.
        1   -1    0    0  501    0  0.00000000000E+00  0.00000000000E+00 -0.25202895046E+04  0.25202895046E+04  0.50400001928E-02 0.  1.
    10030    2    1    2    0    0  0.00000000000E+00  0.00000000000E+00 -0.12891082616E+04  0.37514707476E+04  0.35230289042E+04 0.  0.
        4    1    3    3  502    0 -0.14651741913E+04  0.73364302505E+03  0.43868001120E+02  0.16391746440E+04  0.12699999809E+01 0. -1.
       -4    1    3    3    0  502  0.14651741913E+04 -0.73364302505E+03 -0.13329762627E+04  0.21122961036E+04  0.12699999809E+01 0.  1.
</event>
<event>
 5   0  0.4557237E-07  0.3445222E+04  0.7818609E-02  0.8126896E-01
        1   -1    0    0  501    0  0.00000000000E+00  0.00000000000E+00  0.19975712095E+04  0.19975712095E+04  0.50400001928E-02 0. -1.
       -1   -1    0    0    0  501  0.00000000000E+00  0.00000000000E+00 -0.14854983361E+04  0.14854983361E+04  0.50400001928E-02 0.  1.
    10030    2    1    2    0    0  0.00000000000E+00  0.00000000000E+00  0.51207287334E+03  0.34830695456E+04  0.34452220294E+04 0.  0.
        2    1    3    3  502    0  0.10122520575E+04  0.41537928244E+03  0.16011390855E+04  0.19392886704E+04  0.25500000920E-02 0. -1.
       -2    1    3    3    0  502 -0.10122520575E+04 -0.41537928244E+03 -0.10890662121E+04  0.15437808752E+04  0.25500000920E-02 0.  1.
</event>
<event>
 5   0  0.4409125E-07  0.2909043E+04  0.7818609E-02  0.8270192E-01
        1   -1    0    0  501    0  0.00000000000E+00  0.00000000000E+00  0.21411827360E+04  0.21411827360E+04  0.50400001928E-02 0. -1.
       -1   -1    0    0    0  501  0.00000000000E+00  0.00000000000E+00 -0.98806729738E+03  0.98806729739E+03  0.50400001928E-02 0.  1.
    10030    2    1    2    0    0  0.00000000000E+00  0.00000000000E+00  0.11531154386E+04  0.31292500334E+04  0.29090428936E+04 0.  0.
        5    1    3    3  502    0  0.21249371646E+02  0.66884680135E+03 -0.81263504313E+03  0.10527133431E+04  0.46999998093E+01 0.  1.
       -5    1    3    3    0  502 -0.21249371646E+02 -0.66884680135E+03  0.19657504817E+04  0.20765366902E+04  0.46999998093E+01 0. -1.
</event>
<event>
 5   0  0.1378620E-06  0.3270973E+04  0.7818609E-02  0.8170321E-01
       -2   -1    0    0    0  501  0.00000000000E+00  0.00000000000E+00  0.16411769198E+04  0.16411769198E+04  0.25500000920E-02 0. -1.
        2   -1    0    0  501    0  0.00000000000E+00  0.00000000000E+00 -0.16298161918E+04  0.16298161918E+04  0.25500000920E-02 0.  1.
    10030    2    1    2    0    0  0.00000000000E+00  0.00000000000E+00  0.11360728049E+02  0.32709931116E+04  0.32709733827E+04 0.  0.
        2    1    3    3  502    0  0.31499587508E+03  0.15438280056E+04 -0.43271640113E+03  0.16339739276E+04  0.25500000920E-02 0.  1.
       -2    1    3    3    0  502 -0.31499587508E+03 -0.15438280056E+04  0.44407712918E+03  0.16370191840E+04  0.25500000920E-02 0. -1.
</event>
<event>
 5   0  0.1387133E-06  0.3583232E+04  0.7818609E-02  0.8094343E-01
        2   -1    0    0  501    0  0.00000000000E+00  0.00000000000E+00  0.30292137892E+04  0.30292137892E+04  0.25500000920E-02 0. -1.
       -2   -1    0    0    0  501  0.00000000000E+00  0.00000000000E+00 -0.10596438146E+04  0.10596438147E+04  0.25500000920E-02 0.  1.
    10030    2    1    2    0    0  0.00000000000E+00  0.00000000000E+00  0.19695699745E+04  0.40888576038E+04  0.35832318680E+04 0.  0.
        4    1    3    3  502    0  0.80856593805E+03 -0.12055015499E+04  0.21831520447E+04  0.26216726200E+04  0.12699999809E+01 0. -1.
       -4    1    3    3    0  502 -0.80856593805E+03  0.12055015499E+04 -0.21358207023E+03  0.14671849838E+04  0.12699999809E+01 0.  1.
</event>
<event>
 5   0  0.1361560E-06  0.3475305E+04  0.7818609E-02  0.8119667E-01
       -2   -1    0    0    0  501  0.00000000000E+00  0.00000000000E+00  0.30850114491E+04  0.30850114491E+04  0.25500000920E-02 0.  1.
        2   -1    0    0  501    0  0.00000000000E+00  0.00000000000E+00 -0.97874378091E+03  0.97874378091E+03  0.25500000920E-02 0. -1.
    10030    2    1    2    0    0  0.00000000000E+00  0.00000000000E+00  0.21062676682E+04  0.40637552300E+04  0.34753047463E+04 0.  0.
        3    1    3    3  502    0  0.11780782371E+04  0.90790666155E+03  0.25158265728E+01  0.14873362695E+04  0.10100000352E+00 0. -1.
       -3    1    3    3    0  502 -0.11780782371E+04 -0.90790666155E+03  0.21037518416E+04  0.25764189606E+04  0.10100000352E+00 0.  1.
</event>
<event>
 5   0  0.4693374E-07  0.3491851E+04  0.7818609E-02  0.8115724E-01
       -1   -1    0    0    0  501  0.00000000000E+00  0.00000000000E+00  0.28098345243E+04  0.28098345243E+04  0.50400001928E-02 0. -1.
        1   -1    0    0  501    0  0.00000000000E+00  0.00000000000E+00 -0.10848525224E+04  0.10848525224E+04  0.50400001928E-02 0.  1.
    10030    2    1    2    0    0  0.00000000000E+00  0.00000000000E+00  0.17249820019E+04  0.38946870467E+04  0.34918511258E+04 0.  0.
        1    1    3    3  502    0 -0.14902562953E+04 -0.81285415663E+03  0.40715392745E+03  0.17456717980E+04  0.50400001928E-02 0.  1.
       -1    1    3    3    0  502  0.14902562953E+04  0.81285415663E+03  0.13178280744E+04  0.21490152487E+04  0.50400001928E-02 0. -1.
</event>
<event>
 5   0  0.4700769E-07  0.3687867E+04  0.7818609E-02  0.8070656E-01
        1   -1    0    0  501    0  0.00000000000E+00  0.00000000000E+00  0.14305951832E+04  0.14305951832E+04  0.50400001928E-02 0. -1.
       -1   -1    0    0    0  501  0.00000000000E+00  0.00000000000E+00 -0.23766965552E+04  0.23766965552E+04  0.50400001928E-02 0.  1.
    10030    2    1    2    0    0  0.00000000000E+00  0.00000000000E+00 -0.94610137200E+03  0.38072917385E+04  0.36878669412E+04 0.  0.
        3    1    3    3  502    0 -0.99190454876E+03 -0.82833879561E+03 -0.18309665319E+04  0.22410841674E+04  0.10100000352E+00 0.  1.
       -3    1    3    3    0  502  0.99190454876E+03  0.82833879561E+03  0.88486515993E+03  0.15662075711E+04  0.10100000352E+00 0. -1.
</event>
<event>
 5   0  0.4409125E-07  0.3349599E+04  0.7818609E-02  0.8150388E-01
       -1   -1    0    0    0  501  0.00000000000E+00  0.00000000000E+00  0.20902935393E+04  0.20902935393E+04  0.50400001928E-02 0.  1.
        1   -1    0    0  501    0  0.00000000000E+00  0.00000000000E+00 -0.13418946196E+04  0.13418946196E+04  0.50400001928E-02 0. -1.
    10030    2    1    2    0    0  0.00000000000E+00  0.00000000000E+00  0.74839891968E+03  0.34321881590E+04  0.33495991724E+04 0.  0.
        5    1    3    3  502    0 -0.10623300455E+04 -0.22703295391E+03 -0.93192294707E+03  0.14312901722E+04  0.46999998093E+01 0. -1.
       -5    1    3    3    0  502  0.10623300455E+04  0.22703295391E+03  0.16803218668E+04  0.20008979868E+04  0.46999998093E+01 0.  1.
</event>
<event>
 5   0  0.4409125E-07  0.3275000E+04  0.7818609E-02  0.8169286E-01
       -1   -1    0    0    0  501  0.00000000000E+00  0.00000000000E+00  0.10955288904E+04  0.10955288904E+04  0.50400001928E-02 0. -1.
        1   -1    0    0  501    0  0.00000000000E+00  0.00000000000E+00 -0.24475913116E+04  0.24475913116E+04  0.50400001928E-02 0.  1.
    10030    2    1    2    0    0  0.00000000000E+00  0.00000000000E+00 -0.13520624212E+04  0.35431202020E+04  0.32750004542E+04 0.  0.
        5    1    3    3  502    0 -0.11825830917E+04 -0.89734513307E+03  0.71675299009E+02  0.14862336610E+04  0.46999998093E+01 0. -1.
       -5    1    3    3    0  502  0.11825830917E+04  0.89734513307E+03 -0.14237377202E+04  0.20568865410E+04  0.46999998093E+01 0.  1.
</event>
<event>
 5   0  0.1378620E-06  0.3684388E+04  0.7818609E-02  0.8071430E-01
        2   -1    0    0  501    0  0.00000000000E+00  0.00000000000E+00  0.17525742807E+04  0.17525742807E+04  0.25500000920E-02 0.  1.
       -2   -1    0    0    0  501  0.00000000000E+00  0.00000000000E+00 -0.19363969330E+04  0.19363969330E+04  0.25500000920E-02 0. -1.
    10030    2    1    2    0    0  0.00000000000E+00  0.00000000000E+00 -0.18382265235E+03  0.36889712137E+04  0.36843883954E+04 0.  0.
        2    1    3    3  502    0 -0.16146086422E+04  0.81131582300E+03 -0.45080526663E+03  0.18623694103E+04  0.25500000920E-02 0. -1.
       -2    1    3    3    0  502  0.16146086422E+04 -0.81131582300E+03  0.26698261428E+03  0.18266018034E+04  0.25500000920E-02 0.  1.
</event>
<event>
 5   0  0.1378620E-06  0.3548098E+04  0.7818609E-02  0.8102485E-01
       -2   -1    0    0    0  501  0.00000000000E+00  0.00000000000E+00  0.18756842013E+04  0.18756842013E+04  0.25500000920E-02 0. -1.
        2   -1    0    0  501    0  0.00000000000E+00  0.00000000000E+00 -0.16779212337E+04  0.16779212337E+04  0.25500000920E-02 0.  1.
    10030    2    1    2    0    0  0.00000000000E+00  0.00000000000E+00  0.19776296758E+03  0.35536054349E+04  0.35480982788E+04 0.  0.
        2    1    3    3  502    0 -0.71089348440E+03 -0.61289248321E+03  0.16066228857E+04  0.18607105737E+04  0.25500000920E-02 0.  1.
       -2    1    3    3    0  502  0.71089348440E+03  0.61289248321E+03 -0.14088599182E+04  0.16928948612E+04  0.25500000920E-02 0. -1.
</event>
<event>
 5   0  0.4700769E-07  0.3510452E+04  0.7818609E-02  0.8111318E-01
       -1   -1    0    0    0  501  0.00000000000E+00  0.00000000000E+00  0.19617475544E+04  0.19617475544E+04  0.50400001928E-02 0.  1.
        1   -1    0    0  501    0  0.00000000000E+00  0.00000000000E+00 -0.15704454062E+04  0.15704454062E+04  0.50400001928E-02 0. -1.
    10030    2    1    2    0    0  0.00000000000E+00  0.00000000000E+00  0.39130214817E+03  0.35321929606E+04  0.35104515008E+04 0.  0.
        3    1    3    3  502    0 -0.85423287373E+03  0.24894499153E+03  0.17180086510E+04  0.19347457576E+04  0.10100000352E+00 0.  1.
       -3    1    3    3    0  502  0.85423287373E+03 -0.24894499153E+03 -0.13267065029E+04  0.15974472030E+04  0.10100000352E+00 0. -1.
</event>
<event>
 5   0  0.4693374E-07  0.3458900E+04  0.7818609E-02  0.8123600E-01
       -1   -1    0    0    0  501  0.00000000000E+00  0.00000000000E+00  0.19070700626E+04  0.19070700626E+04  0.50400001928E-02 0. -1.
        1   -1    0    0  501    0  0.00000000000E+00  0.00000000000E+00 -0.15683726267E+04  0.15683726267E+04  0.50400001928E-02 0.  1.
    10030    2    1    2    0    0  0.00000000000E+00  0.00000000000E+00  0.33869743596E+03  0.34754426893E+04  0.34588995263E+04 0.  0.
        1    1    3    3  502    0 -0.91524531248E+02 -0.88212616786E+03  0.16611967748E+04  0.18831086109E+04  0.50400001928E-02 0. -1.
       -1    1    3    3    0  502  0.91524531248E+02  0.88212616786E+03 -0.13224993388E+04  0.15923340784E+04  0.50400001928E-02 0.  1.
</event>
<event>
 5   0  0.1361560E-06  0.3489038E+04  0.7818609E-02  0.8116393E-01
        2   -1    0    0  501    0  0.00000000000E+00  0.00000000000E+00  0.22221456689E+04  0.22221456689E+04  0.25500000920E-02 0.  1.
       -2   -1    0    0    0  501  0.00000000000E+00  0.00000000000E+00 -0.13695530191E+04  0.13695530192E+04  0.25500000920E-02 0. -1.
    10030    2    1    2    0    0  0.00000000000E+00  0.00000000000E+00  0.85259264978E+03  0.35916986881E+04  0.34890378673E+04 0.  0.
        3    1    3    3  502    0 -0.17201576434E+04  0.46150012358E+02  0.13102182966E+03  0.17257574777E+04  0.10100000352E+00 0. -1.
       -3    1    3    3    0  502  0.17201576434E+04 -0.46150012358E+02  0.72157082012E+03  0.18659412104E+04  0.10100000352E+00 0.  1.
</event>
<event>
 5   0  0.1348388E-06  0.3648079E+04  0.7818609E-02  0.8079567E-01
       -2   -1    0    0    0  501  0.00000000000E+00  0.00000000000E+00  0.12336158486E+04  0.12336158486E+04  0.25500000920E-02 0. -1.
        2   -1    0    0  501    0  0.00000000000E+00  0.00000000000E+00 -0.26970464406E+04  0.26970464406E+04  0.25500000920E-02 0.  1.
    10030    2    1    2    0    0  0.00000000000E+00  0.00000000000E+00 -0.14634305921E+04  0.39306622892E+04  0.36480785263E+04 0.  0.
        5    1    3    3  502    0 -0.59158099720E+03  0.13113122141E+04 -0.19400047320E+04  0.24151911413E+04  0.46999998093E+01 0.  1.
       -5    1    3    3    0  502  0.59158099720E+03 -0.13113122141E+04  0.47657413987E+03  0.15154711479E+04  0.46999998093E+01 0. -1.
</event>
<event>
 5   0  0.4557237E-07  0.2736379E+04  0.7818609E-02  0.8323297E-01
        1   -1    0    0  501    0  0.00000000000E+00  0.00000000000E+00  0.18770851366E+04  0.18770851366E+04  0.50400001928E-02 0.  1.
       -1   -1    0    0    0  501  0.00000000000E+00  0.00000000000E+00 -0.99726009465E+03  0.99726009466E+03  0.50400001928E-02 0. -1.
    10030    2    1    2    0    0  0.00000000000E+00  0.00000000000E+00  0.87982504190E+03  0.28743452312E+04  0.27363787026E+04 0.  0.
        2    1    3    3  502    0  0.10191558811E+04  0.43485148050E+03 -0.40315461381E+03  0.11791132951E+04  0.25500000920E-02 0. -1.
       -2    1    3    3    0  502 -0.10191558811E+04 -0.43485148050E+03  0.12829796557E+04  0.16952319361E+04  0.25500000920E-02 0.  1.
</event>
<event>
 5   0  0.4557237E-07  0.3120400E+04  0.7818609E-02  0.8210162E-01
       -1   -1    0    0    0  501  0.00000000000E+00  0.00000000000E+00  0.15349289602E+04  0.15349289602E+04  0.50400001928E-02 0.  1.
        1   -1    0    0  501    0  0.00000000000E+00  0.00000000000E+00 -0.15858868840E+04  0.15858868840E+04  0.50400001928E-02 0. -1.
    10030    2    1    2    0    0  0.00000000000E+00  0.00000000000E+00 -0.50957923838E+02  0.31208158442E+04  0.31203997858E+04 0.  0.
        2    1    3    3  502    0 -0.93944952675E+02  0.43355198346E+02 -0.15824518907E+04  0.15858307961E+04  0.25500000920E-02 0. -1.
       -2    1    3    3    0  502  0.93944952675E+02 -0.43355198346E+02  0.15314939669E+04  0.15349850481E+04  0.25500000920E-02 0.  1.
</event>
<event>
 5   0  0.4700769E-07  0.3516652E+04  0.7818609E-02  0.8109855E-01
        1   -1    0    0  501    0  0.00000000000E+00  0.00000000000E+00  0.15964358734E+04  0.15964358734E+04  0.50400001928E-02 0. -1.
       -1   -1    0    0    0  501  0.00000000000E+00  0.00000000000E+00 -0.19366327651E+04  0.19366327651E+04  0.50400001928E-02 0.  1.
    10030    2    1    2    0    0  0.00000000000E+00  0.00000000000E+00 -0.34019689167E+03  0.35330686385E+04  0.35166518280E+04 0.  0.
        3    1    3    3  502    0 -0.94215896813E+03  0.67987575798E+03  0.11558412437E+04  0.16388604451E+04  0.10100000352E+00 0. -1.
       -3    1    3    3    0  502  0.94215896813E+03 -0.67987575798E+03 -0.14960381354E+04  0.18942081935E+04  0.10100000352E+00 0.  1.
</event>
<event>
 5   0  0.1361560E-06  0.3501579E+04  0.7818609E-02  0.8113416E-01
       -2   -1    0    0    0  501  0.00000000000E+00  0.00000000000E+00  0.19891147736E+04  0.19891147736E+04  0.25500000920E-02 0.  1.
        2   -1    0    0  501    0  0.00000000000E+00  0.00000000000E+00 -0.15410188831E+04  0.15410188831E+04  0.25500000920E-02 0. -1.
    10030    2    1    2    0    0  0.00000000000E+00  0.00000000000E+00  0.44809589049E+03  0.35301336567E+04  0.35015787449E+04 0.  0.
        3    1    3    3  502    0 -0.33203770004E+03  0.98558511308E+03  0.16439496557E+04  0.19453013983E+04  0.10100000352E+00 0. -1.
       -3    1    3    3    0  502  0.33203770004E+03 -0.98558511308E+03 -0.11958537652E+04  0.15848322584E+04  0.10100000352E+00 0.  1.
</event>
<event>
 5   0  0.4409125E-07  0.2787145E+04  0.7818609E-02  0.8307271E-01
        1   -1    0    0  501    0  0.00000000000E+00  0.00000000000E+00  0.18672821527E+04  0.18672821527E+04  0.50400001928E-02 0. -1.
       -1   -1    0    0    0  501  0.00000000000E+00  0.00000000000E+00 -0.10400376322E+04  0.10400376322E+04  0.50400001928E-02 0.  1.
    10030    2    1    2    0    0  0.00000000000E+00  0.00000000000E+00  0.82724452044E+03  0.29073197849E+04  0.27871445666E+04 0.  0.
        5    1    3    3  502    0  0.41730708470E+03 -0.99828803236E+03  0.13297251380E+04  0.17143264658E+04  0.46999998093E+01 0. -1.
       -5    1    3    3    0  502 -0.41730708470E+03  0.99828803236E+03 -0.50248061760E+03  0.11929933192E+04  0.46999998093E+01 0.  1.
</event>
<event>
 5   0  0.4591195E-07  0.3537609E+04  0.7818609E-02  0.8104934E-01
       -1   -1    0    0    0  501  0.00000000000E+00  0.00000000000E+00  0.19613206039E+04  0.19613206039E+04  0.50400001928E-02 0. -1.
        1   -1    0    0  501    0  0.00000000000E+00  0.00000000000E+00 -0.15951853792E+04  0.15951853792E+04  0.50400001928E-02 0.  1.
    10030    2    1    2    0    0  0.00000000000E+00  0.00000000000E+00  0.36613522474E+03  0.35565059831E+04  0.35376093348E+04 0.  0.
        4    1    3    3  502    0  0.10256004649E+04 -0.12292663168E+04  0.93922645761E+03  0.18560980423E+04  0.12699999809E+01 0. -1.
       -4    1    3    3    0  502 -0.10256004649E+04  0.12292663168E+04 -0.57309123287E+03  0.17004079408E+04  0.12699999809E+01 0.  1.
</event>
<event>
 5   0  0.1361560E-06  0.3455749E+04  0.7818609E-02  0.8124358E-01
       -2   -1    0    0    0  501  0.00000000000E+00  0.00000000000E+00  0.16679691295E+04  0.16679691295E+04  0.25500000920E-02 0.  1.
        2   -1    0    0  501    0  0.00000000000E+00  0.00000000000E+00 -0.17899318534E+04  0.17899318534E+04  0.25500000920E-02 0. -1.
    10030    2    1    2    0    0  0.00000000000E+00  0.00000000000E+00 -0.12196272389E+03  0.34579009830E+04  0.34557494559E+04 0.  0.
        3    1    3    3  502    0 -0.62268612465E+03  0.19595036243E+03 -0.16617950472E+04  0.17854123736E+04  0.10100000352E+00 0. -1.
       -3    1    3    3    0  502  0.62268612465E+03 -0.19595036243E+03  0.15398323234E+04  0.16724886094E+04  0.10100000352E+00 0.  1.
</event>
<event>
 5   0  0.1348388E-06  0.3110397E+04  0.7818609E-02  0.8212890E-01
        2   -1    0    0  501    0  0.00000000000E+00  0.00000000000E+00  0.15011661346E+04  0.15011661346E+04  0.25500000920E-02 0.  1.
       -2   -1    0    0    0  501  0.00000000000E+00  0.00000000000E+00 -0.16111759886E+04  0.16111759886E+04  0.25500000920E-02 0. -1.
    10030    2    1    2    0    0  0.00000000000E+00  0.00000000000E+00 -0.11000985399E+03  0.31123421233E+04  0.31103972936E+04 0.  0.
        5    1    3    3  502    0  0.11050286109E+04 -0.10774729728E+04 -0.24639528042E+03  0.15629360071E+04  0.46999998093E+01 0. -1.
       -5    1    3    3    0  502 -0.11050286109E+04  0.10774729728E+04  0.13638542643E+03  0.15494061161E+04  0.46999998093E+01 0.  1.
</event>
<event>
 5   0  0.1348388E-06  0.3476055E+04  0.7818609E-02  0.8119488E-01
       -2   -1    0    0    0  501  0.00000000000E+00  0.00000000000E+00  0.12135001696E+04  0.12135001696E+04  0.25500000920E-02 0. -1.
        2   -1    0    0  501    0  0.00000000000E+00  0.00000000000E+00 -0.24892779953E+04  0.24892779953E+04  0.25500000920E-02 0.  1.
    10030    2    1    2    0    0  0.00000000000E+00  0.00000000000E+00 -0.12757778258E+04  0.37027781649E+04  0.34760548152E+04 0.  0.
        5    1    3    3  502    0  0.86883244410E+03 -0.74256095902E+02  0.96361250873E+03  0.12995979919E+04  0.46999998093E+01 0. -1.
       -5    1    3    3    0  502 -0.86883244410E+03  0.74256095902E+02 -0.22393903345E+04  0.24031801730E+04  0.46999998093E+01 0.  1.
</event>
<event>
 5   0  0.1348388E-06  0.3541689E+04  0.7818609E-02  0.8103981E-01
       -2   -1    0    0    0  501  0.00000000000E+00  0.00000000000E+00  0.17116103235E+04  0.17116103235E+04  0.25500000920E-02 0. -1.
        2   -1    0    0  501    0  0.00000000000E+00  0.00000000000E+00 -0.18321285067E+04  0.18321285067E+04  0.25500000920E-02 0.  1.
    10030    2    1    2    0    0  0.00000000000E+00  0.00000000000E+00 -0.12051818322E+03  0.35437388301E+04  0.35416888999E+04 0.  0.
        5    1    3    3  502    0  0.14762789754E+04  0.86752607639E+03  0.39151843562E+03  0.17565050190E+04  0.46999998093E+01 0. -1.
       -5    1    3    3    0  502 -0.14762789754E+04 -0.86752607639E+03 -0.51203661884E+03  0.17872338111E+04  0.46999998093E+01 0.  1.
</event>
<event>
 5   0  0.1378620E-06  0.3516648E+04  0.7818609E-02  0.8109856E-01
       -2   -1    0    0    0  501  0.00000000000E+00  0.00000000000E+00  0.15692120262E+04  0.15692120262E+04  0.25500000920E-02 0.  1.
        2   -1    0    0  501    0  0.00000000000E+00  0.00000000000E+00 -0.19702270118E+04  0.19702270118E+04  0.25500000920E-02 0. -1.
    10030    2    1    2    0    0  0.00000000000E+00  0.00000000000E+00 -0.40101498564E+03  0.35394390380E+04  0.35166483596E+04 0.  0.
        2    1    3    3  502    0 -0.17124196046E+04  0.11466580089E+03  0.18429839336E+03  0.17261213880E+04  0.25500000920E-02 0.  1.
       -2    1    3    3    0  502  0.17124196046E+04 -0.11466580089E+03 -0.58531337900E+03  0.18133176500E+04  0.25500000920E-02 0. -1.
</event>
<event>
 5   0  0.1387133E-06  0.3503789E+04  0.7818609E-02  0.8112893E-01
       -2   -1    0    0    0  501  0.00000000000E+00  0.00000000000E+00  0.24025825879E+04  0.24025825879E+04  0.25500000920E-02 0.  1.
        2   -1    0    0  501    0  0.00000000000E+00  0.00000000000E+00 -0.12774315909E+04  0.12774315909E+04  0.25500000920E-02 0. -1.
    10030    2    1    2    0    0  0.00000000000E+00  0.00000000000E+00  0.11251509970E+04  0.36800141788E+04  0.35037893187E+04 0.  0.
        4    1    3    3  502    0  0.67973018904E+03  0.96336999177E+03 -0.79836531106E+03  0.14239043696E+04  0.12699999809E+01 0. -1.
       -4    1    3    3    0  502 -0.67973018904E+03 -0.96336999177E+03  0.19235163080E+04  0.22561098092E+04  0.12699999809E+01 0.  1.
</event>
<event>
 5   0  0.1361560E-06  0.3409411E+04  0.7818609E-02  0.8135600E-01
        2   -1    0    0  501    0  0.00000000000E+00  0.00000000000E+00  0.26583817258E+04  0.26583817258E+04  0.25500000920E-02 0. -1.
       -2   -1    0    0    0  501  0.00000000000E+00  0.00000000000E+00 -0.10931540737E+04  0.10931540737E+04  0.25500000920E-02 0.  1.
    10030    2    1    2    0    0  0.00000000000E+00  0.00000000000E+00  0.15652276521E+04  0.37515357995E+04  0.34094109832E+04 0.  0.
        3    1    3    3  502    0 -0.15569068952E+04  0.66251450471E+03  0.55407975766E+03  0.17804181917E+04  0.10100000352E+00 0.  1.
       -3    1    3    3    0  502  0.15569068952E+04 -0.66251450471E+03  0.10111478944E+04  0.19711176078E+04  0.10100000352E+00 0. -1.
</event>
<event>
 5   0  0.1348388E-06  0.3498590E+04  0.7818609E-02  0.8114124E-01
       -2   -1    0    0    0  501  0.00000000000E+00  0.00000000000E+00  0.13651710252E+04  0.13651710253E+04  0.25500000920E-02 0.  1.
        2   -1    0    0  501    0  0.00000000000E+00  0.00000000000E+00 -0.22415010565E+04  0.22415010565E+04  0.25500000920E-02 0. -1.
    10030    2    1    2    0    0  0.00000000000E+00  0.00000000000E+00 -0.87633003123E+03  0.36066720817E+04  0.34985895989E+04 0.  0.
        5    1    3    3  502    0  0.14080886772E+04 -0.54609961132E+03 -0.13480832558E+04  0.20244231433E+04  0.46999998093E+01 0. -1.
       -5    1    3    3    0  502 -0.14080886772E+04  0.54609961132E+03  0.47175322457E+03  0.15822489385E+04  0.46999998093E+01 0.  1.
</event>
<event>
 5   0  0.1442864E-06  0.3494660E+04  0.7818609E-02  0.8115057E-01
        2   -1    0    0  501    0  0.00000000000E+00  0.00000000000E+00  0.23016908266E+04  0.23016908266E+04  0.25500000920E-02 0.  1.
       -2   -1    0    0    0  501  0.00000000000E+00  0.00000000000E+00 -0.13264867376E+04  0.13264867376E+04  0.25500000920E-02 0. -1.
    10030    2    1    2    0    0  0.00000000000E+00  0.00000000000E+00  0.97520408908E+03  0.36281775642E+04  0.34946601297E+04 0.  0.
        1    1    3    3  502    0 -0.17366540289E+04  0.15639648942E+03  0.60476431902E+03  0.18455803856E+04  0.50400001928E-02 0.  1.
       -1    1    3    3    0  502  0.17366540289E+04 -0.15639648942E+03  0.37043977007E+03  0.17825971786E+04  0.50400001928E-02 0. -1.
</event>
<event>
 5   0  0.1442864E-06  0.3450041E+04  0.7818609E-02  0.8125733E-01
        2   -1    0    0  501    0  0.00000000000E+00  0.00000000000E+00  0.22387010116E+04  0.22387010116E+04  0.25500000920E-02 0. -1.
       -2   -1    0    0    0  501  0.00000000000E+00  0.00000000000E+00 -0.13292063827E+04  0.13292063827E+04  0.25500000920E-02 0.  1.
    10030    2    1    2    0    0  0.00000000000E+00  0.00000000000E+00  0.90949462888E+03  0.35679073943E+04  0.34500409699E+04 0.  0.
        1    1    3    3  502    0  0.44259241999E+03  0.15225345834E+04  0.11574431958E+04  0.19630777772E+04  0.50400001928E-02 0. -1.
       -1    1    3    3    0  502 -0.44259241999E+03 -0.15225345834E+04 -0.24794856692E+03  0.16048296171E+04  0.50400001928E-02 0.  1.
</event>
<event>
 5   0  0.4557237E-07  0.3454059E+04  0.7818609E-02  0.8124764E-01
        1   -1    0    0  501    0  0.00000000000E+00  0.00000000000E+00  0.22895858891E+04  0.22895858891E+04  0.50400001928E-02 0. -1.
       -1   -1    0    0    0  501  0.00000000000E+00  0.00000000000E+00 -0.13026945677E+04  0.13026945677E+04  0.50400001928E-02 0.  1.
    10030    2    1    2    0    0  0.00000000000E+00  0.00000000000E+00  0.98689132135E+03  0.35922804568E+04  0.34540591194E+04 0.  0.
        2    1    3    3  502    0 -0.56708614103E+03 -0.33279626751E+03  0.21543145211E+04  0.22524233844E+04  0.25500000920E-02 0. -1.
       -2    1    3    3    0  502  0.56708614103E+03  0.33279626751E+03 -0.11674231997E+04  0.13398570723E+04  0.25500000920E-02 0.  1.
</event>
<event>
 5   0  0.1361560E-06  0.2891615E+04  0.7818609E-02  0.8275377E-01
        2   -1    0    0  501    0  0.00000000000E+00  0.00000000000E+00  0.17211254628E+04  0.17211254628E+04  0.25500000920E-02 0. -1.
       -2   -1    0    0    0  501  0.00000000000E+00  0.00000000000E+00 -0.12145304515E+04  0.12145304515E+04  0.25500000920E-02 0.  1.
    10030    2    1    2    0    0  0.00000000000E+00  0.00000000000E+00  0.50659501127E+03  0.29356559143E+04  0.28916149712E+04 0.  0.
        3    1    3    3  502    0  0.67906467783E+03  0.10417921502E+04  0.10020254421E+04  0.15970330985E+04  0.10100000352E+00 0.  1.
       -3    1    3    3    0  502 -0.67906467783E+03 -0.10417921502E+04 -0.49543043087E+03  0.13386228158E+04  0.10100000352E+00 0. -1.
</event>
<event>
 5   0  0.4591195E-07  0.3553195E+04  0.7818609E-02  0.8101298E-01
        1   -1    0    0  501    0  0.00000000000E+00  0.00000000000E+00  0.16303516819E+04  0.16303516819E+04  0.50400001928E-02 0. -1.
       -1   -1    0    0    0  501  0.00000000000E+00  0.00000000000E+00 -0.19359615631E+04  0.19359615631E+04  0.50400001928E-02 0.  1.
    10030    2    1    2    0    0  0.00000000000E+00  0.00000000000E+00 -0.30560988120E+03  0.35663132451E+04  0.35531947262E+04 0.  0.
        4    1    3    3  502    0 -0.15369401115E+04  0.40264341122E+03  0.64510810446E+03  0.17147806572E+04  0.12699999809E+01 0. -1.
       -4    1    3    3    0  502  0.15369401115E+04 -0.40264341122E+03 -0.95071798566E+03  0.18515325879E+04  0.12699999809E+01 0.  1.
</event>
<event>
 5   0  0.4693374E-07  0.3283378E+04  0.7818609E-02  0.8167138E-01
       -1   -1    0    0    0  501  0.00000000000E+00  0.00000000000E+00  0.22473736852E+04  0.22473736853E+04  0.50400001928E-02 0.  1.
        1   -1    0    0  501    0  0.00000000000E+00  0.00000000000E+00 -0.11992411571E+04  0.11992411571E+04  0.50400001928E-02 0. -1.
    10030    2    1    2    0    0  0.00000000000E+00  0.00000000000E+00  0.10481325281E+04  0.34466148424E+04  0.32833781499E+04 0.  0.
        1    1    3    3  502    0 -0.12040411722E+04  0.83374419009E+03  0.13027677700E+04  0.19601143797E+04  0.50400001928E-02 0.  1.
       -1    1    3    3    0  502  0.12040411722E+04 -0.83374419009E+03 -0.25463524189E+03  0.14865004626E+04  0.50400001928E-02 0. -1.
</event>
<event>
 5   0  0.4409125E-07  0.3552188E+04  0.7818609E-02  0.8101532E-01
        1   -1    0    0  501    0  0.00000000000E+00  0.00000000000E+00  0.25945315219E+04  0.25945315219E+04  0.50400001928E-02 0. -1.
       -1   -1    0    0    0  501  0.00000000000E+00  0.00000000000E+00 -0.12158303435E+04  0.12158303436E+04  0.50400001928E-02 0.  1.
    10030    2    1    2    0    0  0.00000000000E+00  0.00000000000E+00  0.13787011783E+04  0.38103618654E+04  0.35521881434E+04 0.  0.
        5    1    3    3  502    0  0.21554259466E+03 -0.16127672327E+04 -0.74448406733E+02  0.16288159540E+04  0.46999998093E+01 0. -1.
       -5    1    3    3    0  502 -0.21554259466E+03  0.16127672327E+04  0.14531495851E+04  0.21815459114E+04  0.46999998093E+01 0.  1.
</event>
<event>
 5   0  0.1387133E-06  0.3216373E+04  0.7818609E-02  0.8184506E-01
        2   -1    0    0  501    0  0.00000000000E+00  0.00000000000E+00  0.19384693135E+04  0.19384693135E+04  0.25500000920E-02 0. -1.
       -2   -1    0    0    0  501  0.00000000000E+00  0.00000000000E+00 -0.13341785243E+04  0.13341785243E+04  0.25500000920E-02 0.  1.
    10030    2    1    2    0    0  0.00000000000E+00  0.00000000000E+00  0.60429078920E+03  0.32726478378E+04  0.32163731923E+04 0.  0.
        4    1    3    3  502    0 -0.97652236602E+03 -0.92071377853E+03  0.12036222696E+04  0.18027806228E+04  0.12699999809E+01 0. -1.
       -4    1    3    3    0  502  0.97652236602E+03  0.92071377853E+03 -0.59933148040E+03  0.14698672150E+04  0.12699999809E+01 0.  1.
</event>
<event>
 5   0  0.4557237E-07  0.3488834E+04  0.7818609E-02  0.8116441E-01
       -1   -1    0    0    0  501  0.00000000000E+00  0.00000000000E+00  0.24489784167E+04  0.24489784167E+04  0.50400001928E-02 0.  1.
        1   -1    0    0  501    0  0.00000000000E+00  0.00000000000E+00 -0.12425551990E+04  0.12425551990E+04  0.50400001928E-02 0. -1.
    10030    2    1    2    0    0  0.00000000000E+00  0.00000000000E+00  0.12064232177E+04  0.36915336158E+04  0.34888341113E+04 0.  0.
        2    1    3    3  502    0 -0.68187724830E+03  0.11671698473E+04  0.17698827030E+04  0.22270444128E+04  0.25500000920E-02 0.  1.
       -2    1    3    3    0  502  0.68187724830E+03 -0.11671698473E+04 -0.56345948528E+03  0.14644892030E+04  0.25500000920E-02 0. -1.
</event>
<event>
 5   0  0.1378620E-06  0.3516877E+04  0.7818609E-02  0.8109802E-01
       -2   -1    0    0    0  501  0.00000000000E+00  0.00000000000E+00  0.11983534467E+04  0.11983534467E+04  0.25500000920E-02 0.  1.
        2   -1    0    0  501    0  0.00000000000E+00  0.00000000000E+00 -0.25802954320E+04  0.25802954320E+04  0.25500000920E-02 0. -1.
    10030    2    1    2    0    0  0.00000000000E+00  0.00000000000E+00 -0.13819419853E+04  0.37786488787E+04  0.35168769807E+04 0.  0.
        2    1    3    3  502    0  0.12782591859E+04 -0.18996021166E+03 -0.19722406306E+04  0.23579152939E+04  0.25500000920E-02 0. -1.
       -2    1    3    3    0  502 -0.12782591859E+04  0.18996021166E+03  0.59029864529E+03  0.14207335848E+04  0.25500000920E-02 0.  1.
</event>
<event>
 5   0  0.1442864E-06  0.3066070E+04  0.7818609E-02  0.8225112E-01
        2   -1    0    0  501    0  0.00000000000E+00  0.00000000000E+00  0.15388123763E+04  0.15388123763E+04  0.25500000920E-02 0. -1.
       -2   -1    0    0    0  501  0.00000000000E+00  0.00000000000E+00 -0.15272789744E+04  0.15272789744E+04  0.25500000920E-02 0.  1.
    10030    2    1    2    0    0  0.00000000000E+00  0.00000000000E+00  0.11533401895E+02  0.30660913507E+04  0.30660696586E+04 0.  0.
        1    1    3    3  502    0 -0.47740685650E+03  0.12626754172E+03  0.14570987764E+04  0.15385050026E+04  0.50400001928E-02 0. -1.
       -1    1    3    3    0  502  0.47740685650E+03 -0.12626754172E+03 -0.14455653745E+04  0.15275863481E+04  0.50400001928E-02 0.  1.
</event>
<event>
 5   0  0.1348388E-06  0.3480011E+04  0.7818609E-02  0.8118543E-01
       -2   -1    0    0    0  501  0.00000000000E+00  0.00000000000E+00  0.12066464634E+04  0.12066464634E+04  0.25500000920E-02 0.  1.
        2   -1    0    0  501    0  0.00000000000E+00  0.00000000000E+00 -0.25091192284E+04  0.25091192284E+04  0.25500000920E-02 0. -1.
    10030    2    1    2    0    0  0.00000000000E+00  0.00000000000E+00 -0.13024727650E+04  0.37157656919E+04  0.34800114042E+04 0.  0.
        5    1    3    3  502    0 -0.13922359351E+04  0.58303539618E+03  0.27305524369E+03  0.15338945297E+04  0.46999998093E+01 0.  1.
       -5    1    3    3    0  502  0.13922359351E+04 -0.58303539618E+03 -0.15755280087E+04  0.21818711622E+04  0.46999998093E+01 0. -1.
</event>
<event>
 5   0  0.4557237E-07  0.3486289E+04  0.7818609E-02  0.8117047E-01
        1   -1    0    0  501    0  0.00000000000E+00  0.00000000000E+00  0.19674901510E+04  0.19674901510E+04  0.50400001928E-02 0.  1.
       -1   -1    0    0    0  501  0.00000000000E+00  0.00000000000E+00 -0.15443801607E+04  0.15443801607E+04  0.50400001928E-02 0. -1.
    10030    2    1    2    0    0  0.00000000000E+00  0.00000000000E+00  0.42310999028E+03  0.35118703117E+04  0.34862890044E+04 0.  0.
        2    1    3    3  502    0  0.59678523192E+02  0.44031838905E+03  0.19094826430E+04  0.19605014088E+04  0.25500000920E-02 0.  1.
       -2    1    3    3    0  502 -0.59678523192E+02 -0.44031838905E+03 -0.14863726528E+04  0.15513689029E+04  0.25500000920E-02 0. -1.
</event>
<event>
 5   0  0.4591195E-07  0.3472159E+04  0.7818609E-02  0.8120420E-01
        1   -1    0    0  501    0  0.00000000000E+00  0.00000000000E+00  0.17199775464E+04  0.17199775464E+04  0.50400001928E-02 0.  1.
       -1   -1    0    0    0  501  0.00000000000E+00  0.00000000000E+00 -0.17523325520E+04  0.17523325520E+04  0.50400001928E-02 0. -1.
    10030    2    1    2    0    0  0.00000000000E+00  0.00000000000E+00 -0.32355005596E+02  0.34723100985E+04  0.34721593531E+04 0.  0.
        4    1    3    3  502    0  0.81285152284E+01  0.20085207399E+03 -0.17406547003E+04  0.17522237377E+04  0.12699999809E+01 0. -1.
       -4    1    3    3    0  502 -0.81285152284E+01 -0.20085207399E+03  0.17082996947E+04  0.17200863607E+04  0.12699999809E+01 0.  1.
</event>
<event>
 5   0  0.1387133E-06  0.3494279E+04  0.7818609E-02  0.8115147E-01
        2   -1    0    0  501    0  0.00000000000E+00  0.00000000000E+00  0.25176371906E+04  0.25176371906E+04  0.25500000920E-02 0. -1.
       -2   -1    0    0    0  501  0.00000000000E+00  0.00000000000E+00 -0.12124450852E+04  0.12124450852E+04  0.25500000920E-02 0.  1.
    10030    2    1    2    0    0  0.00000000000E+00  0.00000000000E+00  0.13051921054E+04  0.37300822758E+04  0.34942792322E+04 0.  0.
        4    1    3    3  502    0 -0.30200733057E+03 -0.11826442047E+04 -0.68181675265E+03  0.13981171051E+04  0.12699999809E+01 0.  1.
       -4    1    3    3    0  502  0.30200733057E+03  0.11826442047E+04  0.19870088580E+04  0.23319651707E+04  0.12699999809E+01 0. -1.
</event>
<event>
 5   0  0.1361560E-06  0.3442135E+04  0.7818609E-02  0.8127642E-01
        2   -1    0    0  501    0  0.00000000000E+00  0.00000000000E+00  0.19316230978E+04  0.19316230978E+04  0.25500000920E-02 0.  1.
       -2   -1    0    0    0  501  0.00000000000E+00  0.00000000000E+00 -0.15334638178E+04  0.15334638178E+04  0.25500000920E-02 0. -1.
    10030    2    1    2    0    0  0.00000000000E+00  0.00000000000E+00  0.39815928006E+03  0.34650869156E+04  0.34421354593E+04 0.  0.
        3    1    3    3  502    0 -0.12613437918E+04  0.57276026314E+03 -0.82901931253E+03  0.16144087187E+04  0.10100000352E+00 0. -1.
       -3    1    3    3    0  502  0.12613437918E+04 -0.57276026314E+03  0.12271785926E+04  0.18506781969E+04  0.10100000352E+00 0.  1.
</event>
<event>
 5   0  0.4693374E-07  0.3419046E+04  0.7818609E-02  0.8133248E-01
       -1   -1    0    0    0  501  0.00000000000E+00  0.00000000000E+00  0.13443956220E+04  0.13443956220E+04  0.50400001928E-02 0.  1.
        1   -1    0    0  501    0  0.00000000000E+00  0.00000000000E+00 -0.21738163550E+04  0.21738163550E+04  0.50400001928E-02 0. -1.
    10030    2    1    2    0    0  0.00000000000E+00  0.00000000000E+00 -0.82942073300E+03  0.35182119770E+04  0.34190461774E+04 0.  0.
        1    1    3    3  502    0 -0.50027033816E+03  0.10366921267E+04  0.88585788781E+03  0.14524961873E+04  0.50400001928E-02 0. -1.
       -1    1    3    3    0  502  0.50027033816E+03 -0.10366921267E+04 -0.17152786208E+04  0.20657157897E+04  0.50400001928E-02 0.  1.
</event>
<event>
 5   0  0.4700769E-07  0.3513532E+04  0.7818609E-02  0.8110591E-01
       -1   -1    0    0    0  501  0.00000000000E+00  0.00000000000E+00  0.11604408058E+04  0.11604408058E+04  0.50400001928E-02 0.  1.
        1   -1    0    0  501    0  0.00000000000E+00  0.00000000000E+00 -0.26595294973E+04  0.26595294973E+04  0.50400001928E-02 0. -1.
    10030    2    1    2    0    0  0.00000000000E+00  0.00000000000E+00 -0.14990886915E+04  0.38199703031E+04  0.35135318715E+04 0.  0.
        3    1    3    3  502    0 -0.11534431545E+04 -0.11733707937E+03 -0.21845168690E+04  0.24731180849E+04  0.10100000352E+00 0. -1.
       -3    1    3    3    0  502  0.11534431545E+04  0.11733707937E+03  0.68542817750E+03  0.13468522182E+04  0.10100000352E+00 0.  1.
</event>
<event>
 5   0  0.4557237E-07  0.3526175E+04  0.7818609E-02  0.8107615E-01
        1   -1    0    0  501    0  0.00000000000E+00  0.00000000000E+00  0.22583621530E+04  0.22583621530E+04  0.50400001928E-02 0. -1.
       -1   -1    0    0    0  501  0.00000000000E+00  0.00000000000E+00 -0.13764300207E+04  0.13764300208E+04  0.50400001928E-02 0.  1.
    10030    2    1    2    0    0  0.00000000000E+00  0.00000000000E+00  0.88193213221E+03  0.36347921737E+04  0.35261749617E+04 0.  0.
        2    1    3    3  502    0  0.26759010283E+03 -0.17422267241E+04  0.40079060701E+03  0.18076480664E+04  0.25500000920E-02 0.  1.
       -2    1    3    3    0  502 -0.26759010283E+03  0.17422267241E+04  0.48114152521E+03  0.18271441073E+04  0.25500000920E-02 0. -1.
</event>
<event>
 5   0  0.4557237E-07  0.3486528E+04  0.7818609E-02  0.8116990E-01
        1   -1    0    0  501    0  0.00000000000E+00  0.00000000000E+00  0.13200144578E+04  0.13200144578E+04  0.50400001928E-02 0. -1.
       -1   -1    0    0    0  501  0.00000000000E+00  0.00000000000E+00 -0.23022239629E+04  0.23022239629E+04  0.50400001928E-02 0.  1.
    10030    2    1    2    0    0  0.00000000000E+00  0.00000000000E+00 -0.98220950509E+03  0.36222384207E+04  0.34865277375E+04 0.  0.
        2    1    3    3  502    0 -0.65018450455E+03  0.32931760080E+03 -0.21363420028E+04  0.22572432579E+04  0.25500000920E-02 0.  1.
       -2    1    3    3    0  502  0.65018450455E+03 -0.32931760080E+03  0.11541324978E+04  0.13649951628E+04  0.25500000920E-02 0. -1.
</event>
<event>
 5   0  0.1348388E-06  0.3154945E+04  0.7818609E-02  0.8200818E-01
        2   -1    0    0  501    0  0.00000000000E+00  0.00000000000E+00  0.14547323452E+04  0.14547323452E+04  0.25500000920E-02 0. -1.
       -2   -1    0    0    0  501  0.00000000000E+00  0.00000000000E+00 -0.17105686414E+04  0.17105686415E+04  0.25500000920E-02 0.  1.
    10030    2    1    2    0    0  0.00000000000E+00  0.00000000000E+00 -0.25583629628E+03  0.31653009866E+04  0.31549450273E+04 0.  0.
        5    1    3    3  502    0 -0.11094989751E+04 -0.63602037139E+03 -0.10544686698E+04  0.16575391863E+04  0.46999998093E+01 0.  1.
       -5    1    3    3    0  502  0.11094989751E+04  0.63602037139E+03  0.79863237349E+03  0.15077618003E+04  0.46999998093E+01 0. -1.
</event>
<event>
 5   0  0.4409125E-07  0.3517499E+04  0.7818609E-02  0.8109655E-01
        1   -1    0    0  501    0  0.00000000000E+00  0.00000000000E+00  0.12082941658E+04  0.12082941658E+04  0.50400001928E-02 0.  1.
       -1   -1    0    0    0  501  0.00000000000E+00  0.00000000000E+00 -0.25599731557E+04  0.25599731557E+04  0.50400001928E-02 0. -1.
    10030    2    1    2    0    0  0.00000000000E+00  0.00000000000E+00 -0.13516789898E+04  0.37682673215E+04  0.35174994691E+04 0.  0.
        5    1    3    3  502    0 -0.13993314593E+04 -0.38867248573E+03  0.38683832652E+03  0.15029507027E+04  0.46999998093E+01 0.  1.
       -5    1    3    3    0  502  0.13993314593E+04  0.38867248573E+03 -0.17385173163E+04  0.22653166188E+04  0.46999998093E+01 0. -1.
</event>
<event>
 5   0  0.4700769E-07  0.3419479E+04  0.7818609E-02  0.8133142E-01
       -1   -1    0    0    0  501  0.00000000000E+00  0.00000000000E+00  0.15003097613E+04  0.15003097613E+04  0.50400001928E-02 0.  1.
        1   -1    0    0  501    0  0.00000000000E+00  0.00000000000E+00 -0.19484036422E+04  0.19484036422E+04  0.50400001928E-02 0. -1.
    10030    2    1    2    0    0  0.00000000000E+00  0.00000000000E+00 -0.44809388087E+03  0.34487134034E+04  0.34194789096E+04 0.  0.
        3    1    3    3  502    0 -0.17399388177E+03  0.15744594678E+04 -0.87298598592E+03  0.18086738314E+04  0.10100000352E+00 0. -1.
       -3    1    3    3    0  502  0.17399388177E+03 -0.15744594678E+04  0.42489210505E+03  0.16400395720E+04  0.10100000352E+00 0.  1.
</event>
<event>
 5   0  0.4409125E-07  0.3430744E+04  0.7818609E-02  0.8130402E-01
       -1   -1    0    0    0  501  0.00000000000E+00  0.00000000000E+00  0.28526035040E+04  0.28526035040E+04  0.50400001928E-02 0. -1.
        1   -1    0    0  501    0  0.00000000000E+00  0.00000000000E+00 -0.10315139798E+04  0.10315139798E+04  0.50400001928E-02 0.  1.
    10030    2    1    2    0    0  0.00000000000E+00  0.00000000000E+00  0.18210895241E+04  0.38841174838E+04  0.34307435889E+04 0.  0.
        5    1    3    3  502    0  0.49940638643E+03 -0.28788134612E+03 -0.91856870948E+03  0.10844689817E+04  0.46999998093E+01 0.  1.
       -5    1    3    3    0  502 -0.49940638643E+03  0.28788134612E+03  0.27396582336E+04  0.27996485021E+04  0.46999998093E+01 0. -1.
</event>
<event>
 5   0  0.4693374E-07  0.3499254E+04  0.7818609E-02  0.8113967E-01
        1   -1    0    0  501    0  0.00000000000E+00  0.00000000000E+00  0.10396653484E+04  0.10396653484E+04  0.50400001928E-02 0. -1.
       -1   -1    0    0    0  501  0.00000000000E+00  0.00000000000E+00 -0.29444034249E+04  0.29444034249E+04  0.50400001928E-02 0.  1.
    10030    2    1    2    0    0  0.00000000000E+00  0.00000000000E+00 -0.19047380765E+04  0.39840687732E+04  0.34992537561E+04 0.  0.
        1    1    3    3  502    0  0.56709045790E+03 -0.23046572629E+03  0.91376938836E+03  0.10998547784E+04  0.50400001928E-02 0. -1.
       -1    1    3    3    0  502 -0.56709045790E+03  0.23046572629E+03 -0.28185074649E+04  0.28842139948E+04  0.50400001928E-02 0.  1.
</event>
<event>
 5   0  0.1378620E-06  0.2962034E+04  0.7818609E-02  0.8254656E-01
        2   -1    0    0  501    0  0.00000000000E+00  0.00000000000E+00  0.27383900532E+04  0.27383900532E+04  0.25500000920E-02 0. -1.
       -2   -1    0    0    0  501  0.00000000000E+00  0.00000000000E+00 -0.80098589708E+03  0.80098589708E+03  0.25500000920E-02 0.  1.
    10030    2    1    2    0    0  0.00000000000E+00  0.00000000000E+00  0.19374041561E+04  0.35393759503E+04  0.29620343099E+04 0.  0.
        2    1    3    3  502    0  0.12989815434E+04 -0.70543931543E+03  0.85909430341E+03  0.17096902351E+04  0.25500000920E-02 0.  1.
       -2    1    3    3    0  502 -0.12989815434E+04  0.70543931543E+03  0.10783098527E+04  0.18296857152E+04  0.25500000920E-02 0. -1.
</event>
<event>
 5   0  0.1442864E-06  0.3558145E+04  0.7818609E-02  0.8100147E-01
       -2   -1    0    0    0  501  0.00000000000E+00  0.00000000000E+00  0.24016589846E+04  0.24016589846E+04  0.25500000920E-02 0. -1.
        2   -1    0    0  501    0  0.00000000000E+00  0.00000000000E+00 -0.13178802458E+04  0.13178802458E+04  0.25500000920E-02 0.  1.
    10030    2    1    2    0    0  0.00000000000E+00  0.00000000000E+00  0.10837787389E+04  0.37195392304E+04  0.35581449846E+04 0.  0.
        1    1    3    3  502    0 -0.80152013423E+03  0.11086839008E+04 -0.64701275591E+03  0.15133538991E+04  0.50400001928E-02 0.  1.
       -1    1    3    3    0  502  0.80152013423E+03 -0.11086839008E+04  0.17307914948E+04  0.22061853313E+04  0.50400001928E-02 0. -1.
</event>
<event>
 5   0  0.4409125E-07  0.3693513E+04  0.7818609E-02  0.8069401E-01
        3   -1    0    0  501    0  0.00000000000E+00  0.00000000000E+00  0.27561610372E+04  0.27561610390E+04  0.10100000352E+00 0.  1.
       -3   -1    0    0    0  501  0.00000000000E+00  0.00000000000E+00 -0.12374130313E+04  0.12374130355E+04  0.10100000352E+00 0. -1.
    10030    2    1    2    0    0  0.00000000000E+00  0.00000000000E+00  0.15187480058E+04  0.39935740745E+04  0.36935130138E+04 0.  0.
        4    1    3    3  502    0  0.80183479973E+03 -0.75227013063E+03 -0.84496853088E+03  0.13866588717E+04  0.12699999809E+01 0. -1.
       -4    1    3    3    0  502 -0.80183479973E+03  0.75227013063E+03  0.23637165367E+04  0.26069152028E+04  0.12699999809E+01 0.  1.
</event>
<event>
 5   0  0.4557237E-07  0.3480358E+04  0.7818609E-02  0.8118461E-01
        1   -1    0    0  501    0  0.00000000000E+00  0.00000000000E+00  0.20708793442E+04  0.20708793442E+04  0.50400001928E-02 0.  1.
       -1   -1    0    0    0  501  0.00000000000E+00  0.00000000000E+00 -0.14622888388E+04  0.14622888388E+04  0.50400001928E-02 0. -1.
    10030    2    1    2    0    0  0.00000000000E+00  0.00000000000E+00  0.60859050542E+03  0.35331681830E+04  0.34803584595E+04 0.  0.
        2    1    3    3  502    0  0.57496406039E+03  0.98919385883E+03 -0.10267579054E+04  0.15373093239E+04  0.25500000920E-02 0. -1.
       -2    1    3    3    0  502 -0.57496406039E+03 -0.98919385883E+03  0.16353484108E+04  0.19958588592E+04  0.25500000920E-02 0.  1.
</event>
<event>
 5   0  0.4700769E-07  0.3485242E+04  0.7818609E-02  0.8117296E-01
       -1   -1    0    0    0  501  0.00000000000E+00  0.00000000000E+00  0.11013838611E+04  0.11013838612E+04  0.50400001928E-02 0.  1.
        1   -1    0    0  501    0  0.00000000000E+00  0.00000000000E+00 -0.27571924935E+04  0.27571924935E+04  0.50400001928E-02 0. -1.
    10030    2    1    2    0    0  0.00000000000E+00  0.00000000000E+00 -0.16558086323E+04  0.38585763546E+04  0.34852416355E+04 0.  0.
        3    1    3    3  502    0 -0.10942386974E+04  0.20858904038E+03 -0.23115506716E+04  0.25659567869E+04  0.10100000352E+00 0. -1.
       -3    1    3    3    0  502  0.10942386974E+04 -0.20858904038E+03  0.65574203927E+03  0.12926195677E+04  0.10100000352E+00 0.  1.
</event>
<event>
 5   0  0.1378620E-06  0.3166498E+04  0.7818609E-02  0.8197721E-01
       -2   -1    0    0    0  501  0.00000000000E+00  0.00000000000E+00  0.14406456813E+04  0.14406456813E+04  0.25500000920E-02 0.  1.
        2   -1    0    0  501    0  0.00000000000E+00  0.00000000000E+00 -0.17399685380E+04  0.17399685380E+04  0.25500000920E-02 0. -1.
    10030    2    1    2    0    0  0.00000000000E+00  0.00000000000E+00 -0.29932285664E+03  0.31806142193E+04  0.31664984825E+04 0.  0.
        2    1    3    3  502    0  0.11213476638E+03  0.50039475591E+03  0.13549175202E+04  0.14487134306E+04  0.25500000920E-02 0.  1.
       -2    1    3    3    0  502 -0.11213476638E+03 -0.50039475591E+03 -0.16542403768E+04  0.17319007887E+04  0.25500000920E-02 0. -1.
</event>
<event>
 5   0  0.1361560E-06  0.3485174E+04  0.7818609E-02  0.8117313E-01
       -2   -1    0    0    0  501  0.00000000000E+00  0.00000000000E+00  0.29525717761E+04  0.29525717761E+04  0.25500000920E-02 0.  1.
        2   -1    0    0  501    0  0.00000000000E+00  0.00000000000E+00 -0.10284623776E+04  0.10284623776E+04  0.25500000920E-02 0. -1.
    10030    2    1    2    0    0  0.00000000000E+00  0.00000000000E+00  0.19241093985E+04  0.39810341537E+04  0.34851737339E+04 0.  0.
        3    1    3    3  502    0 -0.10306073018E+04 -0.12245614761E+04  0.17487180758E+03  0.16100566383E+04  0.10100000352E+00 0. -1.
       -3    1    3    3    0  502  0.10306073018E+04  0.12245614761E+04  0.17492375909E+04  0.23709775154E+04  0.10100000352E+00 0.  1.
</event>
<event>
 5   0  0.4693374E-07  0.3571624E+04  0.7818609E-02  0.8097023E-01
       -1   -1    0    0    0  501  0.00000000000E+00  0.00000000000E+00  0.14972528233E+04  0.14972528233E+04  0.50400001928E-02 0. -1.
        1   -1    0    0  501    0  0.00000000000E+00  0.00000000000E+00 -0.21299841623E+04  0.21299841624E+04  0.50400001928E-02 0.  1.
    10030    2    1    2    0    0  0.00000000000E+00  0.00000000000E+00 -0.63273133908E+03  0.36272369856E+04  0.35716241687E+04 0.  0.
        1    1    3    3  502    0 -0.11049634591E+04 -0.93625388116E+01 -0.17410970011E+04  0.20621471020E+04  0.50400001928E-02 0.  1.
       -1    1    3    3    0  502  0.11049634591E+04  0.93625388116E+01  0.11083656620E+04  0.15650898836E+04  0.50400001928E-02 0. -1.
</event>
<event>
 5   0  0.1378620E-06  0.3373340E+04  0.7818609E-02  0.8144481E-01
        2   -1    0    0  501    0  0.00000000000E+00  0.00000000000E+00  0.15661722285E+04  0.15661722285E+04  0.25500000920E-02 0. -1.
       -2   -1    0    0    0  501  0.00000000000E+00  0.00000000000E+00 -0.18164382694E+04  0.18164382694E+04  0.25500000920E-02 0.  1.
    10030    2    1    2    0    0  0.00000000000E+00  0.00000000000E+00 -0.25026604085E+03  0.33826104979E+04  0.33733396937E+04 0.  0.
        2    1    3    3  502    0 -0.14763906412E+04 -0.15157437144E+03 -0.92867860043E+03  0.17507564246E+04  0.25500000920E-02 0. -1.
       -2    1    3    3    0  502  0.14763906412E+04  0.15157437144E+03  0.67841255959E+03  0.16318540733E+04  0.25500000920E-02 0.  1.
</event>
<event>
 5   0  0.4591195E-07  0.3581162E+04  0.7818609E-02  0.8094820E-01
        1   -1    0    0  501    0  0.00000000000E+00  0.00000000000E+00  0.19224747043E+04  0.19224747043E+04  0.50400001928E-02 0.  1.
       -1   -1    0    0    0  501  0.00000000000E+00  0.00000000000E+00 -0.16677359555E+04  0.16677359555E+04  0.50400001928E-02 0. -1.
    10030    2    1    2    0    0  0.00000000000E+00  0.00000000000E+00  0.25473874883E+03  0.35902106599E+04  0.35811619276E+04 0.  0.
        4    1    3    3  502    0  0.34646257792E+03  0.31150525905E+03 -0.16059024790E+04  0.16721232698E+04  0.12699999809E+01 0. -1.
       -4    1    3    3    0  502 -0.34646257792E+03 -0.31150525905E+03  0.18606412278E+04  0.19180873901E+04  0.12699999809E+01 0.  1.
</event>
<event>
 5   0  0.4700769E-07  0.3479994E+04  0.7818609E-02  0.8118547E-01
       -1   -1    0    0    0  501  0.00000000000E+00  0.00000000000E+00  0.14760600898E+04  0.14760600898E+04  0.50400001928E-02 0. -1.
        1   -1    0    0  501    0  0.00000000000E+00  0.00000000000E+00 -0.20511292369E+04  0.20511292369E+04  0.50400001928E-02 0.  1.
    10030    2    1    2    0    0  0.00000000000E+00  0.00000000000E+00 -0.57506914710E+03  0.35271893268E+04  0.34799942562E+04 0.  0.
        3    1    3    3  502    0 -0.10270333659E+04 -0.10016879769E+04 -0.12854754489E+04  0.19262978684E+04  0.10100000352E+00 0.  1.
       -3    1    3    3    0  502  0.10270333659E+04  0.10016879769E+04  0.71040630184E+03  0.16008914584E+04  0.10100000352E+00 0. -1.
</event>
<event>
 5   0  0.1348388E-06  0.3617296E+04  0.7818609E-02  0.8086541E-01
        2   -1    0    0  501    0  0.00000000000E+00  0.00000000000E+00  0.13537678495E+04  0.13537678495E+04  0.25500000920E-02 0.  1.
       -2   -1    0    0    0  501  0.00000000000E+00  0.00000000000E+00 -0.24163724942E+04  0.24163724942E+04  0.25500000920E-02 0. -1.
    10030    2    1    2    0    0  0.00000000000E+00  0.00000000000E+00 -0.10626046447E+04  0.37701403437E+04  0.36172958934E+04 0.  0.
        5    1    3    3  502    0 -0.77275398145E+03 -0.14843602879E+04 -0.12463758706E+04  0.20866118664E+04  0.46999998093E+01 0. -1.
       -5    1    3    3    0  502  0.77275398145E+03  0.14843602879E+04  0.18377122595E+03  0.16835284773E+04  0.46999998093E+01 0.  1.
</event>
<event>
 5   0  0.1378620E-06  0.3508384E+04  0.7818609E-02  0.8111806E-01
       -2   -1    0    0    0  501  0.00000000000E+00  0.00000000000E+00  0.11522883695E+04  0.11522883695E+04  0.25500000920E-02 0.  1.
        2   -1    0    0  501    0  0.00000000000E+00  0.00000000000E+00 -0.26705022829E+04  0.26705022829E+04  0.25500000920E-02 0. -1.
    10030    2    1    2    0    0  0.00000000000E+00  0.00000000000E+00 -0.15182139135E+04  0.38227906524E+04  0.35083835146E+04 0.  0.
        2    1    3    3  502    0  0.13419317044E+04  0.59098248050E+03 -0.18082819320E+04  0.23280731383E+04  0.25500000920E-02 0. -1.
       -2    1    3    3    0  502 -0.13419317044E+04 -0.59098248050E+03  0.29006801855E+03  0.14947175141E+04  0.25500000920E-02 0.  1.
</event>
<event>
 5   0  0.4409125E-07  0.3473092E+04  0.7818609E-02  0.8120196E-01
        3   -1    0    0  501    0  0.00000000000E+00  0.00000000000E+00  0.33150119767E+04  0.33150119783E+04  0.10100000352E+00 0. -1.
       -3   -1    0    0    0  501  0.00000000000E+00  0.00000000000E+00 -0.90967767673E+03  0.90967768234E+03  0.10100000352E+00 0.  1.
    10030    2    1    2    0    0  0.00000000000E+00  0.00000000000E+00  0.24053343000E+04  0.42246896606E+04  0.34730922294E+04 0.  0.
        2    1    3    3  502    0  0.10479630565E+04  0.80074432802E+03  0.25768151282E+04  0.28947183372E+04  0.25500000920E-02 0. -1.
       -2    1    3    3    0  502 -0.10479630565E+04 -0.80074432802E+03 -0.17148082819E+03  0.13299713234E+04  0.25500000920E-02 0.  1.
</event>
<event>
 5   0  0.4557237E-07  0.3510950E+04  0.7818609E-02  0.8111200E-01
        1   -1    0    0  501    0  0.00000000000E+00  0.00000000000E+00  0.18427534922E+04  0.18427534922E+04  0.50400001928E-02 0. -1.
       -1   -1    0    0    0  501  0.00000000000E+00  0.00000000000E+00 -0.16723305179E+04  0.16723305179E+04  0.50400001928E-02 0.  1.
    10030    2    1    2    0    0  0.00000000000E+00  0.00000000000E+00  0.17042297435E+03  0.35150840101E+04  0.35109502429E+04 0.  0.
        2    1    3    3  502    0  0.54828213742E+02  0.17539963396E+04  0.13199561394E+03  0.17598102553E+04  0.25500000920E-02 0. -1.
       -2    1    3    3    0  502 -0.54828213742E+02 -0.17539963396E+04  0.38427360410E+02  0.17552737548E+04  0.25500000920E-02 0.  1.
</event>
<event>
 5   0  0.4693374E-07  0.3502072E+04  0.7818609E-02  0.8113299E-01
       -1   -1    0    0    0  501  0.00000000000E+00  0.00000000000E+00  0.16366191754E+04  0.16366191754E+04  0.50400001928E-02 0.  1.
        1   -1    0    0  501    0  0.00000000000E+00  0.00000000000E+00 -0.18734522009E+04  0.18734522009E+04  0.50400001928E-02 0. -1.
    10030    2    1    2    0    0  0.00000000000E+00  0.00000000000E+00 -0.23683302541E+03  0.35100713763E+04  0.35020724129E+04 0.  0.
        1    1    3    3  502    0 -0.15316372478E+04 -0.26753850299E+03  0.68880386343E+03  0.17005705724E+04  0.50400001928E-02 0.  1.
       -1    1    3    3    0  502  0.15316372478E+04  0.26753850299E+03 -0.92563688885E+03  0.18095008039E+04  0.50400001928E-02 0. -1.
</event>
<event>
 5   0  0.1378620E-06  0.3609459E+04  0.7818609E-02  0.8088328E-01
       -2   -1    0    0    0  501  0.00000000000E+00  0.00000000000E+00  0.18815139643E+04  0.18815139643E+04  0.25500000920E-02 0. -1.
        2   -1    0    0  501    0  0.00000000000E+00  0.00000000000E+00 -0.17310784098E+04  0.17310784098E+04  0.25500000920E-02 0.  1.
    10030    2    1    2    0    0  0.00000000000E+00  0.00000000000E+00  0.15043555450E+03  0.36125923741E+04  0.36094587967E+04 0.  0.
        2    1    3    3  502    0  0.16974111270E+04  0.22529993400E+03  0.64587380261E+03  0.18300594425E+04  0.25500000920E-02 0. -1.
       -2    1    3    3    0  502 -0.16974111270E+04 -0.22529993400E+03 -0.49543824811E+03  0.17825329315E+04  0.25500000920E-02 0.  1.
</event>
<event>
 5   0  0.4693374E-07  0.3630316E+04  0.7818609E-02  0.8083583E-01
        1   -1    0    0  501    0  0.00000000000E+00  0.00000000000E+00  0.28079567328E+04  0.28079567328E+04  0.50400001928E-02 0.  1.
       -1   -1    0    0    0  501  0.00000000000E+00  0.00000000000E+00 -0.11733794315E+04  0.11733794315E+04  0.50400001928E-02 0. -1.
    10030    2    1    2    0    0  0.00000000000E+00  0.00000000000E+00  0.16345773013E+04  0.39813361643E+04  0.36303160605E+04 0.  0.
        1    1    3    3  502    0 -0.94376642437E+03 -0.14759069999E+04  0.29615581594E+03  0.17767117952E+04  0.50400001928E-02 0. -1.
       -1    1    3    3    0  502  0.94376642437E+03  0.14759069999E+04  0.13384214854E+04  0.22046243690E+04  0.50400001928E-02 0.  1.
</event>
<event>
 5   0  0.1348388E-06  0.3507072E+04  0.7818609E-02  0.8112116E-01
       -2   -1    0    0    0  501  0.00000000000E+00  0.00000000000E+00  0.22500609018E+04  0.22500609018E+04  0.25500000920E-02 0.  1.
        2   -1    0    0  501    0  0.00000000000E+00  0.00000000000E+00 -0.13665804122E+04  0.13665804122E+04  0.25500000920E-02 0. -1.
    10030    2    1    2    0    0  0.00000000000E+00  0.00000000000E+00  0.88348048963E+03  0.36166413140E+04  0.35070723715E+04 0.  0.
        5    1    3    3  502    0 -0.46644705118E+03  0.53046225325E+03 -0.12133647478E+04  0.14040082460E+04  0.46999998093E+01 0. -1.
       -5    1    3    3    0  502  0.46644705118E+03 -0.53046225325E+03  0.20968452375E+04  0.22126330680E+04  0.46999998093E+01 0.  1.
</event>
<event>
 5   0  0.4700769E-07  0.3546081E+04  0.7818609E-02  0.8102955E-01
       -1   -1    0    0    0  501  0.00000000000E+00  0.00000000000E+00  0.13739007428E+04  0.13739007428E+04  0.50400001928E-02 0.  1.
        1   -1    0    0  501    0  0.00000000000E+00  0.00000000000E+00 -0.22881364143E+04  0.22881364143E+04  0.50400001928E-02 0. -1.
    10030    2    1    2    0    0  0.00000000000E+00  0.00000000000E+00 -0.91423567157E+03  0.36620371571E+04  0.35460808334E+04 0.  0.
        3    1    3    3  502    0 -0.15469929879E+04 -0.68198463565E+03  0.94562335221E+02  0.16932904043E+04  0.10100000352E+00 0.  1.
       -3    1    3    3    0  502  0.15469929879E+04  0.68198463565E+03 -0.10087980068E+04  0.19687467528E+04  0.10100000352E+00 0. -1.
</event>
<event>
 5   0  0.4409125E-07  0.3574040E+04  0.7818609E-02  0.8096464E-01
        3   -1    0    0  501    0  0.00000000000E+00  0.00000000000E+00  0.18985030415E+04  0.18985030442E+04  0.10100000352E+00 0.  1.
       -3   -1    0    0    0  501  0.00000000000E+00  0.00000000000E+00 -0.16820834270E+04  0.16820834301E+04  0.10100000352E+00 0. -1.
    10030    2    1    2    0    0  0.00000000000E+00  0.00000000000E+00  0.21641961445E+03  0.35805864742E+04  0.35740400180E+04 0.  0.
        5    1    3    3  502    0 -0.70039181993E+03  0.72894141035E+01 -0.15388260094E+04  0.16907422672E+04  0.46999998093E+01 0. -1.
       -5    1    3    3    0  502  0.70039181993E+03 -0.72894141035E+01  0.17552456238E+04  0.18898442070E+04  0.46999998093E+01 0.  1.
</event>
<event>
 5   0  0.4409125E-07  0.3510631E+04  0.7818609E-02  0.8111275E-01
        1   -1    0    0  501    0  0.00000000000E+00  0.00000000000E+00  0.26702672710E+04  0.26702672710E+04  0.50400001928E-02 0.  1.
       -1   -1    0    0    0  501  0.00000000000E+00  0.00000000000E+00 -0.11538669876E+04  0.11538669876E+04  0.50400001928E-02 0. -1.
    10030    2    1    2    0    0  0.00000000000E+00  0.00000000000E+00  0.15164002834E+04  0.38241342586E+04  0.35106314259E+04 0.  0.
        5    1    3    3  502    0 -0.79811965945E+03  0.32264150992E+03 -0.90811657913E+03  0.12513154462E+04  0.46999998093E+01 0. -1.
       -5    1    3    3    0  502  0.79811965945E+03 -0.32264150992E+03  0.24245168625E+04  0.25728188124E+04  0.46999998093E+01 0.  1.
</event>
<event>
 5   0  0.1378620E-06  0.3516659E+04  0.7818609E-02  0.8109853E-01
       -2   -1    0    0    0  501  0.00000000000E+00  0.00000000000E+00  0.16832112837E+04  0.16832112837E+04  0.25500000920E-02 0.  1.
        2   -1    0    0  501    0  0.00000000000E+00  0.00000000000E+00 -0.18367999432E+04  0.18367999432E+04  0.25500000920E-02 0. -1.
    10030    2    1    2    0    0  0.00000000000E+00  0.00000000000E+00 -0.15358865952E+03  0.35200112269E+04  0.35166588634E+04 0.  0.
        2    1    3    3  502    0 -0.14371037755E+04  0.41277138340E+03  0.84933085159E+03  0.17195959909E+04  0.25500000920E-02 0.  1.
       -2    1    3    3    0  502  0.14371037755E+04 -0.41277138340E+03 -0.10029195111E+04  0.18004152360E+04  0.25500000920E-02 0. -1.
</event>
<event>
 5   0  0.4693374E-07  0.3560444E+04  0.7818609E-02  0.8099613E-01
       -1   -1    0    0    0  501  0.00000000000E+00  0.00000000000E+00  0.17767027929E+04  0.17767027929E+04  0.50400001928E-02 0. -1.
        1   -1    0    0  501    0  0.00000000000E+00  0.00000000000E+00 -0.17837480461E+04  0.17837480461E+04  0.50400001928E-02 0.  1.
    10030    2    1    2    0    0  0.00000000000E+00  0.00000000000E+00 -0.70452532153E+01  0.35604508390E+04  0.35604438685E+04 0.  0.
        1    1    3    3  502    0  0.65612562097E+03  0.15074763139E+04  0.67927038252E+03  0.17788743407E+04  0.50400001928E-02 0.  1.
       -1    1    3    3    0  502 -0.65612562097E+03 -0.15074763139E+04 -0.68631563573E+03  0.17815764983E+04  0.50400001928E-02 0. -1.
</event>
<event>
 5   0  0.1378620E-06  0.3478171E+04  0.7818609E-02  0.8118983E-01
        2   -1    0    0  501    0  0.00000000000E+00  0.00000000000E+00  0.16657416196E+04  0.16657416196E+04  0.25500000920E-02 0. -1.
       -2   -1    0    0    0  501  0.00000000000E+00  0.00000000000E+00 -0.18156590396E+04  0.18156590396E+04  0.25500000920E-02 0.  1.
    10030    2    1    2    0    0  0.00000000000E+00  0.00000000000E+00 -0.14991741997E+03  0.34814006592E+04  0.34781712604E+04 0.  0.
        2    1    3    3  502    0  0.42556479745E+03 -0.15838355929E+04 -0.65409617436E+03  0.17656393708E+04  0.25500000920E-02 0.  1.
       -2    1    3    3    0  502 -0.42556479745E+03  0.15838355929E+04  0.50417875439E+03  0.17157612884E+04  0.25500000920E-02 0. -1.
</event>
<event>
 5   0  0.4557237E-07  0.3211896E+04  0.7818609E-02  0.8185683E-01
        1   -1    0    0  501    0  0.00000000000E+00  0.00000000000E+00  0.15012984862E+04  0.15012984862E+04  0.50400001928E-02 0.  1.
       -1   -1    0    0    0  501  0.00000000000E+00  0.00000000000E+00 -0.17178916991E+04  0.17178916991E+04  0.50400001928E-02 0. -1.
    10030    2    1    2    0    0  0.00000000000E+00  0.00000000000E+00 -0.21659321290E+03  0.32191901853E+04  0.32118955196E+04 0.  0.
        2    1    3    3  502    0 -0.13057099074E+04  0.67165434278E+03 -0.76021237940E+03  0.16534572206E+04  0.25500000920E-02 0. -1.
       -2    1    3    3    0  502  0.13057099074E+04 -0.67165434278E+03  0.54361916650E+03  0.15657329647E+04  0.25500000920E-02 0.  1.
</event>
<event>
 5   0  0.4557237E-07  0.3407515E+04  0.7818609E-02  0.8136064E-01
       -1   -1    0    0    0  501  0.00000000000E+00  0.00000000000E+00  0.13061746842E+04  0.13061746842E+04  0.50400001928E-02 0.  1.
        1   -1    0    0  501    0  0.00000000000E+00  0.00000000000E+00 -0.22223599716E+04  0.22223599716E+04  0.50400001928E-02 0. -1.
    10030    2    1    2    0    0  0.00000000000E+00  0.00000000000E+00 -0.91618528737E+03  0.35285346558E+04  0.34075154198E+04 0.  0.
        2    1    3    3  502    0 -0.98895582638E+03  0.13323146738E+03 -0.18880813144E+04  0.21355643985E+04  0.25500000920E-02 0. -1.
       -2    1    3    3    0  502  0.98895582638E+03 -0.13323146738E+03  0.97189602701E+03  0.13929702573E+04  0.25500000920E-02 0.  1.
</event>
<event>
 5   0  0.4591195E-07  0.2789677E+04  0.7818609E-02  0.8306480E-01
        1   -1    0    0  501    0  0.00000000000E+00  0.00000000000E+00  0.10938165534E+04  0.10938165534E+04  0.50400001928E-02 0. -1.
       -1   -1    0    0    0  501  0.00000000000E+00  0.00000000000E+00 -0.17787032508E+04  0.17787032508E+04  0.50400001928E-02 0.  1.
    10030    2    1    2    0    0  0.00000000000E+00  0.00000000000E+00 -0.68488669742E+03  0.28725198042E+04  0.27896774432E+04 0.  0.
        4    1    3    3  502    0 -0.97696300192E+03  0.97866973693E+03 -0.53040810656E+03  0.14810758028E+04  0.12699999809E+01 0.  1.
       -4    1    3    3    0  502  0.97696300192E+03 -0.97866973693E+03 -0.15447859086E+03  0.13914440014E+04  0.12699999809E+01 0. -1.
</event>
<event>
 5   0  0.4591195E-07  0.3373589E+04  0.7818609E-02  0.8144419E-01
        1   -1    0    0  501    0  0.00000000000E+00  0.00000000000E+00  0.93458556232E+03  0.93458556233E+03  0.50400001928E-02 0. -1.
       -1   -1    0    0    0  501  0.00000000000E+00  0.00000000000E+00 -0.30444256801E+04  0.30444256801E+04  0.50400001928E-02 0.  1.
    10030    2    1    2    0    0  0.00000000000E+00  0.00000000000E+00 -0.21098401178E+04  0.39790112424E+04  0.33735893563E+04 0.  0.
        4    1    3    3  502    0 -0.21321233882E+02 -0.10889129152E+04  0.46428975254E+03  0.11839562995E+04  0.12699999809E+01 0. -1.
       -4    1    3    3    0  502  0.21321233882E+02  0.10889129152E+04 -0.25741298703E+04  0.27950549429E+04  0.12699999809E+01 0.  1.
</event>
<event>
 5   0  0.4409125E-07  0.3568509E+04  0.7818609E-02  0.8097743E-01
       -1   -1    0    0    0  501  0.00000000000E+00  0.00000000000E+00  0.18063168939E+04  0.18063168939E+04  0.50400001928E-02 0.  1.
        1   -1    0    0  501    0  0.00000000000E+00  0.00000000000E+00 -0.17624612567E+04  0.17624612567E+04  0.50400001928E-02 0. -1.
    10030    2    1    2    0    0  0.00000000000E+00  0.00000000000E+00  0.43855637155E+02  0.35687781506E+04  0.35685086761E+04 0.  0.
        5    1    3    3  502    0  0.98196512719E+03 -0.50604756722E+03  0.14231766593E+04  0.18016085992E+04  0.46999998093E+01 0.  1.
       -5    1    3    3    0  502 -0.98196512719E+03  0.50604756722E+03 -0.13793210221E+04  0.17671695514E+04  0.46999998093E+01 0. -1.
</event>
<event>
 5   0  0.4700769E-07  0.3473962E+04  0.7818609E-02  0.8119988E-01
       -1   -1    0    0    0  501  0.00000000000E+00  0.00000000000E+00  0.19647556356E+04  0.19647556357E+04  0.50400001928E-02 0. -1.
        1   -1    0    0  501    0  0.00000000000E+00  0.00000000000E+00 -0.15356122364E+04  0.15356122364E+04  0.50400001928E-02 0.  1.
    10030    2    1    2    0    0  0.00000000000E+00  0.00000000000E+00  0.42914339929E+03  0.35003678720E+04  0.34739618856E+04 0.  0.
        3    1    3    3  502    0 -0.11651316377E+04  0.46260101047E+03  0.14260298246E+04  0.18987081131E+04  0.10100000352E+00 0.  1.
       -3    1    3    3    0  502  0.11651316377E+04 -0.46260101047E+03 -0.99688642533E+03  0.16016597589E+04  0.10100000352E+00 0. -1.
</event>
<event>
 5   0  0.1348388E-06  0.3526035E+04  0.7818609E-02  0.8107648E-01
        2   -1    0    0  501    0  0.00000000000E+00  0.00000000000E+00  0.15119567153E+04  0.15119567153E+04  0.25500000920E-02 0. -1.
       -2   -1    0    0    0  501  0.00000000000E+00  0.00000000000E+00 -0.20557672552E+04  0.20557672552E+04  0.25500000920E-02 0.  1.
    10030    2    1    2    0    0  0.00000000000E+00  0.00000000000E+00 -0.54381053995E+03  0.35677239705E+04  0.35260352276E+04 0.  0.
        5    1    3    3  502    0  0.25533531095E+03 -0.15093288864E+04  0.61304335823E+03  0.16489736376E+04  0.46999998093E+01 0.  1.
       -5    1    3    3    0  502 -0.25533531095E+03  0.15093288864E+04 -0.11568538982E+04  0.19187503329E+04  0.46999998093E+01 0. -1.
</event>
<event>
 5   0  0.4409125E-07  0.3475445E+04  0.7818609E-02  0.8119634E-01
       -1   -1    0    0    0  501  0.00000000000E+00  0.00000000000E+00  0.14223541454E+04  0.14223541454E+04  0.50400001928E-02 0.  1.
        1   -1    0    0  501    0  0.00000000000E+00  0.00000000000E+00 -0.21230148612E+04  0.21230148612E+04  0.50400001928E-02 0. -1.
    10030    2    1    2    0    0  0.00000000000E+00  0.00000000000E+00 -0.70066071580E+03  0.35453690066E+04  0.34754447132E+04 0.  0.
        5    1    3    3  502    0  0.20770061323E+03  0.53374584862E+03  0.13232977435E+04  0.14419303671E+04  0.46999998093E+01 0.  1.
       -5    1    3    3    0  502 -0.20770061323E+03 -0.53374584862E+03 -0.20239584592E+04  0.21034386396E+04  0.46999998093E+01 0. -1.
</event>
<event>
 5   0  0.1442864E-06  0.3483852E+04  0.7818609E-02  0.8117627E-01
        2   -1    0    0  501    0  0.00000000000E+00  0.00000000000E+00  0.16643625221E+04  0.16643625221E+04  0.25500000920E-02 0.  1.
       -2   -1    0    0    0  501  0.00000000000E+00  0.00000000000E+00 -0.18231041614E+04  0.18231041614E+04  0.25500000920E-02 0. -1.
    10030    2    1    2    0    0  0.00000000000E+00  0.00000000000E+00 -0.15874163929E+03  0.34874666835E+04  0.34838520291E+04 0.  0.
        1    1    3    3  502    0  0.11755842097E+04  0.72800555744E+03 -0.11398641152E+04  0.17920046113E+04  0.50400001928E-02 0. -1.
       -1    1    3    3    0  502 -0.11755842097E+04 -0.72800555744E+03  0.98112247589E+03  0.16954620723E+04  0.50400001928E-02 0.  1.
</event>
<event>
 5   0  0.4700769E-07  0.3481671E+04  0.7818609E-02  0.8118147E-01
       -1   -1    0    0    0  501  0.00000000000E+00  0.00000000000E+00  0.11558952041E+04  0.11558952042E+04  0.50400001928E-02 0.  1.
        1   -1    0    0  501    0  0.00000000000E+00  0.00000000000E+00 -0.26217845112E+04  0.26217845112E+04  0.50400001928E-02 0. -1.
    10030    2    1    2    0    0  0.00000000000E+00  0.00000000000E+00 -0.14658893071E+04  0.37776797154E+04  0.34816709453E+04 0.  0.
        3    1    3    3  502    0  0.10681506397E+04 -0.10989385560E+04 -0.16289211302E+04  0.22365142069E+04  0.10100000352E+00 0. -1.
       -3    1    3    3    0  502 -0.10681506397E+04  0.10989385560E+04  0.16303182317E+03  0.15411655085E+04  0.10100000352E+00 0.  1.
</event>
<event>
 5   0  0.4591195E-07  0.3496881E+04  0.7818609E-02  0.8114530E-01
        1   -1    0    0  501    0  0.00000000000E+00  0.00000000000E+00  0.18357023258E+04  0.18357023258E+04  0.50400001928E-02 0.  1.
       -1   -1    0    0    0  501  0.00000000000E+00  0.00000000000E+00 -0.16653263139E+04  0.16653263139E+04  0.50400001928E-02 0. -1.
    10030    2    1    2    0    0  0.00000000000E+00  0.00000000000E+00  0.17037601187E+03  0.35010286397E+04  0.34968805456E+04 0.  0.
        4    1    3    3  502    0  0.16296084606E+04  0.61383835690E+03 -0.71907370258E+02  0.17428693428E+04  0.12699999809E+01 0. -1.
       -4    1    3    3    0  502 -0.16296084606E+04 -0.61383835690E+03  0.24228338213E+03  0.17581592969E+04  0.12699999809E+01 0.  1.
</event>
<event>
 5   0  0.1442864E-06  0.3442384E+04  0.7818609E-02  0.8127582E-01
       -2   -1    0    0    0  501  0.00000000000E+00  0.00000000000E+00  0.14607879444E+04  0.14607879444E+04  0.25500000920E-02 0.  1.
        2   -1    0    0  501    0  0.00000000000E+00  0.00000000000E+00 -0.20280164892E+04  0.20280164892E+04  0.25500000920E-02 0. -1.
    10030    2    1    2    0    0  0.00000000000E+00  0.00000000000E+00 -0.56722854488E+03  0.34888044336E+04  0.34423840799E+04 0.  0.
        1    1    3    3  502    0 -0.47549497824E+03 -0.30682032177E+02  0.13926129762E+04  0.14718721965E+04  0.50400001928E-02 0.  1.
       -1    1    3    3    0  502  0.47549497824E+03  0.30682032177E+02 -0.19598415210E+04  0.20169322371E+04  0.50400001928E-02 0. -1.
</event>
<event>
 5   0  0.1361560E-06  0.3378061E+04  0.7818609E-02  0.8143312E-01
        2   -1    0    0  501    0  0.00000000000E+00  0.00000000000E+00  0.18695423717E+04  0.18695423717E+04  0.25500000920E-02 0.  1.
       -2   -1    0    0    0  501  0.00000000000E+00  0.00000000000E+00 -0.15259474193E+04  0.15259474193E+04  0.25500000920E-02 0. -1.
    10030    2    1    2    0    0  0.00000000000E+00  0.00000000000E+00  0.34359495235E+03  0.33954897910E+04  0.33780606018E+04 0.  0.
        3    1    3    3  502    0  0.56802483256E+03 -0.21614952096E+03  0.17558250909E+04  0.18580351412E+04  0.10100000352E+00 0.  1.
       -3    1    3    3    0  502 -0.56802483256E+03  0.21614952096E+03 -0.14122301386E+04  0.15374546498E+04  0.10100000352E+00 0. -1.
</event>
<event>
 5   0  0.1442864E-06  0.2870715E+04  0.7818609E-02  0.8281644E-01
       -2   -1    0    0    0  501  0.00000000000E+00  0.00000000000E+00  0.11422621493E+04  0.11422621493E+04  0.25500000920E-02 0.  1.
        2   -1    0    0  501    0  0.00000000000E+00  0.00000000000E+00 -0.18036581755E+04  0.18036581755E+04  0.25500000920E-02 0. -1.
    10030    2    1    2    0    0  0.00000000000E+00  0.00000000000E+00 -0.66139602620E+03  0.29459203247E+04  0.28707145202E+04 0.  0.
        1    1    3    3  502    0  0.12564096748E+04  0.67751207736E+03 -0.17621325140E+03  0.14382763976E+04  0.50400001928E-02 0.  1.
       -1    1    3    3    0  502 -0.12564096748E+04 -0.67751207736E+03 -0.48518277480E+03  0.15076439271E+04  0.50400001928E-02 0. -1.
</event>
<event>
 5   0  0.1361560E-06  0.3548352E+04  0.7818609E-02  0.8102426E-01
       -2   -1    0    0    0  501  0.00000000000E+00  0.00000000000E+00  0.16943280939E+04  0.16943280939E+04  0.25500000920E-02 0. -1.
        2   -1    0    0  501    0  0.00000000000E+00  0.00000000000E+00 -0.18577873263E+04  0.18577873263E+04  0.25500000920E-02 0.  1.
    10030    2    1    2    0    0  0.00000000000E+00  0.00000000000E+00 -0.16345923233E+03  0.35521154202E+04  0.35483524399E+04 0.  0.
        3    1    3    3  502    0 -0.11016873128E+04 -0.20239465871E+03  0.12956010978E+04  0.17126764866E+04  0.10100000352E+00 0. -1.
       -3    1    3    3    0  502  0.11016873128E+04  0.20239465871E+03 -0.14590603302E+04  0.18394389335E+04  0.10100000352E+00 0.  1.
</event>
<event>
 5   0  0.1378620E-06  0.3048019E+04  0.7818609E-02  0.8230150E-01
        2   -1    0    0  501    0  0.00000000000E+00  0.00000000000E+00  0.16158119107E+04  0.16158119107E+04  0.25500000920E-02 0. -1.
       -2   -1    0    0    0  501  0.00000000000E+00  0.00000000000E+00 -0.14374224389E+04  0.14374224389E+04  0.25500000920E-02 0.  1.
    10030    2    1    2    0    0  0.00000000000E+00  0.00000000000E+00  0.17838947178E+03  0.30532343497E+04  0.30480185679E+04 0.  0.
        2    1    3    3  502    0 -0.70171413870E+02 -0.74415846888E+03 -0.12412001014E+04  0.14488870025E+04  0.25500000920E-02 0.  1.
       -2    1    3    3    0  502  0.70171413870E+02  0.74415846888E+03  0.14195895732E+04  0.16043473472E+04  0.25500000920E-02 0. -1.
</event>
<event>
 5   0  0.1442864E-06  0.3521848E+04  0.7818609E-02  0.8108632E-01
       -2   -1    0    0    0  501  0.00000000000E+00  0.00000000000E+00  0.14084133357E+04  0.14084133357E+04  0.25500000920E-02 0.  1.
        2   -1    0    0  501    0  0.00000000000E+00  0.00000000000E+00 -0.22016648207E+04  0.22016648207E+04  0.25500000920E-02 0. -1.
    10030    2    1    2    0    0  0.00000000000E+00  0.00000000000E+00 -0.79325148502E+03  0.36100781565E+04  0.35218484319E+04 0.  0.
        1    1    3    3  502    0  0.11530803656E+04 -0.10680015364E+04 -0.12106439354E+04  0.19839053277E+04  0.50400001928E-02 0. -1.
       -1    1    3    3    0  502 -0.11530803656E+04  0.10680015364E+04  0.41739245035E+03  0.16261728287E+04  0.50400001928E-02 0.  1.
</event>
<event>
 5   0  0.4409125E-07  0.3518127E+04  0.7818609E-02  0.8109507E-01
        1   -1    0    0  501    0  0.00000000000E+00  0.00000000000E+00  0.19864413368E+04  0.19864413368E+04  0.50400001928E-02 0. -1.
       -1   -1    0    0    0  501  0.00000000000E+00  0.00000000000E+00 -0.15577127817E+04  0.15577127817E+04  0.50400001928E-02 0.  1.
    10030    2    1    2    0    0  0.00000000000E+00  0.00000000000E+00  0.42872855510E+03  0.35441541186E+04  0.35181273772E+04 0.  0.
        5    1    3    3  502    0 -0.55769396005E+03 -0.16632621107E+04  0.83714563544E+02  0.17562726498E+04  0.46999998093E+01 0.  1.
       -5    1    3    3    0  502  0.55769396005E+03  0.16632621107E+04  0.34501399155E+03  0.17878814688E+04  0.46999998093E+01 0. -1.
</event>
<event>
 5   0  0.4409125E-07  0.3128857E+04  0.7818609E-02  0.8207863E-01
        1   -1    0    0  501    0  0.00000000000E+00  0.00000000000E+00  0.19149300182E+04  0.19149300182E+04  0.50400001928E-02 0. -1.
       -1   -1    0    0    0  501  0.00000000000E+00  0.00000000000E+00 -0.12780814783E+04  0.12780814783E+04  0.50400001928E-02 0.  1.
    10030    2    1    2    0    0  0.00000000000E+00  0.00000000000E+00  0.63684853984E+03  0.31930114965E+04  0.31288570364E+04 0.  0.
        5    1    3    3  502    0  0.70934163816E+03 -0.88118206172E+01  0.17413493207E+04  0.18803092178E+04  0.46999998093E+01 0. -1.
       -5    1    3    3    0  502 -0.70934163816E+03  0.88118206172E+01 -0.11045007808E+04  0.13127022788E+04  0.46999998093E+01 0.  1.
</event>
<event>
 5   0  0.1378620E-06  0.3484778E+04  0.7818609E-02  0.8117407E-01
       -2   -1    0    0    0  501  0.00000000000E+00  0.00000000000E+00  0.12927822618E+04  0.12927822618E+04  0.25500000920E-02 0.  1.
        2   -1    0    0  501    0  0.00000000000E+00  0.00000000000E+00 -0.23483615466E+04  0.23483615466E+04  0.25500000920E-02 0. -1.
    10030    2    1    2    0    0  0.00000000000E+00  0.00000000000E+00 -0.10555792848E+04  0.36411438084E+04  0.34847784157E+04 0.  0.
        2    1    3    3  502    0  0.16977199755E+04  0.12579476257E+03 -0.91572071909E+03  0.19330343693E+04  0.25500000920E-02 0. -1.
       -2    1    3    3    0  502 -0.16977199755E+04 -0.12579476257E+03 -0.13985856572E+03  0.17081094391E+04  0.25500000920E-02 0.  1.
</event>
<event>
 5   0  0.4700769E-07  0.3445933E+04  0.7818609E-02  0.8126724E-01
        1   -1    0    0  501    0  0.00000000000E+00  0.00000000000E+00  0.24117845659E+04  0.24117845659E+04  0.50400001928E-02 0.  1.
       -1   -1    0    0    0  501  0.00000000000E+00  0.00000000000E+00 -0.12308784199E+04  0.12308784199E+04  0.50400001928E-02 0. -1.
    10030    2    1    2    0    0  0.00000000000E+00  0.00000000000E+00  0.11809061460E+04  0.36426629858E+04  0.34459330090E+04 0.  0.
        3    1    3    3  502    0 -0.10123588992E+04  0.13900913218E+04  0.47764045851E+03  0.17847590429E+04  0.10100000352E+00 0. -1.
       -3    1    3    3    0  502  0.10123588992E+04 -0.13900913218E+04  0.70326568748E+03  0.18579039429E+04  0.10100000352E+00 0.  1.
</event>
<event>
 5   0  0.4409125E-07  0.3163127E+04  0.7818609E-02  0.8198624E-01
        1   -1    0    0  501    0  0.00000000000E+00  0.00000000000E+00  0.19541918126E+04  0.19541918126E+04  0.50400001928E-02 0. -1.
       -1   -1    0    0    0  501  0.00000000000E+00  0.00000000000E+00 -0.12799881593E+04  0.12799881593E+04  0.50400001928E-02 0.  1.
    10030    2    1    2    0    0  0.00000000000E+00  0.00000000000E+00  0.67420365330E+03  0.32341799718E+04  0.31631265425E+04 0.  0.
        5    1    3    3  502    0  0.42459141802E+03 -0.77479545411E+03  0.16783357838E+04  0.18966863107E+04  0.46999998093E+01 0. -1.
       -5    1    3    3    0  502 -0.42459141802E+03  0.77479545411E+03 -0.10041321305E+04  0.13374936611E+04  0.46999998093E+01 0.  1.
</event>
<event>
 5   0  0.4409125E-07  0.2802566E+04  0.7818609E-02  0.8302472E-01
       -4   -1    0    0    0  501  0.00000000000E+00  0.00000000000E+00  0.18976984371E+04  0.18976988621E+04  0.12699999809E+01 0.  1.
        4   -1    0    0  501    0  0.00000000000E+00  0.00000000000E+00 -0.10347228478E+04  0.10347236272E+04  0.12699999809E+01 0. -1.
    10030    2    1    2    0    0  0.00000000000E+00  0.00000000000E+00  0.86297558929E+03  0.29324224893E+04  0.28025657509E+04 0.  0.
        4    1    3    3  502    0  0.46647545299E+03 -0.12224784309E+04  0.95626333894E+03  0.16206461824E+04  0.12699999809E+01 0. -1.
       -4    1    3    3    0  502 -0.46647545299E+03  0.12224784309E+04 -0.93287749645E+02  0.13117763069E+04  0.12699999809E+01 0.  1.
</event>
<event>
 5   0  0.1361560E-06  0.3511068E+04  0.7818609E-02  0.8111172E-01
       -2   -1    0    0    0  501  0.00000000000E+00  0.00000000000E+00  0.11808372278E+04  0.11808372278E+04  0.25500000920E-02 0. -1.
        2   -1    0    0  501    0  0.00000000000E+00  0.00000000000E+00 -0.26099276875E+04  0.26099276875E+04  0.25500000920E-02 0.  1.
    10030    2    1    2    0    0  0.00000000000E+00  0.00000000000E+00 -0.14290904597E+04  0.37907649154E+04  0.35110680856E+04 0.  0.
        3    1    3    3  502    0 -0.13831753113E+04  0.36146483892E+03  0.38547509806E+03  0.14806828941E+04  0.10100000352E+00 0. -1.
       -3    1    3    3    0  502  0.13831753113E+04 -0.36146483892E+03 -0.18145655578E+04  0.23100820213E+04  0.10100000352E+00 0.  1.
</event>
<event>
 5   0  0.4409125E-07  0.3478588E+04  0.7818609E-02  0.8118883E-01
        3   -1    0    0  501    0  0.00000000000E+00  0.00000000000E+00  0.21974535763E+04  0.21974535787E+04  0.10100000352E+00 0. -1.
       -3   -1    0    0    0  501  0.00000000000E+00  0.00000000000E+00 -0.13766584367E+04  0.13766584405E+04  0.10100000352E+00 0.  1.
    10030    2    1    2    0    0  0.00000000000E+00  0.00000000000E+00  0.82079513960E+03  0.35741120191E+04  0.34785876536E+04 0.  0.
        4    1    3    3  502    0  0.12010281274E+04  0.62839993585E+03  0.15301818740E+04  0.20442145735E+04  0.12699999809E+01 0. -1.
       -4    1    3    3    0  502 -0.12010281274E+04 -0.62839993585E+03 -0.70938673443E+03  0.15298974456E+04  0.12699999809E+01 0.  1.
</event>
<event>
 5   0  0.1378620E-06  0.3361771E+04  0.7818609E-02  0.8147353E-01
       -2   -1    0    0    0  501  0.00000000000E+00  0.00000000000E+00  0.17722612048E+04  0.17722612048E+04  0.25500000920E-02 0.  1.
        2   -1    0    0  501    0  0.00000000000E+00  0.00000000000E+00 -0.15942212327E+04  0.15942212327E+04  0.25500000920E-02 0. -1.
    10030    2    1    2    0    0  0.00000000000E+00  0.00000000000E+00  0.17803997206E+03  0.33664824375E+04  0.33617712252E+04 0.  0.
        2    1    3    3  502    0  0.58482450090E+03  0.12836547831E+04  0.10044055776E+04  0.17316523506E+04  0.25500000920E-02 0.  1.
       -2    1    3    3    0  502 -0.58482450090E+03 -0.12836547831E+04 -0.82636560553E+03  0.16348300869E+04  0.25500000920E-02 0. -1.
</event>
<event>
 5   0  0.4693374E-07  0.3476470E+04  0.7818609E-02  0.8119389E-01
       -1   -1    0    0    0  501  0.00000000000E+00  0.00000000000E+00  0.30414192354E+04  0.30414192354E+04  0.50400001928E-02 0. -1.
        1   -1    0    0  501    0  0.00000000000E+00  0.00000000000E+00 -0.99343807808E+03  0.99343807810E+03  0.50400001928E-02 0.  1.
    10030    2    1    2    0    0  0.00000000000E+00  0.00000000000E+00  0.20479811574E+04  0.40348573135E+04  0.34764704399E+04 0.  0.
        1    1    3    3  502    0 -0.15144069393E+04  0.59141754157E+03  0.31017825444E+03  0.16551174085E+04  0.50400001928E-02 0.  1.
       -1    1    3    3    0  502  0.15144069393E+04 -0.59141754157E+03  0.17378029029E+04  0.23797399051E+04  0.50400001928E-02 0. -1.
</event>
<event>
 5   0  0.1361560E-06  0.3521340E+04  0.7818609E-02  0.8108751E-01
        2   -1    0    0  501    0  0.00000000000E+00  0.00000000000E+00  0.16213739568E+04  0.16213739568E+04  0.25500000920E-02 0. -1.
       -2   -1    0    0    0  501  0.00000000000E+00  0.00000000000E+00 -0.19119333238E+04  0.19119333238E+04  0.25500000920E-02 0.  1.
    10030    2    1    2    0    0  0.00000000000E+00  0.00000000000E+00 -0.29055936706E+03  0.35333072806E+04  0.35213400281E+04 0.  0.
        3    1    3    3  502    0  0.12517429705E+04  0.79018682299E+03  0.81121921804E+03  0.16879965371E+04  0.10100000352E+00 0. -1.
       -3    1    3    3    0  502 -0.12517429705E+04 -0.79018682299E+03 -0.11017785851E+04  0.18453107435E+04  0.10100000352E+00 0.  1.
</event>
<event>
 5   0  0.4557237E-07  0.3466586E+04  0.7818609E-02  0.8121755E-01
        1   -1    0    0  501    0  0.00000000000E+00  0.00000000000E+00  0.11497671834E+04  0.11497671834E+04  0.50400001928E-02 0.  1.
       -1   -1    0    0    0  501  0.00000000000E+00  0.00000000000E+00 -0.26129679816E+04  0.26129679816E+04  0.50400001928E-02 0. -1.
    10030    2    1    2    0    0  0.00000000000E+00  0.00000000000E+00 -0.14632007982E+04  0.37627351650E+04  0.34665861227E+04 0.  0.
        2    1    3    3  502    0  0.16565453110E+04 -0.50408138573E+03 -0.81612760187E+03  0.19142373608E+04  0.25500000920E-02 0. -1.
       -2    1    3    3    0  502 -0.16565453110E+04  0.50408138573E+03 -0.64707319633E+03  0.18484978042E+04  0.25500000920E-02 0.  1.
</event>
<event>
 5   0  0.4409125E-07  0.3544121E+04  0.7818609E-02  0.8103413E-01
       -1   -1    0    0    0  501  0.00000000000E+00  0.00000000000E+00  0.20389372609E+04  0.20389372609E+04  0.50400001928E-02 0.  1.
        1   -1    0    0  501    0  0.00000000000E+00  0.00000000000E+00 -0.15401149095E+04  0.15401149095E+04  0.50400001928E-02 0. -1.
    10030    2    1    2    0    0  0.00000000000E+00  0.00000000000E+00  0.49882235138E+03  0.35790521704E+04  0.35441205821E+04 0.  0.
        5    1    3    3  502    0  0.13522650130E+04  0.11089808867E+04 -0.39266979003E+02  0.17492922163E+04  0.46999998093E+01 0. -1.
       -5    1    3    3    0  502 -0.13522650130E+04 -0.11089808867E+04  0.53808933038E+03  0.18297599541E+04  0.46999998093E+01 0.  1.
</event>
<event>
 5   0  0.4409125E-07  0.3520760E+04  0.7818609E-02  0.8108888E-01
       -1   -1    0    0    0  501  0.00000000000E+00  0.00000000000E+00  0.14634936554E+04  0.14634936554E+04  0.50400001928E-02 0. -1.
        1   -1    0    0  501    0  0.00000000000E+00  0.00000000000E+00 -0.21174936304E+04  0.21174936304E+04  0.50400001928E-02 0.  1.
    10030    2    1    2    0    0  0.00000000000E+00  0.00000000000E+00 -0.65399997496E+03  0.35809872858E+04  0.35207604255E+04 0.  0.
        5    1    3    3  502    0 -0.35462861572E+03 -0.13287377836E+04  0.79071174174E+03  0.15863646180E+04  0.46999998093E+01 0. -1.
       -5    1    3    3    0  502  0.35462861572E+03  0.13287377836E+04 -0.14447117167E+04  0.19946226678E+04  0.46999998093E+01 0.  1.
</event>
<event>
 5   0  0.4557237E-07  0.3351158E+04  0.7818609E-02  0.8149999E-01
       -1   -1    0    0    0  501  0.00000000000E+00  0.00000000000E+00  0.16338694071E+04  0.16338694071E+04  0.50400001928E-02 0.  1.
        1   -1    0    0  501    0  0.00000000000E+00  0.00000000000E+00 -0.17183535739E+04  0.17183535739E+04  0.50400001928E-02 0. -1.
    10030    2    1    2    0    0  0.00000000000E+00  0.00000000000E+00 -0.84484166809E+02  0.33522229810E+04  0.33511582087E+04 0.  0.
        2    1    3    3  502    0  0.27716805664E+03 -0.11757669575E+04 -0.12037808080E+04  0.17053850895E+04  0.25500000920E-02 0. -1.
       -2    1    3    3    0  502 -0.27716805664E+03  0.11757669575E+04  0.11192966412E+04  0.16468378915E+04  0.25500000920E-02 0.  1.
</event>
<event>
 5   0  0.1387133E-06  0.3520606E+04  0.7818609E-02  0.8108924E-01
        2   -1    0    0  501    0  0.00000000000E+00  0.00000000000E+00  0.92913737979E+03  0.92913737980E+03  0.25500000920E-02 0. -1.
       -2   -1    0    0    0  501  0.00000000000E+00  0.00000000000E+00 -0.33349935794E+04  0.33349935794E+04  0.25500000920E-02 0.  1.
    10030    2    1    2    0    0  0.00000000000E+00  0.00000000000E+00 -0.24058561996E+04  0.42641309592E+04  0.35206063091E+04 0.  0.
        4    1    3    3  502    0  0.80584889313E+03  0.13662480925E+04 -0.27841523953E+03  0.16104480579E+04  0.12699999809E+01 0. -1.
       -4    1    3    3    0  502 -0.80584889313E+03 -0.13662480925E+04 -0.21274409600E+04  0.26536829012E+04  0.12699999809E+01 0.  1.
</event>
<event>
 5   0  0.4591195E-07  0.3490588E+04  0.7818609E-02  0.8116024E-01
       -1   -1    0    0    0  501  0.00000000000E+00  0.00000000000E+00  0.17170177174E+04  0.17170177174E+04  0.50400001928E-02 0. -1.
        1   -1    0    0  501    0  0.00000000000E+00  0.00000000000E+00 -0.17740358687E+04  0.17740358687E+04  0.50400001928E-02 0.  1.
    10030    2    1    2    0    0  0.00000000000E+00  0.00000000000E+00 -0.57018151258E+02  0.34910535862E+04  0.34905879264E+04 0.  0.
        4    1    3    3  502    0 -0.97560914338E+03  0.73093639081E+03  0.12206444129E+04  0.17251248082E+04  0.12699999809E+01 0. -1.
       -4    1    3    3    0  502  0.97560914338E+03 -0.73093639081E+03 -0.12776625642E+04  0.17659287780E+04  0.12699999809E+01 0.  1.
</event>
<event>
 5   0  0.4409125E-07  0.3475738E+04  0.7818609E-02  0.8119564E-01
        1   -1    0    0  501    0  0.00000000000E+00  0.00000000000E+00  0.97106944131E+03  0.97106944132E+03  0.50400001928E-02 0. -1.
       -1   -1    0    0    0  501  0.00000000000E+00  0.00000000000E+00 -0.31101670847E+04  0.31101670847E+04  0.50400001928E-02 0.  1.
    10030    2    1    2    0    0  0.00000000000E+00  0.00000000000E+00 -0.21390976434E+04  0.40812365260E+04  0.34757377423E+04 0.  0.
        5    1    3    3  502    0 -0.10961079113E+04 -0.33615997387E+03  0.46399915788E+03  0.12368400825E+04  0.46999998093E+01 0. -1.
       -5    1    3    3    0  502  0.10961079113E+04  0.33615997387E+03 -0.26030968013E+04  0.28443964435E+04  0.46999998093E+01 0.  1.
</event>
<event>
 5   0  0.4557237E-07  0.3279233E+04  0.7818609E-02  0.8168200E-01
       -1   -1    0    0    0  501  0.00000000000E+00  0.00000000000E+00  0.13237398293E+04  0.13237398293E+04  0.50400001928E-02 0.  1.
        1   -1    0    0  501    0  0.00000000000E+00  0.00000000000E+00 -0.20308691762E+04  0.20308691763E+04  0.50400001928E-02 0. -1.
    10030    2    1    2    0    0  0.00000000000E+00  0.00000000000E+00 -0.70712934699E+03  0.33546090055E+04  0.32792330912E+04 0.  0.
        2    1    3    3  502    0  0.18371510350E+03 -0.15113266608E+04  0.26909925223E+03  0.15460510737E+04  0.25500000920E-02 0.  1.
       -2    1    3    3    0  502 -0.18371510350E+03  0.15113266608E+04 -0.97622859922E+03  0.18085579318E+04  0.25500000920E-02 0. -1.
</event>
<event>
 5   0  0.1442864E-06  0.3535729E+04  0.7818609E-02  0.8105374E-01
        2   -1    0    0  501    0  0.00000000000E+00  0.00000000000E+00  0.30135330178E+04  0.30135330178E+04  0.25500000920E-02 0. -1.
       -2   -1    0    0    0  501  0.00000000000E+00  0.00000000000E+00 -0.10371034623E+04  0.10371034623E+04  0.25500000920E-02 0.  1.
    10030    2    1    2    0    0  0.00000000000E+00  0.00000000000E+00  0.19764295556E+04  0.40506364801E+04  0.35357293598E+04 0.  0.
        1    1    3    3  502    0  0.82934272903E+03  0.48533173776E+03 -0.71179670126E+03  0.11958305908E+04  0.50400001928E-02 0.  1.
       -1    1    3    3    0  502 -0.82934272903E+03 -0.48533173776E+03  0.26882262568E+04  0.28548058893E+04  0.50400001928E-02 0. -1.
</event>
<event>
 5   0  0.1361560E-06  0.3479076E+04  0.7818609E-02  0.8118767E-01
        2   -1    0    0  501    0  0.00000000000E+00  0.00000000000E+00  0.15758467499E+04  0.15758467499E+04  0.25500000920E-02 0.  1.
       -2   -1    0    0    0  501  0.00000000000E+00  0.00000000000E+00 -0.19202331019E+04  0.19202331019E+04  0.25500000920E-02 0. -1.
    10030    2    1    2    0    0  0.00000000000E+00  0.00000000000E+00 -0.34438635199E+03  0.34960798519E+04  0.34790763676E+04 0.  0.
        3    1    3    3  502    0 -0.38871525255E+03  0.82226366966E+03  0.13178809546E+04  0.16012580400E+04  0.10100000352E+00 0.  1.
       -3    1    3    3    0  502  0.38871525255E+03 -0.82226366966E+03 -0.16622673066E+04  0.18948218119E+04  0.10100000352E+00 0. -1.
</event>
<event>
 5   0  0.1361560E-06  0.3309161E+04  0.7818609E-02  0.8160568E-01
        2   -1    0    0  501    0  0.00000000000E+00  0.00000000000E+00  0.16548222752E+04  0.16548222752E+04  0.25500000920E-02 0.  1.
       -2   -1    0    0    0  501  0.00000000000E+00  0.00000000000E+00 -0.16543388324E+04  0.16543388324E+04  0.25500000920E-02 0. -1.
    10030    2    1    2    0    0  0.00000000000E+00  0.00000000000E+00  0.48344274153E+00  0.33091611076E+04  0.33091610723E+04 0.  0.
        3    1    3    3  502    0 -0.64894324208E+03 -0.15001672156E+04  0.25716142779E+03  0.16546180878E+04  0.10100000352E+00 0.  1.
       -3    1    3    3    0  502  0.64894324208E+03  0.15001672156E+04 -0.25667798505E+03  0.16545430198E+04  0.10100000352E+00 0. -1.
</event>
<event>
 5   0  0.4591195E-07  0.3467525E+04  0.7818609E-02  0.8121529E-01
       -1   -1    0    0    0  501  0.00000000000E+00  0.00000000000E+00  0.12593473849E+04  0.12593473849E+04  0.50400001928E-02 0.  1.
        1   -1    0    0  501    0  0.00000000000E+00  0.00000000000E+00 -0.23868973912E+04  0.23868973912E+04  0.50400001928E-02 0. -1.
    10030    2    1    2    0    0  0.00000000000E+00  0.00000000000E+00 -0.11275500063E+04  0.36462447762E+04  0.34675253353E+04 0.  0.
        4    1    3    3  502    0  0.12240789385E+04 -0.81241742188E+03 -0.15318439613E+04  0.21224841224E+04  0.12699999809E+01 0. -1.
       -4    1    3    3    0  502 -0.12240789385E+04  0.81241742188E+03  0.40429395497E+03  0.15237606538E+04  0.12699999809E+01 0.  1.
</event>
<event>
 5   0  0.1442864E-06  0.3512580E+04  0.7818609E-02  0.8110815E-01
       -2   -1    0    0    0  501  0.00000000000E+00  0.00000000000E+00  0.14752659051E+04  0.14752659051E+04  0.25500000920E-02 0.  1.
        2   -1    0    0  501    0  0.00000000000E+00  0.00000000000E+00 -0.20908466956E+04  0.20908466956E+04  0.25500000920E-02 0. -1.
    10030    2    1    2    0    0  0.00000000000E+00  0.00000000000E+00 -0.61558079056E+03  0.35661126007E+04  0.35125801587E+04 0.  0.
        1    1    3    3  502    0  0.62899722531E+03 -0.92117533251E+03  0.10694806428E+04  0.15453123788E+04  0.50400001928E-02 0.  1.
       -1    1    3    3    0  502 -0.62899722531E+03  0.92117533251E+03 -0.16850614333E+04  0.20208002219E+04  0.50400001928E-02 0. -1.
</event>
<event>
 5   0  0.4557237E-07  0.3495999E+04  0.7818609E-02  0.8114739E-01
        1   -1    0    0  501    0  0.00000000000E+00  0.00000000000E+00  0.15775458314E+04  0.15775458314E+04  0.50400001928E-02 0.  1.
       -1   -1    0    0    0  501  0.00000000000E+00  0.00000000000E+00 -0.19368706968E+04  0.19368706968E+04  0.50400001928E-02 0. -1.
    10030    2    1    2    0    0  0.00000000000E+00  0.00000000000E+00 -0.35932486536E+03  0.35144165282E+04  0.34959990239E+04 0.  0.
        2    1    3    3  502    0 -0.36592064691E+03 -0.21909819848E+03  0.15244377156E+04  0.15829757702E+04  0.25500000920E-02 0.  1.
       -2    1    3    3    0  502  0.36592064691E+03  0.21909819848E+03 -0.18837625809E+04  0.19314407580E+04  0.25500000920E-02 0. -1.
</event>
<event>
 5   0  0.4700769E-07  0.3309261E+04  0.7818609E-02  0.8160543E-01
       -1   -1    0    0    0  501  0.00000000000E+00  0.00000000000E+00  0.15826383388E+04  0.15826383388E+04  0.50400001928E-02 0. -1.
        1   -1    0    0  501    0  0.00000000000E+00  0.00000000000E+00 -0.17298972048E+04  0.17298972048E+04  0.50400001928E-02 0.  1.
    10030    2    1    2    0    0  0.00000000000E+00  0.00000000000E+00 -0.14725886599E+03  0.33125355436E+04  0.33092607262E+04 0.  0.
        3    1    3    3  502    0  0.15726483837E+04  0.38436041791E+03  0.26853592525E+03  0.16410568006E+04  0.10100000352E+00 0. -1.
       -3    1    3    3    0  502 -0.15726483837E+04 -0.38436041791E+03 -0.41579479123E+03  0.16714787429E+04  0.10100000352E+00 0.  1.
</event>
<event>
 5   0  0.4409125E-07  0.3476689E+04  0.7818609E-02  0.8119337E-01
       -1   -1    0    0    0  501  0.00000000000E+00  0.00000000000E+00  0.13094618047E+04  0.13094618047E+04  0.50400001928E-02 0. -1.
        1   -1    0    0  501    0  0.00000000000E+00  0.00000000000E+00 -0.23076980589E+04  0.23076980589E+04  0.50400001928E-02 0.  1.
    10030    2    1    2    0    0  0.00000000000E+00  0.00000000000E+00 -0.99823625414E+03  0.36171598636E+04  0.34766894972E+04 0.  0.
        5    1    3    3  502    0 -0.16832315042E+03  0.50462604103E+03 -0.22209278205E+04  0.22837518688E+04  0.46999998093E+01 0.  1.
       -5    1    3    3    0  502  0.16832315042E+03 -0.50462604103E+03  0.12226915664E+04  0.13334079948E+04  0.46999998093E+01 0. -1.
</event>
<event>
 5   0  0.1378620E-06  0.3513172E+04  0.7818609E-02  0.8110675E-01
        2   -1    0    0  501    0  0.00000000000E+00  0.00000000000E+00  0.21767991102E+04  0.21767991102E+04  0.25500000920E-02 0.  1.
       -2   -1    0    0    0  501  0.00000000000E+00  0.00000000000E+00 -0.14174914447E+04  0.14174914447E+04  0.25500000920E-02 0. -1.
    10030    2    1    2    0    0  0.00000000000E+00  0.00000000000E+00  0.75930766557E+03  0.35942905549E+04  0.35131718521E+04 0.  0.
        2    1    3    3  502    0  0.90241748883E+03  0.28882665780E+03 -0.11336257743E+04  0.14774591563E+04  0.25500000920E-02 0. -1.
       -2    1    3    3    0  502 -0.90241748883E+03 -0.28882665780E+03  0.18929334399E+04  0.21168313986E+04  0.25500000920E-02 0.  1.
</event>
<event>
 5   0  0.1442864E-06  0.3543550E+04  0.7818609E-02  0.8103546E-01
        2   -1    0    0  501    0  0.00000000000E+00  0.00000000000E+00  0.23218179366E+04  0.23218179366E+04  0.25500000920E-02 0.  1.
       -2   -1    0    0    0  501  0.00000000000E+00  0.00000000000E+00 -0.13520383274E+04  0.13520383274E+04  0.25500000920E-02 0. -1.
    10030    2    1    2    0    0  0.00000000000E+00  0.00000000000E+00  0.96977960924E+03  0.36738562640E+04  0.35435501066E+04 0.  0.
        1    1    3    3  502    0 -0.86178942618E+03  0.15374328057E+04  0.29710454593E+03  0.17873588779E+04  0.50400001928E-02 0. -1.
       -1    1    3    3    0  502  0.86178942618E+03 -0.15374328057E+04  0.67267506331E+03  0.18864973862E+04  0.50400001928E-02 0.  1.
</event>
<event>
 5   0  0.1348388E-06  0.3020812E+04  0.7818609E-02  0.8237813E-01
       -2   -1    0    0    0  501  0.00000000000E+00  0.00000000000E+00  0.13922977053E+04  0.13922977053E+04  0.25500000920E-02 0. -1.
        2   -1    0    0  501    0  0.00000000000E+00  0.00000000000E+00 -0.16385334274E+04  0.16385334274E+04  0.25500000920E-02 0.  1.
    10030    2    1    2    0    0  0.00000000000E+00  0.00000000000E+00 -0.24623572210E+03  0.30308311327E+04  0.30208120306E+04 0.  0.
        5    1    3    3  502    0  0.31530790904E+03 -0.12460126318E+04  0.67282136164E+03  0.14507505749E+04  0.46999998093E+01 0. -1.
       -5    1    3    3    0  502 -0.31530790904E+03  0.12460126318E+04 -0.91905708373E+03  0.15800805578E+04  0.46999998093E+01 0.  1.
</event>
<event>
 5   0  0.4557237E-07  0.3529218E+04  0.7818609E-02  0.8106900E-01
       -1   -1    0    0    0  501  0.00000000000E+00  0.00000000000E+00  0.18527323307E+04  0.18527323307E+04  0.50400001928E-02 0. -1.
        1   -1    0    0  501    0  0.00000000000E+00  0.00000000000E+00 -0.16806772150E+04  0.16806772150E+04  0.50400001928E-02 0.  1.
    10030    2    1    2    0    0  0.00000000000E+00  0.00000000000E+00  0.17205511569E+03  0.35334095457E+04  0.35292180514E+04 0.  0.
        2    1    3    3  502    0 -0.21843692488E+03  0.13148691108E+04  0.12437960209E+04  0.18230809116E+04  0.25500000920E-02 0. -1.
       -2    1    3    3    0  502  0.21843692488E+03 -0.13148691108E+04 -0.10717409052E+04  0.17103286341E+04  0.25500000920E-02 0.  1.
</event>
<event>
 5   0  0.1387133E-06  0.3256064E+04  0.7818609E-02  0.8174166E-01
       -2   -1    0    0    0  501  0.00000000000E+00  0.00000000000E+00  0.10597124470E+04  0.10597124470E+04  0.25500000920E-02 0. -1.
        2   -1    0    0  501    0  0.00000000000E+00  0.00000000000E+00 -0.25011386970E+04  0.25011386970E+04  0.25500000920E-02 0.  1.
    10030    2    1    2    0    0  0.00000000000E+00  0.00000000000E+00 -0.14414262500E+04  0.35608511440E+04  0.32560637640E+04 0.  0.
        4    1    3    3  502    0 -0.79743035801E+03 -0.14133816811E+04 -0.86306368936E+03  0.18380488288E+04  0.12699999809E+01 0.  1.
       -4    1    3    3    0  502  0.79743035801E+03  0.14133816811E+04 -0.57836256069E+03  0.17228023151E+04  0.12699999809E+01 0. -1.
</event>
<event>
 5   0  0.1442864E-06  0.3487725E+04  0.7818609E-02  0.8116705E-01
        2   -1    0    0  501    0  0.00000000000E+00  0.00000000000E+00  0.28002377534E+04  0.28002377534E+04  0.25500000920E-02 0. -1.
       -2   -1    0    0    0  501  0.00000000000E+00  0.00000000000E+00 -0.10859996625E+04  0.10859996625E+04  0.25500000920E-02 0.  1.
    10030    2    1    2    0    0  0.00000000000E+00  0.00000000000E+00  0.17142380909E+04  0.38862374158E+04  0.34877254795E+04 0.  0.
        1    1    3    3  502    0 -0.11318739160E+04  0.58038412298E+03  0.21863505267E+04  0.25294491332E+04  0.50400001928E-02 0. -1.
       -1    1    3    3    0  502  0.11318739160E+04 -0.58038412298E+03 -0.47211243577E+03  0.13567882827E+04  0.50400001928E-02 0.  1.
</event>
<event>
 5   0  0.4693374E-07  0.3476008E+04  0.7818609E-02  0.8119499E-01
        1   -1    0    0  501    0  0.00000000000E+00  0.00000000000E+00  0.24450769963E+04  0.24450769963E+04  0.50400001928E-02 0. -1.
       -1   -1    0    0    0  501  0.00000000000E+00  0.00000000000E+00 -0.12354041243E+04  0.12354041243E+04  0.50400001928E-02 0.  1.
    10030    2    1    2    0    0  0.00000000000E+00  0.00000000000E+00  0.12096728720E+04  0.36804811206E+04  0.34760081735E+04 0.  0.
        1    1    3    3  502    0  0.15813324660E+04 -0.53310044258E+03  0.11190476229E+04  0.20092476284E+04  0.50400001928E-02 0. -1.
       -1    1    3    3    0  502 -0.15813324660E+04  0.53310044258E+03  0.90625249123E+02  0.16712334922E+04  0.50400001928E-02 0.  1.
</event>
<event>
 5   0  0.4409125E-07  0.3341311E+04  0.7818609E-02  0.8152463E-01
        1   -1    0    0  501    0  0.00000000000E+00  0.00000000000E+00  0.26668979522E+04  0.26668979522E+04  0.50400001928E-02 0.  1.
       -1   -1    0    0    0  501  0.00000000000E+00  0.00000000000E+00 -0.10465677061E+04  0.10465677061E+04  0.50400001928E-02 0. -1.
    10030    2    1    2    0    0  0.00000000000E+00  0.00000000000E+00  0.16203302461E+04  0.37134656583E+04  0.33413106842E+04 0.  0.
        5    1    3    3  502    0 -0.83427666762E+03  0.98909929007E+03  0.19846220009E+04  0.23691942808E+04  0.46999998093E+01 0.  1.
       -5    1    3    3    0  502  0.83427666762E+03 -0.98909929007E+03 -0.36429175476E+03  0.13442713775E+04  0.46999998093E+01 0. -1.
</event>
<event>
 5   0  0.1348388E-06  0.3492198E+04  0.7818609E-02  0.8115641E-01
        2   -1    0    0  501    0  0.00000000000E+00  0.00000000000E+00  0.24742194709E+04  0.24742194709E+04  0.25500000920E-02 0. -1.
       -2   -1    0    0    0  501  0.00000000000E+00  0.00000000000E+00 -0.12322517386E+04  0.12322517386E+04  0.25500000920E-02 0.  1.
    10030    2    1    2    0    0  0.00000000000E+00  0.00000000000E+00  0.12419677323E+04  0.37064712094E+04  0.34921977290E+04 0.  0.
        5    1    3    3  502    0  0.13037631524E+04 -0.11498575966E+04  0.79495689994E+03  0.19115306466E+04  0.46999998093E+01 0. -1.
       -5    1    3    3    0  502 -0.13037631524E+04  0.11498575966E+04  0.44701083234E+03  0.17949405629E+04  0.46999998093E+01 0.  1.
</event>
<event>
 5   0  0.1348388E-06  0.3477811E+04  0.7818609E-02  0.8119069E-01
        2   -1    0    0  501    0  0.00000000000E+00  0.00000000000E+00  0.15784591340E+04  0.15784591340E+04  0.25500000920E-02 0.  1.
       -2   -1    0    0    0  501  0.00000000000E+00  0.00000000000E+00 -0.19156611491E+04  0.19156611491E+04  0.25500000920E-02 0. -1.
    10030    2    1    2    0    0  0.00000000000E+00  0.00000000000E+00 -0.33720201510E+03  0.34941202831E+04  0.34778112879E+04 0.  0.
        5    1    3    3  502    0 -0.70666302421E+03  0.12657517609E+04  0.79625170109E+03  0.16539464960E+04  0.46999998093E+01 0.  1.
       -5    1    3    3    0  502  0.70666302421E+03 -0.12657517609E+04 -0.11334537162E+04  0.18401737871E+04  0.46999998093E+01 0. -1.
</event>
<event>
 5   0  0.1348388E-06  0.3545298E+04  0.7818609E-02  0.8103138E-01
       -2   -1    0    0    0  501  0.00000000000E+00  0.00000000000E+00  0.10142166640E+04  0.10142166640E+04  0.25500000920E-02 0. -1.
        2   -1    0    0  501    0  0.00000000000E+00  0.00000000000E+00 -0.30982377387E+04  0.30982377387E+04  0.25500000920E-02 0.  1.
    10030    2    1    2    0    0  0.00000000000E+00  0.00000000000E+00 -0.20840210748E+04  0.41124544027E+04  0.35452979246E+04 0.  0.
        5    1    3    3  502    0  0.48461468737E+03 -0.55730220366E+01 -0.30198873705E+04  0.30585330265E+04  0.46999998093E+01 0.  1.
       -5    1    3    3    0  502 -0.48461468737E+03  0.55730220366E+01  0.93586629570E+03  0.10539213762E+04  0.46999998093E+01 0. -1.
</event>
<event>
 5   0  0.1387133E-06  0.3535505E+04  0.7818609E-02  0.8105427E-01
        2   -1    0    0  501    0  0.00000000000E+00  0.00000000000E+00  0.16954028345E+04  0.16954028346E+04  0.25500000920E-02 0.  1.
       -2   -1    0    0    0  501  0.00000000000E+00  0.00000000000E+00 -0.18431898232E+04  0.18431898232E+04  0.25500000920E-02 0. -1.
    10030    2    1    2    0    0  0.00000000000E+00  0.00000000000E+00 -0.14778698866E+03  0.35385926578E+04  0.35355051978E+04 0.  0.
        4    1    3    3  502    0 -0.15546660927E+03  0.36644341885E+03 -0.17977497458E+04  0.18412920483E+04  0.12699999809E+01 0. -1.
       -4    1    3    3    0  502  0.15546660927E+03 -0.36644341885E+03  0.16499627572E+04  0.16973006094E+04  0.12699999809E+01 0.  1.
</event>
<event>
 5   0  0.1387133E-06  0.3575474E+04  0.7818609E-02  0.8096133E-01
       -2   -1    0    0    0  501  0.00000000000E+00  0.00000000000E+00  0.13579441502E+04  0.13579441502E+04  0.25500000920E-02 0.  1.
        2   -1    0    0  501    0  0.00000000000E+00  0.00000000000E+00 -0.23535602226E+04  0.23535602226E+04  0.25500000920E-02 0. -1.
    10030    2    1    2    0    0  0.00000000000E+00  0.00000000000E+00 -0.99561607238E+03  0.37115043728E+04  0.35754738631E+04 0.  0.
        4    1    3    3  502    0 -0.11564737440E+04  0.42631205035E+03  0.84638195849E+03  0.14951714007E+04  0.12699999809E+01 0.  1.
       -4    1    3    3    0  502  0.11564737440E+04 -0.42631205035E+03 -0.18419980309E+04  0.22163329722E+04  0.12699999809E+01 0. -1.
</event>
<event>
 5   0  0.4409125E-07  0.3507040E+04  0.7818609E-02  0.8112124E-01
       -1   -1    0    0    0  501  0.00000000000E+00  0.00000000000E+00  0.12690231857E+04  0.12690231857E+04  0.50400001928E-02 0.  1.
        1   -1    0    0  501    0  0.00000000000E+00  0.00000000000E+00 -0.24229912606E+04  0.24229912607E+04  0.50400001928E-02 0. -1.
    10030    2    1    2    0    0  0.00000000000E+00  0.00000000000E+00 -0.11539680749E+04  0.36920144464E+04  0.35070398279E+04 0.  0.
        5    1    3    3  502    0  0.11436646905E+04 -0.80924047080E+03 -0.16871027197E+04  0.21929835250E+04  0.46999998093E+01 0.  1.
       -5    1    3    3    0  502 -0.11436646905E+04  0.80924047080E+03  0.53313464475E+03  0.14990309214E+04  0.46999998093E+01 0. -1.
</event>
<event>
 5   0  0.1361560E-06  0.2753163E+04  0.7818609E-02  0.8317959E-01
        2   -1    0    0  501    0  0.00000000000E+00  0.00000000000E+00  0.23710795867E+04  0.23710795867E+04  0.25500000920E-02 0.  1.
       -2   -1    0    0    0  501  0.00000000000E+00  0.00000000000E+00 -0.79920428664E+03  0.79920428665E+03  0.25500000920E-02 0. -1.
    10030    2    1    2    0    0  0.00000000000E+00  0.00000000000E+00  0.15718753001E+04  0.31702838734E+04  0.27531632496E+04 0.  0.
        3    1    3    3  502    0 -0.34538616220E+03  0.10091408254E+04 -0.21615054199E+03  0.10882912632E+04  0.10100000352E+00 0. -1.
       -3    1    3    3    0  502  0.34538616220E+03 -0.10091408254E+04  0.17880258421E+04  0.20819926102E+04  0.10100000352E+00 0.  1.
</event>
<event>
 5   0  0.1378620E-06  0.3490278E+04  0.7818609E-02  0.8116098E-01
        2   -1    0    0  501    0  0.00000000000E+00  0.00000000000E+00  0.23710117022E+04  0.23710117022E+04  0.25500000920E-02 0.  1.
       -2   -1    0    0    0  501  0.00000000000E+00  0.00000000000E+00 -0.12844769367E+04  0.12844769368E+04  0.25500000920E-02 0. -1.
    10030    2    1    2    0    0  0.00000000000E+00  0.00000000000E+00  0.10865347655E+04  0.36554886390E+04  0.34902778390E+04 0.  0.
        2    1    3    3  502    0 -0.16531685445E+04 -0.37594566555E+03  0.10990814387E+03  0.16989353078E+04  0.25500000920E-02 0. -1.
       -2    1    3    3    0  502  0.16531685445E+04  0.37594566555E+03  0.97662662163E+03  0.19565533312E+04  0.25500000920E-02 0.  1.
</event>
<event>
 5   0  0.4700769E-07  0.3502969E+04  0.7818609E-02  0.8113087E-01
       -1   -1    0    0    0  501  0.00000000000E+00  0.00000000000E+00  0.13025395770E+04  0.13025395771E+04  0.50400001928E-02 0.  1.
        1   -1    0    0  501    0  0.00000000000E+00  0.00000000000E+00 -0.23551665041E+04  0.23551665041E+04  0.50400001928E-02 0. -1.
    10030    2    1    2    0    0  0.00000000000E+00  0.00000000000E+00 -0.10526269271E+04  0.36577060812E+04  0.35029687878E+04 0.  0.
        3    1    3    3  502    0  0.12366553579E+04 -0.11672848677E+04 -0.96415351571E+03  0.19548561197E+04  0.10100000352E+00 0.  1.
       -3    1    3    3    0  502 -0.12366553579E+04  0.11672848677E+04 -0.88473411355E+02  0.17028499615E+04  0.10100000352E+00 0. -1.
</event>
<event>
 5   0  0.1348388E-06  0.3585918E+04  0.7818609E-02  0.8093725E-01
       -2   -1    0    0    0  501  0.00000000000E+00  0.00000000000E+00  0.17368678638E+04  0.17368678638E+04  0.25500000920E-02 0.  1.
        2   -1    0    0  501    0  0.00000000000E+00  0.00000000000E+00 -0.18508612942E+04  0.18508612942E+04  0.25500000920E-02 0. -1.
    10030    2    1    2    0    0  0.00000000000E+00  0.00000000000E+00 -0.11399343048E+03  0.35877291580E+04  0.35859177359E+04 0.  0.
        5    1    3    3  502    0 -0.11530592313E+04  0.12012716423E+04 -0.72222375034E+03  0.18150009325E+04  0.46999998093E+01 0. -1.
       -5    1    3    3    0  502  0.11530592313E+04 -0.12012716423E+04  0.60823031987E+03  0.17727282255E+04  0.46999998093E+01 0.  1.
</event>
<event>
 5   0  0.1378620E-06  0.3480510E+04  0.7818609E-02  0.8118424E-01
       -2   -1    0    0    0  501  0.00000000000E+00  0.00000000000E+00  0.24439214632E+04  0.24439214632E+04  0.25500000920E-02 0.  1.
        2   -1    0    0  501    0  0.00000000000E+00  0.00000000000E+00 -0.12391918508E+04  0.12391918508E+04  0.25500000920E-02 0. -1.
    10030    2    1    2    0    0  0.00000000000E+00  0.00000000000E+00  0.12047296123E+04  0.36831133140E+04  0.34805100553E+04 0.  0.
        2    1    3    3  502    0  0.10881980899E+04 -0.12685128727E+04  0.89173405633E+02  0.16736940841E+04  0.25500000920E-02 0.  1.
       -2    1    3    3    0  502 -0.10881980899E+04  0.12685128727E+04  0.11155562067E+04  0.20094192299E+04  0.25500000920E-02 0. -1.
</event>
<event>
 5   0  0.4693374E-07  0.3830965E+04  0.7818609E-02  0.8039542E-01
        1   -1    0    0  501    0  0.00000000000E+00  0.00000000000E+00  0.14724280132E+04  0.14724280132E+04  0.50400001928E-02 0.  1.
       -1   -1    0    0    0  501  0.00000000000E+00  0.00000000000E+00 -0.24918529764E+04  0.24918529764E+04  0.50400001928E-02 0. -1.
    10030    2    1    2    0    0  0.00000000000E+00  0.00000000000E+00 -0.10194249632E+04  0.39642809896E+04  0.38309654800E+04 0.  0.
        1    1    3    3  502    0 -0.93817046932E+03  0.16571629838E+04 -0.29582881393E+03  0.19271397644E+04  0.50400001928E-02 0. -1.
       -1    1    3    3    0  502  0.93817046932E+03 -0.16571629838E+04 -0.72359614926E+03  0.20371412252E+04  0.50400001928E-02 0.  1.
</event>
<event>
 5   0  0.1348388E-06  0.3452587E+04  0.7818609E-02  0.8125119E-01
       -2   -1    0    0    0  501  0.00000000000E+00  0.00000000000E+00  0.27192444799E+04  0.27192444799E+04  0.25500000920E-02 0.  1.
        2   -1    0    0  501    0  0.00000000000E+00  0.00000000000E+00 -0.10959257076E+04  0.10959257076E+04  0.25500000920E-02 0. -1.
    10030    2    1    2    0    0  0.00000000000E+00  0.00000000000E+00  0.16233187723E+04  0.38151701875E+04  0.34525873955E+04 0.  0.
        5    1    3    3  502    0 -0.13565999542E+03 -0.16290214922E+04  0.19844605939E+03  0.16466686324E+04  0.46999998093E+01 0. -1.
       -5    1    3    3    0  502  0.13565999542E+03  0.16290214922E+04  0.14248727129E+04  0.21685015551E+04  0.46999998093E+01 0.  1.
</event>
<event>
 5   0  0.4409125E-07  0.3516279E+04  0.7818609E-02  0.8109943E-01
       -4   -1    0    0    0  501  0.00000000000E+00  0.00000000000E+00  0.18839953516E+04  0.18839957796E+04  0.12699999809E+01 0.  1.
        4   -1    0    0  501    0  0.00000000000E+00  0.00000000000E+00 -0.16406901092E+04  0.16406906007E+04  0.12699999809E+01 0. -1.
    10030    2    1    2    0    0  0.00000000000E+00  0.00000000000E+00  0.24330524243E+03  0.35246863803E+04  0.35162788056E+04 0.  0.
        2    1    3    3  502    0  0.15091178654E+04  0.21492939101E+03 -0.75646869989E+03  0.17017274366E+04  0.25500000920E-02 0. -1.
       -2    1    3    3    0  502 -0.15091178654E+04 -0.21492939101E+03  0.99977394231E+03  0.18229589437E+04  0.25500000920E-02 0.  1.
</event>
<event>
 5   0  0.1361560E-06  0.3508089E+04  0.7818609E-02  0.8111876E-01
        2   -1    0    0  501    0  0.00000000000E+00  0.00000000000E+00  0.25113341216E+04  0.25113341216E+04  0.25500000920E-02 0. -1.
       -2   -1    0    0    0  501  0.00000000000E+00  0.00000000000E+00 -0.12251148345E+04  0.12251148345E+04  0.25500000920E-02 0.  1.
    10030    2    1    2    0    0  0.00000000000E+00  0.00000000000E+00  0.12862192871E+04  0.37364489562E+04  0.35080893301E+04 0.  0.
        3    1    3    3  502    0 -0.14447984127E+04  0.95992364513E+03  0.36582296828E+03  0.17727724931E+04  0.10100000352E+00 0.  1.
       -3    1    3    3    0  502  0.14447984127E+04 -0.95992364513E+03  0.92039631880E+03  0.19636764631E+04  0.10100000352E+00 0. -1.
</event>
<event>
 5   0  0.4557237E-07  0.3906271E+04  0.7818609E-02  0.8023726E-01
        1   -1    0    0  501    0  0.00000000000E+00  0.00000000000E+00  0.12249260937E+04  0.12249260937E+04  0.50400001928E-02 0.  1.
       -1   -1    0    0    0  501  0.00000000000E+00  0.00000000000E+00 -0.31142602041E+04  0.31142602041E+04  0.50400001928E-02 0. -1.
    10030    2    1    2    0    0  0.00000000000E+00  0.00000000000E+00 -0.18893341104E+04  0.43391862978E+04  0.39062711563E+04 0.  0.
        2    1    3    3  502    0  0.50508312959E+02 -0.17995509255E+04 -0.17861158284E+04  0.25359701054E+04  0.25500000920E-02 0. -1.
       -2    1    3    3    0  502 -0.50508312959E+02  0.17995509255E+04 -0.10321828202E+03  0.18032161925E+04  0.25500000920E-02 0.  1.
</event>
<event>
 5   0  0.4409125E-07  0.3595016E+04  0.7818609E-02  0.8091634E-01
        1   -1    0    0  501    0  0.00000000000E+00  0.00000000000E+00  0.23083871973E+04  0.23083871973E+04  0.50400001928E-02 0.  1.
       -1   -1    0    0    0  501  0.00000000000E+00  0.00000000000E+00 -0.13996935364E+04  0.13996935364E+04  0.50400001928E-02 0. -1.
    10030    2    1    2    0    0  0.00000000000E+00  0.00000000000E+00  0.90869366089E+03  0.37080807337E+04  0.35950157939E+04 0.  0.
        5    1    3    3  502    0 -0.11014605721E+04 -0.61973931641E+03  0.17727166005E+04  0.21771170038E+04  0.46999998093E+01 0.  1.
       -5    1    3    3    0  502  0.11014605721E+04  0.61973931641E+03 -0.86402293963E+03  0.15309637300E+04  0.46999998093E+01 0. -1.
</event>
<event>
 5   0  0.1378620E-06  0.3507729E+04  0.7818609E-02  0.8111961E-01
       -2   -1    0    0    0  501  0.00000000000E+00  0.00000000000E+00  0.11421333560E+04  0.11421333560E+04  0.25500000920E-02 0.  1.
        2   -1    0    0  501    0  0.00000000000E+00  0.00000000000E+00 -0.26932406900E+04  0.26932406900E+04  0.25500000920E-02 0. -1.
    10030    2    1    2    0    0  0.00000000000E+00  0.00000000000E+00 -0.15511073341E+04  0.38353740460E+04  0.35077286256E+04 0.  0.
        2    1    3    3  502    0  0.88839253144E+03  0.13275959237E+04  0.16157215383E+02  0.15975022010E+04  0.25500000920E-02 0.  1.
       -2    1    3    3    0  502 -0.88839253144E+03 -0.13275959237E+04 -0.15672645494E+04  0.22378718450E+04  0.25500000920E-02 0. -1.
</event>
<event>
 5   0  0.1442864E-06  0.3032229E+04  0.7818609E-02  0.8234587E-01
        2   -1    0    0  501    0  0.00000000000E+00  0.00000000000E+00  0.24232126652E+04  0.24232126652E+04  0.25500000920E-02 0. -1.
       -2   -1    0    0    0  501  0.00000000000E+00  0.00000000000E+00 -0.94857643667E+03  0.94857643667E+03  0.25500000920E-02 0.  1.
    10030    2    1    2    0    0  0.00000000000E+00  0.00000000000E+00  0.14746362286E+04  0.33717891019E+04  0.30322285107E+04 0.  0.
        1    1    3    3  502    0  0.20524906087E+03  0.71865818275E+03 -0.72949170309E+03  0.10443921225E+04  0.50400001928E-02 0.  1.
       -1    1    3    3    0  502 -0.20524906087E+03 -0.71865818275E+03  0.22041279317E+04  0.23273969794E+04  0.50400001928E-02 0. -1.
</event>
<event>
 5   0  0.4591195E-07  0.3523137E+04  0.7818609E-02  0.8108329E-01
       -1   -1    0    0    0  501  0.00000000000E+00  0.00000000000E+00  0.11809812282E+04  0.11809812282E+04  0.50400001928E-02 0. -1.
        1   -1    0    0  501    0  0.00000000000E+00  0.00000000000E+00 -0.26275802843E+04  0.26275802843E+04  0.50400001928E-02 0.  1.
    10030    2    1    2    0    0  0.00000000000E+00  0.00000000000E+00 -0.14465990561E+04  0.38085615125E+04  0.35231366658E+04 0.  0.
        4    1    3    3  502    0 -0.11092518521E+04 -0.11421066463E+04  0.91611924957E+02  0.15947544076E+04  0.12699999809E+01 0. -1.
       -4    1    3    3    0  502  0.11092518521E+04  0.11421066463E+04 -0.15382109810E+04  0.22138071049E+04  0.12699999809E+01 0.  1.
</event>
<event>
 5   0  0.4700769E-07  0.3784246E+04  0.7818609E-02  0.8049544E-01
       -1   -1    0    0    0  501  0.00000000000E+00  0.00000000000E+00  0.18882764173E+04  0.18882764173E+04  0.50400001928E-02 0.  1.
        1   -1    0    0  501    0  0.00000000000E+00  0.00000000000E+00 -0.18959772493E+04  0.18959772493E+04  0.50400001928E-02 0. -1.
    10030    2    1    2    0    0  0.00000000000E+00  0.00000000000E+00 -0.77008320092E+01  0.37842536666E+04  0.37842458312E+04 0.  0.
        3    1    3    3  502    0 -0.59349341410E+03  0.12025285593E+04 -0.13387013919E+04  0.18948432112E+04  0.10100000352E+00 0. -1.
       -3    1    3    3    0  502  0.59349341410E+03 -0.12025285593E+04  0.13310005598E+04  0.18894104554E+04  0.10100000352E+00 0.  1.
</event>
<event>
 5   0  0.1378620E-06  0.3403739E+04  0.7818609E-02  0.8136989E-01
        2   -1    0    0  501    0  0.00000000000E+00  0.00000000000E+00  0.16268727869E+04  0.16268727869E+04  0.25500000920E-02 0.  1.
       -2   -1    0    0    0  501  0.00000000000E+00  0.00000000000E+00 -0.17803235819E+04  0.17803235819E+04  0.25500000920E-02 0. -1.
    10030    2    1    2    0    0  0.00000000000E+00  0.00000000000E+00 -0.15345079492E+03  0.34071963688E+04  0.34037391129E+04 0.  0.
        2    1    3    3  502    0 -0.27557555740E+03 -0.37051748787E+03 -0.17164169239E+04  0.17774454010E+04  0.25500000920E-02 0. -1.
       -2    1    3    3    0  502  0.27557555740E+03  0.37051748787E+03  0.15629661290E+04  0.16297509678E+04  0.25500000920E-02 0.  1.
</event>
<event>
 5   0  0.4700769E-07  0.3524003E+04  0.7818609E-02  0.8108125E-01
       -1   -1    0    0    0  501  0.00000000000E+00  0.00000000000E+00  0.15664705980E+04  0.15664705981E+04  0.50400001928E-02 0. -1.
        1   -1    0    0  501    0  0.00000000000E+00  0.00000000000E+00 -0.19819391556E+04  0.19819391556E+04  0.50400001928E-02 0.  1.
    10030    2    1    2    0    0  0.00000000000E+00  0.00000000000E+00 -0.41546855759E+03  0.35484097537E+04  0.35240030729E+04 0.  0.
        3    1    3    3  502    0 -0.10774134267E+04 -0.13544676732E+04  0.12508027883E+03  0.17352370028E+04  0.10100000352E+00 0.  1.
       -3    1    3    3    0  502  0.10774134267E+04  0.13544676732E+04 -0.54054883642E+03  0.18131727509E+04  0.10100000352E+00 0. -1.
</event>
<event>
 5   0  0.4693374E-07  0.3517844E+04  0.7818609E-02  0.8109574E-01
        1   -1    0    0  501    0  0.00000000000E+00  0.00000000000E+00  0.24373651964E+04  0.24373651964E+04  0.50400001928E-02 0.  1.
       -1   -1    0    0    0  501  0.00000000000E+00  0.00000000000E+00 -0.12693245155E+04  0.12693245155E+04  0.50400001928E-02 0. -1.
    10030    2    1    2    0    0  0.00000000000E+00  0.00000000000E+00  0.11680406809E+04  0.37066897119E+04  0.35178444520E+04 0.  0.
        1    1    3    3  502    0  0.55558093790E+03  0.90001564173E+03  0.20648501256E+04  0.23199793911E+04  0.50400001928E-02 0.  1.
       -1    1    3    3    0  502 -0.55558093790E+03 -0.90001564173E+03 -0.89680944466E+03  0.13867103209E+04  0.50400001928E-02 0. -1.
</event>
<event>
 5   0  0.4557237E-07  0.3594753E+04  0.7818609E-02  0.8091695E-01
       -1   -1    0    0    0  501  0.00000000000E+00  0.00000000000E+00  0.15718541814E+04  0.15718541815E+04  0.50400001928E-02 0. -1.
        1   -1    0    0  501    0  0.00000000000E+00  0.00000000000E+00 -0.20552553581E+04  0.20552553581E+04  0.50400001928E-02 0.  1.
    10030    2    1    2    0    0  0.00000000000E+00  0.00000000000E+00 -0.48340117666E+03  0.36271095396E+04  0.35947526917E+04 0.  0.
        2    1    3    3  502    0 -0.12511290191E+04  0.12806846569E+04 -0.81893424241E+02  0.17922565514E+04  0.25500000920E-02 0. -1.
       -2    1    3    3    0  502  0.12511290191E+04 -0.12806846569E+04 -0.40150775242E+03  0.18348529882E+04  0.25500000920E-02 0.  1.
</event>
<event>
 5   0  0.1387133E-06  0.3495946E+04  0.7818609E-02  0.8114751E-01
       -2   -1    0    0    0  501  0.00000000000E+00  0.00000000000E+00  0.18209092968E+04  0.18209092968E+04  0.25500000920E-02 0.  1.
        2   -1    0    0  501    0  0.00000000000E+00  0.00000000000E+00 -0.16779580669E+04  0.16779580669E+04  0.25500000920E-02 0. -1.
    10030    2    1    2    0    0  0.00000000000E+00  0.00000000000E+00  0.14295122992E+03  0.34988673637E+04  0.34959459055E+04 0.  0.
        4    1    3    3  502    0  0.97233502128E+03 -0.13041352225E+03  0.15193928325E+04  0.18085904104E+04  0.12699999809E+01 0.  1.
       -4    1    3    3    0  502 -0.97233502128E+03  0.13041352225E+03 -0.13764416026E+04  0.16902769532E+04  0.12699999809E+01 0. -1.
</event>
<event>
 5   0  0.4557237E-07  0.3522079E+04  0.7818609E-02  0.8108577E-01
       -1   -1    0    0    0  501  0.00000000000E+00  0.00000000000E+00  0.24640844432E+04  0.24640844432E+04  0.50400001928E-02 0. -1.
        1   -1    0    0  501    0  0.00000000000E+00  0.00000000000E+00 -0.12585854879E+04  0.12585854879E+04  0.50400001928E-02 0.  1.
    10030    2    1    2    0    0  0.00000000000E+00  0.00000000000E+00  0.12054989553E+04  0.37226699311E+04  0.35220794546E+04 0.  0.
        2    1    3    3  502    0  0.93757110280E+03  0.14855199115E+04  0.47136414022E+03  0.18187889193E+04  0.25500000920E-02 0. -1.
       -2    1    3    3    0  502 -0.93757110280E+03 -0.14855199115E+04  0.73413481507E+03  0.19038810118E+04  0.25500000920E-02 0.  1.
</event>
<event>
 5   0  0.1387133E-06  0.3555623E+04  0.7818609E-02  0.8100733E-01
       -2   -1    0    0    0  501  0.00000000000E+00  0.00000000000E+00  0.13268450420E+04  0.13268450420E+04  0.25500000920E-02 0. -1.
        2   -1    0    0  501    0  0.00000000000E+00  0.00000000000E+00 -0.23820519789E+04  0.23820519789E+04  0.25500000920E-02 0.  1.
    10030    2    1    2    0    0  0.00000000000E+00  0.00000000000E+00 -0.10552069368E+04  0.37088970209E+04  0.35556230723E+04 0.  0.
        4    1    3    3  502    0 -0.15359690646E+04 -0.49034118267E+03 -0.13088741207E+04  0.20767254319E+04  0.12699999809E+01 0.  1.
       -4    1    3    3    0  502  0.15359690646E+04  0.49034118267E+03  0.25366718385E+03  0.16321715890E+04  0.12699999809E+01 0. -1.
</event>
<event>
 5   0  0.1442864E-06  0.3519046E+04  0.7818609E-02  0.8109291E-01
       -2   -1    0    0    0  501  0.00000000000E+00  0.00000000000E+00  0.13762554481E+04  0.13762554481E+04  0.25500000920E-02 0.  1.
        2   -1    0    0  501    0  0.00000000000E+00  0.00000000000E+00 -0.22495247394E+04  0.22495247394E+04  0.25500000920E-02 0. -1.
    10030    2    1    2    0    0  0.00000000000E+00  0.00000000000E+00 -0.87326929131E+03  0.36257801875E+04  0.35190457106E+04 0.  0.
        1    1    3    3  502    0 -0.50332220524E+03 -0.72295906931E+03  0.11326901802E+04  0.14349181518E+04  0.50400001928E-02 0.  1.
       -1    1    3    3    0  502  0.50332220524E+03  0.72295906931E+03 -0.20059594715E+04  0.21908620357E+04  0.50400001928E-02 0. -1.
</event>
<event>
 5   0  0.1348388E-06  0.3070305E+04  0.7818609E-02  0.8223935E-01
       -2   -1    0    0    0  501  0.00000000000E+00  0.00000000000E+00  0.25398782458E+04  0.25398782458E+04  0.25500000920E-02 0. -1.
        2   -1    0    0  501    0  0.00000000000E+00  0.00000000000E+00 -0.92787621570E+03  0.92787621571E+03  0.25500000920E-02 0.  1.
    10030    2    1    2    0    0  0.00000000000E+00  0.00000000000E+00  0.16120020301E+04  0.34677544615E+04  0.30703046201E+04 0.  0.
        5    1    3    3  502    0  0.85468642298E+03 -0.27681616751E+03  0.22119523687E+04  0.23874403539E+04  0.46999998093E+01 0. -1.
       -5    1    3    3    0  502 -0.85468642298E+03  0.27681616751E+03 -0.59995033860E+03  0.10803141076E+04  0.46999998093E+01 0.  1.
</event>
<event>
 5   0  0.1361560E-06  0.3500839E+04  0.7818609E-02  0.8113591E-01
       -2   -1    0    0    0  501  0.00000000000E+00  0.00000000000E+00  0.11093758716E+04  0.11093758716E+04  0.25500000920E-02 0. -1.
        2   -1    0    0  501    0  0.00000000000E+00  0.00000000000E+00 -0.27618854450E+04  0.27618854450E+04  0.25500000920E-02 0.  1.
    10030    2    1    2    0    0  0.00000000000E+00  0.00000000000E+00 -0.16525095734E+04  0.38712613166E+04  0.35008393695E+04 0.  0.
        3    1    3    3  502    0 -0.97359677611E+03 -0.50116183894E+03  0.68385960650E+03  0.12910142690E+04  0.10100000352E+00 0. -1.
       -3    1    3    3    0  502  0.97359677611E+03  0.50116183894E+03 -0.23363691799E+04  0.25802470475E+04  0.10100000352E+00 0.  1.
</event>
<event>
 5   0  0.1387133E-06  0.3492228E+04  0.7818609E-02  0.8115634E-01
       -2   -1    0    0    0  501  0.00000000000E+00  0.00000000000E+00  0.18654473926E+04  0.18654473926E+04  0.25500000920E-02 0.  1.
        2   -1    0    0  501    0  0.00000000000E+00  0.00000000000E+00 -0.16344144627E+04  0.16344144627E+04  0.25500000920E-02 0. -1.
    10030    2    1    2    0    0  0.00000000000E+00  0.00000000000E+00  0.23103292995E+03  0.34998618553E+04  0.34922280555E+04 0.  0.
        4    1    3    3  502    0 -0.59631483329E+02  0.16076890830E+04 -0.56471053907E+03  0.17050277731E+04  0.12699999809E+01 0. -1.
       -4    1    3    3    0  502  0.59631483329E+02 -0.16076890830E+04  0.79574346902E+03  0.17948340822E+04  0.12699999809E+01 0.  1.
</event>
<event>
 5   0  0.4700769E-07  0.3476219E+04  0.7818609E-02  0.8119449E-01
       -1   -1    0    0    0  501  0.00000000000E+00  0.00000000000E+00  0.16073573977E+04  0.16073573977E+04  0.50400001928E-02 0. -1.
        1   -1    0    0  501    0  0.00000000000E+00  0.00000000000E+00 -0.18794975736E+04  0.18794975736E+04  0.50400001928E-02 0.  1.
    10030    2    1    2    0    0  0.00000000000E+00  0.00000000000E+00 -0.27214017590E+03  0.34868549713E+04  0.34762188244E+04 0.  0.
        3    1    3    3  502    0  0.15808726616E+04  0.70656509163E+03 -0.28696880103E+03  0.17552047470E+04  0.10100000352E+00 0.  1.
       -3    1    3    3    0  502 -0.15808726616E+04 -0.70656509163E+03  0.14828625133E+02  0.17316502243E+04  0.10100000352E+00 0. -1.
</event>
<event>
 5   0  0.4557237E-07  0.3426148E+04  0.7818609E-02  0.8131518E-01
       -1   -1    0    0    0  501  0.00000000000E+00  0.00000000000E+00  0.11338073389E+04  0.11338073389E+04  0.50400001928E-02 0. -1.
        1   -1    0    0  501    0  0.00000000000E+00  0.00000000000E+00 -0.25882900846E+04  0.25882900846E+04  0.50400001928E-02 0.  1.
    10030    2    1    2    0    0  0.00000000000E+00  0.00000000000E+00 -0.14544827457E+04  0.37220974235E+04  0.34261478620E+04 0.  0.
        2    1    3    3  502    0  0.25400573336E+03  0.69143371096E+03 -0.24074541860E+04  0.25176249020E+04  0.25500000920E-02 0.  1.
       -2    1    3    3    0  502 -0.25400573336E+03 -0.69143371096E+03  0.95297144027E+03  0.12044725216E+04  0.25500000920E-02 0. -1.
</event>
<event>
 5   0  0.4409125E-07  0.2927208E+04  0.7818609E-02  0.8264828E-01
        1   -1    0    0  501    0  0.00000000000E+00  0.00000000000E+00  0.19013044335E+04  0.19013044335E+04  0.50400001928E-02 0.  1.
       -1   -1    0    0    0  501  0.00000000000E+00  0.00000000000E+00 -0.11266668772E+04  0.11266668773E+04  0.50400001928E-02 0. -1.
    10030    2    1    2    0    0  0.00000000000E+00  0.00000000000E+00  0.77463755626E+03  0.30279713108E+04  0.29272080410E+04 0.  0.
        5    1    3    3  502    0  0.27379295887E+03 -0.11443573551E+04  0.12876818242E+04  0.17443230523E+04  0.46999998093E+01 0.  1.
       -5    1    3    3    0  502 -0.27379295887E+03  0.11443573551E+04 -0.51304426797E+03  0.12836482584E+04  0.46999998093E+01 0. -1.
</event>
<event>
 5   0  0.1387133E-06  0.3474387E+04  0.7818609E-02  0.8119887E-01
       -2   -1    0    0    0  501  0.00000000000E+00  0.00000000000E+00  0.21716724833E+04  0.21716724833E+04  0.25500000920E-02 0. -1.
        2   -1    0    0  501    0  0.00000000000E+00  0.00000000000E+00 -0.13896389692E+04  0.13896389692E+04  0.25500000920E-02 0.  1.
    10030    2    1    2    0    0  0.00000000000E+00  0.00000000000E+00  0.78203351406E+03  0.35613114525E+04  0.34743866861E+04 0.  0.
        4    1    3    3  502    0 -0.13807559476E+04 -0.72360875319E+03 -0.39480734711E+03  0.16080954788E+04  0.12699999809E+01 0.  1.
       -4    1    3    3    0  502  0.13807559476E+04  0.72360875319E+03  0.11768408612E+04  0.19532159737E+04  0.12699999809E+01 0. -1.
</event>
<event>
 5   0  0.4693374E-07  0.3453212E+04  0.7818609E-02  0.8124968E-01
        1   -1    0    0  501    0  0.00000000000E+00  0.00000000000E+00  0.21895553268E+04  0.21895553268E+04  0.50400001928E-02 0.  1.
       -1   -1    0    0    0  501  0.00000000000E+00  0.00000000000E+00 -0.13615405719E+04  0.13615405719E+04  0.50400001928E-02 0. -1.
    10030    2    1    2    0    0  0.00000000000E+00  0.00000000000E+00  0.82801475491E+03  0.35510958987E+04  0.34532120768E+04 0.  0.
        1    1    3    3  502    0 -0.16084711881E+04  0.36557283997E+03  0.93871099722E+03  0.18978939382E+04  0.50400001928E-02 0.  1.
       -1    1    3    3    0  502  0.16084711881E+04 -0.36557283997E+03 -0.11069624231E+03  0.16532019605E+04  0.50400001928E-02 0. -1.
</event>
<event>
 5   0  0.4409125E-07  0.3421545E+04  0.7818609E-02  0.8132639E-01
       -1   -1    0    0    0  501  0.00000000000E+00  0.00000000000E+00  0.10196772632E+04  0.10196772632E+04  0.50400001928E-02 0. -1.
        1   -1    0    0  501    0  0.00000000000E+00  0.00000000000E+00 -0.28702631298E+04  0.28702631298E+04  0.50400001928E-02 0.  1.
    10030    2    1    2    0    0  0.00000000000E+00  0.00000000000E+00 -0.18505858666E+04  0.38899403930E+04  0.34215447113E+04 0.  0.
        5    1    3    3  502    0 -0.28087894209E+03  0.15465772181E+04 -0.15763480146E+03  0.15797673539E+04  0.46999998093E+01 0. -1.
       -5    1    3    3    0  502  0.28087894209E+03 -0.15465772181E+04 -0.16929510652E+04  0.23101730391E+04  0.46999998093E+01 0.  1.
</event>
<event>
 5   0  0.4693374E-07  0.3503400E+04  0.7818609E-02  0.8112985E-01
        1   -1    0    0  501    0  0.00000000000E+00  0.00000000000E+00  0.24712421267E+04  0.24712421267E+04  0.50400001928E-02 0.  1.
       -1   -1    0    0    0  501  0.00000000000E+00  0.00000000000E+00 -0.12416640936E+04  0.12416640937E+04  0.50400001928E-02 0. -1.
    10030    2    1    2    0    0  0.00000000000E+00  0.00000000000E+00  0.12295780330E+04  0.37129062204E+04  0.35033998433E+04 0.  0.
        1    1    3    3  502    0 -0.16845503618E+04 -0.37803149271E+03  0.92888167921E+03  0.19604690523E+04  0.50400001928E-02 0.  1.
       -1    1    3    3    0  502  0.16845503618E+04  0.37803149271E+03  0.30069635384E+03  0.17524371681E+04  0.50400001928E-02 0. -1.
</event>
<event>
 5   0  0.4557237E-07  0.3491371E+04  0.7818609E-02  0.8115838E-01
       -1   -1    0    0    0  501  0.00000000000E+00  0.00000000000E+00  0.14504727340E+04  0.14504727340E+04  0.50400001928E-02 0. -1.
        1   -1    0    0  501    0  0.00000000000E+00  0.00000000000E+00 -0.21009824939E+04  0.21009824939E+04  0.50400001928E-02 0.  1.
    10030    2    1    2    0    0  0.00000000000E+00  0.00000000000E+00 -0.65050975989E+03  0.35514552279E+04  0.34913709755E+04 0.  0.
        2    1    3    3  502    0  0.46420806829E+03  0.35353925452E+03  0.13483369856E+04  0.14691806430E+04  0.25500000920E-02 0. -1.
       -2    1    3    3    0  502 -0.46420806829E+03 -0.35353925452E+03 -0.19988467455E+04  0.20822745849E+04  0.25500000920E-02 0.  1.
</event>
<event>
 5   0  0.1348388E-06  0.3348568E+04  0.7818609E-02  0.8150646E-01
        2   -1    0    0  501    0  0.00000000000E+00  0.00000000000E+00  0.12144701275E+04  0.12144701275E+04  0.25500000920E-02 0. -1.
       -2   -1    0    0    0  501  0.00000000000E+00  0.00000000000E+00 -0.23081894902E+04  0.23081894902E+04  0.25500000920E-02 0.  1.
    10030    2    1    2    0    0  0.00000000000E+00  0.00000000000E+00 -0.10937193627E+04  0.35226596177E+04  0.33485681623E+04 0.  0.
        5    1    3    3  502    0 -0.32437123840E+03  0.56260709142E+03 -0.21702888084E+04  0.22653739298E+04  0.46999998093E+01 0. -1.
       -5    1    3    3    0  502  0.32437123840E+03 -0.56260709142E+03  0.10765694457E+04  0.12572856879E+04  0.46999998093E+01 0.  1.
</event>
<event>
 5   0  0.1387133E-06  0.3506001E+04  0.7818609E-02  0.8112369E-01
        2   -1    0    0  501    0  0.00000000000E+00  0.00000000000E+00  0.21549160298E+04  0.21549160298E+04  0.25500000920E-02 0.  1.
       -2   -1    0    0    0  501  0.00000000000E+00  0.00000000000E+00 -0.14260467575E+04  0.14260467575E+04  0.25500000920E-02 0. -1.
    10030    2    1    2    0    0  0.00000000000E+00  0.00000000000E+00  0.72886927222E+03  0.35809627873E+04  0.35060011506E+04 0.  0.
        4    1    3    3  502    0  0.29856236003E+03  0.86339271041E+03  0.18925594520E+04  0.21015159641E+04  0.12699999809E+01 0.  1.
       -4    1    3    3    0  502 -0.29856236003E+03 -0.86339271041E+03 -0.11636901798E+04  0.14794468232E+04  0.12699999809E+01 0. -1.
</event>
<event>
 5   0  0.4700769E-07  0.3519873E+04  0.7818609E-02  0.8109096E-01
       -1   -1    0    0    0  501  0.00000000000E+00  0.00000000000E+00  0.18043785131E+04  0.18043785131E+04  0.50400001928E-02 0.  1.
        1   -1    0    0  501    0  0.00000000000E+00  0.00000000000E+00 -0.17165895755E+04  0.17165895755E+04  0.50400001928E-02 0. -1.
    10030    2    1    2    0    0  0.00000000000E+00  0.00000000000E+00  0.87788937596E+02  0.35209680885E+04  0.35198734896E+04 0.  0.
        3    1    3    3  502    0  0.63647320677E+03  0.13576418557E+04 -0.87785167824E+03  0.17375019800E+04  0.10100000352E+00 0. -1.
       -3    1    3    3    0  502 -0.63647320677E+03 -0.13576418557E+04  0.96564061584E+03  0.17834661086E+04  0.10100000352E+00 0.  1.
</event>
<event>
 5   0  0.4557237E-07  0.3461172E+04  0.7818609E-02  0.8123054E-01
       -1   -1    0    0    0  501  0.00000000000E+00  0.00000000000E+00  0.12328962817E+04  0.12328962817E+04  0.50400001928E-02 0. -1.
        1   -1    0    0  501    0  0.00000000000E+00  0.00000000000E+00 -0.24291808704E+04  0.24291808704E+04  0.50400001928E-02 0.  1.
    10030    2    1    2    0    0  0.00000000000E+00  0.00000000000E+00 -0.11962845887E+04  0.36620771522E+04  0.34611720921E+04 0.  0.
        2    1    3    3  502    0 -0.66829290606E+03 -0.15885895202E+04 -0.76441368257E+03  0.18853541710E+04  0.25500000920E-02 0.  1.
       -2    1    3    3    0  502  0.66829290606E+03  0.15885895202E+04 -0.43187090613E+03  0.17767229811E+04  0.25500000920E-02 0. -1.
</event>
<event>
 5   0  0.1387133E-06  0.3483410E+04  0.7818609E-02  0.8117733E-01
       -2   -1    0    0    0  501  0.00000000000E+00  0.00000000000E+00  0.19700071025E+04  0.19700071025E+04  0.25500000920E-02 0.  1.
        2   -1    0    0  501    0  0.00000000000E+00  0.00000000000E+00 -0.15398605029E+04  0.15398605029E+04  0.25500000920E-02 0. -1.
    10030    2    1    2    0    0  0.00000000000E+00  0.00000000000E+00  0.43014659958E+03  0.35098676053E+04  0.34834098969E+04 0.  0.
        4    1    3    3  502    0  0.67279354140E+03 -0.35966679761E+03 -0.13625530587E+04  0.15615901528E+04  0.12699999809E+01 0. -1.
       -4    1    3    3    0  502 -0.67279354140E+03  0.35966679761E+03  0.17926996582E+04  0.19482774526E+04  0.12699999809E+01 0.  1.
</event>
<event>
 5   0  0.4693374E-07  0.3496580E+04  0.7818609E-02  0.8114601E-01
       -1   -1    0    0    0  501  0.00000000000E+00  0.00000000000E+00  0.10196858279E+04  0.10196858279E+04  0.50400001928E-02 0.  1.
        1   -1    0    0  501    0  0.00000000000E+00  0.00000000000E+00 -0.29975102368E+04  0.29975102368E+04  0.50400001928E-02 0. -1.
    10030    2    1    2    0    0  0.00000000000E+00  0.00000000000E+00 -0.19778244089E+04  0.40171960647E+04  0.34965804481E+04 0.  0.
        1    1    3    3  502    0 -0.16468887951E+04  0.19211897434E+03 -0.16258655616E+04  0.23221953467E+04  0.50400001928E-02 0. -1.
       -1    1    3    3    0  502  0.16468887951E+04 -0.19211897434E+03 -0.35195884726E+03  0.16950007180E+04  0.50400001928E-02 0.  1.
</event>
<event>
 5   0  0.1442864E-06  0.3550254E+04  0.7818609E-02  0.8101983E-01
        2   -1    0    0  501    0  0.00000000000E+00  0.00000000000E+00  0.23972106186E+04  0.23972106186E+04  0.25500000920E-02 0.  1.
       -2   -1    0    0    0  501  0.00000000000E+00  0.00000000000E+00 -0.13144758443E+04  0.13144758443E+04  0.25500000920E-02 0. -1.
    10030    2    1    2    0    0  0.00000000000E+00  0.00000000000E+00  0.10827347743E+04  0.37116864630E+04  0.35502537667E+04 0.  0.
        1    1    3    3  502    0 -0.15201325790E+04 -0.91646042850E+03  0.52118473037E+03  0.18499557557E+04  0.50400001928E-02 0.  1.
       -1    1    3    3    0  502  0.15201325790E+04  0.91646042850E+03  0.56155004392E+03  0.18617307073E+04  0.50400001928E-02 0. -1.
</event>
<event>
 5   0  0.4693374E-07  0.3473137E+04  0.7818609E-02  0.8120186E-01
       -1   -1    0    0    0  501  0.00000000000E+00  0.00000000000E+00  0.14769092748E+04  0.14769092748E+04  0.50400001928E-02 0. -1.
        1   -1    0    0  501    0  0.00000000000E+00  0.00000000000E+00 -0.20418796613E+04  0.20418796613E+04  0.50400001928E-02 0.  1.
    10030    2    1    2    0    0  0.00000000000E+00  0.00000000000E+00 -0.56497038648E+03  0.35187889361E+04  0.34731374921E+04 0.  0.
        1    1    3    3  502    0 -0.13597426434E+04 -0.87757552340E+02 -0.13732371300E+04  0.19345236260E+04  0.50400001928E-02 0.  1.
       -1    1    3    3    0  502  0.13597426434E+04  0.87757552340E+02  0.80826674351E+03  0.15842653101E+04  0.50400001928E-02 0. -1.
</event>
<event>
 5   0  0.4693374E-07  0.3455769E+04  0.7818609E-02  0.8124353E-01
       -1   -1    0    0    0  501  0.00000000000E+00  0.00000000000E+00  0.15918982056E+04  0.15918982056E+04  0.50400001928E-02 0. -1.
        1   -1    0    0  501    0  0.00000000000E+00  0.00000000000E+00 -0.18754871429E+04  0.18754871429E+04  0.50400001928E-02 0.  1.
    10030    2    1    2    0    0  0.00000000000E+00  0.00000000000E+00 -0.28358893733E+03  0.34673853486E+04  0.34557688681E+04 0.  0.
        1    1    3    3  502    0  0.14177015455E+04  0.53882965042E+02  0.84782903217E+03  0.16527537971E+04  0.50400001928E-02 0. -1.
       -1    1    3    3    0  502 -0.14177015455E+04 -0.53882965042E+02 -0.11314179695E+04  0.18146315515E+04  0.50400001928E-02 0.  1.
</event>
<event>
 5   0  0.1361560E-06  0.3741519E+04  0.7818609E-02  0.8058822E-01
       -2   -1    0    0    0  501  0.00000000000E+00  0.00000000000E+00  0.18246250694E+04  0.18246250694E+04  0.25500000920E-02 0. -1.
        2   -1    0    0  501    0  0.00000000000E+00  0.00000000000E+00 -0.19180607543E+04  0.19180607543E+04  0.25500000920E-02 0.  1.
    10030    2    1    2    0    0  0.00000000000E+00  0.00000000000E+00 -0.93435684937E+02  0.37426858237E+04  0.37415193368E+04 0.  0.
        3    1    3    3  502    0  0.18167708787E+04 -0.44604182160E+03 -0.58210307351E+02  0.18716298198E+04  0.10100000352E+00 0. -1.
       -3    1    3    3    0  502 -0.18167708787E+04  0.44604182160E+03 -0.35225377586E+02  0.18710560039E+04  0.10100000352E+00 0.  1.
</event>
<event>
 5   0  0.4409125E-07  0.3547122E+04  0.7818609E-02  0.8102713E-01
       -3   -1    0    0    0  501  0.00000000000E+00  0.00000000000E+00  0.17788214857E+04  0.17788214886E+04  0.10100000352E+00 0.  1.
        3   -1    0    0  501    0  0.00000000000E+00  0.00000000000E+00 -0.17683161758E+04  0.17683161786E+04  0.10100000352E+00 0. -1.
    10030    2    1    2    0    0  0.00000000000E+00  0.00000000000E+00  0.10505309969E+02  0.35471376673E+04  0.35471221108E+04 0.  0.
        4    1    3    3  502    0  0.33464733935E+03 -0.60087864399E+03  0.16400299055E+04  0.17784104393E+04  0.12699999809E+01 0.  1.
       -4    1    3    3    0  502 -0.33464733935E+03  0.60087864399E+03 -0.16295245956E+04  0.17687272280E+04  0.12699999809E+01 0. -1.
</event>
<event>
 5   0  0.1361560E-06  0.3465321E+04  0.7818609E-02  0.8122058E-01
       -2   -1    0    0    0  501  0.00000000000E+00  0.00000000000E+00  0.14098853013E+04  0.14098853013E+04  0.25500000920E-02 0.  1.
        2   -1    0    0  501    0  0.00000000000E+00  0.00000000000E+00 -0.21293307656E+04  0.21293307656E+04  0.25500000920E-02 0. -1.
    10030    2    1    2    0    0  0.00000000000E+00  0.00000000000E+00 -0.71944546436E+03  0.35392160669E+04  0.34653208498E+04 0.  0.
        3    1    3    3  502    0 -0.15732674529E+04  0.29436091507E+03 -0.10374183370E+04  0.19073687748E+04  0.10100000352E+00 0. -1.
       -3    1    3    3    0  502  0.15732674529E+04 -0.29436091507E+03  0.31797287268E+03  0.16318472921E+04  0.10100000352E+00 0.  1.
</event>
<event>
 5   0  0.1387133E-06  0.3185293E+04  0.7818609E-02  0.8192712E-01
       -2   -1    0    0    0  501  0.00000000000E+00  0.00000000000E+00  0.10518664983E+04  0.10518664983E+04  0.25500000920E-02 0.  1.
        2   -1    0    0  501    0  0.00000000000E+00  0.00000000000E+00 -0.24114499308E+04  0.24114499308E+04  0.25500000920E-02 0. -1.
    10030    2    1    2    0    0  0.00000000000E+00  0.00000000000E+00 -0.13595834324E+04  0.34633164291E+04  0.31852933269E+04 0.  0.
        4    1    3    3  502    0  0.10302870944E+04 -0.74679597206E+02 -0.19978075483E+04  0.22490676184E+04  0.12699999809E+01 0. -1.
       -4    1    3    3    0  502 -0.10302870944E+04  0.74679597206E+02  0.63822411589E+03  0.12142488107E+04  0.12699999809E+01 0.  1.
</event>
<event>
 5   0  0.1361560E-06  0.3402493E+04  0.7818609E-02  0.8137295E-01
        2   -1    0    0  501    0  0.00000000000E+00  0.00000000000E+00  0.18608836782E+04  0.18608836782E+04  0.25500000920E-02 0.  1.
       -2   -1    0    0    0  501  0.00000000000E+00  0.00000000000E+00 -0.15553034687E+04  0.15553034687E+04  0.25500000920E-02 0. -1.
    10030    2    1    2    0    0  0.00000000000E+00  0.00000000000E+00  0.30558020948E+03  0.34161871470E+04  0.34024925215E+04 0.  0.
        3    1    3    3  502    0  0.11623515723E+04  0.23767579105E+03 -0.10714155298E+04  0.15985875663E+04  0.10100000352E+00 0. -1.
       -3    1    3    3    0  502 -0.11623515723E+04 -0.23767579105E+03  0.13769957393E+04  0.18175995807E+04  0.10100000352E+00 0.  1.
</event>
<event>
 5   0  0.1442864E-06  0.3402037E+04  0.7818609E-02  0.8137407E-01
       -2   -1    0    0    0  501  0.00000000000E+00  0.00000000000E+00  0.26986784222E+04  0.26986784222E+04  0.25500000920E-02 0.  1.
        2   -1    0    0  501    0  0.00000000000E+00  0.00000000000E+00 -0.10721781562E+04  0.10721781562E+04  0.25500000920E-02 0. -1.
    10030    2    1    2    0    0  0.00000000000E+00  0.00000000000E+00  0.16265002660E+04  0.37708565784E+04  0.34020370690E+04 0.  0.
        1    1    3    3  502    0 -0.13220835336E+04  0.68204257122E+03  0.17275229808E+04  0.22797856452E+04  0.50400001928E-02 0.  1.
       -1    1    3    3    0  502  0.13220835336E+04 -0.68204257122E+03 -0.10102271479E+03  0.14910709332E+04  0.50400001928E-02 0. -1.
</event>
<event>
 5   0  0.4557237E-07  0.3600892E+04  0.7818609E-02  0.8090287E-01
       -1   -1    0    0    0  501  0.00000000000E+00  0.00000000000E+00  0.18368767117E+04  0.18368767117E+04  0.50400001928E-02 0. -1.
        1   -1    0    0  501    0  0.00000000000E+00  0.00000000000E+00 -0.17647375094E+04  0.17647375094E+04  0.50400001928E-02 0.  1.
    10030    2    1    2    0    0  0.00000000000E+00  0.00000000000E+00  0.72139202358E+02  0.36016142211E+04  0.36008916859E+04 0.  0.
        2    1    3    3  502    0  0.91767086314E+03 -0.11459770101E+04 -0.10063593255E+04  0.17799275864E+04  0.25500000920E-02 0.  1.
       -2    1    3    3    0  502 -0.91767086314E+03  0.11459770101E+04  0.10784985278E+04  0.18216866348E+04  0.25500000920E-02 0. -1.
</event>
<event>
 5   0  0.4591195E-07  0.3504684E+04  0.7818609E-02  0.8112681E-01
       -1   -1    0    0    0  501  0.00000000000E+00  0.00000000000E+00  0.16312634983E+04  0.16312634983E+04  0.50400001928E-02 0.  1.
        1   -1    0    0  501    0  0.00000000000E+00  0.00000000000E+00 -0.18824072503E+04  0.18824072503E+04  0.50400001928E-02 0. -1.
    10030    2    1    2    0    0  0.00000000000E+00  0.00000000000E+00 -0.25114375202E+03  0.35136707486E+04  0.35046838581E+04 0.  0.
        4    1    3    3  502    0  0.14324910327E+04 -0.25998665175E+03  0.85216063356E+03  0.16869507925E+04  0.12699999809E+01 0.  1.
       -4    1    3    3    0  502 -0.14324910327E+04  0.25998665175E+03 -0.11033043856E+04  0.18267199561E+04  0.12699999809E+01 0. -1.
</event>
<event>
 5   0  0.1348388E-06  0.3415912E+04  0.7818609E-02  0.8134012E-01
       -2   -1    0    0    0  501  0.00000000000E+00  0.00000000000E+00  0.12267202519E+04  0.12267202519E+04  0.25500000920E-02 0.  1.
        2   -1    0    0  501    0  0.00000000000E+00  0.00000000000E+00 -0.23779777773E+04  0.23779777773E+04  0.25500000920E-02 0. -1.
    10030    2    1    2    0    0  0.00000000000E+00  0.00000000000E+00 -0.11512575255E+04  0.36046980292E+04  0.34159118829E+04 0.  0.
        5    1    3    3  502    0 -0.54586585174E+03  0.49714509848E+03 -0.22008657618E+04  0.23214122789E+04  0.46999998093E+01 0. -1.
       -5    1    3    3    0  502  0.54586585174E+03 -0.49714509848E+03  0.10496082364E+04  0.12832857503E+04  0.46999998093E+01 0.  1.
</event>
<event>
 5   0  0.4693374E-07  0.3558585E+04  0.7818609E-02  0.8100045E-01
        1   -1    0    0  501    0  0.00000000000E+00  0.00000000000E+00  0.16374864007E+04  0.16374864007E+04  0.50400001928E-02 0.  1.
       -1   -1    0    0    0  501  0.00000000000E+00  0.00000000000E+00 -0.19333785565E+04  0.19333785565E+04  0.50400001928E-02 0. -1.
    10030    2    1    2    0    0  0.00000000000E+00  0.00000000000E+00 -0.29589215582E+03  0.35708649572E+04  0.35585846027E+04 0.  0.
        1    1    3    3  502    0  0.69353109624E+03  0.14398920851E+04 -0.93269761609E+03  0.18504592514E+04  0.50400001928E-02 0. -1.
       -1    1    3    3    0  502 -0.69353109624E+03 -0.14398920851E+04  0.63680546027E+03  0.17204057057E+04  0.50400001928E-02 0.  1.
</event>
<event>
 5   0  0.4591195E-07  0.3473453E+04  0.7818609E-02  0.8120110E-01
        1   -1    0    0  501    0  0.00000000000E+00  0.00000000000E+00  0.21409209489E+04  0.21409209489E+04  0.50400001928E-02 0. -1.
       -1   -1    0    0    0  501  0.00000000000E+00  0.00000000000E+00 -0.14088418011E+04  0.14088418011E+04  0.50400001928E-02 0.  1.
    10030    2    1    2    0    0  0.00000000000E+00  0.00000000000E+00  0.73207914777E+03  0.35497627500E+04  0.34734529942E+04 0.  0.
        4    1    3    3  502    0 -0.84994620163E+03 -0.72060564585E+03 -0.99534348523E+03  0.14941189072E+04  0.12699999809E+01 0.  1.
       -4    1    3    3    0  502  0.84994620163E+03  0.72060564585E+03  0.17274226330E+04  0.20556438428E+04  0.12699999809E+01 0. -1.
</event>
<event>
 5   0  0.4409125E-07  0.3429047E+04  0.7818609E-02  0.8130814E-01
        1   -1    0    0  501    0  0.00000000000E+00  0.00000000000E+00  0.17825584187E+04  0.17825584187E+04  0.50400001928E-02 0.  1.
       -1   -1    0    0    0  501  0.00000000000E+00  0.00000000000E+00 -0.16490851114E+04  0.16490851114E+04  0.50400001928E-02 0. -1.
    10030    2    1    2    0    0  0.00000000000E+00  0.00000000000E+00  0.13347330734E+03  0.34316435301E+04  0.34290468346E+04 0.  0.
        5    1    3    3  502    0  0.41788956781E+03  0.36618984784E+03  0.16899519067E+04  0.17789565010E+04  0.46999998093E+01 0.  1.
       -5    1    3    3    0  502 -0.41788956781E+03 -0.36618984784E+03 -0.15564785994E+04  0.16526870290E+04  0.46999998093E+01 0. -1.
</event>
<event>
 5   0  0.1387133E-06  0.3494707E+04  0.7818609E-02  0.8115045E-01
       -2   -1    0    0    0  501  0.00000000000E+00  0.00000000000E+00  0.12040842288E+04  0.12040842288E+04  0.25500000920E-02 0. -1.
        2   -1    0    0  501    0  0.00000000000E+00  0.00000000000E+00 -0.25357396232E+04  0.25357396232E+04  0.25500000920E-02 0.  1.
    10030    2    1    2    0    0  0.00000000000E+00  0.00000000000E+00 -0.13316553944E+04  0.37398238520E+04  0.34947069054E+04 0.  0.
        4    1    3    3  502    0  0.16321647332E+04  0.60443611170E+03 -0.83139783824E+03  0.19288672084E+04  0.12699999809E+01 0.  1.
       -4    1    3    3    0  502 -0.16321647332E+04 -0.60443611170E+03 -0.50025755617E+03  0.18109566436E+04  0.12699999809E+01 0. -1.
</event>
<event>
 5   0  0.4693374E-07  0.3494029E+04  0.7818609E-02  0.8115207E-01
       -1   -1    0    0    0  501  0.00000000000E+00  0.00000000000E+00  0.26015358812E+04  0.26015358812E+04  0.50400001928E-02 0. -1.
        1   -1    0    0  501    0  0.00000000000E+00  0.00000000000E+00 -0.11731759034E+04  0.11731759034E+04  0.50400001928E-02 0.  1.
    10030    2    1    2    0    0  0.00000000000E+00  0.00000000000E+00  0.14283599778E+04  0.37747117846E+04  0.34940287392E+04 0.  0.
        1    1    3    3  502    0 -0.15476329172E+04 -0.33022706313E+03 -0.85442217995E+02  0.15847769345E+04  0.50400001928E-02 0. -1.
       -1    1    3    3    0  502  0.15476329172E+04  0.33022706313E+03  0.15138021958E+04  0.21899348501E+04  0.50400001928E-02 0.  1.
</event>
<event>
 5   0  0.1378620E-06  0.3487452E+04  0.7818609E-02  0.8116770E-01
       -2   -1    0    0    0  501  0.00000000000E+00  0.00000000000E+00  0.17906465095E+04  0.17906465095E+04  0.25500000920E-02 0. -1.
        2   -1    0    0  501    0  0.00000000000E+00  0.00000000000E+00 -0.16980350972E+04  0.16980350972E+04  0.25500000920E-02 0.  1.
    10030    2    1    2    0    0  0.00000000000E+00  0.00000000000E+00  0.92611412323E+02  0.34886816067E+04  0.34874521473E+04 0.  0.
        2    1    3    3  502    0  0.49184057137E+03 -0.16701496288E+04 -0.50028241145E+02  0.17417834984E+04  0.25500000920E-02 0. -1.
       -2    1    3    3    0  502 -0.49184057137E+03  0.16701496288E+04  0.14263965347E+03  0.17468981084E+04  0.25500000920E-02 0.  1.
</event>
<event>
 5   0  0.1348388E-06  0.3544299E+04  0.7818609E-02  0.8103371E-01
        2   -1    0    0  501    0  0.00000000000E+00  0.00000000000E+00  0.26699336813E+04  0.26699336813E+04  0.25500000920E-02 0.  1.
       -2   -1    0    0    0  501  0.00000000000E+00  0.00000000000E+00 -0.11762513698E+04  0.11762513698E+04  0.25500000920E-02 0. -1.
    10030    2    1    2    0    0  0.00000000000E+00  0.00000000000E+00  0.14936823115E+04  0.38461850511E+04  0.35442986048E+04 0.  0.
        5    1    3    3  502    0 -0.14585504274E+03  0.60474088526E+03 -0.10538650937E+04  0.12237806003E+04  0.46999998093E+01 0. -1.
       -5    1    3    3    0  502  0.14585504274E+03 -0.60474088526E+03  0.25475474053E+04  0.26224044509E+04  0.46999998093E+01 0.  1.
</event>
<event>
 5   0  0.4700769E-07  0.3518671E+04  0.7818609E-02  0.8109379E-01
       -1   -1    0    0    0  501  0.00000000000E+00  0.00000000000E+00  0.17411368985E+04  0.17411368985E+04  0.50400001928E-02 0.  1.
        1   -1    0    0  501    0  0.00000000000E+00  0.00000000000E+00 -0.17777245212E+04  0.17777245212E+04  0.50400001928E-02 0. -1.
    10030    2    1    2    0    0  0.00000000000E+00  0.00000000000E+00 -0.36587622763E+02  0.35188614197E+04  0.35186712033E+04 0.  0.
        3    1    3    3  502    0 -0.29954285609E+03 -0.33231516920E+03 -0.17198858532E+04  0.17771231394E+04  0.10100000352E+00 0. -1.
       -3    1    3    3    0  502  0.29954285609E+03  0.33231516920E+03  0.16832982304E+04  0.17417382803E+04  0.10100000352E+00 0.  1.
</event>
<event>
 5   0  0.4409125E-07  0.3508735E+04  0.7818609E-02  0.8111723E-01
       -1   -1    0    0    0  501  0.00000000000E+00  0.00000000000E+00  0.26718552235E+04  0.26718552235E+04  0.50400001928E-02 0.  1.
        1   -1    0    0  501    0  0.00000000000E+00  0.00000000000E+00 -0.11519358854E+04  0.11519358854E+04  0.50400001928E-02 0. -1.
    10030    2    1    2    0    0  0.00000000000E+00  0.00000000000E+00  0.15199193381E+04  0.38237911089E+04  0.35087353349E+04 0.  0.
        5    1    3    3  502    0  0.26578654341E+03 -0.16515441599E+04  0.18376659571E+03  0.16828644778E+04  0.46999998093E+01 0. -1.
       -5    1    3    3    0  502 -0.26578654341E+03  0.16515441599E+04  0.13361527424E+04  0.21409266311E+04  0.46999998093E+01 0.  1.
</event>
<event>
 5   0  0.1378620E-06  0.3318116E+04  0.7818609E-02  0.8158301E-01
        2   -1    0    0  501    0  0.00000000000E+00  0.00000000000E+00  0.10382038865E+04  0.10382038865E+04  0.25500000920E-02 0.  1.
       -2   -1    0    0    0  501  0.00000000000E+00  0.00000000000E+00 -0.26511883841E+04  0.26511883841E+04  0.25500000920E-02 0. -1.
    10030    2    1    2    0    0  0.00000000000E+00  0.00000000000E+00 -0.16129844976E+04  0.36893922706E+04  0.33181163839E+04 0.  0.
        2    1    3    3  502    0  0.42464240724E+03 -0.11719124101E+04 -0.20238883730E+04  0.23769358463E+04  0.25500000920E-02 0. -1.
       -2    1    3    3    0  502 -0.42464240724E+03  0.11719124101E+04  0.41090387545E+03  0.13124564243E+04  0.25500000920E-02 0.  1.
</event>
<event>
 5   0  0.4591195E-07  0.3608060E+04  0.7818609E-02  0.8088648E-01
       -1   -1    0    0    0  501  0.00000000000E+00  0.00000000000E+00  0.11008752049E+04  0.11008752049E+04  0.50400001928E-02 0.  1.
        1   -1    0    0  501    0  0.00000000000E+00  0.00000000000E+00 -0.29563066813E+04  0.29563066813E+04  0.50400001928E-02 0. -1.
    10030    2    1    2    0    0  0.00000000000E+00  0.00000000000E+00 -0.18554314764E+04  0.40571818862E+04  0.36080602676E+04 0.  0.
        4    1    3    3  502    0  0.13551659553E+04 -0.56509672168E+03  0.25095643792E+03  0.14895602767E+04  0.12699999809E+01 0.  1.
       -4    1    3    3    0  502 -0.13551659553E+04  0.56509672168E+03 -0.21063879143E+04  0.25676216095E+04  0.12699999809E+01 0. -1.
</event>
<event>
 5   0  0.1361560E-06  0.3515421E+04  0.7818609E-02  0.8110145E-01
       -2   -1    0    0    0  501  0.00000000000E+00  0.00000000000E+00  0.13532441891E+04  0.13532441891E+04  0.25500000920E-02 0. -1.
        2   -1    0    0  501    0  0.00000000000E+00  0.00000000000E+00 -0.22830666763E+04  0.22830666763E+04  0.25500000920E-02 0.  1.
    10030    2    1    2    0    0  0.00000000000E+00  0.00000000000E+00 -0.92982248723E+03  0.36363108654E+04  0.35154212908E+04 0.  0.
        3    1    3    3  502    0 -0.10772073593E+04  0.28099629254E+03 -0.18719121667E+04  0.21779324557E+04  0.10100000352E+00 0.  1.
       -3    1    3    3    0  502  0.10772073593E+04 -0.28099629254E+03  0.94208967949E+03  0.14583784097E+04  0.10100000352E+00 0. -1.
</event>
<event>
 5   0  0.1348388E-06  0.3490857E+04  0.7818609E-02  0.8115960E-01
        2   -1    0    0  501    0  0.00000000000E+00  0.00000000000E+00  0.24278465417E+04  0.24278465417E+04  0.25500000920E-02 0.  1.
       -2   -1    0    0    0  501  0.00000000000E+00  0.00000000000E+00 -0.12548243442E+04  0.12548243442E+04  0.25500000920E-02 0. -1.
    10030    2    1    2    0    0  0.00000000000E+00  0.00000000000E+00  0.11730221974E+04  0.36826708859E+04  0.34908571696E+04 0.  0.
        5    1    3    3  502    0 -0.71421047141E+03  0.13635385812E+04 -0.28160540830E+03  0.15648187614E+04  0.46999998093E+01 0. -1.
       -5    1    3    3    0  502  0.71421047141E+03 -0.13635385812E+04  0.14546276057E+04  0.21178521245E+04  0.46999998093E+01 0.  1.
</event>
<event>
 5   0  0.1442864E-06  0.3405407E+04  0.7818609E-02  0.8136581E-01
        2   -1    0    0  501    0  0.00000000000E+00  0.00000000000E+00  0.23025123117E+04  0.23025123117E+04  0.25500000920E-02 0.  1.
       -2   -1    0    0    0  501  0.00000000000E+00  0.00000000000E+00 -0.12591456763E+04  0.12591456763E+04  0.25500000920E-02 0. -1.
    10030    2    1    2    0    0  0.00000000000E+00  0.00000000000E+00  0.10433666355E+04  0.35616579880E+04  0.34054065378E+04 0.  0.
        1    1    3    3  502    0 -0.15938086407E+04  0.14239877793E+03 -0.86994756490E+02  0.16025203533E+04  0.50400001928E-02 0. -1.
       -1    1    3    3    0  502  0.15938086407E+04 -0.14239877793E+03  0.11303613920E+04  0.19591376347E+04  0.50400001928E-02 0.  1.
</event>
<event>
 5   0  0.4693374E-07  0.3511967E+04  0.7818609E-02  0.8110960E-01
        1   -1    0    0  501    0  0.00000000000E+00  0.00000000000E+00  0.20416328334E+04  0.20416328334E+04  0.50400001928E-02 0.  1.
       -1   -1    0    0    0  501  0.00000000000E+00  0.00000000000E+00 -0.15103002316E+04  0.15103002316E+04  0.50400001928E-02 0. -1.
    10030    2    1    2    0    0  0.00000000000E+00  0.00000000000E+00  0.53133260179E+03  0.35519330650E+04  0.35119672783E+04 0.  0.
        1    1    3    3  502    0  0.10537966883E+04 -0.90085111565E+03 -0.82430768319E+03  0.16129176511E+04  0.50400001928E-02 0. -1.
       -1    1    3    3    0  502 -0.10537966883E+04  0.90085111565E+03  0.13556402850E+04  0.19390154138E+04  0.50400001928E-02 0.  1.
</event>
<event>
 5   0  0.1442864E-06  0.3504581E+04  0.7818609E-02  0.8112705E-01
        2   -1    0    0  501    0  0.00000000000E+00  0.00000000000E+00  0.16913902716E+04  0.16913902716E+04  0.25500000920E-02 0.  1.
       -2   -1    0    0    0  501  0.00000000000E+00  0.00000000000E+00 -0.18153837714E+04  0.18153837714E+04  0.25500000920E-02 0. -1.
    10030    2    1    2    0    0  0.00000000000E+00  0.00000000000E+00 -0.12399349979E+03  0.35067740429E+04  0.35045812589E+04 0.  0.
        1    1    3    3  502    0  0.13641672948E+04 -0.42020530768E+03 -0.10789975462E+04  0.17893464208E+04  0.50400001928E-02 0. -1.
       -1    1    3    3    0  502 -0.13641672948E+04  0.42020530768E+03  0.95500404641E+03  0.17174276222E+04  0.50400001928E-02 0.  1.
</event>
<event>
 5   0  0.4693374E-07  0.3607513E+04  0.7818609E-02  0.8088773E-01
       -1   -1    0    0    0  501  0.00000000000E+00  0.00000000000E+00  0.17280562697E+04  0.17280562697E+04  0.50400001928E-02 0.  1.
        1   -1    0    0  501    0  0.00000000000E+00  0.00000000000E+00 -0.18827725466E+04  0.18827725467E+04  0.50400001928E-02 0. -1.
    10030    2    1    2    0    0  0.00000000000E+00  0.00000000000E+00 -0.15471627697E+03  0.36108288163E+04  0.36075126631E+04 0.  0.
        1    1    3    3  502    0 -0.27455711695E+03  0.17280382396E+04  0.36126739237E+03  0.17866202441E+04  0.50400001928E-02 0.  1.
       -1    1    3    3    0  502  0.27455711695E+03 -0.17280382396E+04 -0.51598366934E+03  0.18242085722E+04  0.50400001928E-02 0. -1.
</event>
<event>
 5   0  0.1387133E-06  0.3371076E+04  0.7818609E-02  0.8145042E-01
        2   -1    0    0  501    0  0.00000000000E+00  0.00000000000E+00  0.18463555137E+04  0.18463555137E+04  0.25500000920E-02 0.  1.
       -2   -1    0    0    0  501  0.00000000000E+00  0.00000000000E+00 -0.15387281375E+04  0.15387281375E+04  0.25500000920E-02 0. -1.
    10030    2    1    2    0    0  0.00000000000E+00  0.00000000000E+00  0.30762737627E+03  0.33850836512E+04  0.33710764932E+04 0.  0.
        4    1    3    3  502    0  0.41032774903E+03  0.11918126742E+04 -0.96987636374E+03  0.15904238699E+04  0.12699999809E+01 0. -1.
       -4    1    3    3    0  502 -0.41032774903E+03 -0.11918126742E+04  0.12775037400E+04  0.17946597813E+04  0.12699999809E+01 0.  1.
</event>
<event>
 5   0  0.4693374E-07  0.3085089E+04  0.7818609E-02  0.8219842E-01
       -1   -1    0    0    0  501  0.00000000000E+00  0.00000000000E+00  0.12576218616E+04  0.12576218617E+04  0.50400001928E-02 0.  1.
        1   -1    0    0  501    0  0.00000000000E+00  0.00000000000E+00 -0.18920185878E+04  0.18920185878E+04  0.50400001928E-02 0. -1.
    10030    2    1    2    0    0  0.00000000000E+00  0.00000000000E+00 -0.63439672612E+03  0.31496404494E+04  0.30850892620E+04 0.  0.
        1    1    3    3  502    0 -0.23122532702E+03 -0.10254752404E+04 -0.14697027905E+04  0.18069562565E+04  0.50400001928E-02 0. -1.
       -1    1    3    3    0  502  0.23122532702E+03  0.10254752404E+04  0.83530606442E+03  0.13426841929E+04  0.50400001928E-02 0.  1.
</event>
<event>
 5   0  0.1348388E-06  0.3490152E+04  0.7818609E-02  0.8116128E-01
        2   -1    0    0  501    0  0.00000000000E+00  0.00000000000E+00  0.13728693957E+04  0.13728693957E+04  0.25500000920E-02 0.  1.
       -2   -1    0    0    0  501  0.00000000000E+00  0.00000000000E+00 -0.22181930674E+04  0.22181930674E+04  0.25500000920E-02 0. -1.
    10030    2    1    2    0    0  0.00000000000E+00  0.00000000000E+00 -0.84532367176E+03  0.35910624631E+04  0.34901515016E+04 0.  0.
        5    1    3    3  502    0  0.47251835979E+02 -0.13827717883E+04  0.67156034711E+03  0.15379551178E+04  0.46999998093E+01 0.  1.
       -5    1    3    3    0  502 -0.47251835979E+02  0.13827717883E+04 -0.15168840189E+04  0.20531073453E+04  0.46999998093E+01 0. -1.
</event>
<event>
 5   0  0.1348388E-06  0.3381124E+04  0.7818609E-02  0.8142555E-01
        2   -1    0    0  501    0  0.00000000000E+00  0.00000000000E+00  0.13832025465E+04  0.13832025465E+04  0.25500000920E-02 0.  1.
       -2   -1    0    0    0  501  0.00000000000E+00  0.00000000000E+00 -0.20662199228E+04  0.20662199228E+04  0.25500000920E-02 0. -1.
    10030    2    1    2    0    0  0.00000000000E+00  0.00000000000E+00 -0.68301737631E+03  0.34494224693E+04  0.33811244631E+04 0.  0.
        5    1    3    3  502    0 -0.30799564947E+03 -0.99755079289E+03  0.10150155166E+04  0.14561069649E+04  0.46999998093E+01 0.  1.
       -5    1    3    3    0  502  0.30799564947E+03  0.99755079289E+03 -0.16980328929E+04  0.19933155043E+04  0.46999998093E+01 0. -1.
</event>
<event>
 5   0  0.1378620E-06  0.3486414E+04  0.7818609E-02  0.8117017E-01
       -2   -1    0    0    0  501  0.00000000000E+00  0.00000000000E+00  0.12606391220E+04  0.12606391220E+04  0.25500000920E-02 0.  1.
        2   -1    0    0  501    0  0.00000000000E+00  0.00000000000E+00 -0.24104997785E+04  0.24104997785E+04  0.25500000920E-02 0. -1.
    10030    2    1    2    0    0  0.00000000000E+00  0.00000000000E+00 -0.11498606564E+04  0.36711389005E+04  0.34864138162E+04 0.  0.
        2    1    3    3  502    0  0.19388057038E+03 -0.68487071004E+03  0.11006494820E+04  0.13107504901E+04  0.25500000920E-02 0.  1.
       -2    1    3    3    0  502 -0.19388057038E+03  0.68487071004E+03 -0.22505101384E+04  0.23603884104E+04  0.25500000920E-02 0. -1.
</event>
<event>
 5   0  0.1378620E-06  0.3451450E+04  0.7818609E-02  0.8125393E-01
        2   -1    0    0  501    0  0.00000000000E+00  0.00000000000E+00  0.18125237707E+04  0.18125237707E+04  0.25500000920E-02 0. -1.
       -2   -1    0    0    0  501  0.00000000000E+00  0.00000000000E+00 -0.16430828557E+04  0.16430828557E+04  0.25500000920E-02 0.  1.
    10030    2    1    2    0    0  0.00000000000E+00  0.00000000000E+00  0.16944091502E+03  0.34556066265E+04  0.34514499755E+04 0.  0.
        2    1    3    3  502    0 -0.80906245949E+03 -0.15002661536E+04 -0.18531928604E+03  0.17145622861E+04  0.25500000920E-02 0.  1.
       -2    1    3    3    0  502  0.80906245949E+03  0.15002661536E+04  0.35476020106E+03  0.17410443404E+04  0.25500000920E-02 0. -1.
</event>
<event>
 5   0  0.1442864E-06  0.3437318E+04  0.7818609E-02  0.8128808E-01
        2   -1    0    0  501    0  0.00000000000E+00  0.00000000000E+00  0.24404535522E+04  0.24404535522E+04  0.25500000920E-02 0. -1.
       -2   -1    0    0    0  501  0.00000000000E+00  0.00000000000E+00 -0.12103441727E+04  0.12103441727E+04  0.25500000920E-02 0.  1.
    10030    2    1    2    0    0  0.00000000000E+00  0.00000000000E+00  0.12301093794E+04  0.36507977249E+04  0.34373179868E+04 0.  0.
        1    1    3    3  502    0 -0.17740096511E+03 -0.10411377371E+04 -0.82501046552E+03  0.13401795246E+04  0.50400001928E-02 0.  1.
       -1    1    3    3    0  502  0.17740096511E+03  0.10411377371E+04  0.20551198450E+04  0.23106182002E+04  0.50400001928E-02 0. -1.
</event>
<event>
 5   0  0.4409125E-07  0.3481581E+04  0.7818609E-02  0.8118169E-01
       -1   -1    0    0    0  501  0.00000000000E+00  0.00000000000E+00  0.22531432252E+04  0.22531432252E+04  0.50400001928E-02 0. -1.
        1   -1    0    0  501    0  0.00000000000E+00  0.00000000000E+00 -0.13449438804E+04  0.13449438804E+04  0.50400001928E-02 0.  1.
    10030    2    1    2    0    0  0.00000000000E+00  0.00000000000E+00  0.90819934481E+03  0.35980871056E+04  0.34815807860E+04 0.  0.
        5    1    3    3  502    0 -0.14373091260E+04 -0.72971790085E+03  0.11333482021E+04  0.19704938405E+04  0.46999998093E+01 0. -1.
       -5    1    3    3    0  502  0.14373091260E+04  0.72971790085E+03 -0.22514885725E+03  0.16275932650E+04  0.46999998093E+01 0.  1.
</event>
<event>
 5   0  0.4700769E-07  0.3569182E+04  0.7818609E-02  0.8097588E-01
       -1   -1    0    0    0  501  0.00000000000E+00  0.00000000000E+00  0.29327357286E+04  0.29327357287E+04  0.50400001928E-02 0. -1.
        1   -1    0    0  501    0  0.00000000000E+00  0.00000000000E+00 -0.10859363654E+04  0.10859363654E+04  0.50400001928E-02 0.  1.
    10030    2    1    2    0    0  0.00000000000E+00  0.00000000000E+00  0.18467993632E+04  0.40186720941E+04  0.35691816305E+04 0.  0.
        3    1    3    3  502    0 -0.12908771036E+04  0.81628462658E+03  0.19627312726E+04  0.24869656907E+04  0.10100000352E+00 0. -1.
       -3    1    3    3    0  502  0.12908771036E+04 -0.81628462658E+03 -0.11593190937E+03  0.15317064033E+04  0.10100000352E+00 0.  1.
</event>
<event>
 5   0  0.1361560E-06  0.3496051E+04  0.7818609E-02  0.8114726E-01
       -2   -1    0    0    0  501  0.00000000000E+00  0.00000000000E+00  0.11705377425E+04  0.11705377425E+04  0.25500000920E-02 0. -1.
        2   -1    0    0  501    0  0.00000000000E+00  0.00000000000E+00 -0.26104182494E+04  0.26104182494E+04  0.25500000920E-02 0.  1.
    10030    2    1    2    0    0  0.00000000000E+00  0.00000000000E+00 -0.14398805069E+04  0.37809559920E+04  0.34960509634E+04 0.  0.
        3    1    3    3  502    0  0.15145996436E+04  0.76281180855E+03 -0.26148509313E+03  0.17158870592E+04  0.10100000352E+00 0. -1.
       -3    1    3    3    0  502 -0.15145996436E+04 -0.76281180855E+03 -0.11783954138E+04  0.20650689328E+04  0.10100000352E+00 0.  1.
</event>
<event>
 5   0  0.4693374E-07  0.3585252E+04  0.7818609E-02  0.8093878E-01
        1   -1    0    0  501    0  0.00000000000E+00  0.00000000000E+00  0.14349577522E+04  0.14349577522E+04  0.50400001928E-02 0. -1.
       -1   -1    0    0    0  501  0.00000000000E+00  0.00000000000E+00 -0.22394449155E+04  0.22394449155E+04  0.50400001928E-02 0.  1.
    10030    2    1    2    0    0  0.00000000000E+00  0.00000000000E+00 -0.80448716328E+03  0.36744026677E+04  0.35852524832E+04 0.  0.
        1    1    3    3  502    0  0.68384008710E+03  0.13208190052E+04 -0.14277798039E+04  0.20617359864E+04  0.50400001928E-02 0.  1.
       -1    1    3    3    0  502 -0.68384008710E+03 -0.13208190052E+04  0.62329264059E+03  0.16126666813E+04  0.50400001928E-02 0. -1.
</event>
<event>
 5   0  0.1378620E-06  0.2725322E+04  0.7818609E-02  0.8326835E-01
        2   -1    0    0  501    0  0.00000000000E+00  0.00000000000E+00  0.96361423528E+03  0.96361423529E+03  0.25500000920E-02 0. -1.
       -2   -1    0    0    0  501  0.00000000000E+00  0.00000000000E+00 -0.19269586998E+04  0.19269586998E+04  0.25500000920E-02 0.  1.
    10030    2    1    2    0    0  0.00000000000E+00  0.00000000000E+00 -0.96334446455E+03  0.28905729351E+04  0.27253218775E+04 0.  0.
        2    1    3    3  502    0 -0.76592870286E+03  0.21346218174E+03 -0.16554041722E+04  0.18364574197E+04  0.25500000920E-02 0.  1.
       -2    1    3    3    0  502  0.76592870286E+03 -0.21346218174E+03  0.69205970768E+03  0.10541155154E+04  0.25500000920E-02 0. -1.
</event>
<event>
 5   0  0.4591195E-07  0.3452109E+04  0.7818609E-02  0.8125234E-01
       -1   -1    0    0    0  501  0.00000000000E+00  0.00000000000E+00  0.12988955753E+04  0.12988955753E+04  0.50400001928E-02 0. -1.
        1   -1    0    0  501    0  0.00000000000E+00  0.00000000000E+00 -0.22936897838E+04  0.22936897838E+04  0.50400001928E-02 0.  1.
    10030    2    1    2    0    0  0.00000000000E+00  0.00000000000E+00 -0.99479420845E+03  0.35925853591E+04  0.34521086375E+04 0.  0.
        4    1    3    3  502    0 -0.82956597425E+02  0.11913836941E+04  0.79950224090E+03  0.14371786075E+04  0.12699999809E+01 0. -1.
       -4    1    3    3    0  502  0.82956597425E+02 -0.11913836941E+04 -0.17942964494E+04  0.21554067516E+04  0.12699999809E+01 0.  1.
</event>
<event>
 5   0  0.4693374E-07  0.3520839E+04  0.7818609E-02  0.8108869E-01
        1   -1    0    0  501    0  0.00000000000E+00  0.00000000000E+00  0.20921870581E+04  0.20921870581E+04  0.50400001928E-02 0. -1.
       -1   -1    0    0    0  501  0.00000000000E+00  0.00000000000E+00 -0.14812617775E+04  0.14812617775E+04  0.50400001928E-02 0.  1.
    10030    2    1    2    0    0  0.00000000000E+00  0.00000000000E+00  0.61092528057E+03  0.35734488356E+04  0.35208389458E+04 0.  0.
        1    1    3    3  502    0 -0.31923687480E+02  0.17493264246E+04  0.50308905242E+03  0.18205110975E+04  0.50400001928E-02 0.  1.
       -1    1    3    3    0  502  0.31923687480E+02 -0.17493264246E+04  0.10783622815E+03  0.17529377381E+04  0.50400001928E-02 0. -1.
</event>
<event>
 5   0  0.4557237E-07  0.2891223E+04  0.7818609E-02  0.8275494E-01
       -1   -1    0    0    0  501  0.00000000000E+00  0.00000000000E+00  0.18054848575E+04  0.18054848575E+04  0.50400001928E-02 0.  1.
        1   -1    0    0  501    0  0.00000000000E+00  0.00000000000E+00 -0.11574687965E+04  0.11574687965E+04  0.50400001928E-02 0. -1.
    10030    2    1    2    0    0  0.00000000000E+00  0.00000000000E+00  0.64801606096E+03  0.29629536540E+04  0.28912228452E+04 0.  0.
        2    1    3    3  502    0 -0.23771496186E+03 -0.11874915600E+04  0.11329899523E+04  0.16584061143E+04  0.25500000920E-02 0.  1.
       -2    1    3    3    0  502  0.23771496186E+03  0.11874915600E+04 -0.48497389132E+03  0.13045475397E+04  0.25500000920E-02 0. -1.
</event>
<event>
 5   0  0.4409125E-07  0.3179529E+04  0.7818609E-02  0.8194244E-01
       -1   -1    0    0    0  501  0.00000000000E+00  0.00000000000E+00  0.16750619909E+04  0.16750619909E+04  0.50400001928E-02 0.  1.
        1   -1    0    0  501    0  0.00000000000E+00  0.00000000000E+00 -0.15088105942E+04  0.15088105942E+04  0.50400001928E-02 0. -1.
    10030    2    1    2    0    0  0.00000000000E+00  0.00000000000E+00  0.16625139674E+03  0.31838725852E+04  0.31795290707E+04 0.  0.
        5    1    3    3  502    0 -0.97389024638E+03  0.78063002947E+03  0.10690944307E+04  0.16434203500E+04  0.46999998093E+01 0.  1.
       -5    1    3    3    0  502  0.97389024638E+03 -0.78063002947E+03 -0.90284303397E+03  0.15404522352E+04  0.46999998093E+01 0. -1.
</event>
<event>
 5   0  0.1387133E-06  0.3407804E+04  0.7818609E-02  0.8135994E-01
       -2   -1    0    0    0  501  0.00000000000E+00  0.00000000000E+00  0.17713523160E+04  0.17713523160E+04  0.25500000920E-02 0. -1.
        2   -1    0    0  501    0  0.00000000000E+00  0.00000000000E+00 -0.16390196744E+04  0.16390196744E+04  0.25500000920E-02 0.  1.
    10030    2    1    2    0    0  0.00000000000E+00  0.00000000000E+00  0.13233264160E+03  0.34103719905E+04  0.34078035720E+04 0.  0.
        4    1    3    3  502    0  0.27808712326E+03 -0.75460609210E+03  0.15694692109E+04  0.17635186473E+04  0.12699999809E+01 0. -1.
       -4    1    3    3    0  502 -0.27808712326E+03  0.75460609210E+03 -0.14371365693E+04  0.16468533432E+04  0.12699999809E+01 0.  1.
</event>
<event>
 5   0  0.1387133E-06  0.3212364E+04  0.7818609E-02  0.8185560E-01
        2   -1    0    0  501    0  0.00000000000E+00  0.00000000000E+00  0.20248467118E+04  0.20248467118E+04  0.25500000920E-02 0. -1.
       -2   -1    0    0    0  501  0.00000000000E+00  0.00000000000E+00 -0.12740818570E+04  0.12740818570E+04  0.25500000920E-02 0.  1.
    10030    2    1    2    0    0  0.00000000000E+00  0.00000000000E+00  0.75076485485E+03  0.32989285688E+04  0.32123639014E+04 0.  0.
        4    1    3    3  502    0 -0.56175800868E+03 -0.99857910989E+03 -0.78060022011E+03  0.13863876137E+04  0.12699999809E+01 0.  1.
       -4    1    3    3    0  502  0.56175800868E+03  0.99857910989E+03  0.15313650750E+04  0.19125409550E+04  0.12699999809E+01 0. -1.
</event>
<event>
 5   0  0.4557237E-07  0.3273599E+04  0.7818609E-02  0.8169646E-01
       -1   -1    0    0    0  501  0.00000000000E+00  0.00000000000E+00  0.17228461405E+04  0.17228461405E+04  0.50400001928E-02 0.  1.
        1   -1    0    0  501    0  0.00000000000E+00  0.00000000000E+00 -0.15550507374E+04  0.15550507374E+04  0.50400001928E-02 0. -1.
    10030    2    1    2    0    0  0.00000000000E+00  0.00000000000E+00  0.16779540314E+03  0.32778968779E+04  0.32735993409E+04 0.  0.
        2    1    3    3  502    0  0.11275018034E+04 -0.77365341962E+02 -0.11016614785E+04  0.15782597144E+04  0.25500000920E-02 0. -1.
       -2    1    3    3    0  502 -0.11275018034E+04  0.77365341962E+02  0.12694568817E+04  0.16996371634E+04  0.25500000920E-02 0.  1.
</event>
<event>
 5   0  0.1387133E-06  0.3491050E+04  0.7818609E-02  0.8115914E-01
        2   -1    0    0  501    0  0.00000000000E+00  0.00000000000E+00  0.26673431683E+04  0.26673431683E+04  0.25500000920E-02 0.  1.
       -2   -1    0    0    0  501  0.00000000000E+00  0.00000000000E+00 -0.11422818697E+04  0.11422818697E+04  0.25500000920E-02 0. -1.
    10030    2    1    2    0    0  0.00000000000E+00  0.00000000000E+00  0.15250612985E+04  0.38096250380E+04  0.34910501237E+04 0.  0.
        4    1    3    3  502    0  0.73309848365E+03 -0.15647034951E+04  0.49273302477E+03  0.17968076861E+04  0.12699999809E+01 0. -1.
       -4    1    3    3    0  502 -0.73309848365E+03  0.15647034951E+04  0.10323282738E+04  0.20128173519E+04  0.12699999809E+01 0.  1.
</event>
<event>
 5   0  0.1442864E-06  0.3492715E+04  0.7818609E-02  0.8115519E-01
        2   -1    0    0  501    0  0.00000000000E+00  0.00000000000E+00  0.16551671624E+04  0.16551671624E+04  0.25500000920E-02 0. -1.
       -2   -1    0    0    0  501  0.00000000000E+00  0.00000000000E+00 -0.18425718243E+04  0.18425718243E+04  0.25500000920E-02 0.  1.
    10030    2    1    2    0    0  0.00000000000E+00  0.00000000000E+00 -0.18740466191E+03  0.34977389867E+04  0.34927149200E+04 0.  0.
        1    1    3    3  502    0  0.34418664501E+03  0.10795382937E+03 -0.18048573280E+04  0.18405511268E+04  0.50400001928E-02 0.  1.
       -1    1    3    3    0  502 -0.34418664501E+03 -0.10795382937E+03  0.16174526661E+04  0.16571878599E+04  0.50400001928E-02 0. -1.
</event>
<event>
 5   0  0.1387133E-06  0.3572690E+04  0.7818609E-02  0.8096776E-01
       -2   -1    0    0    0  501  0.00000000000E+00  0.00000000000E+00  0.19687567508E+04  0.19687567508E+04  0.25500000920E-02 0. -1.
        2   -1    0    0  501    0  0.00000000000E+00  0.00000000000E+00 -0.16208344767E+04  0.16208344767E+04  0.25500000920E-02 0.  1.
    10030    2    1    2    0    0  0.00000000000E+00  0.00000000000E+00  0.34792227407E+03  0.35895912275E+04  0.35726902009E+04 0.  0.
        4    1    3    3  502    0 -0.15356171998E+04 -0.84927782893E+03  0.50965874701E+03  0.18273332116E+04  0.12699999809E+01 0. -1.
       -4    1    3    3    0  502  0.15356171998E+04  0.84927782893E+03 -0.16173647294E+03  0.17622580159E+04  0.12699999809E+01 0.  1.
</event>
<event>
 5   0  0.4409125E-07  0.3450737E+04  0.7818609E-02  0.8125565E-01
       -1   -1    0    0    0  501  0.00000000000E+00  0.00000000000E+00  0.16340194526E+04  0.16340194526E+04  0.50400001928E-02 0.  1.
        1   -1    0    0  501    0  0.00000000000E+00  0.00000000000E+00 -0.18218242215E+04  0.18218242215E+04  0.50400001928E-02 0. -1.
    10030    2    1    2    0    0  0.00000000000E+00  0.00000000000E+00 -0.18780476890E+03  0.34558436741E+04  0.34507368587E+04 0.  0.
        5    1    3    3  502    0 -0.76396934328E+03 -0.14486431531E+04 -0.63752980335E+03  0.17574647884E+04  0.46999998093E+01 0. -1.
       -5    1    3    3    0  502  0.76396934328E+03  0.14486431531E+04  0.44972503445E+03  0.16983788856E+04  0.46999998093E+01 0.  1.
</event>
<event>
 5   0  0.1348388E-06  0.2760150E+04  0.7818609E-02  0.8315748E-01
       -2   -1    0    0    0  501  0.00000000000E+00  0.00000000000E+00  0.24336190772E+04  0.24336190772E+04  0.25500000920E-02 0.  1.
        2   -1    0    0  501    0  0.00000000000E+00  0.00000000000E+00 -0.78262350652E+03  0.78262350652E+03  0.25500000920E-02 0. -1.
    10030    2    1    2    0    0  0.00000000000E+00  0.00000000000E+00  0.16509955707E+04  0.32162425838E+04  0.27601503552E+04 0.  0.
        5    1    3    3  502    0 -0.36140833747E+03  0.82600745661E+03  0.20429837225E+04  0.22330940162E+04  0.46999998093E+01 0.  1.
       -5    1    3    3    0  502  0.36140833747E+03 -0.82600745661E+03 -0.39198815178E+03  0.98314856756E+03  0.46999998093E+01 0. -1.
</event>
<event>
 5   0  0.4409125E-07  0.3523301E+04  0.7818609E-02  0.8108290E-01
       -1   -1    0    0    0  501  0.00000000000E+00  0.00000000000E+00  0.18544904901E+04  0.18544904901E+04  0.50400001928E-02 0. -1.
        1   -1    0    0  501    0  0.00000000000E+00  0.00000000000E+00 -0.16734579156E+04  0.16734579156E+04  0.50400001928E-02 0.  1.
    10030    2    1    2    0    0  0.00000000000E+00  0.00000000000E+00  0.18103257453E+03  0.35279484057E+04  0.35233006060E+04 0.  0.
        5    1    3    3  502    0 -0.72850396635E+03 -0.26263470262E+03  0.16749103646E+04  0.18452755446E+04  0.46999998093E+01 0. -1.
       -5    1    3    3    0  502  0.72850396635E+03  0.26263470262E+03 -0.14938777901E+04  0.16826728611E+04  0.46999998093E+01 0.  1.
</event>
<event>
 5   0  0.4700769E-07  0.3451334E+04  0.7818609E-02  0.8125421E-01
        1   -1    0    0  501    0  0.00000000000E+00  0.00000000000E+00  0.21666164394E+04  0.21666164394E+04  0.50400001928E-02 0. -1.
       -1   -1    0    0    0  501  0.00000000000E+00  0.00000000000E+00 -0.13744596428E+04  0.13744596429E+04  0.50400001928E-02 0.  1.
    10030    2    1    2    0    0  0.00000000000E+00  0.00000000000E+00  0.79215679657E+03  0.35410760823E+04  0.34513341522E+04 0.  0.
        3    1    3    3  502    0  0.10586714424E+04 -0.12509512574E+04  0.95074862273E+03  0.18946206019E+04  0.10100000352E+00 0. -1.
       -3    1    3    3    0  502 -0.10586714424E+04  0.12509512574E+04 -0.15859182616E+03  0.16464554804E+04  0.10100000352E+00 0.  1.
</event>
<event>
 5   0  0.1361560E-06  0.2558803E+04  0.7818609E-02  0.8382331E-01
        2   -1    0    0  501    0  0.00000000000E+00  0.00000000000E+00  0.21121727049E+04  0.21121727049E+04  0.25500000920E-02 0. -1.
       -2   -1    0    0    0  501  0.00000000000E+00  0.00000000000E+00 -0.77496883407E+03  0.77496883407E+03  0.25500000920E-02 0.  1.
    10030    2    1    2    0    0  0.00000000000E+00  0.00000000000E+00  0.13372038708E+04  0.28871415389E+04  0.25588028595E+04 0.  0.
        3    1    3    3  502    0  0.11378811123E+04  0.56412995530E+03  0.84286021820E+03  0.15242799578E+04  0.10100000352E+00 0.  1.
       -3    1    3    3    0  502 -0.11378811123E+04 -0.56412995530E+03  0.49434365260E+03  0.13628615811E+04  0.10100000352E+00 0. -1.
</event>
<event>
 5   0  0.4693374E-07  0.3381058E+04  0.7818609E-02  0.8142571E-01
        1   -1    0    0  501    0  0.00000000000E+00  0.00000000000E+00  0.20143187155E+04  0.20143187155E+04  0.50400001928E-02 0. -1.
       -1   -1    0    0    0  501  0.00000000000E+00  0.00000000000E+00 -0.14187864534E+04  0.14187864534E+04  0.50400001928E-02 0.  1.
    10030    2    1    2    0    0  0.00000000000E+00  0.00000000000E+00  0.59553226213E+03  0.34331051689E+04  0.33810578855E+04 0.  0.
        1    1    3    3  502    0 -0.16679052995E+04 -0.17565382929E+03  0.51346443044E+03  0.17539692349E+04  0.50400001928E-02 0. -1.
       -1    1    3    3    0  502  0.16679052995E+04  0.17565382929E+03  0.82067831694E+02  0.16791359340E+04  0.50400001928E-02 0.  1.
</event>
<event>
 5   0  0.4591195E-07  0.3219403E+04  0.7818609E-02  0.8183712E-01
       -1   -1    0    0    0  501  0.00000000000E+00  0.00000000000E+00  0.15984152583E+04  0.15984152583E+04  0.50400001928E-02 0. -1.
        1   -1    0    0  501    0  0.00000000000E+00  0.00000000000E+00 -0.16210677973E+04  0.16210677973E+04  0.50400001928E-02 0.  1.
    10030    2    1    2    0    0  0.00000000000E+00  0.00000000000E+00 -0.22652538992E+02  0.32194830556E+04  0.32194033621E+04 0.  0.
        4    1    3    3  502    0  0.16057763983E+04 -0.14732583216E+02  0.10004523897E+03  0.16089579090E+04  0.12699999809E+01 0.  1.
       -4    1    3    3    0  502 -0.16057763983E+04  0.14732583216E+02 -0.12269777796E+03  0.16105251466E+04  0.12699999809E+01 0. -1.
</event>
<event>
 5   0  0.4409125E-07  0.3442360E+04  0.7818609E-02  0.8127587E-01
        1   -1    0    0  501    0  0.00000000000E+00  0.00000000000E+00  0.15490719523E+04  0.15490719524E+04  0.50400001928E-02 0. -1.
       -1   -1    0    0    0  501  0.00000000000E+00  0.00000000000E+00 -0.19124102708E+04  0.19124102708E+04  0.50400001928E-02 0.  1.
    10030    2    1    2    0    0  0.00000000000E+00  0.00000000000E+00 -0.36333831849E+03  0.34614822232E+04  0.34423603019E+04 0.  0.
        5    1    3    3  502    0  0.30408640681E+02 -0.63408179770E+03 -0.17903855878E+04  0.18996018147E+04  0.46999998093E+01 0.  1.
       -5    1    3    3    0  502 -0.30408640681E+02  0.63408179770E+03  0.14270472693E+04  0.15618804085E+04  0.46999998093E+01 0. -1.
</event>
<event>
 5   0  0.4693374E-07  0.3490607E+04  0.7818609E-02  0.8116020E-01
       -1   -1    0    0    0  501  0.00000000000E+00  0.00000000000E+00  0.20412981804E+04  0.20412981804E+04  0.50400001928E-02 0.  1.
        1   -1    0    0  501    0  0.00000000000E+00  0.00000000000E+00 -0.14922288272E+04  0.14922288272E+04  0.50400001928E-02 0. -1.
    10030    2    1    2    0    0  0.00000000000E+00  0.00000000000E+00  0.54906935314E+03  0.35335270076E+04  0.34906068182E+04 0.  0.
        1    1    3    3  502    0  0.12688770223E+04  0.94192130459E+03  0.10244672007E+04  0.18832943709E+04  0.50400001928E-02 0.  1.
       -1    1    3    3    0  502 -0.12688770223E+04 -0.94192130459E+03 -0.47539784761E+03  0.16502326368E+04  0.50400001928E-02 0. -1.
</event>
<event>
 5   0  0.4693374E-07  0.3473992E+04  0.7818609E-02  0.8119981E-01
       -1   -1    0    0    0  501  0.00000000000E+00  0.00000000000E+00  0.94147867254E+03  0.94147867255E+03  0.50400001928E-02 0.  1.
        1   -1    0    0  501    0  0.00000000000E+00  0.00000000000E+00 -0.32046977219E+04  0.32046977219E+04  0.50400001928E-02 0. -1.
    10030    2    1    2    0    0  0.00000000000E+00  0.00000000000E+00 -0.22632190494E+04  0.41461763945E+04  0.34739916852E+04 0.  0.
        1    1    3    3  502    0  0.31016027335E+03  0.23111740603E+03 -0.31526440627E+04  0.31762838722E+04  0.50400001928E-02 0. -1.
       -1    1    3    3    0  502 -0.31016027335E+03 -0.23111740603E+03  0.88942501330E+03  0.96989252232E+03  0.50400001928E-02 0.  1.
</event>
<event>
 5   0  0.1387133E-06  0.3464670E+04  0.7818609E-02  0.8122214E-01
       -2   -1    0    0    0  501  0.00000000000E+00  0.00000000000E+00  0.15600048983E+04  0.15600048983E+04  0.25500000920E-02 0.  1.
        2   -1    0    0  501    0  0.00000000000E+00  0.00000000000E+00 -0.19237015128E+04  0.19237015128E+04  0.25500000920E-02 0. -1.
    10030    2    1    2    0    0  0.00000000000E+00  0.00000000000E+00 -0.36369661446E+03  0.34837064111E+04  0.34646695558E+04 0.  0.
        4    1    3    3  502    0 -0.14767505911E+04 -0.85347308088E+03 -0.48645435475E+03  0.17736538727E+04  0.12699999809E+01 0. -1.
       -4    1    3    3    0  502  0.14767505911E+04  0.85347308088E+03  0.12275774028E+03  0.17100525383E+04  0.12699999809E+01 0.  1.
</event>
<event>
 5   0  0.4591195E-07  0.3493574E+04  0.7818609E-02  0.8115314E-01
       -1   -1    0    0    0  501  0.00000000000E+00  0.00000000000E+00  0.20284664854E+04  0.20284664854E+04  0.50400001928E-02 0.  1.
        1   -1    0    0  501    0  0.00000000000E+00  0.00000000000E+00 -0.15042225301E+04  0.15042225301E+04  0.50400001928E-02 0. -1.
    10030    2    1    2    0    0  0.00000000000E+00  0.00000000000E+00  0.52424395523E+03  0.35326890155E+04  0.34935740948E+04 0.  0.
        4    1    3    3  502    0 -0.95256947826E+03 -0.70098295273E+03  0.15620098042E+04  0.19592452507E+04  0.12699999809E+01 0.  1.
       -4    1    3    3    0  502  0.95256947826E+03  0.70098295273E+03 -0.10377658490E+04  0.15734437648E+04  0.12699999809E+01 0. -1.
</event>
<event>
 5   0  0.4693374E-07  0.3535017E+04  0.7818609E-02  0.8105541E-01
        1   -1    0    0  501    0  0.00000000000E+00  0.00000000000E+00  0.18849081023E+04  0.18849081023E+04  0.50400001928E-02 0.  1.
       -1   -1    0    0    0  501  0.00000000000E+00  0.00000000000E+00 -0.16574212236E+04  0.16574212236E+04  0.50400001928E-02 0. -1.
    10030    2    1    2    0    0  0.00000000000E+00  0.00000000000E+00  0.22748687873E+03  0.35423293259E+04  0.35350172239E+04 0.  0.
        1    1    3    3  502    0 -0.12722870051E+04 -0.99780762435E+03 -0.60170286758E+03  0.17252190062E+04  0.50400001928E-02 0. -1.
       -1    1    3    3    0  502  0.12722870051E+04  0.99780762435E+03  0.82918974631E+03  0.18171103197E+04  0.50400001928E-02 0.  1.
</event>
<event>
 5   0  0.4700769E-07  0.3495688E+04  0.7818609E-02  0.8114813E-01
       -1   -1    0    0    0  501  0.00000000000E+00  0.00000000000E+00  0.28265593362E+04  0.28265593362E+04  0.50400001928E-02 0. -1.
        1   -1    0    0  501    0  0.00000000000E+00  0.00000000000E+00 -0.10808048250E+04  0.10808048250E+04  0.50400001928E-02 0.  1.
    10030    2    1    2    0    0  0.00000000000E+00  0.00000000000E+00  0.17457545112E+04  0.39073641612E+04  0.34956881833E+04 0.  0.
        3    1    3    3  502    0  0.96068595732E+03  0.63243710317E+03 -0.59819249513E+03  0.12964291224E+04  0.10100000352E+00 0.  1.
       -3    1    3    3    0  502 -0.96068595732E+03 -0.63243710317E+03  0.23439470063E+04  0.26109350388E+04  0.10100000352E+00 0. -1.
</event>
<event>
 5   0  0.4409125E-07  0.3369100E+04  0.7818609E-02  0.8145532E-01
        1   -1    0    0  501    0  0.00000000000E+00  0.00000000000E+00  0.13454992058E+04  0.13454992059E+04  0.50400001928E-02 0.  1.
       -1   -1    0    0    0  501  0.00000000000E+00  0.00000000000E+00 -0.21090374806E+04  0.21090374806E+04  0.50400001928E-02 0. -1.
    10030    2    1    2    0    0  0.00000000000E+00  0.00000000000E+00 -0.76353827477E+03  0.34545366865E+04  0.33690997345E+04 0.  0.
        5    1    3    3  502    0 -0.93942827481E+01 -0.31513512832E+03 -0.20785098651E+04  0.21022901206E+04  0.46999998093E+01 0. -1.
       -5    1    3    3    0  502  0.93942827481E+01  0.31513512832E+03  0.13149715903E+04  0.13522465659E+04  0.46999998093E+01 0.  1.
</event>
<event>
 5   0  0.1387133E-06  0.3455919E+04  0.7818609E-02  0.8124317E-01
       -2   -1    0    0    0  501  0.00000000000E+00  0.00000000000E+00  0.12459924844E+04  0.12459924844E+04  0.25500000920E-02 0.  1.
        2   -1    0    0  501    0  0.00000000000E+00  0.00000000000E+00 -0.23963576299E+04  0.23963576299E+04  0.25500000920E-02 0. -1.
    10030    2    1    2    0    0  0.00000000000E+00  0.00000000000E+00 -0.11503651456E+04  0.36423501143E+04  0.34559187472E+04 0.  0.
        4    1    3    3  502    0  0.60872802342E+03 -0.11528404812E+04  0.62012873819E+03  0.14436593250E+04  0.12699999809E+01 0.  1.
       -4    1    3    3    0  502 -0.60872802342E+03  0.11528404812E+04 -0.17704938838E+04  0.21986907893E+04  0.12699999809E+01 0. -1.
</event>
<event>
 5   0  0.4557237E-07  0.2514581E+04  0.7818609E-02  0.8397809E-01
       -1   -1    0    0    0  501  0.00000000000E+00  0.00000000000E+00  0.13142619441E+04  0.13142619441E+04  0.50400001928E-02 0. -1.
        1   -1    0    0  501    0  0.00000000000E+00  0.00000000000E+00 -0.12027884499E+04  0.12027884499E+04  0.50400001928E-02 0.  1.
    10030    2    1    2    0    0  0.00000000000E+00  0.00000000000E+00  0.11147349418E+03  0.25170503940E+04  0.25145807495E+04 0.  0.
        2    1    3    3  502    0  0.95367495830E+03  0.77931423522E+03  0.30887339819E+03  0.12697359487E+04  0.25500000920E-02 0.  1.
       -2    1    3    3    0  502 -0.95367495830E+03 -0.77931423522E+03 -0.19739990400E+03  0.12473144453E+04  0.25500000920E-02 0. -1.
</event>
<event>
 5   0  0.4591195E-07  0.3598613E+04  0.7818609E-02  0.8090809E-01
       -1   -1    0    0    0  501  0.00000000000E+00  0.00000000000E+00  0.26981277585E+04  0.26981277585E+04  0.50400001928E-02 0. -1.
        1   -1    0    0  501    0  0.00000000000E+00  0.00000000000E+00 -0.11999076398E+04  0.11999076399E+04  0.50400001928E-02 0.  1.
    10030    2    1    2    0    0  0.00000000000E+00  0.00000000000E+00  0.14982201186E+04  0.38980353983E+04  0.35986131277E+04 0.  0.
        4    1    3    3  502    0  0.15294259130E+03  0.46083699014E+03  0.26258201057E+04  0.26703361227E+04  0.12699999809E+01 0. -1.
       -4    1    3    3    0  502 -0.15294259130E+03 -0.46083699014E+03 -0.11275999871E+04  0.12276992757E+04  0.12699999809E+01 0.  1.
</event>
<event>
 5   0  0.1387133E-06  0.3358160E+04  0.7818609E-02  0.8148252E-01
        2   -1    0    0  501    0  0.00000000000E+00  0.00000000000E+00  0.18994908531E+04  0.18994908531E+04  0.25500000920E-02 0.  1.
       -2   -1    0    0    0  501  0.00000000000E+00  0.00000000000E+00 -0.14842450169E+04  0.14842450169E+04  0.25500000920E-02 0. -1.
    10030    2    1    2    0    0  0.00000000000E+00  0.00000000000E+00  0.41524583621E+03  0.33837358700E+04  0.33581601114E+04 0.  0.
        4    1    3    3  502    0  0.39084094892E+02  0.42673745823E+03  0.18434637739E+04  0.18926153131E+04  0.12699999809E+01 0.  1.
       -4    1    3    3    0  502 -0.39084094892E+02 -0.42673745823E+03 -0.14282179377E+04  0.14911205569E+04  0.12699999809E+01 0. -1.
</event>
<event>
 5   0  0.1348388E-06  0.3439653E+04  0.7818609E-02  0.8128242E-01
       -2   -1    0    0    0  501  0.00000000000E+00  0.00000000000E+00  0.10258815552E+04  0.10258815552E+04  0.25500000920E-02 0.  1.
        2   -1    0    0  501    0  0.00000000000E+00  0.00000000000E+00 -0.28831818889E+04  0.28831818889E+04  0.25500000920E-02 0. -1.
    10030    2    1    2    0    0  0.00000000000E+00  0.00000000000E+00 -0.18573003337E+04  0.39090634440E+04  0.34396529592E+04 0.  0.
        5    1    3    3  502    0 -0.13781641792E+04 -0.35542588584E+03  0.16856877954E+03  0.14332137275E+04  0.46999998093E+01 0.  1.
       -5    1    3    3    0  502  0.13781641792E+04  0.35542588584E+03 -0.20258691132E+04  0.24758497166E+04  0.46999998093E+01 0. -1.
</event>
<event>
 5   0  0.4591195E-07  0.3182443E+04  0.7818609E-02  0.8193469E-01
        1   -1    0    0  501    0  0.00000000000E+00  0.00000000000E+00  0.25708189656E+04  0.25708189656E+04  0.50400001928E-02 0.  1.
       -1   -1    0    0    0  501  0.00000000000E+00  0.00000000000E+00 -0.98489435892E+03  0.98489435893E+03  0.50400001928E-02 0. -1.
    10030    2    1    2    0    0  0.00000000000E+00  0.00000000000E+00  0.15859246066E+04  0.35557133245E+04  0.31824425192E+04 0.  0.
        4    1    3    3  502    0  0.12295298884E+04 -0.91852932587E+03  0.32350923841E+03  0.15684704999E+04  0.12699999809E+01 0. -1.
       -4    1    3    3    0  502 -0.12295298884E+04  0.91852932587E+03  0.12624153682E+04  0.19872428246E+04  0.12699999809E+01 0.  1.
</event>
<event>
 5   0  0.1387133E-06  0.3503288E+04  0.7818609E-02  0.8113011E-01
        2   -1    0    0  501    0  0.00000000000E+00  0.00000000000E+00  0.16522877513E+04  0.16522877513E+04  0.25500000920E-02 0. -1.
       -2   -1    0    0    0  501  0.00000000000E+00  0.00000000000E+00 -0.18569743997E+04  0.18569743997E+04  0.25500000920E-02 0.  1.
    10030    2    1    2    0    0  0.00000000000E+00  0.00000000000E+00 -0.20468664833E+03  0.35092621510E+04  0.35032876303E+04 0.  0.
        4    1    3    3  502    0  0.17480619850E+04  0.50315738112E+02 -0.21624398831E+01  0.17487877704E+04  0.12699999809E+01 0. -1.
       -4    1    3    3    0  502 -0.17480619850E+04 -0.50315738112E+02 -0.20252420845E+03  0.17604743806E+04  0.12699999809E+01 0.  1.
</event>
<event>
 5   0  0.1361560E-06  0.2842959E+04  0.7818609E-02  0.8290054E-01
       -2   -1    0    0    0  501  0.00000000000E+00  0.00000000000E+00  0.11983058969E+04  0.11983058969E+04  0.25500000920E-02 0.  1.
        2   -1    0    0  501    0  0.00000000000E+00  0.00000000000E+00 -0.16862171754E+04  0.16862171754E+04  0.25500000920E-02 0. -1.
    10030    2    1    2    0    0  0.00000000000E+00  0.00000000000E+00 -0.48791127852E+03  0.28845230723E+04  0.28429590112E+04 0.  0.
        3    1    3    3  502    0 -0.45727798280E+03  0.10324631836E+04  0.63210313092E+03  0.12940779565E+04  0.10100000352E+00 0.  1.
       -3    1    3    3    0  502  0.45727798280E+03 -0.10324631836E+04 -0.11200144094E+04  0.15904451159E+04  0.10100000352E+00 0. -1.
</event>
<event>
 5   0  0.4409125E-07  0.3487296E+04  0.7818609E-02  0.8116807E-01
       -1   -1    0    0    0  501  0.00000000000E+00  0.00000000000E+00  0.26006239339E+04  0.26006239340E+04  0.50400001928E-02 0.  1.
        1   -1    0    0  501    0  0.00000000000E+00  0.00000000000E+00 -0.11690689326E+04  0.11690689326E+04  0.50400001928E-02 0. -1.
    10030    2    1    2    0    0  0.00000000000E+00  0.00000000000E+00  0.14315550014E+04  0.37696928665E+04  0.34872961712E+04 0.  0.
        5    1    3    3  502    0 -0.16608758603E+04  0.52287901331E+03  0.61684892788E+03  0.18472779368E+04  0.46999998093E+01 0.  1.
       -5    1    3    3    0  502  0.16608758603E+04 -0.52287901331E+03  0.81470607351E+03  0.19224149297E+04  0.46999998093E+01 0. -1.
</event>
<event>
 5   0  0.1378620E-06  0.3495388E+04  0.7818609E-02  0.8114884E-01
       -2   -1    0    0    0  501  0.00000000000E+00  0.00000000000E+00  0.11851826228E+04  0.11851826228E+04  0.25500000920E-02 0. -1.
        2   -1    0    0  501    0  0.00000000000E+00  0.00000000000E+00 -0.25771849182E+04  0.25771849182E+04  0.25500000920E-02 0.  1.
    10030    2    1    2    0    0  0.00000000000E+00  0.00000000000E+00 -0.13920022954E+04  0.37623675409E+04  0.34953882649E+04 0.  0.
        2    1    3    3  502    0 -0.10817033084E+04  0.51337239165E+02 -0.21725335260E+04  0.24274718291E+04  0.25500000920E-02 0.  1.
       -2    1    3    3    0  502  0.10817033084E+04 -0.51337239165E+02  0.78053123060E+03  0.13348957118E+04  0.25500000920E-02 0. -1.
</event>
<event>
 5   0  0.4409125E-07  0.2709902E+04  0.7818609E-02  0.8331799E-01
       -3   -1    0    0    0  501  0.00000000000E+00  0.00000000000E+00  0.97539506333E+03  0.97539506856E+03  0.10100000352E+00 0. -1.
        3   -1    0    0  501    0  0.00000000000E+00  0.00000000000E+00 -0.18822036499E+04  0.18822036526E+04  0.10100000352E+00 0.  1.
    10030    2    1    2    0    0  0.00000000000E+00  0.00000000000E+00 -0.90680858659E+03  0.28575987212E+04  0.27099019611E+04 0.  0.
        3    1    3    3  502    0  0.12230805709E+04 -0.16954033357E+03 -0.10416826995E+04  0.16154791439E+04  0.10100000352E+00 0.  1.
       -3    1    3    3    0  502 -0.12230805709E+04  0.16954033357E+03  0.13487411292E+03  0.12421195773E+04  0.10100000352E+00 0. -1.
</event>
<event>
 5   0  0.1378620E-06  0.3555602E+04  0.7818609E-02  0.8100738E-01
        2   -1    0    0  501    0  0.00000000000E+00  0.00000000000E+00  0.19137961277E+04  0.19137961277E+04  0.25500000920E-02 0. -1.
       -2   -1    0    0    0  501  0.00000000000E+00  0.00000000000E+00 -0.16514695826E+04  0.16514695826E+04  0.25500000920E-02 0.  1.
    10030    2    1    2    0    0  0.00000000000E+00  0.00000000000E+00  0.26232654507E+03  0.35652657104E+04  0.35556018294E+04 0.  0.
        2    1    3    3  502    0 -0.15918186693E+04 -0.65003784605E+03 -0.32188352538E+03  0.17492983969E+04  0.25500000920E-02 0.  1.
       -2    1    3    3    0  502  0.15918186693E+04  0.65003784605E+03  0.58421007045E+03  0.18159673135E+04  0.25500000920E-02 0. -1.
</event>
<event>
 5   0  0.4700769E-07  0.3500301E+04  0.7818609E-02  0.8113719E-01
       -1   -1    0    0    0  501  0.00000000000E+00  0.00000000000E+00  0.18003473647E+04  0.18003473648E+04  0.50400001928E-02 0. -1.
        1   -1    0    0  501    0  0.00000000000E+00  0.00000000000E+00 -0.17013535651E+04  0.17013535651E+04  0.50400001928E-02 0.  1.
    10030    2    1    2    0    0  0.00000000000E+00  0.00000000000E+00  0.98993799643E+02  0.35017009299E+04  0.35003013627E+04 0.  0.
        3    1    3    3  502    0  0.16207436930E+04 -0.47696623763E+03  0.50653894453E+03  0.17637711368E+04  0.10100000352E+00 0. -1.
       -3    1    3    3    0  502 -0.16207436930E+04  0.47696623763E+03 -0.40754514488E+03  0.17379297931E+04  0.10100000352E+00 0.  1.
</event>
<event>
 5   0  0.1361560E-06  0.3550148E+04  0.7818609E-02  0.8102007E-01
        2   -1    0    0  501    0  0.00000000000E+00  0.00000000000E+00  0.19830913403E+04  0.19830913403E+04  0.25500000920E-02 0.  1.
       -2   -1    0    0    0  501  0.00000000000E+00  0.00000000000E+00 -0.15888764791E+04  0.15888764791E+04  0.25500000920E-02 0. -1.
    10030    2    1    2    0    0  0.00000000000E+00  0.00000000000E+00  0.39421486123E+03  0.35719678194E+04  0.35501477076E+04 0.  0.
        3    1    3    3  502    0 -0.48759497619E+03 -0.13734851882E+04  0.12165857144E+04  0.18984970986E+04  0.10100000352E+00 0. -1.
       -3    1    3    3    0  502  0.48759497619E+03  0.13734851882E+04 -0.82237085312E+03  0.16734707207E+04  0.10100000352E+00 0.  1.
</event>
<event>
 5   0  0.4591195E-07  0.3518594E+04  0.7818609E-02  0.8109398E-01
       -1   -1    0    0    0  501  0.00000000000E+00  0.00000000000E+00  0.19274316670E+04  0.19274316670E+04  0.50400001928E-02 0. -1.
        1   -1    0    0  501    0  0.00000000000E+00  0.00000000000E+00 -0.16058287098E+04  0.16058287098E+04  0.50400001928E-02 0.  1.
    10030    2    1    2    0    0  0.00000000000E+00  0.00000000000E+00  0.32160295719E+03  0.35332603767E+04  0.35185935298E+04 0.  0.
        4    1    3    3  502    0 -0.11898011891E+04  0.96357983012E+02  0.14585552881E+04  0.18847537961E+04  0.12699999809E+01 0. -1.
       -4    1    3    3    0  502  0.11898011891E+04 -0.96357983012E+02 -0.11369523310E+04  0.16485065806E+04  0.12699999809E+01 0.  1.
</event>
<event>
 5   0  0.4700769E-07  0.3517635E+04  0.7818609E-02  0.8109623E-01
        1   -1    0    0  501    0  0.00000000000E+00  0.00000000000E+00  0.17412411253E+04  0.17412411253E+04  0.50400001928E-02 0.  1.
       -1   -1    0    0    0  501  0.00000000000E+00  0.00000000000E+00 -0.17765716817E+04  0.17765716817E+04  0.50400001928E-02 0. -1.
    10030    2    1    2    0    0  0.00000000000E+00  0.00000000000E+00 -0.35330556407E+02  0.35178128070E+04  0.35176353843E+04 0.  0.
        3    1    3    3  502    0 -0.10690026238E+04 -0.27856442523E+03 -0.13863375797E+04  0.17726524317E+04  0.10100000352E+00 0. -1.
       -3    1    3    3    0  502  0.10690026238E+04  0.27856442523E+03  0.13510070232E+04  0.17451603753E+04  0.10100000352E+00 0.  1.
</event>
<event>
 5   0  0.1378620E-06  0.3442903E+04  0.7818609E-02  0.8127456E-01
        2   -1    0    0  501    0  0.00000000000E+00  0.00000000000E+00  0.22645861496E+04  0.22645861496E+04  0.25500000920E-02 0. -1.
       -2   -1    0    0    0  501  0.00000000000E+00  0.00000000000E+00 -0.13085813969E+04  0.13085813969E+04  0.25500000920E-02 0.  1.
    10030    2    1    2    0    0  0.00000000000E+00  0.00000000000E+00  0.95600475267E+03  0.35731675465E+04  0.34429030234E+04 0.  0.
        2    1    3    3  502    0  0.12995822651E+04  0.36255285842E+03 -0.63157775661E+03  0.14897144363E+04  0.25500000920E-02 0.  1.
       -2    1    3    3    0  502 -0.12995822651E+04 -0.36255285842E+03  0.15875825093E+04  0.20834531103E+04  0.25500000920E-02 0. -1.
</event>
<event>
 5   0  0.4409125E-07  0.3486266E+04  0.7818609E-02  0.8117052E-01
        1   -1    0    0  501    0  0.00000000000E+00  0.00000000000E+00  0.18632823560E+04  0.18632823560E+04  0.50400001928E-02 0. -1.
       -1   -1    0    0    0  501  0.00000000000E+00  0.00000000000E+00 -0.16307313543E+04  0.16307313543E+04  0.50400001928E-02 0.  1.
    10030    2    1    2    0    0  0.00000000000E+00  0.00000000000E+00  0.23255100165E+03  0.34940137103E+04  0.34862661745E+04 0.  0.
        5    1    3    3  502    0  0.87305755889E+03 -0.81152942321E+03 -0.11584320365E+04  0.16621661707E+04  0.46999998093E+01 0.  1.
       -5    1    3    3    0  502 -0.87305755889E+03  0.81152942321E+03  0.13909830382E+04  0.18318475396E+04  0.46999998093E+01 0. -1.
</event>
<event>
 5   0  0.1387133E-06  0.3484898E+04  0.7818609E-02  0.8117378E-01
        2   -1    0    0  501    0  0.00000000000E+00  0.00000000000E+00  0.28379242661E+04  0.28379242661E+04  0.25500000920E-02 0. -1.
       -2   -1    0    0    0  501  0.00000000000E+00  0.00000000000E+00 -0.10698415245E+04  0.10698415245E+04  0.25500000920E-02 0.  1.
    10030    2    1    2    0    0  0.00000000000E+00  0.00000000000E+00  0.17680827416E+04  0.39077657906E+04  0.34848984050E+04 0.  0.
        4    1    3    3  502    0 -0.15886782678E+04 -0.61021498249E+03  0.13034095623E+04  0.21436275478E+04  0.12699999809E+01 0. -1.
       -4    1    3    3    0  502  0.15886782678E+04  0.61021498249E+03  0.46467317923E+03  0.17641382429E+04  0.12699999809E+01 0.  1.
</event>
<event>
 5   0  0.1361560E-06  0.3503559E+04  0.7818609E-02  0.8112947E-01
       -2   -1    0    0    0  501  0.00000000000E+00  0.00000000000E+00  0.14775826487E+04  0.14775826487E+04  0.25500000920E-02 0.  1.
        2   -1    0    0  501    0  0.00000000000E+00  0.00000000000E+00 -0.20768590133E+04  0.20768590133E+04  0.25500000920E-02 0. -1.
    10030    2    1    2    0    0  0.00000000000E+00  0.00000000000E+00 -0.59927636459E+03  0.35544416619E+04  0.35035586718E+04 0.  0.
        3    1    3    3  502    0 -0.77117083820E+03  0.11739263784E+02 -0.18953411841E+04  0.20462552349E+04  0.10100000352E+00 0. -1.
       -3    1    3    3    0  502  0.77117083820E+03 -0.11739263784E+02  0.12960648195E+04  0.15081864270E+04  0.10100000352E+00 0.  1.
</event>
<event>
 5   0  0.1348388E-06  0.3506889E+04  0.7818609E-02  0.8112159E-01
       -2   -1    0    0    0  501  0.00000000000E+00  0.00000000000E+00  0.14967993962E+04  0.14967993962E+04  0.25500000920E-02 0. -1.
        2   -1    0    0  501    0  0.00000000000E+00  0.00000000000E+00 -0.20540946814E+04  0.20540946814E+04  0.25500000920E-02 0.  1.
    10030    2    1    2    0    0  0.00000000000E+00  0.00000000000E+00 -0.55729528519E+03  0.35508940775E+04  0.35068890366E+04 0.  0.
        5    1    3    3  502    0  0.52661740520E+03 -0.11611463822E+04  0.94018396494E+03  0.15841574386E+04  0.46999998093E+01 0. -1.
       -5    1    3    3    0  502 -0.52661740520E+03  0.11611463822E+04 -0.14974792501E+04  0.19667366389E+04  0.46999998093E+01 0.  1.
</event>
<event>
 5   0  0.4591195E-07  0.3476928E+04  0.7818609E-02  0.8119280E-01
        1   -1    0    0  501    0  0.00000000000E+00  0.00000000000E+00  0.17103571667E+04  0.17103571667E+04  0.50400001928E-02 0. -1.
       -1   -1    0    0    0  501  0.00000000000E+00  0.00000000000E+00 -0.17670327530E+04  0.17670327530E+04  0.50400001928E-02 0.  1.
    10030    2    1    2    0    0  0.00000000000E+00  0.00000000000E+00 -0.56675586275E+02  0.34773899197E+04  0.34769280309E+04 0.  0.
        4    1    3    3  502    0  0.10828205529E+04 -0.13379040021E+04 -0.27284532305E+03  0.17426800199E+04  0.12699999809E+01 0.  1.
       -4    1    3    3    0  502 -0.10828205529E+04  0.13379040021E+04  0.21616973678E+03  0.17347098998E+04  0.12699999809E+01 0. -1.
</event>
<event>
 5   0  0.4700769E-07  0.2942824E+04  0.7818609E-02  0.8260249E-01
        1   -1    0    0  501    0  0.00000000000E+00  0.00000000000E+00  0.27796403128E+04  0.27796403128E+04  0.50400001928E-02 0. -1.
       -1   -1    0    0    0  501  0.00000000000E+00  0.00000000000E+00 -0.77889712002E+03  0.77889712004E+03  0.50400001928E-02 0.  1.
    10030    2    1    2    0    0  0.00000000000E+00  0.00000000000E+00  0.20007431928E+04  0.35585374329E+04  0.29428243810E+04 0.  0.
        3    1    3    3  502    0 -0.81311082605E+03 -0.10108825009E+04  0.18399093928E+04  0.22512883489E+04  0.10100000352E+00 0. -1.
       -3    1    3    3    0  502  0.81311082605E+03  0.10108825009E+04  0.16083379998E+03  0.13072490839E+04  0.10100000352E+00 0.  1.
</event>
<event>
 5   0  0.4409125E-07  0.3512129E+04  0.7818609E-02  0.8110921E-01
        1   -1    0    0  501    0  0.00000000000E+00  0.00000000000E+00  0.20127140841E+04  0.20127140841E+04  0.50400001928E-02 0. -1.
       -1   -1    0    0    0  501  0.00000000000E+00  0.00000000000E+00 -0.15321417774E+04  0.15321417774E+04  0.50400001928E-02 0.  1.
    10030    2    1    2    0    0  0.00000000000E+00  0.00000000000E+00  0.48057230672E+03  0.35448558616E+04  0.35121294591E+04 0.  0.
        5    1    3    3  502    0  0.29453513762E+03  0.13913987129E+04 -0.79936045320E+03  0.16314841555E+04  0.46999998093E+01 0.  1.
       -5    1    3    3    0  502 -0.29453513762E+03 -0.13913987129E+04  0.12799327599E+04  0.19133717061E+04  0.46999998093E+01 0. -1.
</event>
<event>
 5   0  0.1387133E-06  0.3426167E+04  0.7818609E-02  0.8131514E-01
       -2   -1    0    0    0  501  0.00000000000E+00  0.00000000000E+00  0.24716735548E+04  0.24716735548E+04  0.25500000920E-02 0. -1.
        2   -1    0    0  501    0  0.00000000000E+00  0.00000000000E+00 -0.11873148988E+04  0.11873148988E+04  0.25500000920E-02 0.  1.
    10030    2    1    2    0    0  0.00000000000E+00  0.00000000000E+00  0.12843586560E+04  0.36589884535E+04  0.34261668590E+04 0.  0.
        4    1    3    3  502    0 -0.84607517499E+03 -0.39654914329E+03  0.21755614385E+04  0.23677338555E+04  0.12699999809E+01 0. -1.
       -4    1    3    3    0  502  0.84607517499E+03  0.39654914329E+03 -0.89120278244E+03  0.12912545981E+04  0.12699999809E+01 0.  1.
</event>
<event>
 5   0  0.1442864E-06  0.3427083E+04  0.7818609E-02  0.8131291E-01
       -2   -1    0    0    0  501  0.00000000000E+00  0.00000000000E+00  0.13302872219E+04  0.13302872219E+04  0.25500000920E-02 0.  1.
        2   -1    0    0  501    0  0.00000000000E+00  0.00000000000E+00 -0.22072112172E+04  0.22072112172E+04  0.25500000920E-02 0. -1.
    10030    2    1    2    0    0  0.00000000000E+00  0.00000000000E+00 -0.87692399529E+03  0.35374984392E+04  0.34270832371E+04 0.  0.
        1    1    3    3  502    0  0.66188781539E+03  0.26165920803E+03 -0.20474199731E+04  0.21675999556E+04  0.50400001928E-02 0. -1.
       -1    1    3    3    0  502 -0.66188781539E+03 -0.26165920803E+03  0.11704959778E+04  0.13698984836E+04  0.50400001928E-02 0.  1.
</event>
<event>
 5   0  0.1348388E-06  0.3502599E+04  0.7818609E-02  0.8113174E-01
       -2   -1    0    0    0  501  0.00000000000E+00  0.00000000000E+00  0.96160316162E+03  0.96160316163E+03  0.25500000920E-02 0. -1.
        2   -1    0    0  501    0  0.00000000000E+00  0.00000000000E+00 -0.31895175211E+04  0.31895175211E+04  0.25500000920E-02 0.  1.
    10030    2    1    2    0    0  0.00000000000E+00  0.00000000000E+00 -0.22279143595E+04  0.41511206827E+04  0.35025991106E+04 0.  0.
        5    1    3    3  502    0 -0.16594899268E+03 -0.99453441564E+03  0.58308717199E+03  0.11647534126E+04  0.46999998093E+01 0. -1.
       -5    1    3    3    0  502  0.16594899268E+03  0.99453441564E+03 -0.28110015315E+04  0.29863672701E+04  0.46999998093E+01 0.  1.
</event>
<event>
 5   0  0.1387133E-06  0.2964599E+04  0.7818609E-02  0.8253913E-01
       -2   -1    0    0    0  501  0.00000000000E+00  0.00000000000E+00  0.13833472956E+04  0.13833472956E+04  0.25500000920E-02 0.  1.
        2   -1    0    0  501    0  0.00000000000E+00  0.00000000000E+00 -0.15883297832E+04  0.15883297832E+04  0.25500000920E-02 0. -1.
    10030    2    1    2    0    0  0.00000000000E+00  0.00000000000E+00 -0.20498248767E+03  0.29716770788E+04  0.29645989341E+04 0.  0.
        4    1    3    3  502    0  0.14821687447E+04 -0.64941003103E+01 -0.12107562837E+03  0.14871204665E+04  0.12699999809E+01 0.  1.
       -4    1    3    3    0  502 -0.14821687447E+04  0.64941003103E+01 -0.83906859299E+02  0.14845566123E+04  0.12699999809E+01 0. -1.
</event>
<event>
 5   0  0.1378620E-06  0.3765966E+04  0.7818609E-02  0.8053498E-01
        2   -1    0    0  501    0  0.00000000000E+00  0.00000000000E+00  0.23910897271E+04  0.23910897271E+04  0.25500000920E-02 0.  1.
       -2   -1    0    0    0  501  0.00000000000E+00  0.00000000000E+00 -0.14828490846E+04  0.14828490846E+04  0.25500000920E-02 0. -1.
    10030    2    1    2    0    0  0.00000000000E+00  0.00000000000E+00  0.90824064249E+03  0.38739388118E+04  0.37659661247E+04 0.  0.
        2    1    3    3  502    0 -0.15300443556E+04 -0.49303678642E+03 -0.55455627157E+03  0.17004863014E+04  0.25500000920E-02 0. -1.
       -2    1    3    3    0  502  0.15300443556E+04  0.49303678642E+03  0.14627969141E+04  0.21734525103E+04  0.25500000920E-02 0.  1.
</event>
<event>
 5   0  0.1348388E-06  0.3087327E+04  0.7818609E-02  0.8219225E-01
       -2   -1    0    0    0  501  0.00000000000E+00  0.00000000000E+00  0.14552609107E+04  0.14552609107E+04  0.25500000920E-02 0.  1.
        2   -1    0    0  501    0  0.00000000000E+00  0.00000000000E+00 -0.16374361871E+04  0.16374361871E+04  0.25500000920E-02 0. -1.
    10030    2    1    2    0    0  0.00000000000E+00  0.00000000000E+00 -0.18217527643E+03  0.30926970979E+04  0.30873269195E+04 0.  0.
        5    1    3    3  502    0  0.82805855796E+03  0.12806509654E+04  0.14834048325E+03  0.15322450390E+04  0.46999998093E+01 0. -1.
       -5    1    3    3    0  502 -0.82805855796E+03 -0.12806509654E+04 -0.33051575968E+03  0.15604520589E+04  0.46999998093E+01 0.  1.
</event>
<event>
 5   0  0.1348388E-06  0.3454270E+04  0.7818609E-02  0.8124714E-01
        2   -1    0    0  501    0  0.00000000000E+00  0.00000000000E+00  0.23712238669E+04  0.23712238669E+04  0.25500000920E-02 0. -1.
       -2   -1    0    0    0  501  0.00000000000E+00  0.00000000000E+00 -0.12579980070E+04  0.12579980070E+04  0.25500000920E-02 0.  1.
    10030    2    1    2    0    0  0.00000000000E+00  0.00000000000E+00  0.11132258599E+04  0.36292218738E+04  0.34542697628E+04 0.  0.
        5    1    3    3  502    0  0.10007141483E+04 -0.10796216383E+04  0.15056692847E+04  0.21057240497E+04  0.46999998093E+01 0. -1.
       -5    1    3    3    0  502 -0.10007141483E+04  0.10796216383E+04 -0.39244342484E+03  0.15234978242E+04  0.46999998093E+01 0.  1.
</event>
<event>
 5   0  0.4557237E-07  0.3503860E+04  0.7818609E-02  0.8112876E-01
        1   -1    0    0  501    0  0.00000000000E+00  0.00000000000E+00  0.15925843597E+04  0.15925843597E+04  0.50400001928E-02 0.  1.
       -1   -1    0    0    0  501  0.00000000000E+00  0.00000000000E+00 -0.19272184900E+04  0.19272184900E+04  0.50400001928E-02 0. -1.
    10030    2    1    2    0    0  0.00000000000E+00  0.00000000000E+00 -0.33463413034E+03  0.35198028497E+04  0.35038596004E+04 0.  0.
        2    1    3    3  502    0  0.15264691400E+04 -0.51709663136E+03  0.52265687766E+03  0.16943043332E+04  0.25500000920E-02 0. -1.
       -2    1    3    3    0  502 -0.15264691400E+04  0.51709663136E+03 -0.85729100800E+03  0.18254985166E+04  0.25500000920E-02 0.  1.
</event>
<event>
 5   0  0.4557237E-07  0.2836829E+04  0.7818609E-02  0.8291925E-01
       -1   -1    0    0    0  501  0.00000000000E+00  0.00000000000E+00  0.56905801360E+03  0.56905801362E+03  0.50400001928E-02 0. -1.
        1   -1    0    0  501    0  0.00000000000E+00  0.00000000000E+00 -0.35354918653E+04  0.35354918653E+04  0.50400001928E-02 0.  1.
    10030    2    1    2    0    0  0.00000000000E+00  0.00000000000E+00 -0.29664338517E+04  0.41045498789E+04  0.28368292004E+04 0.  0.
        2    1    3    3  502    0  0.51528738753E+03 -0.54199171130E+03  0.26063231800E+03  0.79196294867E+03  0.25500000920E-02 0. -1.
       -2    1    3    3    0  502 -0.51528738753E+03  0.54199171130E+03 -0.32270661697E+04  0.33125869303E+04  0.25500000920E-02 0.  1.
</event>
<event>
 5   0  0.4557237E-07  0.3197820E+04  0.7818609E-02  0.8189393E-01
        1   -1    0    0  501    0  0.00000000000E+00  0.00000000000E+00  0.16613155096E+04  0.16613155096E+04  0.50400001928E-02 0. -1.
       -1   -1    0    0    0  501  0.00000000000E+00  0.00000000000E+00 -0.15388485888E+04  0.15388485888E+04  0.50400001928E-02 0.  1.
    10030    2    1    2    0    0  0.00000000000E+00  0.00000000000E+00  0.12246692088E+03  0.32001640984E+04  0.31978198996E+04 0.  0.
        2    1    3    3  502    0 -0.12330480464E+04 -0.77852770975E+03  0.71745812638E+03  0.16251950783E+04  0.25500000920E-02 0. -1.
       -2    1    3    3    0  502  0.12330480464E+04  0.77852770975E+03 -0.59499120549E+03  0.15749690201E+04  0.25500000920E-02 0.  1.
</event>
<event>
 5   0  0.4409125E-07  0.3434246E+04  0.7818609E-02  0.8129552E-01
       -1   -1    0    0    0  501  0.00000000000E+00  0.00000000000E+00  0.16019867139E+04  0.16019867139E+04  0.50400001928E-02 0. -1.
        1   -1    0    0  501    0  0.00000000000E+00  0.00000000000E+00 -0.18405337171E+04  0.18405337171E+04  0.50400001928E-02 0.  1.
    10030    2    1    2    0    0  0.00000000000E+00  0.00000000000E+00 -0.23854700321E+03  0.34425204311E+04  0.34342455133E+04 0.  0.
        5    1    3    3  502    0  0.14839029169E+04 -0.19622280320E+03 -0.96273855966E+03  0.17797075264E+04  0.46999998093E+01 0.  1.
       -5    1    3    3    0  502 -0.14839029169E+04  0.19622280320E+03  0.72419155646E+03  0.16628129046E+04  0.46999998093E+01 0. -1.
</event>
<event>
 5   0  0.1361560E-06  0.3631182E+04  0.7818609E-02  0.8083386E-01
        2   -1    0    0  501    0  0.00000000000E+00  0.00000000000E+00  0.19718118404E+04  0.19718118404E+04  0.25500000920E-02 0.  1.
       -2   -1    0    0    0  501  0.00000000000E+00  0.00000000000E+00 -0.16717467944E+04  0.16717467944E+04  0.25500000920E-02 0. -1.
    10030    2    1    2    0    0  0.00000000000E+00  0.00000000000E+00  0.30006504593E+03  0.36435586348E+04  0.36311816938E+04 0.  0.
        3    1    3    3  502    0 -0.28945696825E+03  0.85984408729E+03  0.17280508691E+04  0.19517369207E+04  0.10100000352E+00 0.  1.
       -3    1    3    3    0  502  0.28945696825E+03 -0.85984408729E+03 -0.14279858232E+04  0.16918217141E+04  0.10100000352E+00 0. -1.
</event>
<event>
 5   0  0.4700769E-07  0.3486491E+04  0.7818609E-02  0.8116999E-01
       -1   -1    0    0    0  501  0.00000000000E+00  0.00000000000E+00  0.16406780459E+04  0.16406780460E+04  0.50400001928E-02 0. -1.
        1   -1    0    0  501    0  0.00000000000E+00  0.00000000000E+00 -0.18522247291E+04  0.18522247291E+04  0.50400001928E-02 0.  1.
    10030    2    1    2    0    0  0.00000000000E+00  0.00000000000E+00 -0.21154668313E+03  0.34929027750E+04  0.34864907567E+04 0.  0.
        3    1    3    3  502    0 -0.13367817146E+04 -0.11115801536E+04 -0.23371352490E+03  0.17542000491E+04  0.10100000352E+00 0.  1.
       -3    1    3    3    0  502  0.13367817146E+04  0.11115801536E+04  0.22166841776E+02  0.17387027260E+04  0.10100000352E+00 0. -1.
</event>
<event>
 5   0  0.4557237E-07  0.3533682E+04  0.7818609E-02  0.8105854E-01
       -1   -1    0    0    0  501  0.00000000000E+00  0.00000000000E+00  0.15833743955E+04  0.15833743955E+04  0.50400001928E-02 0.  1.
        1   -1    0    0  501    0  0.00000000000E+00  0.00000000000E+00 -0.19715654515E+04  0.19715654516E+04  0.50400001928E-02 0. -1.
    10030    2    1    2    0    0  0.00000000000E+00  0.00000000000E+00 -0.38819105604E+03  0.35549398471E+04  0.35336815109E+04 0.  0.
        2    1    3    3  502    0 -0.21540398751E+03 -0.13734080749E+03 -0.19528878346E+04  0.19695258998E+04  0.25500000920E-02 0. -1.
       -2    1    3    3    0  502  0.21540398751E+03  0.13734080749E+03  0.15646967786E+04  0.15854139473E+04  0.25500000920E-02 0.  1.
</event>
<event>
 5   0  0.4409125E-07  0.3612691E+04  0.7818609E-02  0.8087591E-01
       -1   -1    0    0    0  501  0.00000000000E+00  0.00000000000E+00  0.20944512771E+04  0.20944512771E+04  0.50400001928E-02 0.  1.
        1   -1    0    0  501    0  0.00000000000E+00  0.00000000000E+00 -0.15578705696E+04  0.15578705696E+04  0.50400001928E-02 0. -1.
    10030    2    1    2    0    0  0.00000000000E+00  0.00000000000E+00  0.53658070749E+03  0.36523218466E+04  0.36126909660E+04 0.  0.
        5    1    3    3  502    0 -0.51401353625E+03 -0.13342943177E+04  0.13841697333E+04  0.19901002945E+04  0.46999998093E+01 0.  1.
       -5    1    3    3    0  502  0.51401353625E+03  0.13342943177E+04 -0.84758902584E+03  0.16622215521E+04  0.46999998093E+01 0. -1.
</event>
<event>
 5   0  0.1378620E-06  0.3501554E+04  0.7818609E-02  0.8113422E-01
        2   -1    0    0  501    0  0.00000000000E+00  0.00000000000E+00  0.32503135047E+04  0.32503135047E+04  0.25500000920E-02 0.  1.
       -2   -1    0    0    0  501  0.00000000000E+00  0.00000000000E+00 -0.94305341086E+03  0.94305341087E+03  0.25500000920E-02 0. -1.
    10030    2    1    2    0    0  0.00000000000E+00  0.00000000000E+00  0.23072600939E+04  0.41933669156E+04  0.35015535050E+04 0.  0.
        2    1    3    3  502    0  0.10661100586E+04  0.13490072218E+04  0.15486624332E+04  0.23140368349E+04  0.25500000920E-02 0.  1.
       -2    1    3    3    0  502 -0.10661100586E+04 -0.13490072218E+04  0.75859766068E+03  0.18793300807E+04  0.25500000920E-02 0. -1.
</event>
<event>
 5   0  0.1387133E-06  0.3424854E+04  0.7818609E-02  0.8131833E-01
       -2   -1    0    0    0  501  0.00000000000E+00  0.00000000000E+00  0.12475902547E+04  0.12475902547E+04  0.25500000920E-02 0.  1.
        2   -1    0    0  501    0  0.00000000000E+00  0.00000000000E+00 -0.23504560525E+04  0.23504560525E+04  0.25500000920E-02 0. -1.
    10030    2    1    2    0    0  0.00000000000E+00  0.00000000000E+00 -0.11028657977E+04  0.35980463072E+04  0.34248539036E+04 0.  0.
        4    1    3    3  502    0  0.25910026856E+03 -0.90718357979E+03  0.94992193221E+03  0.13388309403E+04  0.12699999809E+01 0.  1.
       -4    1    3    3    0  502 -0.25910026856E+03  0.90718357979E+03 -0.20527877300E+04  0.22592153668E+04  0.12699999809E+01 0. -1.
</event>
<event>
 5   0  0.4700769E-07  0.3459977E+04  0.7818609E-02  0.8123341E-01
        1   -1    0    0  501    0  0.00000000000E+00  0.00000000000E+00  0.16569559241E+04  0.16569559241E+04  0.50400001928E-02 0. -1.
       -1   -1    0    0    0  501  0.00000000000E+00  0.00000000000E+00 -0.18062398003E+04  0.18062398003E+04  0.50400001928E-02 0.  1.
    10030    2    1    2    0    0  0.00000000000E+00  0.00000000000E+00 -0.14928387617E+03  0.34631957244E+04  0.34599767268E+04 0.  0.
        3    1    3    3  502    0  0.10419815490E+04 -0.13274884512E+04 -0.45566470413E+03  0.17480221593E+04  0.10100000352E+00 0.  1.
       -3    1    3    3    0  502 -0.10419815490E+04  0.13274884512E+04  0.30638082796E+03  0.17151735651E+04  0.10100000352E+00 0. -1.
</event>
<event>
 5   0  0.1378620E-06  0.2725781E+04  0.7818609E-02  0.8326688E-01
       -2   -1    0    0    0  501  0.00000000000E+00  0.00000000000E+00  0.13118541788E+04  0.13118541788E+04  0.25500000920E-02 0.  1.
        2   -1    0    0  501    0  0.00000000000E+00  0.00000000000E+00 -0.14159120849E+04  0.14159120849E+04  0.25500000920E-02 0. -1.
    10030    2    1    2    0    0  0.00000000000E+00  0.00000000000E+00 -0.10405790611E+03  0.27277662636E+04  0.27257807581E+04 0.  0.
        2    1    3    3  502    0 -0.76106457572E+03 -0.43557402677E+03  0.99205559523E+03  0.13240537471E+04  0.25500000920E-02 0.  1.
       -2    1    3    3    0  502  0.76106457572E+03  0.43557402677E+03 -0.10961135013E+04  0.14037125165E+04  0.25500000920E-02 0. -1.
</event>
<event>
 5   0  0.4409125E-07  0.3565869E+04  0.7818609E-02  0.8098355E-01
        1   -1    0    0  501    0  0.00000000000E+00  0.00000000000E+00  0.28788205435E+04  0.28788205435E+04  0.50400001928E-02 0.  1.
       -1   -1    0    0    0  501  0.00000000000E+00  0.00000000000E+00 -0.11042216908E+04  0.11042216908E+04  0.50400001928E-02 0. -1.
    10030    2    1    2    0    0  0.00000000000E+00  0.00000000000E+00  0.17745988527E+04  0.39830422343E+04  0.35658693683E+04 0.  0.
        5    1    3    3  502    0  0.17317437326E+04 -0.39483038388E+03  0.10603666810E+04  0.20686292505E+04  0.46999998093E+01 0.  1.
       -5    1    3    3    0  502 -0.17317437326E+04  0.39483038388E+03  0.71423217165E+03  0.19144129838E+04  0.46999998093E+01 0. -1.
</event>
<event>
 5   0  0.4591195E-07  0.3409652E+04  0.7818609E-02  0.8135541E-01
        1   -1    0    0  501    0  0.00000000000E+00  0.00000000000E+00  0.17442565732E+04  0.17442565732E+04  0.50400001928E-02 0.  1.
       -1   -1    0    0    0  501  0.00000000000E+00  0.00000000000E+00 -0.16662871352E+04  0.16662871352E+04  0.50400001928E-02 0. -1.
    10030    2    1    2    0    0  0.00000000000E+00  0.00000000000E+00  0.77969437970E+02  0.34105437085E+04  0.34096523509E+04 0.  0.
        4    1    3    3  502    0 -0.85910909495E+03  0.12848230432E+04 -0.68064201855E+03  0.16888202567E+04  0.12699999809E+01 0. -1.
       -4    1    3    3    0  502  0.85910909495E+03 -0.12848230432E+04  0.75861145653E+03  0.17217234517E+04  0.12699999809E+01 0.  1.
</event>
<event>
 5   0  0.4557237E-07  0.2954219E+04  0.7818609E-02  0.8256926E-01
        1   -1    0    0  501    0  0.00000000000E+00  0.00000000000E+00  0.19171241737E+04  0.19171241737E+04  0.50400001928E-02 0. -1.
       -1   -1    0    0    0  501  0.00000000000E+00  0.00000000000E+00 -0.11380862876E+04  0.11380862876E+04  0.50400001928E-02 0.  1.
    10030    2    1    2    0    0  0.00000000000E+00  0.00000000000E+00  0.77903788607E+03  0.30552104613E+04  0.29542191751E+04 0.  0.
        2    1    3    3  502    0 -0.11025162292E+03 -0.43283806189E+03 -0.10665717493E+04  0.11563215403E+04  0.25500000920E-02 0.  1.
       -2    1    3    3    0  502  0.11025162292E+03  0.43283806189E+03  0.18456096353E+04  0.18988889210E+04  0.25500000920E-02 0. -1.
</event>
<event>
 5   0  0.4409125E-07  0.3326667E+04  0.7818609E-02  0.8156143E-01
        1   -1    0    0  501    0  0.00000000000E+00  0.00000000000E+00  0.21819588723E+04  0.21819588723E+04  0.50400001928E-02 0. -1.
       -1   -1    0    0    0  501  0.00000000000E+00  0.00000000000E+00 -0.12679789181E+04  0.12679789181E+04  0.50400001928E-02 0.  1.
    10030    2    1    2    0    0  0.00000000000E+00  0.00000000000E+00  0.91397995415E+03  0.34499377904E+04  0.33266667102E+04 0.  0.
        5    1    3    3  502    0 -0.31962944876E+03  0.57498506271E+03  0.20413055595E+04  0.21446960820E+04  0.46999998093E+01 0. -1.
       -5    1    3    3    0  502  0.31962944876E+03 -0.57498506271E+03 -0.11273256054E+04  0.13052417084E+04  0.46999998093E+01 0.  1.
</event>
<event>
 5   0  0.4693374E-07  0.2852736E+04  0.7818609E-02  0.8287080E-01
       -1   -1    0    0    0  501  0.00000000000E+00  0.00000000000E+00  0.13171366045E+04  0.13171366045E+04  0.50400001928E-02 0. -1.
        1   -1    0    0  501    0  0.00000000000E+00  0.00000000000E+00 -0.15446581348E+04  0.15446581348E+04  0.50400001928E-02 0.  1.
    10030    2    1    2    0    0  0.00000000000E+00  0.00000000000E+00 -0.22752153024E+03  0.28617947393E+04  0.28527360697E+04 0.  0.
        1    1    3    3  502    0 -0.44993888851E+03 -0.13210780056E+04  0.18185049143E+03  0.14073953608E+04  0.50400001928E-02 0. -1.
       -1    1    3    3    0  502  0.44993888851E+03  0.13210780056E+04 -0.40937202168E+03  0.14543993786E+04  0.50400001928E-02 0.  1.
</event>
<event>
 5   0  0.1361560E-06  0.3706705E+04  0.7818609E-02  0.8066477E-01
        2   -1    0    0  501    0  0.00000000000E+00  0.00000000000E+00  0.22283019161E+04  0.22283019161E+04  0.25500000920E-02 0. -1.
       -2   -1    0    0    0  501  0.00000000000E+00  0.00000000000E+00 -0.15414949178E+04  0.15414949178E+04  0.25500000920E-02 0.  1.
    10030    2    1    2    0    0  0.00000000000E+00  0.00000000000E+00  0.68680699831E+03  0.37697968339E+04  0.37067053182E+04 0.  0.
        3    1    3    3  502    0  0.10277622522E+04  0.22502043707E+03 -0.12083406788E+04  0.16021912028E+04  0.10100000352E+00 0.  1.
       -3    1    3    3    0  502 -0.10277622522E+04 -0.22502043707E+03  0.18951476771E+04  0.21676056311E+04  0.10100000352E+00 0. -1.
</event>
<event>
 5   0  0.1361560E-06  0.3546233E+04  0.7818609E-02  0.8102920E-01
        2   -1    0    0  501    0  0.00000000000E+00  0.00000000000E+00  0.10620979972E+04  0.10620979973E+04  0.25500000920E-02 0.  1.
       -2   -1    0    0    0  501  0.00000000000E+00  0.00000000000E+00 -0.29601244276E+04  0.29601244276E+04  0.25500000920E-02 0. -1.
    10030    2    1    2    0    0  0.00000000000E+00  0.00000000000E+00 -0.18980264304E+04  0.40222224249E+04  0.35462330584E+04 0.  0.
        3    1    3    3  502    0  0.65379162965E+03 -0.10729195894E+03  0.91642733322E+03  0.11308377986E+04  0.10100000352E+00 0.  1.
       -3    1    3    3    0  502 -0.65379162965E+03  0.10729195894E+03 -0.28144537636E+04  0.28913846263E+04  0.10100000352E+00 0. -1.
</event>
<event>
 5   0  0.4409125E-07  0.3515812E+04  0.7818609E-02  0.8110053E-01
       -1   -1    0    0    0  501  0.00000000000E+00  0.00000000000E+00  0.12409438439E+04  0.12409438439E+04  0.50400001928E-02 0. -1.
        1   -1    0    0  501    0  0.00000000000E+00  0.00000000000E+00 -0.24902276552E+04  0.24902276552E+04  0.50400001928E-02 0.  1.
    10030    2    1    2    0    0  0.00000000000E+00  0.00000000000E+00 -0.12492838113E+04  0.37311714991E+04  0.35158115300E+04 0.  0.
        5    1    3    3  502    0 -0.83599800947E+03  0.85712963894E+03  0.74130737891E+03  0.14082338619E+04  0.46999998093E+01 0. -1.
       -5    1    3    3    0  502  0.83599800947E+03 -0.85712963894E+03 -0.19905911902E+04  0.23229376372E+04  0.46999998093E+01 0.  1.
</event>
<event>
 5   0  0.4700769E-07  0.3544349E+04  0.7818609E-02  0.8103360E-01
       -1   -1    0    0    0  501  0.00000000000E+00  0.00000000000E+00  0.11903852345E+04  0.11903852345E+04  0.50400001928E-02 0. -1.
        1   -1    0    0  501    0  0.00000000000E+00  0.00000000000E+00 -0.26383074847E+04  0.26383074847E+04  0.50400001928E-02 0.  1.
    10030    2    1    2    0    0  0.00000000000E+00  0.00000000000E+00 -0.14479222502E+04  0.38286927192E+04  0.35443488958E+04 0.  0.
        3    1    3    3  502    0 -0.12280160262E+04  0.90592254353E+03 -0.16972927549E+04  0.22824376709E+04  0.10100000352E+00 0.  1.
       -3    1    3    3    0  502  0.12280160262E+04 -0.90592254353E+03  0.24937050471E+03  0.15462550483E+04  0.10100000352E+00 0. -1.
</event>
<event>
 5   0  0.4700769E-07  0.3516916E+04  0.7818609E-02  0.8109793E-01
       -1   -1    0    0    0  501  0.00000000000E+00  0.00000000000E+00  0.11250004600E+04  0.11250004600E+04  0.50400001928E-02 0.  1.
        1   -1    0    0  501    0  0.00000000000E+00  0.00000000000E+00 -0.27485985478E+04  0.27485985478E+04  0.50400001928E-02 0. -1.
    10030    2    1    2    0    0  0.00000000000E+00  0.00000000000E+00 -0.16235980878E+04  0.38735990078E+04  0.35169160528E+04 0.  0.
        3    1    3    3  502    0  0.64735017789E+03 -0.12962187454E+03 -0.26069132398E+04  0.26892119167E+04  0.10100000352E+00 0. -1.
       -3    1    3    3    0  502 -0.64735017789E+03  0.12962187454E+03  0.98331515199E+03  0.11843870911E+04  0.10100000352E+00 0.  1.
</event>
<event>
 5   0  0.1378620E-06  0.3622715E+04  0.7818609E-02  0.8085308E-01
       -2   -1    0    0    0  501  0.00000000000E+00  0.00000000000E+00  0.19844482173E+04  0.19844482173E+04  0.25500000920E-02 0. -1.
        2   -1    0    0  501    0  0.00000000000E+00  0.00000000000E+00 -0.16533640769E+04  0.16533640769E+04  0.25500000920E-02 0.  1.
    10030    2    1    2    0    0  0.00000000000E+00  0.00000000000E+00  0.33108414043E+03  0.36378122942E+04  0.36227146699E+04 0.  0.
        2    1    3    3  502    0  0.11620003004E+04  0.47897449533E+03  0.14753376377E+04  0.19381131057E+04  0.25500000920E-02 0. -1.
       -2    1    3    3    0  502 -0.11620003004E+04 -0.47897449533E+03 -0.11442534973E+04  0.16996991885E+04  0.25500000920E-02 0.  1.
</event>
<event>
 5   0  0.1378620E-06  0.3452636E+04  0.7818609E-02  0.8125107E-01
        2   -1    0    0  501    0  0.00000000000E+00  0.00000000000E+00  0.20642984829E+04  0.20642984829E+04  0.25500000920E-02 0.  1.
       -2   -1    0    0    0  501  0.00000000000E+00  0.00000000000E+00 -0.14436736980E+04  0.14436736980E+04  0.25500000920E-02 0. -1.
    10030    2    1    2    0    0  0.00000000000E+00  0.00000000000E+00  0.62062478490E+03  0.35079721810E+04  0.34526357611E+04 0.  0.
        2    1    3    3  502    0  0.99544284606E+03  0.12071895347E+04 -0.43073336461E+03  0.16228814694E+04  0.25500000920E-02 0. -1.
       -2    1    3    3    0  502 -0.99544284606E+03 -0.12071895347E+04  0.10513581495E+04  0.18850907116E+04  0.25500000920E-02 0.  1.
</event>
<event>
 5   0  0.4591195E-07  0.3553825E+04  0.7818609E-02  0.8101151E-01
       -1   -1    0    0    0  501  0.00000000000E+00  0.00000000000E+00  0.20163327190E+04  0.20163327190E+04  0.50400001928E-02 0. -1.
        1   -1    0    0  501    0  0.00000000000E+00  0.00000000000E+00 -0.15659213355E+04  0.15659213356E+04  0.50400001928E-02 0.  1.
    10030    2    1    2    0    0  0.00000000000E+00  0.00000000000E+00  0.45041138349E+03  0.35822540546E+04  0.35538252204E+04 0.  0.
        4    1    3    3  502    0  0.64255351101E+03  0.14444546682E+04 -0.59251274799E+03  0.16883119594E+04  0.12699999809E+01 0.  1.
       -4    1    3    3    0  502 -0.64255351101E+03 -0.14444546682E+04  0.10429241315E+04  0.18939420952E+04  0.12699999809E+01 0. -1.
</event>
<event>
 5   0  0.1442864E-06  0.3533920E+04  0.7818609E-02  0.8105798E-01
        2   -1    0    0  501    0  0.00000000000E+00  0.00000000000E+00  0.25417118163E+04  0.25417118163E+04  0.25500000920E-02 0. -1.
       -2   -1    0    0    0  501  0.00000000000E+00  0.00000000000E+00 -0.12283642810E+04  0.12283642811E+04  0.25500000920E-02 0.  1.
    10030    2    1    2    0    0  0.00000000000E+00  0.00000000000E+00  0.13133475353E+04  0.37700760974E+04  0.35339202073E+04 0.  0.
        1    1    3    3  502    0  0.20092827538E+03 -0.15932027298E+04 -0.12980231343E+03  0.16110604429E+04  0.50400001928E-02 0.  1.
       -1    1    3    3    0  502 -0.20092827538E+03  0.15932027298E+04  0.14431498487E+04  0.21590156544E+04  0.50400001928E-02 0. -1.
</event>
<event>
 5   0  0.1348388E-06  0.3542656E+04  0.7818609E-02  0.8103755E-01
        2   -1    0    0  501    0  0.00000000000E+00  0.00000000000E+00  0.12322940024E+04  0.12322940024E+04  0.25500000920E-02 0. -1.
       -2   -1    0    0    0  501  0.00000000000E+00  0.00000000000E+00 -0.25461481668E+04  0.25461481668E+04  0.25500000920E-02 0.  1.
    10030    2    1    2    0    0  0.00000000000E+00  0.00000000000E+00 -0.13138541644E+04  0.37784421693E+04  0.35426561308E+04 0.  0.
        5    1    3    3  502    0  0.71938506536E+03 -0.11913463564E+04 -0.18256508828E+04  0.22956141333E+04  0.46999998093E+01 0.  1.
       -5    1    3    3    0  502 -0.71938506536E+03  0.11913463564E+04  0.51179671843E+03  0.14828280360E+04  0.46999998093E+01 0. -1.
</event>
<event>
 5   0  0.1348388E-06  0.3531853E+04  0.7818609E-02  0.8106282E-01
       -2   -1    0    0    0  501  0.00000000000E+00  0.00000000000E+00  0.11898939117E+04  0.11898939117E+04  0.25500000920E-02 0. -1.
        2   -1    0    0  501    0  0.00000000000E+00  0.00000000000E+00 -0.26208194635E+04  0.26208194635E+04  0.25500000920E-02 0.  1.
    10030    2    1    2    0    0  0.00000000000E+00  0.00000000000E+00 -0.14309255518E+04  0.38107133752E+04  0.35318534076E+04 0.  0.
        5    1    3    3  502    0 -0.32984233737E+03 -0.48561347253E+03 -0.25124532536E+04  0.25801278755E+04  0.46999998093E+01 0.  1.
       -5    1    3    3    0  502  0.32984233737E+03  0.48561347253E+03  0.10815277018E+04  0.12305854997E+04  0.46999998093E+01 0. -1.
</event>
<event>
 5   0  0.1378620E-06  0.3478646E+04  0.7818609E-02  0.8118869E-01
        2   -1    0    0  501    0  0.00000000000E+00  0.00000000000E+00  0.18974837747E+04  0.18974837747E+04  0.25500000920E-02 0. -1.
       -2   -1    0    0    0  501  0.00000000000E+00  0.00000000000E+00 -0.15943450759E+04  0.15943450759E+04  0.25500000920E-02 0.  1.
    10030    2    1    2    0    0  0.00000000000E+00  0.00000000000E+00  0.30313869876E+03  0.34918288506E+04  0.34786456634E+04 0.  0.
        2    1    3    3  502    0 -0.17322100701E+03 -0.18427964257E+03  0.18789277196E+04  0.18958728543E+04  0.25500000920E-02 0. -1.
       -2    1    3    3    0  502  0.17322100701E+03  0.18427964257E+03 -0.15757890209E+04  0.15959559963E+04  0.25500000920E-02 0.  1.
</event>
<event>
 5   0  0.4409125E-07  0.3485587E+04  0.7818609E-02  0.8117214E-01
        3   -1    0    0  501    0  0.00000000000E+00  0.00000000000E+00  0.24152363569E+04  0.24152363590E+04  0.10100000352E+00 0.  1.
       -3   -1    0    0    0  501  0.00000000000E+00  0.00000000000E+00 -0.12575698423E+04  0.12575698463E+04  0.10100000352E+00 0. -1.
    10030    2    1    2    0    0  0.00000000000E+00  0.00000000000E+00  0.11576665146E+04  0.36728062053E+04  0.34855865594E+04 0.  0.
        4    1    3    3  502    0 -0.59900035154E+02  0.17373129303E+04  0.70994563112E+03  0.18777296514E+04  0.12699999809E+01 0.  1.
       -4    1    3    3    0  502  0.59900035154E+02 -0.17373129303E+04  0.44772088344E+03  0.17950765539E+04  0.12699999809E+01 0. -1.
</event>
<event>
 5   0  0.1361560E-06  0.3554814E+04  0.7818609E-02  0.8100921E-01
       -2   -1    0    0    0  501  0.00000000000E+00  0.00000000000E+00  0.11686347067E+04  0.11686347067E+04  0.25500000920E-02 0.  1.
        2   -1    0    0  501    0  0.00000000000E+00  0.00000000000E+00 -0.27033044628E+04  0.27033044628E+04  0.25500000920E-02 0. -1.
    10030    2    1    2    0    0  0.00000000000E+00  0.00000000000E+00 -0.15346697561E+04  0.38719391695E+04  0.35548138731E+04 0.  0.
        3    1    3    3  502    0  0.16572048431E+04  0.63601372619E+03 -0.66789974395E+03  0.18965577846E+04  0.10100000352E+00 0.  1.
       -3    1    3    3    0  502 -0.16572048431E+04 -0.63601372619E+03 -0.86677001211E+03  0.19753813850E+04  0.10100000352E+00 0. -1.
</event>
<event>
 5   0  0.4700769E-07  0.3489299E+04  0.7818609E-02  0.8116331E-01
       -1   -1    0    0    0  501  0.00000000000E+00  0.00000000000E+00  0.15230606790E+04  0.15230606790E+04  0.50400001928E-02 0. -1.
        1   -1    0    0  501    0  0.00000000000E+00  0.00000000000E+00 -0.19984774723E+04  0.19984774723E+04  0.50400001928E-02 0.  1.
    10030    2    1    2    0    0  0.00000000000E+00  0.00000000000E+00 -0.47541679332E+03  0.35215381514E+04  0.34892993314E+04 0.  0.
        3    1    3    3  502    0  0.47063976990E+03 -0.12549900161E+04  0.88943651739E+03  0.16086015859E+04  0.10100000352E+00 0. -1.
       -3    1    3    3    0  502 -0.47063976990E+03  0.12549900161E+04 -0.13648533107E+04  0.19129365655E+04  0.10100000352E+00 0.  1.
</event>
<event>
 5   0  0.1387133E-06  0.3469134E+04  0.7818609E-02  0.8121144E-01
        2   -1    0    0  501    0  0.00000000000E+00  0.00000000000E+00  0.21026268601E+04  0.21026268601E+04  0.25500000920E-02 0. -1.
       -2   -1    0    0    0  501  0.00000000000E+00  0.00000000000E+00 -0.14309354530E+04  0.14309354530E+04  0.25500000920E-02 0.  1.
    10030    2    1    2    0    0  0.00000000000E+00  0.00000000000E+00  0.67169140713E+03  0.35335623130E+04  0.34691343695E+04 0.  0.
        4    1    3    3  502    0  0.27551350327E+03 -0.36336021089E+03  0.20404806689E+04  0.20908135513E+04  0.12699999809E+01 0. -1.
       -4    1    3    3    0  502 -0.27551350327E+03  0.36336021089E+03 -0.13687892618E+04  0.14427487617E+04  0.12699999809E+01 0.  1.
</event>
<event>
 5   0  0.4557237E-07  0.3554091E+04  0.7818609E-02  0.8101089E-01
       -1   -1    0    0    0  501  0.00000000000E+00  0.00000000000E+00  0.24962369576E+04  0.24962369576E+04  0.50400001928E-02 0. -1.
        1   -1    0    0  501    0  0.00000000000E+00  0.00000000000E+00 -0.12650604762E+04  0.12650604762E+04  0.50400001928E-02 0.  1.
    10030    2    1    2    0    0  0.00000000000E+00  0.00000000000E+00  0.12311764814E+04  0.37612974338E+04  0.35540910029E+04 0.  0.
        2    1    3    3  502    0 -0.74796183856E+03 -0.86155434965E+03  0.20574305438E+04  0.23526035050E+04  0.25500000920E-02 0. -1.
       -2    1    3    3    0  502  0.74796183856E+03  0.86155434965E+03 -0.82625406234E+03  0.14086939287E+04  0.25500000920E-02 0.  1.
</event>
<event>
 5   0  0.4693374E-07  0.3458513E+04  0.7818609E-02  0.8123693E-01
       -1   -1    0    0    0  501  0.00000000000E+00  0.00000000000E+00  0.14774056460E+04  0.14774056460E+04  0.50400001928E-02 0. -1.
        1   -1    0    0  501    0  0.00000000000E+00  0.00000000000E+00 -0.20240394693E+04  0.20240394693E+04  0.50400001928E-02 0.  1.
    10030    2    1    2    0    0  0.00000000000E+00  0.00000000000E+00 -0.54663382334E+03  0.35014451153E+04  0.34585125934E+04 0.  0.
        1    1    3    3  502    0  0.24368154860E+03 -0.15502711859E+04  0.46206472459E+03  0.16359172524E+04  0.50400001928E-02 0. -1.
       -1    1    3    3    0  502 -0.24368154860E+03  0.15502711859E+04 -0.10086985479E+04  0.18655278630E+04  0.50400001928E-02 0.  1.
</event>
<event>
 5   0  0.1348388E-06  0.3362386E+04  0.7818609E-02  0.8147200E-01
        2   -1    0    0  501    0  0.00000000000E+00  0.00000000000E+00  0.14732759295E+04  0.14732759295E+04  0.25500000920E-02 0. -1.
       -2   -1    0    0    0  501  0.00000000000E+00  0.00000000000E+00 -0.19184521157E+04  0.19184521157E+04  0.25500000920E-02 0.  1.
    10030    2    1    2    0    0  0.00000000000E+00  0.00000000000E+00 -0.44517618618E+03  0.33917280451E+04  0.33623856554E+04 0.  0.
        5    1    3    3  502    0  0.48777454904E+03  0.14574807246E+04  0.46468955937E+03  0.16056564233E+04  0.46999998093E+01 0. -1.
       -5    1    3    3    0  502 -0.48777454904E+03 -0.14574807246E+04 -0.90986574555E+03  0.17860716218E+04  0.46999998093E+01 0.  1.
</event>
<event>
 5   0  0.4409125E-07  0.2538884E+04  0.7818609E-02  0.8389263E-01
       -1   -1    0    0    0  501  0.00000000000E+00  0.00000000000E+00  0.11066431756E+04  0.11066431757E+04  0.50400001928E-02 0. -1.
        1   -1    0    0  501    0  0.00000000000E+00  0.00000000000E+00 -0.14561899290E+04  0.14561899290E+04  0.50400001928E-02 0.  1.
    10030    2    1    2    0    0  0.00000000000E+00  0.00000000000E+00 -0.34954675335E+03  0.25628331047E+04  0.25388837290E+04 0.  0.
        5    1    3    3  502    0  0.57308875796E+03  0.39268708624E+03 -0.12472581788E+04  0.14276935689E+04  0.46999998093E+01 0.  1.
       -5    1    3    3    0  502 -0.57308875796E+03 -0.39268708624E+03  0.89771142545E+03  0.11351395357E+04  0.46999998093E+01 0. -1.
</event>
<event>
 5   0  0.1361560E-06  0.3550614E+04  0.7818609E-02  0.8101899E-01
       -2   -1    0    0    0  501  0.00000000000E+00  0.00000000000E+00  0.16953536168E+04  0.16953536169E+04  0.25500000920E-02 0. -1.
        2   -1    0    0  501    0  0.00000000000E+00  0.00000000000E+00 -0.18590312364E+04  0.18590312364E+04  0.25500000920E-02 0.  1.
    10030    2    1    2    0    0  0.00000000000E+00  0.00000000000E+00 -0.16367761953E+03  0.35543848532E+04  0.35506142175E+04 0.  0.
        3    1    3    3  502    0  0.21602194108E+03  0.14452664206E+04 -0.10910040188E+04  0.18236639726E+04  0.10100000352E+00 0. -1.
       -3    1    3    3    0  502 -0.21602194108E+03 -0.14452664206E+04  0.92732639929E+03  0.17307208806E+04  0.10100000352E+00 0.  1.
</event>
<event>
 5   0  0.1442864E-06  0.3439523E+04  0.7818609E-02  0.8128274E-01
        2   -1    0    0  501    0  0.00000000000E+00  0.00000000000E+00  0.15358692186E+04  0.15358692186E+04  0.25500000920E-02 0.  1.
       -2   -1    0    0    0  501  0.00000000000E+00  0.00000000000E+00 -0.19256709940E+04  0.19256709940E+04  0.25500000920E-02 0. -1.
    10030    2    1    2    0    0  0.00000000000E+00  0.00000000000E+00 -0.38980177539E+03  0.34615402126E+04  0.34395225278E+04 0.  0.
        1    1    3    3  502    0 -0.14579403142E+04  0.70761844970E+03 -0.77414147159E+03  0.17959980089E+04  0.50400001928E-02 0. -1.
       -1    1    3    3    0  502  0.14579403142E+04 -0.70761844970E+03  0.38433969620E+03  0.16655422037E+04  0.50400001928E-02 0.  1.
</event>
<event>
 5   0  0.4557237E-07  0.3477032E+04  0.7818609E-02  0.8119255E-01
        1   -1    0    0  501    0  0.00000000000E+00  0.00000000000E+00  0.24675705961E+04  0.24675705961E+04  0.50400001928E-02 0. -1.
       -1   -1    0    0    0  501  0.00000000000E+00  0.00000000000E+00 -0.12248636089E+04  0.12248636089E+04  0.50400001928E-02 0.  1.
    10030    2    1    2    0    0  0.00000000000E+00  0.00000000000E+00  0.12427069872E+04  0.36924342050E+04  0.34770317373E+04 0.  0.
        2    1    3    3  502    0  0.14775837892E+04  0.41098880364E+02  0.15931941876E+04  0.21732948929E+04  0.25500000920E-02 0.  1.
       -2    1    3    3    0  502 -0.14775837892E+04 -0.41098880364E+02 -0.35048720034E+03  0.15191393121E+04  0.25500000920E-02 0. -1.
</event>
<event>
 5   0  0.4557237E-07  0.3543131E+04  0.7818609E-02  0.8103644E-01
       -1   -1    0    0    0  501  0.00000000000E+00  0.00000000000E+00  0.15509650223E+04  0.15509650223E+04  0.50400001928E-02 0.  1.
        1   -1    0    0  501    0  0.00000000000E+00  0.00000000000E+00 -0.20235432542E+04  0.20235432542E+04  0.50400001928E-02 0. -1.
    10030    2    1    2    0    0  0.00000000000E+00  0.00000000000E+00 -0.47257823190E+03  0.35745082764E+04  0.35431312752E+04 0.  0.
        2    1    3    3  502    0 -0.17040664108E+04  0.30277674774E+03  0.14511801689E+03  0.17368291022E+04  0.25500000920E-02 0. -1.
       -2    1    3    3    0  502  0.17040664108E+04 -0.30277674774E+03 -0.61769624879E+03  0.18376791742E+04  0.25500000920E-02 0.  1.
</event>
<event>
 5   0  0.1361560E-06  0.3514870E+04  0.7818609E-02  0.8110275E-01
       -2   -1    0    0    0  501  0.00000000000E+00  0.00000000000E+00  0.32536058042E+04  0.32536058042E+04  0.25500000920E-02 0.  1.
        2   -1    0    0  501    0  0.00000000000E+00  0.00000000000E+00 -0.94927867614E+03  0.94927867615E+03  0.25500000920E-02 0. -1.
    10030    2    1    2    0    0  0.00000000000E+00  0.00000000000E+00  0.23043271281E+04  0.42028844803E+04  0.35148704730E+04 0.  0.
        3    1    3    3  502    0 -0.77724597884E+03 -0.15504554428E+04  0.14915425449E+04  0.22875144950E+04  0.10100000352E+00 0.  1.
       -3    1    3    3    0  502  0.77724597884E+03  0.15504554428E+04  0.81278458318E+03  0.19153699853E+04  0.10100000352E+00 0. -1.
</event>
<event>
 5   0  0.1348388E-06  0.3476319E+04  0.7818609E-02  0.8119425E-01
       -2   -1    0    0    0  501  0.00000000000E+00  0.00000000000E+00  0.15315785694E+04  0.15315785694E+04  0.25500000920E-02 0. -1.
        2   -1    0    0  501    0  0.00000000000E+00  0.00000000000E+00 -0.19726042882E+04  0.19726042882E+04  0.25500000920E-02 0.  1.
    10030    2    1    2    0    0  0.00000000000E+00  0.00000000000E+00 -0.44102571881E+03  0.35041828576E+04  0.34763190036E+04 0.  0.
        5    1    3    3  502    0  0.48178261355E+02 -0.19019947859E+03 -0.19613992248E+04  0.19711940533E+04  0.46999998093E+01 0.  1.
       -5    1    3    3    0  502 -0.48178261355E+02  0.19019947859E+03  0.15203735060E+04  0.15329888044E+04  0.46999998093E+01 0. -1.
</event>
<event>
 5   0  0.4591195E-07  0.3099238E+04  0.7818609E-02  0.8215947E-01
        1   -1    0    0  501    0  0.00000000000E+00  0.00000000000E+00  0.14979470496E+04  0.14979470496E+04  0.50400001928E-02 0.  1.
       -1   -1    0    0    0  501  0.00000000000E+00  0.00000000000E+00 -0.16030732694E+04  0.16030732694E+04  0.50400001928E-02 0. -1.
    10030    2    1    2    0    0  0.00000000000E+00  0.00000000000E+00 -0.10512621975E+03  0.31010203190E+04  0.30992378897E+04 0.  0.
        4    1    3    3  502    0  0.61326140202E+03  0.13806534033E+04  0.29263370219E+03  0.15388078060E+04  0.12699999809E+01 0.  1.
       -4    1    3    3    0  502 -0.61326140202E+03 -0.13806534033E+04 -0.39775992195E+03  0.15622125130E+04  0.12699999809E+01 0. -1.
</event>
<event>
 5   0  0.4591195E-07  0.3532746E+04  0.7818609E-02  0.8106073E-01
       -1   -1    0    0    0  501  0.00000000000E+00  0.00000000000E+00  0.17380348191E+04  0.17380348191E+04  0.50400001928E-02 0.  1.
        1   -1    0    0  501    0  0.00000000000E+00  0.00000000000E+00 -0.17951736150E+04  0.17951736150E+04  0.50400001928E-02 0. -1.
    10030    2    1    2    0    0  0.00000000000E+00  0.00000000000E+00 -0.57138795986E+02  0.35332084341E+04  0.35327463816E+04 0.  0.
        4    1    3    3  502    0 -0.13886626923E+04  0.24966268359E+03 -0.10914205387E+04  0.17837925703E+04  0.12699999809E+01 0. -1.
       -4    1    3    3    0  502  0.13886626923E+04 -0.24966268359E+03  0.10342817427E+04  0.17494158639E+04  0.12699999809E+01 0.  1.
</event>
<event>
 5   0  0.4693374E-07  0.3528964E+04  0.7818609E-02  0.8106960E-01
       -1   -1    0    0    0  501  0.00000000000E+00  0.00000000000E+00  0.20103522099E+04  0.20103522099E+04  0.50400001928E-02 0.  1.
        1   -1    0    0  501    0  0.00000000000E+00  0.00000000000E+00 -0.15486824176E+04  0.15486824176E+04  0.50400001928E-02 0. -1.
    10030    2    1    2    0    0  0.00000000000E+00  0.00000000000E+00  0.46166979230E+03  0.35590346275E+04  0.35289642224E+04 0.  0.
        1    1    3    3  502    0  0.24932539976E+03  0.12499604886E+04  0.14614094029E+04  0.19391446106E+04  0.50400001928E-02 0.  1.
       -1    1    3    3    0  502 -0.24932539976E+03 -0.12499604886E+04 -0.99973961059E+03  0.16198900169E+04  0.50400001928E-02 0. -1.
</event>
<event>
 5   0  0.4693374E-07  0.3478997E+04  0.7818609E-02  0.8118785E-01
        1   -1    0    0  501    0  0.00000000000E+00  0.00000000000E+00  0.24792771936E+04  0.24792771936E+04  0.50400001928E-02 0.  1.
       -1   -1    0    0    0  501  0.00000000000E+00  0.00000000000E+00 -0.12204585861E+04  0.12204585861E+04  0.50400001928E-02 0. -1.
    10030    2    1    2    0    0  0.00000000000E+00  0.00000000000E+00  0.12588186075E+04  0.36997357797E+04  0.34789970614E+04 0.  0.
        1    1    3    3  502    0  0.29587062042E+03 -0.28242958974E+03 -0.11685898647E+04  0.12381066873E+04  0.50400001928E-02 0. -1.
       -1    1    3    3    0  502 -0.29587062042E+03  0.28242958974E+03  0.24274084722E+04  0.24616290924E+04  0.50400001928E-02 0.  1.
</event>
<event>
 5   0  0.4557237E-07  0.3438053E+04  0.7818609E-02  0.8128630E-01
       -1   -1    0    0    0  501  0.00000000000E+00  0.00000000000E+00  0.14177979343E+04  0.14177979343E+04  0.50400001928E-02 0. -1.
        1   -1    0    0  501    0  0.00000000000E+00  0.00000000000E+00 -0.20842549017E+04  0.20842549017E+04  0.50400001928E-02 0.  1.
    10030    2    1    2    0    0  0.00000000000E+00  0.00000000000E+00 -0.66645696738E+03  0.35020528360E+04  0.34380531085E+04 0.  0.
        2    1    3    3  502    0 -0.11921250978E+04  0.60801094414E+03  0.76584387641E+03  0.15418678284E+04  0.25500000920E-02 0. -1.
       -2    1    3    3    0  502  0.11921250978E+04 -0.60801094414E+03 -0.14323008438E+04  0.19601850076E+04  0.25500000920E-02 0.  1.
</event>
<event>
 5   0  0.4409125E-07  0.3502509E+04  0.7818609E-02  0.8113196E-01
       -1   -1    0    0    0  501  0.00000000000E+00  0.00000000000E+00  0.15926738897E+04  0.15926738898E+04  0.50400001928E-02 0. -1.
        1   -1    0    0  501    0  0.00000000000E+00  0.00000000000E+00 -0.19256244231E+04  0.19256244231E+04  0.50400001928E-02 0.  1.
    10030    2    1    2    0    0  0.00000000000E+00  0.00000000000E+00 -0.33295053334E+03  0.35182983128E+04  0.35025086667E+04 0.  0.
        5    1    3    3  502    0  0.45277882862E+02 -0.12190702504E+04  0.10956471996E+04  0.16397094981E+04  0.46999998093E+01 0. -1.
       -5    1    3    3    0  502 -0.45277882862E+02  0.12190702504E+04 -0.14285977330E+04  0.18785888147E+04  0.46999998093E+01 0.  1.
</event>
<event>
 5   0  0.4557237E-07  0.3594341E+04  0.7818609E-02  0.8091789E-01
       -1   -1    0    0    0  501  0.00000000000E+00  0.00000000000E+00  0.13026762069E+04  0.13026762069E+04  0.50400001928E-02 0.  1.
        1   -1    0    0  501    0  0.00000000000E+00  0.00000000000E+00 -0.24793738185E+04  0.24793738185E+04  0.50400001928E-02 0. -1.
    10030    2    1    2    0    0  0.00000000000E+00  0.00000000000E+00 -0.11766976116E+04  0.37820500253E+04  0.35943407080E+04 0.  0.
        2    1    3    3  502    0  0.85439514487E+03 -0.14553544180E+04 -0.12384950397E+04  0.20933030142E+04  0.25500000920E-02 0. -1.
       -2    1    3    3    0  502 -0.85439514487E+03  0.14553544180E+04  0.61797428099E+02  0.16887470112E+04  0.25500000920E-02 0.  1.
</event>
<event>
 5   0  0.1442864E-06  0.3374424E+04  0.7818609E-02  0.8144212E-01
        2   -1    0    0  501    0  0.00000000000E+00  0.00000000000E+00  0.24156014363E+04  0.24156014363E+04  0.25500000920E-02 0.  1.
       -2   -1    0    0    0  501  0.00000000000E+00  0.00000000000E+00 -0.11784575286E+04  0.11784575287E+04  0.25500000920E-02 0. -1.
    10030    2    1    2    0    0  0.00000000000E+00  0.00000000000E+00  0.12371439077E+04  0.35940589650E+04  0.33744236242E+04 0.  0.
        1    1    3    3  502    0 -0.12589567410E+04  0.89320532867E+03  0.13440025109E+04  0.20467365693E+04  0.50400001928E-02 0.  1.
       -1    1    3    3    0  502  0.12589567410E+04 -0.89320532867E+03 -0.10685860326E+03  0.15473223956E+04  0.50400001928E-02 0. -1.
</event>
<event>
 5   0  0.1442864E-06  0.3499217E+04  0.7818609E-02  0.8113976E-01
        2   -1    0    0  501    0  0.00000000000E+00  0.00000000000E+00  0.23555624990E+04  0.23555624990E+04  0.25500000920E-02 0. -1.
       -2   -1    0    0    0  501  0.00000000000E+00  0.00000000000E+00 -0.12995321961E+04  0.12995321961E+04  0.25500000920E-02 0.  1.
    10030    2    1    2    0    0  0.00000000000E+00  0.00000000000E+00  0.10560303029E+04  0.36550946951E+04  0.34992166594E+04 0.  0.
        1    1    3    3  502    0  0.51760216315E+03 -0.88983849112E+03  0.20057457452E+04  0.22544934096E+04  0.50400001928E-02 0. -1.
       -1    1    3    3    0  502 -0.51760216315E+03  0.88983849112E+03 -0.94971544229E+03  0.14006012855E+04  0.50400001928E-02 0.  1.
</event>
<event>
 5   0  0.1378620E-06  0.2665544E+04  0.7818609E-02  0.8346272E-01
        2   -1    0    0  501    0  0.00000000000E+00  0.00000000000E+00  0.11992669282E+04  0.11992669282E+04  0.25500000920E-02 0.  1.
       -2   -1    0    0    0  501  0.00000000000E+00  0.00000000000E+00 -0.14811390267E+04  0.14811390267E+04  0.25500000920E-02 0. -1.
    10030    2    1    2    0    0  0.00000000000E+00  0.00000000000E+00 -0.28187209846E+03  0.26804059549E+04  0.26655438851E+04 0.  0.
        2    1    3    3  502    0  0.22537843912E+03 -0.99094304212E+03 -0.10080183747E+04  0.14313855516E+04  0.25500000920E-02 0. -1.
       -2    1    3    3    0  502 -0.22537843912E+03  0.99094304212E+03  0.72614627620E+03  0.12490204034E+04  0.25500000920E-02 0.  1.
</event>
<event>
 5   0  0.4591195E-07  0.3443666E+04  0.7818609E-02  0.8127272E-01
       -1   -1    0    0    0  501  0.00000000000E+00  0.00000000000E+00  0.12833084834E+04  0.12833084834E+04  0.50400001928E-02 0. -1.
        1   -1    0    0  501    0  0.00000000000E+00  0.00000000000E+00 -0.23102079909E+04  0.23102079910E+04  0.50400001928E-02 0.  1.
    10030    2    1    2    0    0  0.00000000000E+00  0.00000000000E+00 -0.10268995075E+04  0.35935164744E+04  0.34436663679E+04 0.  0.
        4    1    3    3  502    0 -0.91151238036E+03  0.17049984612E+03  0.10004677933E+04  0.13641343172E+04  0.12699999809E+01 0. -1.
       -4    1    3    3    0  502  0.91151238036E+03 -0.17049984612E+03 -0.20273673009E+04  0.22293821571E+04  0.12699999809E+01 0.  1.
</event>
<event>
 5   0  0.4591195E-07  0.3110214E+04  0.7818609E-02  0.8212940E-01
       -1   -1    0    0    0  501  0.00000000000E+00  0.00000000000E+00  0.75142630021E+03  0.75142630023E+03  0.50400001928E-02 0. -1.
        1   -1    0    0  501    0  0.00000000000E+00  0.00000000000E+00 -0.32183566293E+04  0.32183566293E+04  0.50400001928E-02 0.  1.
    10030    2    1    2    0    0  0.00000000000E+00  0.00000000000E+00 -0.24669303290E+04  0.39697829295E+04  0.31102140214E+04 0.  0.
        4    1    3    3  502    0  0.69810075966E+03  0.22494535796E+03  0.51679613470E+03  0.89723182202E+03  0.12699999809E+01 0. -1.
       -4    1    3    3    0  502 -0.69810075966E+03 -0.22494535796E+03 -0.29837264637E+04  0.30725511075E+04  0.12699999809E+01 0.  1.
</event>
<event>
 5   0  0.4693374E-07  0.3461749E+04  0.7818609E-02  0.8122915E-01
       -1   -1    0    0    0  501  0.00000000000E+00  0.00000000000E+00  0.12390652939E+04  0.12390652939E+04  0.50400001928E-02 0.  1.
        1   -1    0    0  501    0  0.00000000000E+00  0.00000000000E+00 -0.24178929926E+04  0.24178929927E+04  0.50400001928E-02 0. -1.
    10030    2    1    2    0    0  0.00000000000E+00  0.00000000000E+00 -0.11788276988E+04  0.36569582866E+04  0.34617494372E+04 0.  0.
        1    1    3    3  502    0  0.13552295226E+04  0.96100570202E+03 -0.76495026859E+02  0.16631387517E+04  0.50400001928E-02 0.  1.
       -1    1    3    3    0  502 -0.13552295226E+04 -0.96100570202E+03 -0.11023326719E+04  0.19938195349E+04  0.50400001928E-02 0. -1.
</event>
<event>
 5   0  0.4557237E-07  0.3503056E+04  0.7818609E-02  0.8113066E-01
       -1   -1    0    0    0  501  0.00000000000E+00  0.00000000000E+00  0.17148151117E+04  0.17148151117E+04  0.50400001928E-02 0. -1.
        1   -1    0    0  501    0  0.00000000000E+00  0.00000000000E+00 -0.17890266562E+04  0.17890266562E+04  0.50400001928E-02 0.  1.
    10030    2    1    2    0    0  0.00000000000E+00  0.00000000000E+00 -0.74211544476E+02  0.35038417679E+04  0.35030557777E+04 0.  0.
        2    1    3    3  502    0  0.93077330253E+03  0.10598778252E+04 -0.10756884019E+04  0.17739181162E+04  0.25500000920E-02 0.  1.
       -2    1    3    3    0  502 -0.93077330253E+03 -0.10598778252E+04  0.10014768574E+04  0.17299236518E+04  0.25500000920E-02 0. -1.
</event>
<event>
 5   0  0.4557237E-07  0.3496260E+04  0.7818609E-02  0.8114677E-01
       -1   -1    0    0    0  501  0.00000000000E+00  0.00000000000E+00  0.24481129306E+04  0.24481129306E+04  0.50400001928E-02 0. -1.
        1   -1    0    0  501    0  0.00000000000E+00  0.00000000000E+00 -0.12482912825E+04  0.12482912825E+04  0.50400001928E-02 0.  1.
    10030    2    1    2    0    0  0.00000000000E+00  0.00000000000E+00  0.11998216481E+04  0.36964042131E+04  0.34962597329E+04 0.  0.
        2    1    3    3  502    0  0.13874430421E+04 -0.76338107673E+03  0.13827073953E+04  0.21022912749E+04  0.25500000920E-02 0. -1.
       -2    1    3    3    0  502 -0.13874430421E+04  0.76338107673E+03 -0.18288574722E+03  0.15941129383E+04  0.25500000920E-02 0.  1.
</event>
<event>
 5   0  0.1361560E-06  0.3467916E+04  0.7818609E-02  0.8121436E-01
        2   -1    0    0  501    0  0.00000000000E+00  0.00000000000E+00  0.13452763342E+04  0.13452763342E+04  0.25500000920E-02 0.  1.
       -2   -1    0    0    0  501  0.00000000000E+00  0.00000000000E+00 -0.22349391710E+04  0.22349391710E+04  0.25500000920E-02 0. -1.
    10030    2    1    2    0    0  0.00000000000E+00  0.00000000000E+00 -0.88966283681E+03  0.35802155051E+04  0.34679162476E+04 0.  0.
        3    1    3    3  502    0  0.33106260239E+03 -0.99631347143E+03 -0.18695070032E+04  0.21441313918E+04  0.10100000352E+00 0. -1.
       -3    1    3    3    0  502 -0.33106260239E+03  0.99631347143E+03  0.97984416637E+03  0.14360841134E+04  0.10100000352E+00 0.  1.
</event>
<event>
 5   0  0.1442864E-06  0.3502956E+04  0.7818609E-02  0.8113090E-01
       -2   -1    0    0    0  501  0.00000000000E+00  0.00000000000E+00  0.15810978017E+04  0.15810978017E+04  0.25500000920E-02 0. -1.
        2   -1    0    0  501    0  0.00000000000E+00  0.00000000000E+00 -0.19402190195E+04  0.19402190195E+04  0.25500000920E-02 0.  1.
    10030    2    1    2    0    0  0.00000000000E+00  0.00000000000E+00 -0.35912121779E+03  0.35213168212E+04  0.35029564808E+04 0.  0.
        1    1    3    3  502    0 -0.11748487255E+04  0.10039771157E+04  0.64903910769E+03  0.16761537340E+04  0.50400001928E-02 0. -1.
       -1    1    3    3    0  502  0.11748487255E+04 -0.10039771157E+04 -0.10081603255E+04  0.18451630872E+04  0.50400001928E-02 0.  1.
</event>
<event>
 5   0  0.1361560E-06  0.3528610E+04  0.7818609E-02  0.8107043E-01
        2   -1    0    0  501    0  0.00000000000E+00  0.00000000000E+00  0.12717319357E+04  0.12717319357E+04  0.25500000920E-02 0. -1.
       -2   -1    0    0    0  501  0.00000000000E+00  0.00000000000E+00 -0.24476636193E+04  0.24476636193E+04  0.25500000920E-02 0.  1.
    10030    2    1    2    0    0  0.00000000000E+00  0.00000000000E+00 -0.11759316837E+04  0.37193955550E+04  0.35286099203E+04 0.  0.
        3    1    3    3  502    0 -0.85949759173E+03 -0.41303655053E+03 -0.21526223263E+04  0.23543827625E+04  0.10100000352E+00 0.  1.
       -3    1    3    3    0  502  0.85949759173E+03  0.41303655053E+03  0.97669064260E+03  0.13650127925E+04  0.10100000352E+00 0. -1.
</event>
<event>
 5   0  0.4693374E-07  0.3436370E+04  0.7818609E-02  0.8129037E-01
        1   -1    0    0  501    0  0.00000000000E+00  0.00000000000E+00  0.18584823046E+04  0.18584823046E+04  0.50400001928E-02 0.  1.
       -1   -1    0    0    0  501  0.00000000000E+00  0.00000000000E+00 -0.15884788047E+04  0.15884788047E+04  0.50400001928E-02 0. -1.
    10030    2    1    2    0    0  0.00000000000E+00  0.00000000000E+00  0.27000349990E+03  0.34469611093E+04  0.34363700323E+04 0.  0.
        1    1    3    3  502    0 -0.49297140005E+03  0.11982007428E+04  0.12669539273E+04  0.18121473658E+04  0.50400001928E-02 0.  1.
       -1    1    3    3    0  502  0.49297140005E+03 -0.11982007428E+04 -0.99695042737E+03  0.16348137435E+04  0.50400001928E-02 0. -1.
</event>
<event>
 5   0  0.1378620E-06  0.3406629E+04  0.7818609E-02  0.8136281E-01
        2   -1    0    0  501    0  0.00000000000E+00  0.00000000000E+00  0.17712078681E+04  0.17712078681E+04  0.25500000920E-02 0.  1.
       -2   -1    0    0    0  501  0.00000000000E+00  0.00000000000E+00 -0.16380233131E+04  0.16380233131E+04  0.25500000920E-02 0. -1.
    10030    2    1    2    0    0  0.00000000000E+00  0.00000000000E+00  0.13318455505E+03  0.34092311812E+04  0.34066287031E+04 0.  0.
        2    1    3    3  502    0  0.64305026831E+03  0.62567923792E+03 -0.13823714044E+04  0.16480105753E+04  0.25500000920E-02 0. -1.
       -2    1    3    3    0  502 -0.64305026831E+03 -0.62567923792E+03  0.15155559595E+04  0.17612206059E+04  0.25500000920E-02 0.  1.
</event>
<event>
 5   0  0.1378620E-06  0.3453644E+04  0.7818609E-02  0.8124864E-01
        2   -1    0    0  501    0  0.00000000000E+00  0.00000000000E+00  0.19015798017E+04  0.19015798017E+04  0.25500000920E-02 0.  1.
       -2   -1    0    0    0  501  0.00000000000E+00  0.00000000000E+00 -0.15681248202E+04  0.15681248202E+04  0.25500000920E-02 0. -1.
    10030    2    1    2    0    0  0.00000000000E+00  0.00000000000E+00  0.33345498149E+03  0.34697046219E+04  0.34536441535E+04 0.  0.
        2    1    3    3  502    0 -0.38878028367E+03  0.16660853610E+04 -0.68720929458E+02  0.17122246071E+04  0.25500000920E-02 0. -1.
       -2    1    3    3    0  502  0.38878028367E+03 -0.16660853610E+04  0.40217591095E+03  0.17574800148E+04  0.25500000920E-02 0.  1.
</event>
<event>
 5   0  0.4693374E-07  0.3511073E+04  0.7818609E-02  0.8111171E-01
       -1   -1    0    0    0  501  0.00000000000E+00  0.00000000000E+00  0.18927234990E+04  0.18927234990E+04  0.50400001928E-02 0. -1.
        1   -1    0    0  501    0  0.00000000000E+00  0.00000000000E+00 -0.16282928685E+04  0.16282928685E+04  0.50400001928E-02 0.  1.
    10030    2    1    2    0    0  0.00000000000E+00  0.00000000000E+00  0.26443063045E+03  0.35210163675E+04  0.35110728705E+04 0.  0.
        1    1    3    3  502    0 -0.66453020029E+03 -0.11181360733E+04  0.13145706676E+04  0.18493038435E+04  0.50400001928E-02 0. -1.
       -1    1    3    3    0  502  0.66453020029E+03  0.11181360733E+04 -0.10501400371E+04  0.16717125241E+04  0.50400001928E-02 0.  1.
</event>
<event>
 5   0  0.4591195E-07  0.3130107E+04  0.7818609E-02  0.8207524E-01
        1   -1    0    0  501    0  0.00000000000E+00  0.00000000000E+00  0.22523889497E+04  0.22523889497E+04  0.50400001928E-02 0.  1.
       -1   -1    0    0    0  501  0.00000000000E+00  0.00000000000E+00 -0.10874639208E+04  0.10874639208E+04  0.50400001928E-02 0. -1.
    10030    2    1    2    0    0  0.00000000000E+00  0.00000000000E+00  0.11649250289E+04  0.33398528705E+04  0.31301065275E+04 0.  0.
        4    1    3    3  502    0  0.15647156472E+04 -0.13443039566E+02  0.61401305258E+03  0.16809311151E+04  0.12699999809E+01 0.  1.
       -4    1    3    3    0  502 -0.15647156472E+04  0.13443039566E+02  0.55091197637E+03  0.16589217554E+04  0.12699999809E+01 0. -1.
</event>
<event>
 5   0  0.4409125E-07  0.3421021E+04  0.7818609E-02  0.8132766E-01
        1   -1    0    0  501    0  0.00000000000E+00  0.00000000000E+00  0.10562227298E+04  0.10562227298E+04  0.50400001928E-02 0. -1.
       -1   -1    0    0    0  501  0.00000000000E+00  0.00000000000E+00 -0.27701035427E+04  0.27701035427E+04  0.50400001928E-02 0.  1.
    10030    2    1    2    0    0  0.00000000000E+00  0.00000000000E+00 -0.17138808129E+04  0.38263262725E+04  0.34210210907E+04 0.  0.
        5    1    3    3  502    0 -0.68490589987E+03 -0.74952923496E+03 -0.23965949936E+04  0.26028023012E+04  0.46999998093E+01 0.  1.
       -5    1    3    3    0  502  0.68490589987E+03  0.74952923496E+03  0.68271418078E+03  0.12235239713E+04  0.46999998093E+01 0. -1.
</event>
<event>
 5   0  0.1387133E-06  0.3505329E+04  0.7818609E-02  0.8112528E-01
       -2   -1    0    0    0  501  0.00000000000E+00  0.00000000000E+00  0.16192499905E+04  0.16192499905E+04  0.25500000920E-02 0.  1.
        2   -1    0    0  501    0  0.00000000000E+00  0.00000000000E+00 -0.18970710667E+04  0.18970710667E+04  0.25500000920E-02 0. -1.
    10030    2    1    2    0    0  0.00000000000E+00  0.00000000000E+00 -0.27782107616E+03  0.35163210573E+04  0.35053286903E+04 0.  0.
        4    1    3    3  502    0  0.17325036122E+04 -0.26157702275E+03 -0.18193312798E+03  0.17615597012E+04  0.12699999809E+01 0.  1.
       -4    1    3    3    0  502 -0.17325036122E+04  0.26157702275E+03 -0.95887948173E+02  0.17547613560E+04  0.12699999809E+01 0. -1.
</event>
<event>
 5   0  0.4409125E-07  0.3491867E+04  0.7818609E-02  0.8115720E-01
        1   -1    0    0  501    0  0.00000000000E+00  0.00000000000E+00  0.17112895234E+04  0.17112895235E+04  0.50400001928E-02 0. -1.
       -1   -1    0    0    0  501  0.00000000000E+00  0.00000000000E+00 -0.17812786652E+04  0.17812786652E+04  0.50400001928E-02 0.  1.
    10030    2    1    2    0    0  0.00000000000E+00  0.00000000000E+00 -0.69989141779E+02  0.34925681887E+04  0.34918668463E+04 0.  0.
        5    1    3    3  502    0 -0.48833236206E+03  0.41247905024E+03  0.15900329434E+04  0.17137194385E+04  0.46999998093E+01 0. -1.
       -5    1    3    3    0  502  0.48833236206E+03 -0.41247905024E+03 -0.16600220852E+04  0.17788487502E+04  0.46999998093E+01 0.  1.
</event>
<event>
 5   0  0.1361560E-06  0.3519990E+04  0.7818609E-02  0.8109069E-01
       -2   -1    0    0    0  501  0.00000000000E+00  0.00000000000E+00  0.14096753487E+04  0.14096753487E+04  0.25500000920E-02 0.  1.
        2   -1    0    0  501    0  0.00000000000E+00  0.00000000000E+00 -0.21973733582E+04  0.21973733582E+04  0.25500000920E-02 0. -1.
    10030    2    1    2    0    0  0.00000000000E+00  0.00000000000E+00 -0.78769800950E+03  0.36070487070E+04  0.35199903722E+04 0.  0.
        3    1    3    3  502    0  0.15396318458E+03  0.15821829623E+04  0.38019753645E+03  0.16344900628E+04  0.10100000352E+00 0.  1.
       -3    1    3    3    0  502 -0.15396318458E+03 -0.15821829623E+04 -0.11678955460E+04  0.19725586442E+04  0.10100000352E+00 0. -1.
</event>
<event>
 5   0  0.4409125E-07  0.3481914E+04  0.7818609E-02  0.8118089E-01
       -1   -1    0    0    0  501  0.00000000000E+00  0.00000000000E+00  0.14330142894E+04  0.14330142894E+04  0.50400001928E-02 0. -1.
        1   -1    0    0  501    0  0.00000000000E+00  0.00000000000E+00 -0.21150740357E+04  0.21150740357E+04  0.50400001928E-02 0.  1.
    10030    2    1    2    0    0  0.00000000000E+00  0.00000000000E+00 -0.68205974632E+03  0.35480883251E+04  0.34819140232E+04 0.  0.
        5    1    3    3  502    0 -0.89859606389E+02  0.16277532730E+04  0.28152620091E+03  0.16543683261E+04  0.46999998093E+01 0.  1.
       -5    1    3    3    0  502  0.89859606389E+02 -0.16277532730E+04 -0.96358594723E+03  0.18937199989E+04  0.46999998093E+01 0. -1.
</event>
<event>
 5   0  0.4700769E-07  0.3484131E+04  0.7818609E-02  0.8117561E-01
        1   -1    0    0  501    0  0.00000000000E+00  0.00000000000E+00  0.24369615146E+04  0.24369615146E+04  0.50400001928E-02 0. -1.
       -1   -1    0    0    0  501  0.00000000000E+00  0.00000000000E+00 -0.12453181893E+04  0.12453181893E+04  0.50400001928E-02 0.  1.
    10030    2    1    2    0    0  0.00000000000E+00  0.00000000000E+00  0.11916433253E+04  0.36822797039E+04  0.34841311690E+04 0.  0.
        3    1    3    3  502    0 -0.14153701377E+04 -0.44394479875E+03  0.15612454196E+04  0.21535660847E+04  0.10100000352E+00 0. -1.
       -3    1    3    3    0  502  0.14153701377E+04  0.44394479875E+03 -0.36960209427E+03  0.15287136191E+04  0.10100000352E+00 0.  1.
</event>
<event>
 5   0  0.4700769E-07  0.3497355E+04  0.7818609E-02  0.8114417E-01
       -1   -1    0    0    0  501  0.00000000000E+00  0.00000000000E+00  0.21289770318E+04  0.21289770318E+04  0.50400001928E-02 0.  1.
        1   -1    0    0  501    0  0.00000000000E+00  0.00000000000E+00 -0.14363107233E+04  0.14363107233E+04  0.50400001928E-02 0. -1.
    10030    2    1    2    0    0  0.00000000000E+00  0.00000000000E+00  0.69266630852E+03  0.35652877551E+04  0.34973547378E+04 0.  0.
        3    1    3    3  502    0 -0.77064719795E+03  0.27920830997E+03  0.19210112036E+04  0.20885733022E+04  0.10100000352E+00 0.  1.
       -3    1    3    3    0  502  0.77064719795E+03 -0.27920830997E+03 -0.12283448951E+04  0.14767144529E+04  0.10100000352E+00 0. -1.
</event>
<event>
 5   0  0.4409125E-07  0.3522929E+04  0.7818609E-02  0.8108378E-01
        3   -1    0    0  501    0  0.00000000000E+00  0.00000000000E+00  0.17182661479E+04  0.17182661509E+04  0.10100000352E+00 0.  1.
       -3   -1    0    0    0  501  0.00000000000E+00  0.00000000000E+00 -0.18057485758E+04  0.18057485786E+04  0.10100000352E+00 0. -1.
    10030    2    1    2    0    0  0.00000000000E+00  0.00000000000E+00 -0.87482427830E+02  0.35240147295E+04  0.35229287018E+04 0.  0.
        2    1    3    3  502    0  0.58181579228E+02 -0.15709302027E+04 -0.83868731434E+03  0.17817416224E+04  0.25500000920E-02 0. -1.
       -2    1    3    3    0  502 -0.58181579228E+02  0.15709302027E+04  0.75120488651E+03  0.17422731070E+04  0.25500000920E-02 0.  1.
</event>
<event>
 5   0  0.1387133E-06  0.2558062E+04  0.7818609E-02  0.8382588E-01
       -2   -1    0    0    0  501  0.00000000000E+00  0.00000000000E+00  0.70490830199E+03  0.70490830200E+03  0.25500000920E-02 0. -1.
        2   -1    0    0  501    0  0.00000000000E+00  0.00000000000E+00 -0.23207559134E+04  0.23207559134E+04  0.25500000920E-02 0.  1.
    10030    2    1    2    0    0  0.00000000000E+00  0.00000000000E+00 -0.16158476114E+04  0.30256642154E+04  0.25580618525E+04 0.  0.
        4    1    3    3  502    0 -0.10125283585E+04  0.42253048145E+03 -0.30355752521E+02  0.10975740381E+04  0.12699999809E+01 0. -1.
       -4    1    3    3    0  502  0.10125283585E+04 -0.42253048145E+03 -0.15854918589E+04  0.19280901773E+04  0.12699999809E+01 0.  1.
</event>
<event>
 5   0  0.1361560E-06  0.3441294E+04  0.7818609E-02  0.8127845E-01
       -2   -1    0    0    0  501  0.00000000000E+00  0.00000000000E+00  0.28551944692E+04  0.28551944692E+04  0.25500000920E-02 0.  1.
        2   -1    0    0  501    0  0.00000000000E+00  0.00000000000E+00 -0.10369263306E+04  0.10369263306E+04  0.25500000920E-02 0. -1.
    10030    2    1    2    0    0  0.00000000000E+00  0.00000000000E+00  0.18182681386E+04  0.38921207998E+04  0.34412941311E+04 0.  0.
        3    1    3    3  502    0 -0.66548236205E+01  0.87905492382E+03 -0.76377655692E+03  0.11645327324E+04  0.10100000352E+00 0. -1.
       -3    1    3    3    0  502  0.66548236205E+01 -0.87905492382E+03  0.25820446955E+04  0.27275880674E+04  0.10100000352E+00 0.  1.
</event>
<event>
 5   0  0.1378620E-06  0.3460286E+04  0.7818609E-02  0.8123267E-01
       -2   -1    0    0    0  501  0.00000000000E+00  0.00000000000E+00  0.20590722873E+04  0.20590722873E+04  0.25500000920E-02 0. -1.
        2   -1    0    0  501    0  0.00000000000E+00  0.00000000000E+00 -0.14537588143E+04  0.14537588144E+04  0.25500000920E-02 0.  1.
    10030    2    1    2    0    0  0.00000000000E+00  0.00000000000E+00  0.60531347292E+03  0.35128311016E+04  0.34602858188E+04 0.  0.
        2    1    3    3  502    0  0.33481258569E+03  0.14018818766E+04 -0.66896741493E+03  0.15889901402E+04  0.25500000920E-02 0.  1.
       -2    1    3    3    0  502 -0.33481258569E+03 -0.14018818766E+04  0.12742808878E+04  0.19238409614E+04  0.25500000920E-02 0. -1.
</event>
<event>
 5   0  0.1442864E-06  0.3447625E+04  0.7818609E-02  0.8126316E-01
        2   -1    0    0  501    0  0.00000000000E+00  0.00000000000E+00  0.19104591526E+04  0.19104591526E+04  0.25500000920E-02 0.  1.
       -2   -1    0    0    0  501  0.00000000000E+00  0.00000000000E+00 -0.15554005463E+04  0.15554005463E+04  0.25500000920E-02 0. -1.
    10030    2    1    2    0    0  0.00000000000E+00  0.00000000000E+00  0.35505860631E+03  0.34658596989E+04  0.34476248112E+04 0.  0.
        1    1    3    3  502    0 -0.15667517434E+04  0.10151755526E+03 -0.53793176849E+03  0.16596347270E+04  0.50400001928E-02 0. -1.
       -1    1    3    3    0  502  0.15667517434E+04 -0.10151755526E+03  0.89299037479E+03  0.18062249719E+04  0.50400001928E-02 0.  1.
</event>
<event>
 5   0  0.1348388E-06  0.3450973E+04  0.7818609E-02  0.8125508E-01
       -2   -1    0    0    0  501  0.00000000000E+00  0.00000000000E+00  0.20207525284E+04  0.20207525284E+04  0.25500000920E-02 0.  1.
        2   -1    0    0  501    0  0.00000000000E+00  0.00000000000E+00 -0.14733641879E+04  0.14733641879E+04  0.25500000920E-02 0. -1.
    10030    2    1    2    0    0  0.00000000000E+00  0.00000000000E+00  0.54738834054E+03  0.34941167163E+04  0.34509734325E+04 0.  0.
        5    1    3    3  502    0 -0.15521506597E+04  0.58496689661E+03  0.75495148017E+03  0.18224521305E+04  0.46999998093E+01 0. -1.
       -5    1    3    3    0  502  0.15521506597E+04 -0.58496689661E+03 -0.20756313963E+03  0.16716645858E+04  0.46999998093E+01 0.  1.
</event>
<event>
 5   0  0.1361560E-06  0.3517655E+04  0.7818609E-02  0.8109619E-01
        2   -1    0    0  501    0  0.00000000000E+00  0.00000000000E+00  0.17716510636E+04  0.17716510636E+04  0.25500000920E-02 0.  1.
       -2   -1    0    0    0  501  0.00000000000E+00  0.00000000000E+00 -0.17460963805E+04  0.17460963805E+04  0.25500000920E-02 0. -1.
    10030    2    1    2    0    0  0.00000000000E+00  0.00000000000E+00  0.25554683097E+02  0.35177474440E+04  0.35176546218E+04 0.  0.
        3    1    3    3  502    0 -0.11628130036E+04  0.59184826551E+03  0.11922384315E+04  0.17674419194E+04  0.10100000352E+00 0.  1.
       -3    1    3    3    0  502  0.11628130036E+04 -0.59184826551E+03 -0.11666837484E+04  0.17503055247E+04  0.10100000352E+00 0. -1.
</event>
<event>
 5   0  0.4700769E-07  0.3518458E+04  0.7818609E-02  0.8109430E-01
        1   -1    0    0  501    0  0.00000000000E+00  0.00000000000E+00  0.23040182877E+04  0.23040182877E+04  0.50400001928E-02 0. -1.
       -1   -1    0    0    0  501  0.00000000000E+00  0.00000000000E+00 -0.13432561243E+04  0.13432561243E+04  0.50400001928E-02 0.  1.
    10030    2    1    2    0    0  0.00000000000E+00  0.00000000000E+00  0.96076216343E+03  0.36472744120E+04  0.35184580005E+04 0.  0.
        3    1    3    3  502    0  0.45819220579E+03 -0.57595115778E+03 -0.11760019330E+04  0.13873140921E+04  0.10100000352E+00 0.  1.
       -3    1    3    3    0  502 -0.45819220579E+03  0.57595115778E+03  0.21367640964E+04  0.22599603199E+04  0.10100000352E+00 0. -1.
</event>
<event>
 5   0  0.4700769E-07  0.3514749E+04  0.7818609E-02  0.8110304E-01
       -1   -1    0    0    0  501  0.00000000000E+00  0.00000000000E+00  0.11208560872E+04  0.11208560872E+04  0.50400001928E-02 0.  1.
        1   -1    0    0  501    0  0.00000000000E+00  0.00000000000E+00 -0.27553625376E+04  0.27553625376E+04  0.50400001928E-02 0. -1.
    10030    2    1    2    0    0  0.00000000000E+00  0.00000000000E+00 -0.16345064504E+04  0.38762186248E+04  0.35147488518E+04 0.  0.
        3    1    3    3  502    0  0.13936790085E+04  0.17808508490E+03 -0.19814244504E+04  0.24290118030E+04  0.10100000352E+00 0. -1.
       -3    1    3    3    0  502 -0.13936790085E+04 -0.17808508490E+03  0.34691799998E+03  0.14472068218E+04  0.10100000352E+00 0.  1.
</event>
<event>
 5   0  0.4409125E-07  0.3497056E+04  0.7818609E-02  0.8114488E-01
       -1   -1    0    0    0  501  0.00000000000E+00  0.00000000000E+00  0.21259225455E+04  0.21259225455E+04  0.50400001928E-02 0.  1.
        1   -1    0    0  501    0  0.00000000000E+00  0.00000000000E+00 -0.14381290280E+04  0.14381290280E+04  0.50400001928E-02 0. -1.
    10030    2    1    2    0    0  0.00000000000E+00  0.00000000000E+00  0.68779351746E+03  0.35640515735E+04  0.34970564330E+04 0.  0.
        5    1    3    3  502    0  0.14322965926E+04  0.75642629366E+03 -0.32725899232E+03  0.16525056142E+04  0.46999998093E+01 0.  1.
       -5    1    3    3    0  502 -0.14322965926E+04 -0.75642629366E+03  0.10150525098E+04  0.19115459593E+04  0.46999998093E+01 0. -1.
</event>
<event>
 5   0  0.4700769E-07  0.3372522E+04  0.7818609E-02  0.8144684E-01
        1   -1    0    0  501    0  0.00000000000E+00  0.00000000000E+00  0.19859632906E+04  0.19859632906E+04  0.50400001928E-02 0. -1.
       -1   -1    0    0    0  501  0.00000000000E+00  0.00000000000E+00 -0.14317865404E+04  0.14317865404E+04  0.50400001928E-02 0.  1.
    10030    2    1    2    0    0  0.00000000000E+00  0.00000000000E+00  0.55417675014E+03  0.34177498310E+04  0.33725216140E+04 0.  0.
        3    1    3    3  502    0  0.14535035522E+04 -0.21819213027E+03 -0.56055258462E+03  0.15730542242E+04  0.10100000352E+00 0. -1.
       -3    1    3    3    0  502 -0.14535035522E+04  0.21819213027E+03  0.11147293348E+04  0.18446956068E+04  0.10100000352E+00 0.  1.
</event>
<event>
 5   0  0.1378620E-06  0.3526459E+04  0.7818609E-02  0.8107548E-01
       -2   -1    0    0    0  501  0.00000000000E+00  0.00000000000E+00  0.35306775735E+04  0.35306775735E+04  0.25500000920E-02 0.  1.
        2   -1    0    0  501    0  0.00000000000E+00  0.00000000000E+00 -0.88056112545E+03  0.88056112546E+03  0.25500000920E-02 0. -1.
    10030    2    1    2    0    0  0.00000000000E+00  0.00000000000E+00  0.26501164480E+04  0.44112386989E+04  0.35264585168E+04 0.  0.
        2    1    3    3  502    0 -0.44483251431E+03  0.16305629547E+04  0.69665686200E+03  0.18280980002E+04  0.25500000920E-02 0. -1.
       -2    1    3    3    0  502  0.44483251431E+03 -0.16305629547E+04  0.19534595860E+04  0.25831406987E+04  0.25500000920E-02 0.  1.
</event>
<event>
 5   0  0.1361560E-06  0.3303710E+04  0.7818609E-02  0.8161952E-01
       -2   -1    0    0    0  501  0.00000000000E+00  0.00000000000E+00  0.14426928872E+04  0.14426928872E+04  0.25500000920E-02 0.  1.
        2   -1    0    0  501    0  0.00000000000E+00  0.00000000000E+00 -0.18913415443E+04  0.18913415443E+04  0.25500000920E-02 0. -1.
    10030    2    1    2    0    0  0.00000000000E+00  0.00000000000E+00 -0.44864865709E+03  0.33340344314E+04  0.33037100315E+04 0.  0.
        3    1    3    3  502    0 -0.94166342256E+03  0.81399400158E+03  0.87160340767E+03  0.15195422819E+04  0.10100000352E+00 0.  1.
       -3    1    3    3    0  502  0.94166342256E+03 -0.81399400158E+03 -0.13202520648E+04  0.18144921495E+04  0.10100000352E+00 0. -1.
</event>
<event>
 5   0  0.4700769E-07  0.3470901E+04  0.7818609E-02  0.8120721E-01
        1   -1    0    0  501    0  0.00000000000E+00  0.00000000000E+00  0.18364013284E+04  0.18364013284E+04  0.50400001928E-02 0. -1.
       -1   -1    0    0    0  501  0.00000000000E+00  0.00000000000E+00 -0.16400490767E+04  0.16400490767E+04  0.50400001928E-02 0.  1.
    10030    2    1    2    0    0  0.00000000000E+00  0.00000000000E+00  0.19635225177E+03  0.34764504051E+04  0.34709009223E+04 0.  0.
        3    1    3    3  502    0  0.58294336492E+03 -0.85125112076E+03  0.14958774064E+04  0.18171683088E+04  0.10100000352E+00 0. -1.
       -3    1    3    3    0  502 -0.58294336492E+03  0.85125112076E+03 -0.12995251547E+04  0.16592820963E+04  0.10100000352E+00 0.  1.
</event>
<event>
 5   0  0.4557237E-07  0.3485188E+04  0.7818609E-02  0.8117309E-01
        1   -1    0    0  501    0  0.00000000000E+00  0.00000000000E+00  0.27627652406E+04  0.27627652406E+04  0.50400001928E-02 0.  1.
       -1   -1    0    0    0  501  0.00000000000E+00  0.00000000000E+00 -0.10991285504E+04  0.10991285505E+04  0.50400001928E-02 0. -1.
    10030    2    1    2    0    0  0.00000000000E+00  0.00000000000E+00  0.16636366901E+04  0.38618937910E+04  0.34851881752E+04 0.  0.
        2    1    3    3  502    0 -0.90491307104E+03  0.35253192229E+03  0.24350980827E+04  0.26216119268E+04  0.25500000920E-02 0.  1.
       -2    1    3    3    0  502  0.90491307104E+03 -0.35253192229E+03 -0.77146139260E+03  0.12402818642E+04  0.25500000920E-02 0. -1.
</event>
<event>
 5   0  0.1378620E-06  0.3213642E+04  0.7818609E-02  0.8185224E-01
        2   -1    0    0  501    0  0.00000000000E+00  0.00000000000E+00  0.22431838081E+04  0.22431838081E+04  0.25500000920E-02 0. -1.
       -2   -1    0    0    0  501  0.00000000000E+00  0.00000000000E+00 -0.11509861888E+04  0.11509861888E+04  0.25500000920E-02 0.  1.
    10030    2    1    2    0    0  0.00000000000E+00  0.00000000000E+00  0.10921976193E+04  0.33941699969E+04  0.32136419104E+04 0.  0.
        2    1    3    3  502    0 -0.35512742270E+03 -0.10156649833E+04  0.18065294911E+04  0.21026744035E+04  0.25500000920E-02 0. -1.
       -2    1    3    3    0  502  0.35512742270E+03  0.10156649833E+04 -0.71433187186E+03  0.12914955934E+04  0.25500000920E-02 0.  1.
</event>
<event>
 5   0  0.4591195E-07  0.3538254E+04  0.7818609E-02  0.8104784E-01
        1   -1    0    0  501    0  0.00000000000E+00  0.00000000000E+00  0.18577649593E+04  0.18577649593E+04  0.50400001928E-02 0. -1.
       -1   -1    0    0    0  501  0.00000000000E+00  0.00000000000E+00 -0.16847180681E+04  0.16847180682E+04  0.50400001928E-02 0.  1.
    10030    2    1    2    0    0  0.00000000000E+00  0.00000000000E+00  0.17304689115E+03  0.35424830275E+04  0.35382539159E+04 0.  0.
        4    1    3    3  502    0 -0.80451932817E+03 -0.14200439626E+04 -0.59695815262E+03  0.17378540946E+04  0.12699999809E+01 0.  1.
       -4    1    3    3    0  502  0.80451932817E+03  0.14200439626E+04  0.77000504377E+03  0.18046289329E+04  0.12699999809E+01 0. -1.
</event>
<event>
 5   0  0.1442864E-06  0.3505909E+04  0.7818609E-02  0.8112391E-01
        2   -1    0    0  501    0  0.00000000000E+00  0.00000000000E+00  0.18915218661E+04  0.18915218661E+04  0.25500000920E-02 0. -1.
       -2   -1    0    0    0  501  0.00000000000E+00  0.00000000000E+00 -0.16245381535E+04  0.16245381535E+04  0.25500000920E-02 0.  1.
    10030    2    1    2    0    0  0.00000000000E+00  0.00000000000E+00  0.26698371258E+03  0.35160600195E+04  0.35059089774E+04 0.  0.
        1    1    3    3  502    0 -0.11172413137E+04 -0.73311022615E+03  0.12713122490E+04  0.18444277137E+04  0.50400001928E-02 0. -1.
       -1    1    3    3    0  502  0.11172413137E+04  0.73311022615E+03 -0.10043285365E+04  0.16716323058E+04  0.50400001928E-02 0.  1.
</event>
<event>
 5   0  0.4591195E-07  0.3512783E+04  0.7818609E-02  0.8110767E-01
       -1   -1    0    0    0  501  0.00000000000E+00  0.00000000000E+00  0.23984071936E+04  0.23984071936E+04  0.50400001928E-02 0. -1.
        1   -1    0    0  501    0  0.00000000000E+00  0.00000000000E+00 -0.12862332956E+04  0.12862332956E+04  0.50400001928E-02 0.  1.
    10030    2    1    2    0    0  0.00000000000E+00  0.00000000000E+00  0.11121738980E+04  0.36846404892E+04  0.35127830499E+04 0.  0.
        4    1    3    3  502    0 -0.52561359301E+03 -0.93895379333E+03  0.20121671323E+04  0.22818242825E+04  0.12699999809E+01 0. -1.
       -4    1    3    3    0  502  0.52561359301E+03  0.93895379333E+03 -0.89999323426E+03  0.14028162067E+04  0.12699999809E+01 0.  1.
</event>
<event>
 5   0  0.4700769E-07  0.2639360E+04  0.7818609E-02  0.8354953E-01
        1   -1    0    0  501    0  0.00000000000E+00  0.00000000000E+00  0.21816689007E+04  0.21816689007E+04  0.50400001928E-02 0. -1.
       -1   -1    0    0    0  501  0.00000000000E+00  0.00000000000E+00 -0.79826729496E+03  0.79826729498E+03  0.50400001928E-02 0.  1.
    10030    2    1    2    0    0  0.00000000000E+00  0.00000000000E+00  0.13834016057E+04  0.29799361956E+04  0.26393597192E+04 0.  0.
        3    1    3    3  502    0  0.19400896511E+03 -0.65399548089E+03  0.19671661449E+04  0.20820884274E+04  0.10100000352E+00 0. -1.
       -3    1    3    3    0  502 -0.19400896511E+03  0.65399548089E+03 -0.58376453919E+03  0.89784776827E+03  0.10100000352E+00 0.  1.
</event>
<event>
 5   0  0.4557237E-07  0.3511061E+04  0.7818609E-02  0.8111174E-01
        1   -1    0    0  501    0  0.00000000000E+00  0.00000000000E+00  0.22843828701E+04  0.22843828701E+04  0.50400001928E-02 0.  1.
       -1   -1    0    0    0  501  0.00000000000E+00  0.00000000000E+00 -0.13491116170E+04  0.13491116170E+04  0.50400001928E-02 0. -1.
    10030    2    1    2    0    0  0.00000000000E+00  0.00000000000E+00  0.93527125313E+03  0.36334944871E+04  0.35110610748E+04 0.  0.
        2    1    3    3  502    0  0.69296809989E+03  0.15824544378E+04  0.79080811037E+03  0.18999327100E+04  0.25500000920E-02 0.  1.
       -2    1    3    3    0  502 -0.69296809989E+03 -0.15824544378E+04  0.14446314277E+03  0.17335617771E+04  0.25500000920E-02 0. -1.
</event>
<event>
 5   0  0.1442864E-06  0.3452148E+04  0.7818609E-02  0.8125225E-01
       -2   -1    0    0    0  501  0.00000000000E+00  0.00000000000E+00  0.16806735172E+04  0.16806735172E+04  0.25500000920E-02 0. -1.
        2   -1    0    0  501    0  0.00000000000E+00  0.00000000000E+00 -0.17727006668E+04  0.17727006668E+04  0.25500000920E-02 0.  1.
    10030    2    1    2    0    0  0.00000000000E+00  0.00000000000E+00 -0.92027149592E+02  0.34533741840E+04  0.34521477747E+04 0.  0.
        1    1    3    3  502    0 -0.34868143667E+02  0.16798124425E+04  0.34953230278E+03  0.17161463983E+04  0.50400001928E-02 0. -1.
       -1    1    3    3    0  502  0.34868143667E+02 -0.16798124425E+04 -0.44155945238E+03  0.17372277857E+04  0.50400001928E-02 0.  1.
</event>
<event>
 5   0  0.1348388E-06  0.3517493E+04  0.7818609E-02  0.8109657E-01
       -2   -1    0    0    0  501  0.00000000000E+00  0.00000000000E+00  0.20190940592E+04  0.20190940592E+04  0.25500000920E-02 0. -1.
        2   -1    0    0  501    0  0.00000000000E+00  0.00000000000E+00 -0.15319688682E+04  0.15319688682E+04  0.25500000920E-02 0.  1.
    10030    2    1    2    0    0  0.00000000000E+00  0.00000000000E+00  0.48712519097E+03  0.35510629274E+04  0.35174929940E+04 0.  0.
        5    1    3    3  502    0 -0.92539263660E+03  0.97284362120E+03  0.13903575522E+04  0.19328456887E+04  0.46999998093E+01 0. -1.
       -5    1    3    3    0  502  0.92539263660E+03 -0.97284362120E+03 -0.90323236127E+03  0.16182172387E+04  0.46999998093E+01 0.  1.
</event>
<event>
 5   0  0.4409125E-07  0.3418961E+04  0.7818609E-02  0.8133268E-01
       -1   -1    0    0    0  501  0.00000000000E+00  0.00000000000E+00  0.13051750308E+04  0.13051750308E+04  0.50400001928E-02 0. -1.
        1   -1    0    0  501    0  0.00000000000E+00  0.00000000000E+00 -0.22390278690E+04  0.22390278691E+04  0.50400001928E-02 0.  1.
    10030    2    1    2    0    0  0.00000000000E+00  0.00000000000E+00 -0.93385283824E+03  0.35442028999E+04  0.34189608175E+04 0.  0.
        5    1    3    3  502    0  0.14550993748E+04 -0.18288607090E+03 -0.13774759691E+04  0.20120197914E+04  0.46999998093E+01 0.  1.
       -5    1    3    3    0  502 -0.14550993748E+04  0.18288607090E+03  0.44362313085E+03  0.15321831085E+04  0.46999998093E+01 0. -1.
</event>
<event>
 5   0  0.1387133E-06  0.3532513E+04  0.7818609E-02  0.8106128E-01
       -2   -1    0    0    0  501  0.00000000000E+00  0.00000000000E+00  0.15738115776E+04  0.15738115776E+04  0.25500000920E-02 0.  1.
        2   -1    0    0  501    0  0.00000000000E+00  0.00000000000E+00 -0.19822335710E+04  0.19822335710E+04  0.25500000920E-02 0. -1.
    10030    2    1    2    0    0  0.00000000000E+00  0.00000000000E+00 -0.40842199336E+03  0.35560451486E+04  0.35325130678E+04 0.  0.
        4    1    3    3  502    0  0.14286849234E+04 -0.95136824380E+03 -0.62342044055E+03  0.18261699823E+04  0.12699999809E+01 0. -1.
       -4    1    3    3    0  502 -0.14286849234E+04  0.95136824380E+03  0.21499844719E+03  0.17298751663E+04  0.12699999809E+01 0.  1.
</event>
<event>
 5   0  0.4693374E-07  0.3527121E+04  0.7818609E-02  0.8107392E-01
       -1   -1    0    0    0  501  0.00000000000E+00  0.00000000000E+00  0.27117975542E+04  0.27117975542E+04  0.50400001928E-02 0. -1.
        1   -1    0    0  501    0  0.00000000000E+00  0.00000000000E+00 -0.11468946847E+04  0.11468946847E+04  0.50400001928E-02 0.  1.
    10030    2    1    2    0    0  0.00000000000E+00  0.00000000000E+00  0.15649028695E+04  0.38586922389E+04  0.35271213196E+04 0.  0.
        1    1    3    3  502    0 -0.11187882302E+03  0.15123623252E+04  0.17672936434E+04  0.23287514886E+04  0.50400001928E-02 0. -1.
       -1    1    3    3    0  502  0.11187882302E+03 -0.15123623252E+04 -0.20239077391E+03  0.15299407502E+04  0.50400001928E-02 0.  1.
</event>
<event>
 5   0  0.4409125E-07  0.3486764E+04  0.7818609E-02  0.8116934E-01
        1   -1    0    0  501    0  0.00000000000E+00  0.00000000000E+00  0.26152634929E+04  0.26152634929E+04  0.50400001928E-02 0.  1.
       -1   -1    0    0    0  501  0.00000000000E+00  0.00000000000E+00 -0.11621701699E+04  0.11621701700E+04  0.50400001928E-02 0. -1.
    10030    2    1    2    0    0  0.00000000000E+00  0.00000000000E+00  0.14530933230E+04  0.37774336629E+04  0.34867642410E+04 0.  0.
        5    1    3    3  502    0  0.13285364856E+04 -0.11666572831E+03 -0.48988261489E+03  0.14207839921E+04  0.46999998093E+01 0. -1.
       -5    1    3    3    0  502 -0.13285364856E+04  0.11666572831E+03  0.19429759379E+04  0.23566496708E+04  0.46999998093E+01 0.  1.
</event>
<event>
 5   0  0.4557237E-07  0.3594888E+04  0.7818609E-02  0.8091664E-01
       -1   -1    0    0    0  501  0.00000000000E+00  0.00000000000E+00  0.24061878225E+04  0.24061878225E+04  0.50400001928E-02 0.  1.
        1   -1    0    0  501    0  0.00000000000E+00  0.00000000000E+00 -0.13427071319E+04  0.13427071319E+04  0.50400001928E-02 0. -1.
    10030    2    1    2    0    0  0.00000000000E+00  0.00000000000E+00  0.10634806906E+04  0.37488949544E+04  0.35948883432E+04 0.  0.
        2    1    3    3  502    0  0.39580870554E+03 -0.29737611443E+03 -0.12702047973E+04  0.13632744815E+04  0.25500000920E-02 0. -1.
       -2    1    3    3    0  502 -0.39580870554E+03  0.29737611443E+03  0.23336854879E+04  0.23856204730E+04  0.25500000920E-02 0.  1.
</event>
<event>
 5   0  0.4557237E-07  0.3482508E+04  0.7818609E-02  0.8117948E-01
        1   -1    0    0  501    0  0.00000000000E+00  0.00000000000E+00  0.22561277611E+04  0.22561277611E+04  0.50400001928E-02 0.  1.
       -1   -1    0    0    0  501  0.00000000000E+00  0.00000000000E+00 -0.13438800187E+04  0.13438800188E+04  0.50400001928E-02 0. -1.
    10030    2    1    2    0    0  0.00000000000E+00  0.00000000000E+00  0.91224774236E+03  0.36000077799E+04  0.34825077274E+04 0.  0.
        2    1    3    3  502    0  0.68790881401E+03  0.91903534859E+03 -0.89729437203E+03  0.14570455375E+04  0.25500000920E-02 0. -1.
       -2    1    3    3    0  502 -0.68790881401E+03 -0.91903534859E+03  0.18095421144E+04  0.21429622423E+04  0.25500000920E-02 0.  1.
</event>
<event>
 5   0  0.4409125E-07  0.3491894E+04  0.7818609E-02  0.8115714E-01
       -3   -1    0    0    0  501  0.00000000000E+00  0.00000000000E+00  0.10474655108E+04  0.10474655157E+04  0.10100000352E+00 0. -1.
        3   -1    0    0  501    0  0.00000000000E+00  0.00000000000E+00 -0.29101964573E+04  0.29101964591E+04  0.10100000352E+00 0.  1.
    10030    2    1    2    0    0  0.00000000000E+00  0.00000000000E+00 -0.18627309465E+04  0.39576619748E+04  0.34918937165E+04 0.  0.
        2    1    3    3  502    0  0.44008688246E+02  0.33540935271E+02 -0.29092024369E+04  0.29097286089E+04  0.25500000920E-02 0.  1.
       -2    1    3    3    0  502 -0.44008688246E+02 -0.33540935271E+02  0.10464714904E+04  0.10479333658E+04  0.25500000920E-02 0. -1.
</event>
<event>
 5   0  0.4409125E-07  0.3406687E+04  0.7818609E-02  0.8136267E-01
        1   -1    0    0  501    0  0.00000000000E+00  0.00000000000E+00  0.19537306429E+04  0.19537306429E+04  0.50400001928E-02 0. -1.
       -1   -1    0    0    0  501  0.00000000000E+00  0.00000000000E+00 -0.14850456377E+04  0.14850456377E+04  0.50400001928E-02 0.  1.
    10030    2    1    2    0    0  0.00000000000E+00  0.00000000000E+00  0.46868500527E+03  0.34387762806E+04  0.34066870525E+04 0.  0.
        5    1    3    3  502    0  0.96256070152E+03  0.14008632291E+04  0.34682004494E+03  0.17347181685E+04  0.46999998093E+01 0. -1.
       -5    1    3    3    0  502 -0.96256070152E+03 -0.14008632291E+04  0.12186496033E+03  0.17040581120E+04  0.46999998093E+01 0.  1.
</event>
<event>
 5   0  0.4557237E-07  0.3548371E+04  0.7818609E-02  0.8102421E-01
       -1   -1    0    0    0  501  0.00000000000E+00  0.00000000000E+00  0.15322534505E+04  0.15322534505E+04  0.50400001928E-02 0.  1.
        1   -1    0    0  501    0  0.00000000000E+00  0.00000000000E+00 -0.20543163894E+04  0.20543163894E+04  0.50400001928E-02 0. -1.
    10030    2    1    2    0    0  0.00000000000E+00  0.00000000000E+00 -0.52206293886E+03  0.35865698399E+04  0.35483705421E+04 0.  0.
        2    1    3    3  502    0 -0.13260481835E+03 -0.22091919521E+03 -0.20353043849E+04  0.20515489923E+04  0.25500000920E-02 0. -1.
       -2    1    3    3    0  502  0.13260481835E+03  0.22091919521E+03  0.15132414460E+04  0.15350208476E+04  0.25500000920E-02 0.  1.
</event>
<event>
 5   0  0.4557237E-07  0.3544300E+04  0.7818609E-02  0.8103371E-01
       -1   -1    0    0    0  501  0.00000000000E+00  0.00000000000E+00  0.12592122436E+04  0.12592122436E+04  0.50400001928E-02 0. -1.
        1   -1    0    0  501    0  0.00000000000E+00  0.00000000000E+00 -0.24940313564E+04  0.24940313564E+04  0.50400001928E-02 0.  1.
    10030    2    1    2    0    0  0.00000000000E+00  0.00000000000E+00 -0.12348191128E+04  0.37532436001E+04  0.35442995471E+04 0.  0.
        2    1    3    3  502    0  0.57373067237E+03 -0.13476212729E+04  0.43903245760E+03  0.15290518234E+04  0.25500000920E-02 0. -1.
       -2    1    3    3    0  502 -0.57373067237E+03  0.13476212729E+04 -0.16738515704E+04  0.22241917767E+04  0.25500000920E-02 0.  1.
</event>
<event>
 5   0  0.4557237E-07  0.3451291E+04  0.7818609E-02  0.8125431E-01
       -1   -1    0    0    0  501  0.00000000000E+00  0.00000000000E+00  0.20698117717E+04  0.20698117717E+04  0.50400001928E-02 0. -1.
        1   -1    0    0  501    0  0.00000000000E+00  0.00000000000E+00 -0.14387066611E+04  0.14387066611E+04  0.50400001928E-02 0.  1.
    10030    2    1    2    0    0  0.00000000000E+00  0.00000000000E+00  0.63110511058E+03  0.35085184328E+04  0.34512907633E+04 0.  0.
        2    1    3    3  502    0 -0.20156782988E+03  0.17068790436E+04  0.15876706267E+03  0.17260569631E+04  0.25500000920E-02 0.  1.
       -2    1    3    3    0  502  0.20156782988E+03 -0.17068790436E+04  0.47233804791E+03  0.17824614697E+04  0.25500000920E-02 0. -1.
</event>
<event>
 5   0  0.1442864E-06  0.3521291E+04  0.7818609E-02  0.8108763E-01
       -2   -1    0    0    0  501  0.00000000000E+00  0.00000000000E+00  0.15385670159E+04  0.15385670159E+04  0.25500000920E-02 0. -1.
        2   -1    0    0  501    0  0.00000000000E+00  0.00000000000E+00 -0.20147790844E+04  0.20147790844E+04  0.25500000920E-02 0.  1.
    10030    2    1    2    0    0  0.00000000000E+00  0.00000000000E+00 -0.47621206852E+03  0.35533461003E+04  0.35212910380E+04 0.  0.
        1    1    3    3  502    0  0.10064940472E+04  0.29678957663E+03  0.11885383514E+04  0.15854771309E+04  0.50400001928E-02 0. -1.
       -1    1    3    3    0  502 -0.10064940472E+04 -0.29678957663E+03 -0.16647504200E+04  0.19678689694E+04  0.50400001928E-02 0.  1.
</event>
<event>
 5   0  0.4409125E-07  0.3490606E+04  0.7818609E-02  0.8116020E-01
        1   -1    0    0  501    0  0.00000000000E+00  0.00000000000E+00  0.15795123043E+04  0.15795123043E+04  0.50400001928E-02 0. -1.
       -1   -1    0    0    0  501  0.00000000000E+00  0.00000000000E+00 -0.19284950840E+04  0.19284950840E+04  0.50400001928E-02 0.  1.
    10030    2    1    2    0    0  0.00000000000E+00  0.00000000000E+00 -0.34898277971E+03  0.35080073884E+04  0.34906055143E+04 0.  0.
        5    1    3    3  502    0  0.74848494031E+03  0.61284873213E+03  0.12854193646E+04  0.16087691901E+04  0.46999998093E+01 0. -1.
       -5    1    3    3    0  502 -0.74848494031E+03 -0.61284873213E+03 -0.16344021443E+04  0.18992381982E+04  0.46999998093E+01 0.  1.
</event>
<event>
 5   0  0.4557237E-07  0.3448520E+04  0.7818609E-02  0.8126100E-01
       -1   -1    0    0    0  501  0.00000000000E+00  0.00000000000E+00  0.12817887826E+04  0.12817887826E+04  0.50400001928E-02 0. -1.
        1   -1    0    0  501    0  0.00000000000E+00  0.00000000000E+00 -0.23194717889E+04  0.23194717889E+04  0.50400001928E-02 0.  1.
    10030    2    1    2    0    0  0.00000000000E+00  0.00000000000E+00 -0.10376830063E+04  0.36012605715E+04  0.34485202163E+04 0.  0.
        2    1    3    3  502    0  0.45960203429E+03  0.99578270765E+03  0.87059840688E+03  0.14002709798E+04  0.25500000920E-02 0. -1.
       -2    1    3    3    0  502 -0.45960203429E+03 -0.99578270765E+03 -0.19082814132E+04  0.22009895917E+04  0.25500000920E-02 0.  1.
</event>
<event>
 5   0  0.4693374E-07  0.3543820E+04  0.7818609E-02  0.8103483E-01
        1   -1    0    0  501    0  0.00000000000E+00  0.00000000000E+00  0.16825561961E+04  0.16825561961E+04  0.50400001928E-02 0.  1.
       -1   -1    0    0    0  501  0.00000000000E+00  0.00000000000E+00 -0.18660095476E+04  0.18660095476E+04  0.50400001928E-02 0. -1.
    10030    2    1    2    0    0  0.00000000000E+00  0.00000000000E+00 -0.18345335146E+03  0.35485657437E+04  0.35438204956E+04 0.  0.
        1    1    3    3  502    0  0.11893685759E+04  0.12453585813E+04  0.32614533198E+03  0.17526797719E+04  0.50400001928E-02 0.  1.
       -1    1    3    3    0  502 -0.11893685759E+04 -0.12453585813E+04 -0.50959868344E+03  0.17958859717E+04  0.50400001928E-02 0. -1.
</event>
<event>
 5   0  0.1348388E-06  0.3455195E+04  0.7818609E-02  0.8124491E-01
        2   -1    0    0  501    0  0.00000000000E+00  0.00000000000E+00  0.18009743284E+04  0.18009743284E+04  0.25500000920E-02 0.  1.
       -2   -1    0    0    0  501  0.00000000000E+00  0.00000000000E+00 -0.16572105505E+04  0.16572105506E+04  0.25500000920E-02 0. -1.
    10030    2    1    2    0    0  0.00000000000E+00  0.00000000000E+00  0.14376377781E+03  0.34581848789E+04  0.34551953104E+04 0.  0.
        5    1    3    3  502    0  0.13505759252E+04  0.96051733900E+03 -0.41631333624E+03  0.17087971712E+04  0.46999998093E+01 0. -1.
       -5    1    3    3    0  502 -0.13505759252E+04 -0.96051733900E+03  0.56007711405E+03  0.17493877077E+04  0.46999998093E+01 0.  1.
</event>
<event>
 5   0  0.1348388E-06  0.3542771E+04  0.7818609E-02  0.8103728E-01
        2   -1    0    0  501    0  0.00000000000E+00  0.00000000000E+00  0.15502690012E+04  0.15502690012E+04  0.25500000920E-02 0. -1.
       -2   -1    0    0    0  501  0.00000000000E+00  0.00000000000E+00 -0.20240404149E+04  0.20240404149E+04  0.25500000920E-02 0.  1.
    10030    2    1    2    0    0  0.00000000000E+00  0.00000000000E+00 -0.47377141367E+03  0.35743094161E+04  0.35427712951E+04 0.  0.
        5    1    3    3  502    0 -0.10585883956E+04 -0.10924388677E+04  0.67880228681E+03  0.16657811097E+04  0.46999998093E+01 0. -1.
       -5    1    3    3    0  502  0.10585883956E+04  0.10924388677E+04 -0.11525737005E+04  0.19085283063E+04  0.46999998093E+01 0.  1.
</event>
<event>
 5   0  0.1387133E-06  0.3479658E+04  0.7818609E-02  0.8118628E-01
       -2   -1    0    0    0  501  0.00000000000E+00  0.00000000000E+00  0.11317615603E+04  0.11317615604E+04  0.25500000920E-02 0.  1.
        2   -1    0    0  501    0  0.00000000000E+00  0.00000000000E+00 -0.26745954732E+04  0.26745954732E+04  0.25500000920E-02 0. -1.
    10030    2    1    2    0    0  0.00000000000E+00  0.00000000000E+00 -0.15428339128E+04  0.38063570335E+04  0.34796576533E+04 0.  0.
        4    1    3    3  502    0  0.49804933023E+03 -0.14465915868E+04 -0.16776441383E+04  0.22705003462E+04  0.12699999809E+01 0. -1.
       -4    1    3    3    0  502 -0.49804933023E+03  0.14465915868E+04  0.13481022547E+03  0.15358566874E+04  0.12699999809E+01 0.  1.
</event>
<event>
 5   0  0.4409125E-07  0.3470149E+04  0.7818609E-02  0.8120901E-01
       -1   -1    0    0    0  501  0.00000000000E+00  0.00000000000E+00  0.11712983477E+04  0.11712983477E+04  0.50400001928E-02 0.  1.
        1   -1    0    0  501    0  0.00000000000E+00  0.00000000000E+00 -0.25702104182E+04  0.25702104182E+04  0.50400001928E-02 0. -1.
    10030    2    1    2    0    0  0.00000000000E+00  0.00000000000E+00 -0.13989120705E+04  0.37415087659E+04  0.34701488245E+04 0.  0.
        5    1    3    3  502    0 -0.59940806173E+03 -0.10778861356E+04  0.61635799028E+03  0.13787849027E+04  0.46999998093E+01 0.  1.
       -5    1    3    3    0  502  0.59940806173E+03  0.10778861356E+04 -0.20152700608E+04  0.23627238632E+04  0.46999998093E+01 0. -1.
</event>
<event>
 5   0  0.1378620E-06  0.3505746E+04  0.7818609E-02  0.8112430E-01
        2   -1    0    0  501    0  0.00000000000E+00  0.00000000000E+00  0.21976243812E+04  0.21976243812E+04  0.25500000920E-02 0.  1.
       -2   -1    0    0    0  501  0.00000000000E+00  0.00000000000E+00 -0.13981297268E+04  0.13981297268E+04  0.25500000920E-02 0. -1.
    10030    2    1    2    0    0  0.00000000000E+00  0.00000000000E+00  0.79949465442E+03  0.35957541080E+04  0.35057461264E+04 0.  0.
        2    1    3    3  502    0  0.16848058519E+04 -0.29731193469E+03  0.79111816840E+03  0.18848960453E+04  0.25500000920E-02 0.  1.
       -2    1    3    3    0  502 -0.16848058519E+04  0.29731193469E+03  0.83764860168E+01  0.17108580627E+04  0.25500000920E-02 0. -1.
</event>
<event>
 5   0  0.4557237E-07  0.3410184E+04  0.7818609E-02  0.8135411E-01
        1   -1    0    0  501    0  0.00000000000E+00  0.00000000000E+00  0.13517390565E+04  0.13517390565E+04  0.50400001928E-02 0. -1.
       -1   -1    0    0    0  501  0.00000000000E+00  0.00000000000E+00 -0.21508138610E+04  0.21508138610E+04  0.50400001928E-02 0.  1.
    10030    2    1    2    0    0  0.00000000000E+00  0.00000000000E+00 -0.79907480451E+03  0.35025529174E+04  0.34101842174E+04 0.  0.
        2    1    3    3  502    0 -0.47668551542E+03  0.52706081769E+03  0.11923854412E+04  0.13880940986E+04  0.25500000920E-02 0. -1.
       -2    1    3    3    0  502  0.47668551542E+03 -0.52706081769E+03 -0.19914602457E+04  0.21144588188E+04  0.25500000920E-02 0.  1.
</event>
<event>
 5   0  0.1378620E-06  0.3602823E+04  0.7818609E-02  0.8089845E-01
       -2   -1    0    0    0  501  0.00000000000E+00  0.00000000000E+00  0.15126442708E+04  0.15126442708E+04  0.25500000920E-02 0. -1.
        2   -1    0    0  501    0  0.00000000000E+00  0.00000000000E+00 -0.21453053639E+04  0.21453053639E+04  0.25500000920E-02 0.  1.
    10030    2    1    2    0    0  0.00000000000E+00  0.00000000000E+00 -0.63266109310E+03  0.36579496347E+04  0.36028232640E+04 0.  0.
        2    1    3    3  502    0 -0.11851031235E+03 -0.16585939143E+04 -0.10198288575E+04  0.19506484474E+04  0.25500000920E-02 0.  1.
       -2    1    3    3    0  502  0.11851031235E+03  0.16585939143E+04  0.38716776440E+03  0.17073011874E+04  0.25500000920E-02 0. -1.
</event>
<event>
 5   0  0.4409125E-07  0.3497084E+04  0.7818609E-02  0.8114481E-01
       -1   -1    0    0    0  501  0.00000000000E+00  0.00000000000E+00  0.10175361274E+04  0.10175361274E+04  0.50400001928E-02 0. -1.
        1   -1    0    0  501    0  0.00000000000E+00  0.00000000000E+00 -0.30047085010E+04  0.30047085010E+04  0.50400001928E-02 0.  1.
    10030    2    1    2    0    0  0.00000000000E+00  0.00000000000E+00 -0.19871723736E+04  0.40222446283E+04  0.34970841865E+04 0.  0.
        5    1    3    3  502    0  0.15641993908E+04 -0.11065278243E+03 -0.10384618433E+03  0.15715501558E+04  0.46999998093E+01 0. -1.
       -5    1    3    3    0  502 -0.15641993908E+04  0.11065278243E+03 -0.18833261893E+04  0.24506944725E+04  0.46999998093E+01 0.  1.
</event>
<event>
 5   0  0.1387133E-06  0.3523805E+04  0.7818609E-02  0.8108172E-01
       -2   -1    0    0    0  501  0.00000000000E+00  0.00000000000E+00  0.13139038692E+04  0.13139038692E+04  0.25500000920E-02 0.  1.
        2   -1    0    0  501    0  0.00000000000E+00  0.00000000000E+00 -0.23626539507E+04  0.23626539507E+04  0.25500000920E-02 0. -1.
    10030    2    1    2    0    0  0.00000000000E+00  0.00000000000E+00 -0.10487500815E+04  0.36765578199E+04  0.35238048569E+04 0.  0.
        4    1    3    3  502    0 -0.98291912660E+03  0.76060596745E+03  0.77861987936E+03  0.14665953691E+04  0.12699999809E+01 0.  1.
       -4    1    3    3    0  502  0.98291912660E+03 -0.76060596745E+03 -0.18273699609E+04  0.22099624508E+04  0.12699999809E+01 0. -1.
</event>
<event>
 5   0  0.4693374E-07  0.3144408E+04  0.7818609E-02  0.8203655E-01
        1   -1    0    0  501    0  0.00000000000E+00  0.00000000000E+00  0.21600332755E+04  0.21600332755E+04  0.50400001928E-02 0.  1.
       -1   -1    0    0    0  501  0.00000000000E+00  0.00000000000E+00 -0.11443459785E+04  0.11443459785E+04  0.50400001928E-02 0. -1.
    10030    2    1    2    0    0  0.00000000000E+00  0.00000000000E+00  0.10156872971E+04  0.33043792540E+04  0.31444079839E+04 0.  0.
        1    1    3    3  502    0  0.13637630384E+04 -0.68313737969E+03  0.10726994063E+03  0.15290628321E+04  0.50400001928E-02 0.  1.
       -1    1    3    3    0  502 -0.13637630384E+04  0.68313737969E+03  0.90841735643E+03  0.17753164219E+04  0.50400001928E-02 0. -1.
</event>
<event>
 5   0  0.4409125E-07  0.3409609E+04  0.7818609E-02  0.8135552E-01
        1   -1    0    0  501    0  0.00000000000E+00  0.00000000000E+00  0.13991225335E+04  0.13991225335E+04  0.50400001928E-02 0.  1.
       -1   -1    0    0    0  501  0.00000000000E+00  0.00000000000E+00 -0.20772726394E+04  0.20772726394E+04  0.50400001928E-02 0. -1.
    10030    2    1    2    0    0  0.00000000000E+00  0.00000000000E+00 -0.67815010590E+03  0.34763951729E+04  0.34096093371E+04 0.  0.
        5    1    3    3  502    0 -0.36973368920E+03 -0.10298371324E+04 -0.16719958960E+04  0.19982141743E+04  0.46999998093E+01 0. -1.
       -5    1    3    3    0  502  0.36973368920E+03  0.10298371324E+04  0.99384579006E+03  0.14781809986E+04  0.46999998093E+01 0.  1.
</event>
<event>
 5   0  0.4693374E-07  0.3505996E+04  0.7818609E-02  0.8112371E-01
        1   -1    0    0  501    0  0.00000000000E+00  0.00000000000E+00  0.29581514692E+04  0.29581514692E+04  0.50400001928E-02 0.  1.
       -1   -1    0    0    0  501  0.00000000000E+00  0.00000000000E+00 -0.10388248208E+04  0.10388248208E+04  0.50400001928E-02 0. -1.
    10030    2    1    2    0    0  0.00000000000E+00  0.00000000000E+00  0.19193266485E+04  0.39969762900E+04  0.35059955333E+04 0.  0.
        1    1    3    3  502    0 -0.18122950939E+03 -0.75806245335E+03 -0.83041721769E+03  0.11389010377E+04  0.50400001928E-02 0. -1.
       -1    1    3    3    0  502  0.18122950939E+03  0.75806245335E+03  0.27497438662E+04  0.28580752523E+04  0.50400001928E-02 0.  1.
</event>
<event>
 5   0  0.1378620E-06  0.3509033E+04  0.7818609E-02  0.8111653E-01
       -2   -1    0    0    0  501  0.00000000000E+00  0.00000000000E+00  0.15646654919E+04  0.15646654919E+04  0.25500000920E-02 0.  1.
        2   -1    0    0  501    0  0.00000000000E+00  0.00000000000E+00 -0.19674036208E+04  0.19674036208E+04  0.25500000920E-02 0. -1.
    10030    2    1    2    0    0  0.00000000000E+00  0.00000000000E+00 -0.40273812891E+03  0.35320691128E+04  0.35090332311E+04 0.  0.
        2    1    3    3  502    0  0.45374056314E+03 -0.36100180827E+02  0.15041998114E+04  0.15715599875E+04  0.25500000920E-02 0.  1.
       -2    1    3    3    0  502 -0.45374056314E+03  0.36100180827E+02 -0.19069379404E+04  0.19605091252E+04  0.25500000920E-02 0. -1.
</event>
<event>
 5   0  0.1361560E-06  0.3450912E+04  0.7818609E-02  0.8125523E-01
       -2   -1    0    0    0  501  0.00000000000E+00  0.00000000000E+00  0.13336650177E+04  0.13336650177E+04  0.25500000920E-02 0.  1.
        2   -1    0    0  501    0  0.00000000000E+00  0.00000000000E+00 -0.22323430699E+04  0.22323430699E+04  0.25500000920E-02 0. -1.
    10030    2    1    2    0    0  0.00000000000E+00  0.00000000000E+00 -0.89867805214E+03  0.35660080876E+04  0.34509116823E+04 0.  0.
        3    1    3    3  502    0  0.84371377525E+03 -0.10124034046E+04 -0.16002099092E+04  0.20730377112E+04  0.10100000352E+00 0. -1.
       -3    1    3    3    0  502 -0.84371377525E+03  0.10124034046E+04  0.70153185706E+03  0.14929703764E+04  0.10100000352E+00 0.  1.
</event>
<event>
 5   0  0.4409125E-07  0.3509272E+04  0.7818609E-02  0.8111596E-01
       -1   -1    0    0    0  501  0.00000000000E+00  0.00000000000E+00  0.13419576757E+04  0.13419576757E+04  0.50400001928E-02 0.  1.
        1   -1    0    0  501    0  0.00000000000E+00  0.00000000000E+00 -0.22942204840E+04  0.22942204840E+04  0.50400001928E-02 0. -1.
    10030    2    1    2    0    0  0.00000000000E+00  0.00000000000E+00 -0.95226280826E+03  0.36361781597E+04  0.35092715987E+04 0.  0.
        5    1    3    3  502    0 -0.16527583172E+04 -0.35235676976E+03  0.13130067490E+02  0.16899585311E+04  0.46999998093E+01 0.  1.
       -5    1    3    3    0  502  0.16527583172E+04  0.35235676976E+03 -0.96539287575E+03  0.19462196286E+04  0.46999998093E+01 0. -1.
</event>
<event>
 5   0  0.1348388E-06  0.3491086E+04  0.7818609E-02  0.8115906E-01
        2   -1    0    0  501    0  0.00000000000E+00  0.00000000000E+00  0.18193902827E+04  0.18193902827E+04  0.25500000920E-02 0. -1.
       -2   -1    0    0    0  501  0.00000000000E+00  0.00000000000E+00 -0.16746927203E+04  0.16746927203E+04  0.25500000920E-02 0.  1.
    10030    2    1    2    0    0  0.00000000000E+00  0.00000000000E+00  0.14469756234E+03  0.34940830030E+04  0.34910855973E+04 0.  0.
        5    1    3    3  502    0  0.40467790793E+03 -0.11336248775E+04  0.13375654719E+04  0.17994368713E+04  0.46999998093E+01 0. -1.
       -5    1    3    3    0  502 -0.40467790793E+03  0.11336248775E+04 -0.11928679096E+04  0.16946461317E+04  0.46999998093E+01 0.  1.
</event>
<event>
 5   0  0.1348388E-06  0.3538057E+04  0.7818609E-02  0.8104830E-01
       -2   -1    0    0    0  501  0.00000000000E+00  0.00000000000E+00  0.18318697676E+04  0.18318697676E+04  0.25500000920E-02 0. -1.
        2   -1    0    0  501    0  0.00000000000E+00  0.00000000000E+00 -0.17083432700E+04  0.17083432700E+04  0.25500000920E-02 0.  1.
    10030    2    1    2    0    0  0.00000000000E+00  0.00000000000E+00  0.12352649753E+03  0.35402130376E+04  0.35380573139E+04 0.  0.
        5    1    3    3  502    0  0.80685286088E+03 -0.36815694036E+03 -0.14698193061E+04  0.17166659415E+04  0.46999998093E+01 0.  1.
       -5    1    3    3    0  502 -0.80685286088E+03  0.36815694036E+03  0.15933458037E+04  0.18235470962E+04  0.46999998093E+01 0. -1.
</event>
<event>
 5   0  0.1348388E-06  0.3503314E+04  0.7818609E-02  0.8113005E-01
        2   -1    0    0  501    0  0.00000000000E+00  0.00000000000E+00  0.22627137612E+04  0.22627137612E+04  0.25500000920E-02 0. -1.
       -2   -1    0    0    0  501  0.00000000000E+00  0.00000000000E+00 -0.13560277346E+04  0.13560277346E+04  0.25500000920E-02 0.  1.
    10030    2    1    2    0    0  0.00000000000E+00  0.00000000000E+00  0.90668602665E+03  0.36187414958E+04  0.35033142113E+04 0.  0.
        5    1    3    3  502    0 -0.67054945591E+03  0.48772879830E+03  0.20471535561E+04  0.22087045356E+04  0.46999998093E+01 0. -1.
       -5    1    3    3    0  502  0.67054945591E+03 -0.48772879830E+03 -0.11404675294E+04  0.14100369602E+04  0.46999998093E+01 0.  1.
</event>
<event>
 5   0  0.4693374E-07  0.3171720E+04  0.7818609E-02  0.8196326E-01
        1   -1    0    0  501    0  0.00000000000E+00  0.00000000000E+00  0.19058317107E+04  0.19058317107E+04  0.50400001928E-02 0.  1.
       -1   -1    0    0    0  501  0.00000000000E+00  0.00000000000E+00 -0.13196085874E+04  0.13196085874E+04  0.50400001928E-02 0. -1.
    10030    2    1    2    0    0  0.00000000000E+00  0.00000000000E+00  0.58622312330E+03  0.32254402981E+04  0.31717199697E+04 0.  0.
        1    1    3    3  502    0  0.70144583766E+03  0.12620791025E+04  0.96002549041E+03  0.17339316210E+04  0.50400001928E-02 0.  1.
       -1    1    3    3    0  502 -0.70144583766E+03 -0.12620791025E+04 -0.37380236711E+03  0.14915086771E+04  0.50400001928E-02 0. -1.
</event>
<event>
 5   0  0.1387133E-06  0.3444075E+04  0.7818609E-02  0.8127173E-01
        2   -1    0    0  501    0  0.00000000000E+00  0.00000000000E+00  0.16915559184E+04  0.16915559184E+04  0.25500000920E-02 0. -1.
       -2   -1    0    0    0  501  0.00000000000E+00  0.00000000000E+00 -0.17530684150E+04  0.17530684150E+04  0.25500000920E-02 0.  1.
    10030    2    1    2    0    0  0.00000000000E+00  0.00000000000E+00 -0.61512496583E+02  0.34446243333E+04  0.34440750588E+04 0.  0.
        4    1    3    3  502    0  0.33858489853E+03  0.71011062480E+03 -0.15628343563E+04  0.17496713038E+04  0.12699999809E+01 0.  1.
       -4    1    3    3    0  502 -0.33858489853E+03 -0.71011062480E+03  0.15013218597E+04  0.16949530296E+04  0.12699999809E+01 0. -1.
</event>
<event>
 5   0  0.4693374E-07  0.3512202E+04  0.7818609E-02  0.8110904E-01
       -1   -1    0    0    0  501  0.00000000000E+00  0.00000000000E+00  0.98080075606E+03  0.98080075607E+03  0.50400001928E-02 0.  1.
        1   -1    0    0  501    0  0.00000000000E+00  0.00000000000E+00 -0.31442582398E+04  0.31442582398E+04  0.50400001928E-02 0. -1.
    10030    2    1    2    0    0  0.00000000000E+00  0.00000000000E+00 -0.21634574838E+04  0.41250589959E+04  0.35122020778E+04 0.  0.
        1    1    3    3  502    0  0.42327113602E+03  0.92284418603E+03 -0.27646150211E+04  0.29451478844E+04  0.50400001928E-02 0. -1.
       -1    1    3    3    0  502 -0.42327113602E+03 -0.92284418603E+03  0.60115753732E+03  0.11799111115E+04  0.50400001928E-02 0.  1.
</event>
<event>
 5   0  0.4700769E-07  0.3470306E+04  0.7818609E-02  0.8120863E-01
        1   -1    0    0  501    0  0.00000000000E+00  0.00000000000E+00  0.21902308269E+04  0.21902308269E+04  0.50400001928E-02 0. -1.
       -1   -1    0    0    0  501  0.00000000000E+00  0.00000000000E+00 -0.13746294608E+04  0.13746294608E+04  0.50400001928E-02 0.  1.
    10030    2    1    2    0    0  0.00000000000E+00  0.00000000000E+00  0.81560136614E+03  0.35648602877E+04  0.34703059349E+04 0.  0.
        3    1    3    3  502    0  0.44544090944E+03  0.13696815011E+04 -0.58619561161E+03  0.15550145734E+04  0.10100000352E+00 0.  1.
       -3    1    3    3    0  502 -0.44544090944E+03 -0.13696815011E+04  0.14017969778E+04  0.20098457143E+04  0.10100000352E+00 0. -1.
</event>
<event>
 5   0  0.4591195E-07  0.3471891E+04  0.7818609E-02  0.8120484E-01
        1   -1    0    0  501    0  0.00000000000E+00  0.00000000000E+00  0.24770960454E+04  0.24770960454E+04  0.50400001928E-02 0. -1.
       -1   -1    0    0    0  501  0.00000000000E+00  0.00000000000E+00 -0.12165483046E+04  0.12165483046E+04  0.50400001928E-02 0.  1.
    10030    2    1    2    0    0  0.00000000000E+00  0.00000000000E+00  0.12605477408E+04  0.36936443501E+04  0.34718911242E+04 0.  0.
        4    1    3    3  502    0 -0.12345831336E+03 -0.17191698671E+04  0.41038844702E+03  0.17717808209E+04  0.12699999809E+01 0.  1.
       -4    1    3    3    0  502  0.12345831336E+03  0.17191698671E+04  0.85015929378E+03  0.19218635292E+04  0.12699999809E+01 0. -1.
</event>
<event>
 5   0  0.1387133E-06  0.3556585E+04  0.7818609E-02  0.8100510E-01
       -2   -1    0    0    0  501  0.00000000000E+00  0.00000000000E+00  0.16056892001E+04  0.16056892001E+04  0.25500000920E-02 0. -1.
        2   -1    0    0  501    0  0.00000000000E+00  0.00000000000E+00 -0.19694493056E+04  0.19694493056E+04  0.25500000920E-02 0.  1.
    10030    2    1    2    0    0  0.00000000000E+00  0.00000000000E+00 -0.36376010554E+03  0.35751385057E+04  0.35565845864E+04 0.  0.
        4    1    3    3  502    0 -0.93701092406E+03  0.73667894375E+03 -0.15084754684E+04  0.19225465377E+04  0.12699999809E+01 0.  1.
       -4    1    3    3    0  502  0.93701092406E+03 -0.73667894375E+03  0.11447153628E+04  0.16525919680E+04  0.12699999809E+01 0. -1.
</event>
<event>
 5   0  0.4591195E-07  0.3496336E+04  0.7818609E-02  0.8114659E-01
       -1   -1    0    0    0  501  0.00000000000E+00  0.00000000000E+00  0.14660465183E+04  0.14660465183E+04  0.50400001928E-02 0.  1.
        1   -1    0    0  501    0  0.00000000000E+00  0.00000000000E+00 -0.20845800407E+04  0.20845800407E+04  0.50400001928E-02 0. -1.
    10030    2    1    2    0    0  0.00000000000E+00  0.00000000000E+00 -0.61853352241E+03  0.35506265590E+04  0.34963359740E+04 0.  0.
        4    1    3    3  502    0  0.73869609178E+03 -0.45441547409E+03  0.12321708331E+04  0.15067886096E+04  0.12699999809E+01 0.  1.
       -4    1    3    3    0  502 -0.73869609178E+03  0.45441547409E+03 -0.18507043555E+04  0.20438379494E+04  0.12699999809E+01 0. -1.
</event>
<event>
 5   0  0.4700769E-07  0.3451786E+04  0.7818609E-02  0.8125312E-01
        1   -1    0    0  501    0  0.00000000000E+00  0.00000000000E+00  0.18555669011E+04  0.18555669011E+04  0.50400001928E-02 0.  1.
       -1   -1    0    0    0  501  0.00000000000E+00  0.00000000000E+00 -0.16052815446E+04  0.16052815446E+04  0.50400001928E-02 0. -1.
    10030    2    1    2    0    0  0.00000000000E+00  0.00000000000E+00  0.25028535653E+03  0.34608484457E+04  0.34517863787E+04 0.  0.
        3    1    3    3  502    0 -0.10915577817E+04  0.52486969536E+03  0.13578910888E+04  0.18195754470E+04  0.10100000352E+00 0.  1.
       -3    1    3    3    0  502  0.10915577817E+04 -0.52486969536E+03 -0.11076057323E+04  0.16412729987E+04  0.10100000352E+00 0. -1.
</event>
<event>
 5   0  0.1442864E-06  0.3456391E+04  0.7818609E-02  0.8124203E-01
        2   -1    0    0  501    0  0.00000000000E+00  0.00000000000E+00  0.24193655947E+04  0.24193655948E+04  0.25500000920E-02 0.  1.
       -2   -1    0    0    0  501  0.00000000000E+00  0.00000000000E+00 -0.12344806529E+04  0.12344806529E+04  0.25500000920E-02 0. -1.
    10030    2    1    2    0    0  0.00000000000E+00  0.00000000000E+00  0.11848849418E+04  0.36538462477E+04  0.34563911926E+04 0.  0.
        1    1    3    3  502    0 -0.43565072379E+03 -0.73463384502E+03  0.21806623492E+04  0.23419578819E+04  0.50400001928E-02 0.  1.
       -1    1    3    3    0  502  0.43565072379E+03  0.73463384502E+03 -0.99577740734E+03  0.13118883658E+04  0.50400001928E-02 0. -1.
</event>
<event>
 5   0  0.1348388E-06  0.3432442E+04  0.7818609E-02  0.8129990E-01
       -2   -1    0    0    0  501  0.00000000000E+00  0.00000000000E+00  0.27571810905E+04  0.27571810905E+04  0.25500000920E-02 0. -1.
        2   -1    0    0  501    0  0.00000000000E+00  0.00000000000E+00 -0.10682702790E+04  0.10682702790E+04  0.25500000920E-02 0.  1.
    10030    2    1    2    0    0  0.00000000000E+00  0.00000000000E+00  0.16889108115E+04  0.38254513696E+04  0.34324420537E+04 0.  0.
        5    1    3    3  502    0 -0.12607933304E+04  0.98003650554E+03  0.15451915121E+04  0.22220959189E+04  0.46999998093E+01 0. -1.
       -5    1    3    3    0  502  0.12607933304E+04 -0.98003650554E+03  0.14371929944E+03  0.16033554506E+04  0.46999998093E+01 0.  1.
</event>
<event>
 5   0  0.4591195E-07  0.3490483E+04  0.7818609E-02  0.8116049E-01
       -1   -1    0    0    0  501  0.00000000000E+00  0.00000000000E+00  0.23417758884E+04  0.23417758884E+04  0.50400001928E-02 0.  1.
        1   -1    0    0  501    0  0.00000000000E+00  0.00000000000E+00 -0.13006659320E+04  0.13006659320E+04  0.50400001928E-02 0. -1.
    10030    2    1    2    0    0  0.00000000000E+00  0.00000000000E+00  0.10411099564E+04  0.36424418204E+04  0.34904831290E+04 0.  0.
        4    1    3    3  502    0 -0.52395006822E+03  0.13178615160E+04 -0.54087152885E+03  0.15178360495E+04  0.12699999809E+01 0. -1.
       -4    1    3    3    0  502  0.52395006822E+03 -0.13178615160E+04  0.15819814852E+04  0.21246057709E+04  0.12699999809E+01 0.  1.
</event>
<event>
 5   0  0.1387133E-06  0.3422777E+04  0.7818609E-02  0.8132339E-01
        2   -1    0    0  501    0  0.00000000000E+00  0.00000000000E+00  0.19557385836E+04  0.19557385836E+04  0.25500000920E-02 0.  1.
       -2   -1    0    0    0  501  0.00000000000E+00  0.00000000000E+00 -0.14975676463E+04  0.14975676463E+04  0.25500000920E-02 0. -1.
    10030    2    1    2    0    0  0.00000000000E+00  0.00000000000E+00  0.45817093735E+03  0.34533062299E+04  0.34227771341E+04 0.  0.
        4    1    3    3  502    0 -0.11496698565E+04 -0.16496179493E+02  0.15080022583E+04  0.18963347086E+04  0.12699999809E+01 0.  1.
       -4    1    3    3    0  502  0.11496698565E+04  0.16496179493E+02 -0.10498313210E+04  0.15569715214E+04  0.12699999809E+01 0. -1.
</event>
<event>
 5   0  0.1378620E-06  0.3563517E+04  0.7818609E-02  0.8098900E-01
        2   -1    0    0  501    0  0.00000000000E+00  0.00000000000E+00  0.22173950182E+04  0.22173950182E+04  0.25500000920E-02 0. -1.
       -2   -1    0    0    0  501  0.00000000000E+00  0.00000000000E+00 -0.14317089164E+04  0.14317089164E+04  0.25500000920E-02 0.  1.
    10030    2    1    2    0    0  0.00000000000E+00  0.00000000000E+00  0.78568610178E+03  0.36491039346E+04  0.35635174863E+04 0.  0.
        2    1    3    3  502    0  0.97690389440E+03 -0.13895352124E+04 -0.15814577810E+03  0.17059189350E+04  0.25500000920E-02 0. -1.
       -2    1    3    3    0  502 -0.97690389440E+03  0.13895352124E+04  0.94383187987E+03  0.19431849997E+04  0.25500000920E-02 0.  1.
</event>
<event>
 5   0  0.4693374E-07  0.3484469E+04  0.7818609E-02  0.8117481E-01
        1   -1    0    0  501    0  0.00000000000E+00  0.00000000000E+00  0.18455411270E+04  0.18455411270E+04  0.50400001928E-02 0. -1.
       -1   -1    0    0    0  501  0.00000000000E+00  0.00000000000E+00 -0.16447102723E+04  0.16447102723E+04  0.50400001928E-02 0.  1.
    10030    2    1    2    0    0  0.00000000000E+00  0.00000000000E+00  0.20083085469E+03  0.34902513993E+04  0.34844686536E+04 0.  0.
        1    1    3    3  502    0 -0.84542139996E+03  0.34539538597E+03 -0.13857399487E+04  0.16596115575E+04  0.50400001928E-02 0.  1.
       -1    1    3    3    0  502  0.84542139996E+03 -0.34539538597E+03  0.15865708034E+04  0.18306398418E+04  0.50400001928E-02 0. -1.
</event>
<event>
 5   0  0.1378620E-06  0.3464651E+04  0.7818609E-02  0.8122219E-01
        2   -1    0    0  501    0  0.00000000000E+00  0.00000000000E+00  0.27317906908E+04  0.27317906908E+04  0.25500000920E-02 0. -1.
       -2   -1    0    0    0  501  0.00000000000E+00  0.00000000000E+00 -0.10985289925E+04  0.10985289925E+04  0.25500000920E-02 0.  1.
    10030    2    1    2    0    0  0.00000000000E+00  0.00000000000E+00  0.16332616983E+04  0.38303196832E+04  0.34646507906E+04 0.  0.
        2    1    3    3  502    0 -0.70053202309E+03  0.11199433380E+04 -0.42233348372E+03  0.13868611204E+04  0.25500000920E-02 0.  1.
       -2    1    3    3    0  502  0.70053202309E+03 -0.11199433380E+04  0.20555951821E+04  0.24434585628E+04  0.25500000920E-02 0. -1.
</event>
<event>
 5   0  0.4557237E-07  0.3596301E+04  0.7818609E-02  0.8091340E-01
        1   -1    0    0  501    0  0.00000000000E+00  0.00000000000E+00  0.27547755956E+04  0.27547755956E+04  0.50400001928E-02 0.  1.
       -1   -1    0    0    0  501  0.00000000000E+00  0.00000000000E+00 -0.11737234437E+04  0.11737234437E+04  0.50400001928E-02 0. -1.
    10030    2    1    2    0    0  0.00000000000E+00  0.00000000000E+00  0.15810521519E+04  0.39284990393E+04  0.35963007098E+04 0.  0.
        2    1    3    3  502    0  0.35598942459E+03 -0.19002368379E+03  0.27046749602E+04  0.27346122415E+04  0.25500000920E-02 0.  1.
       -2    1    3    3    0  502 -0.35598942459E+03  0.19002368379E+03 -0.11236228083E+04  0.11938867979E+04  0.25500000920E-02 0. -1.
</event>
<event>
 5   0  0.4693374E-07  0.4028920E+04  0.7818609E-02  0.7998738E-01
        1   -1    0    0  501    0  0.00000000000E+00  0.00000000000E+00  0.11971458507E+04  0.11971458507E+04  0.50400001928E-02 0. -1.
       -1   -1    0    0    0  501  0.00000000000E+00  0.00000000000E+00 -0.33897695658E+04  0.33897695658E+04  0.50400001928E-02 0.  1.
    10030    2    1    2    0    0  0.00000000000E+00  0.00000000000E+00 -0.21926237151E+04  0.45869154166E+04  0.40289197414E+04 0.  0.
        1    1    3    3  502    0 -0.18491159303E+04  0.52791066501E+03 -0.41309075842E+03  0.19668663831E+04  0.50400001928E-02 0. -1.
       -1    1    3    3    0  502  0.18491159303E+04 -0.52791066501E+03 -0.17795329567E+04  0.26200490335E+04  0.50400001928E-02 0.  1.
</event>
<event>
 5   0  0.1442864E-06  0.3485319E+04  0.7818609E-02  0.8117278E-01
        2   -1    0    0  501    0  0.00000000000E+00  0.00000000000E+00  0.22453881582E+04  0.22453881582E+04  0.25500000920E-02 0.  1.
       -2   -1    0    0    0  501  0.00000000000E+00  0.00000000000E+00 -0.13524884100E+04  0.13524884100E+04  0.25500000920E-02 0. -1.
    10030    2    1    2    0    0  0.00000000000E+00  0.00000000000E+00  0.89289974818E+03  0.35978765682E+04  0.34853186138E+04 0.  0.
        1    1    3    3  502    0  0.39278989883E+03 -0.16699562122E+04  0.13025101835E+03  0.17204659204E+04  0.50400001928E-02 0. -1.
       -1    1    3    3    0  502 -0.39278989883E+03  0.16699562122E+04  0.76264872982E+03  0.18774106478E+04  0.50400001928E-02 0.  1.
</event>
<event>
 5   0  0.1378620E-06  0.2769038E+04  0.7818609E-02  0.8312946E-01
        2   -1    0    0  501    0  0.00000000000E+00  0.00000000000E+00  0.14044913617E+04  0.14044913617E+04  0.25500000920E-02 0. -1.
       -2   -1    0    0    0  501  0.00000000000E+00  0.00000000000E+00 -0.13648303571E+04  0.13648303571E+04  0.25500000920E-02 0.  1.
    10030    2    1    2    0    0  0.00000000000E+00  0.00000000000E+00  0.39661004528E+02  0.27693217188E+04  0.27690377005E+04 0.  0.
        2    1    3    3  502    0 -0.13839312116E+04 -0.39953354853E+02  0.14300226246E+02  0.13845816572E+04  0.25500000920E-02 0.  1.
       -2    1    3    3    0  502  0.13839312116E+04  0.39953354853E+02  0.25360778282E+02  0.13847400616E+04  0.25500000920E-02 0. -1.
</event>
<event>
 5   0  0.4693374E-07  0.3446407E+04  0.7818609E-02  0.8126609E-01
        1   -1    0    0  501    0  0.00000000000E+00  0.00000000000E+00  0.15704233971E+04  0.15704233971E+04  0.50400001928E-02 0.  1.
       -1   -1    0    0    0  501  0.00000000000E+00  0.00000000000E+00 -0.18908473070E+04  0.18908473070E+04  0.50400001928E-02 0. -1.
    10030    2    1    2    0    0  0.00000000000E+00  0.00000000000E+00 -0.32042390992E+03  0.34612707041E+04  0.34464073185E+04 0.  0.
        1    1    3    3  502    0  0.60898410196E+01  0.12125690387E+04  0.10694335667E+04  0.16168020638E+04  0.50400001928E-02 0. -1.
       -1    1    3    3    0  502 -0.60898410196E+01 -0.12125690387E+04 -0.13898574766E+04  0.18444686403E+04  0.50400001928E-02 0.  1.
</event>
<event>
 5   0  0.4557237E-07  0.3459629E+04  0.7818609E-02  0.8123425E-01
       -1   -1    0    0    0  501  0.00000000000E+00  0.00000000000E+00  0.22915400356E+04  0.22915400356E+04  0.50400001928E-02 0. -1.
        1   -1    0    0  501    0  0.00000000000E+00  0.00000000000E+00 -0.13057847208E+04  0.13057847209E+04  0.50400001928E-02 0.  1.
    10030    2    1    2    0    0  0.00000000000E+00  0.00000000000E+00  0.98575531474E+03  0.35973247564E+04  0.34596288620E+04 0.  0.
        2    1    3    3  502    0  0.45235270302E+03 -0.16550304160E+04  0.26386329095E+03  0.17359068184E+04  0.25500000920E-02 0. -1.
       -2    1    3    3    0  502 -0.45235270302E+03  0.16550304160E+04  0.72189202378E+03  0.18614179380E+04  0.25500000920E-02 0.  1.
</event>
<event>
 5   0  0.1442864E-06  0.3455086E+04  0.7818609E-02  0.8124517E-01
       -2   -1    0    0    0  501  0.00000000000E+00  0.00000000000E+00  0.11677372448E+04  0.11677372448E+04  0.25500000920E-02 0.  1.
        2   -1    0    0  501    0  0.00000000000E+00  0.00000000000E+00 -0.25557160274E+04  0.25557160274E+04  0.25500000920E-02 0. -1.
    10030    2    1    2    0    0  0.00000000000E+00  0.00000000000E+00 -0.13879787826E+04  0.37234532722E+04  0.34550859858E+04 0.  0.
        1    1    3    3  502    0  0.14782778025E+04 -0.48884925639E+03  0.11255799675E+03  0.15610727592E+04  0.50400001928E-02 0.  1.
       -1    1    3    3    0  502 -0.14782778025E+04  0.48884925639E+03 -0.15005367794E+04  0.21623805130E+04  0.50400001928E-02 0. -1.
</event>
<event>
 5   0  0.4557237E-07  0.3492543E+04  0.7818609E-02  0.8115560E-01
        1   -1    0    0  501    0  0.00000000000E+00  0.00000000000E+00  0.15523389322E+04  0.15523389322E+04  0.50400001928E-02 0.  1.
       -1   -1    0    0    0  501  0.00000000000E+00  0.00000000000E+00 -0.19644315023E+04  0.19644315023E+04  0.50400001928E-02 0. -1.
    10030    2    1    2    0    0  0.00000000000E+00  0.00000000000E+00 -0.41209257015E+03  0.35167704345E+04  0.34925426271E+04 0.  0.
        2    1    3    3  502    0  0.96112929143E+03  0.74015568169E+03  0.10587978939E+04  0.16101717076E+04  0.25500000920E-02 0.  1.
       -2    1    3    3    0  502 -0.96112929143E+03 -0.74015568169E+03 -0.14708904640E+04  0.19065987268E+04  0.25500000920E-02 0. -1.
</event>
<event>
 5   0  0.4700769E-07  0.3553940E+04  0.7818609E-02  0.8101125E-01
        1   -1    0    0  501    0  0.00000000000E+00  0.00000000000E+00  0.23328968853E+04  0.23328968853E+04  0.50400001928E-02 0. -1.
       -1   -1    0    0    0  501  0.00000000000E+00  0.00000000000E+00 -0.13535195563E+04  0.13535195563E+04  0.50400001928E-02 0.  1.
    10030    2    1    2    0    0  0.00000000000E+00  0.00000000000E+00  0.97937732901E+03  0.36864164416E+04  0.35539395364E+04 0.  0.
        3    1    3    3  502    0 -0.69828345641E+03 -0.14403133150E+04  0.12901535513E+04  0.20558692631E+04  0.10100000352E+00 0. -1.
       -3    1    3    3    0  502  0.69828345641E+03  0.14403133150E+04 -0.31077622228E+03  0.16305471785E+04  0.10100000352E+00 0.  1.
</event>
<event>
 5   0  0.1387133E-06  0.3481045E+04  0.7818609E-02  0.8118297E-01
        2   -1    0    0  501    0  0.00000000000E+00  0.00000000000E+00  0.23997477864E+04  0.23997477864E+04  0.25500000920E-02 0. -1.
       -2   -1    0    0    0  501  0.00000000000E+00  0.00000000000E+00 -0.12623903948E+04  0.12623903948E+04  0.25500000920E-02 0.  1.
    10030    2    1    2    0    0  0.00000000000E+00  0.00000000000E+00  0.11373573916E+04  0.36621381811E+04  0.34810449899E+04 0.  0.
        4    1    3    3  502    0 -0.12791807734E+04  0.40185691702E+03 -0.59884109864E+03  0.14684701928E+04  0.12699999809E+01 0. -1.
       -4    1    3    3    0  502  0.12791807734E+04 -0.40185691702E+03  0.17361984903E+04  0.21936679884E+04  0.12699999809E+01 0.  1.
</event>
<event>
 5   0  0.1387133E-06  0.3512618E+04  0.7818609E-02  0.8110806E-01
        2   -1    0    0  501    0  0.00000000000E+00  0.00000000000E+00  0.22805614764E+04  0.22805614764E+04  0.25500000920E-02 0.  1.
       -2   -1    0    0    0  501  0.00000000000E+00  0.00000000000E+00 -0.13525712983E+04  0.13525712983E+04  0.25500000920E-02 0. -1.
    10030    2    1    2    0    0  0.00000000000E+00  0.00000000000E+00  0.92799017808E+03  0.36331327748E+04  0.35126183949E+04 0.  0.
        4    1    3    3  502    0 -0.12036527959E+04 -0.12395645960E+04  0.13803192098E+03  0.17333074929E+04  0.12699999809E+01 0. -1.
       -4    1    3    3    0  502  0.12036527959E+04  0.12395645960E+04  0.78995825710E+03  0.18998252819E+04  0.12699999809E+01 0.  1.
</event>
<event>
 5   0  0.1387133E-06  0.3486528E+04  0.7818609E-02  0.8116990E-01
        2   -1    0    0  501    0  0.00000000000E+00  0.00000000000E+00  0.24735278705E+04  0.24735278705E+04  0.25500000920E-02 0. -1.
       -2   -1    0    0    0  501  0.00000000000E+00  0.00000000000E+00 -0.12285974311E+04  0.12285974311E+04  0.25500000920E-02 0.  1.
    10030    2    1    2    0    0  0.00000000000E+00  0.00000000000E+00  0.12449304393E+04  0.37021253016E+04  0.34865283521E+04 0.  0.
        4    1    3    3  502    0  0.84201282423E+03 -0.88796937621E+03  0.19408091204E+04  0.22943881241E+04  0.12699999809E+01 0. -1.
       -4    1    3    3    0  502 -0.84201282423E+03  0.88796937621E+03 -0.69587868109E+03  0.14077371775E+04  0.12699999809E+01 0.  1.
</event>
<event>
 5   0  0.1361560E-06  0.3570009E+04  0.7818609E-02  0.8097396E-01
       -2   -1    0    0    0  501  0.00000000000E+00  0.00000000000E+00  0.16911056977E+04  0.16911056977E+04  0.25500000920E-02 0. -1.
        2   -1    0    0  501    0  0.00000000000E+00  0.00000000000E+00 -0.18841165804E+04  0.18841165804E+04  0.25500000920E-02 0.  1.
    10030    2    1    2    0    0  0.00000000000E+00  0.00000000000E+00 -0.19301088272E+03  0.35752222781E+04  0.35700085626E+04 0.  0.
        3    1    3    3  502    0  0.16352515147E+04  0.69685416251E+03  0.66787997893E+02  0.17787956282E+04  0.10100000352E+00 0.  1.
       -3    1    3    3    0  502 -0.16352515147E+04 -0.69685416251E+03 -0.25979888061E+03  0.17964266499E+04  0.10100000352E+00 0. -1.
</event>
<event>
 5   0  0.4693374E-07  0.3465823E+04  0.7818609E-02  0.8121937E-01
        1   -1    0    0  501    0  0.00000000000E+00  0.00000000000E+00  0.20498543773E+04  0.20498543773E+04  0.50400001928E-02 0.  1.
       -1   -1    0    0    0  501  0.00000000000E+00  0.00000000000E+00 -0.14649736476E+04  0.14649736476E+04  0.50400001928E-02 0. -1.
    10030    2    1    2    0    0  0.00000000000E+00  0.00000000000E+00  0.58488072970E+03  0.35148280249E+04  0.34658232177E+04 0.  0.
        1    1    3    3  502    0  0.15535014058E+04  0.60988435791E+03 -0.18069356027E+03  0.16786827307E+04  0.50400001928E-02 0. -1.
       -1    1    3    3    0  502 -0.15535014058E+04 -0.60988435791E+03  0.76557428997E+03  0.18361452942E+04  0.50400001928E-02 0.  1.
</event>
<event>
 5   0  0.1378620E-06  0.3497102E+04  0.7818609E-02  0.8114477E-01
        2   -1    0    0  501    0  0.00000000000E+00  0.00000000000E+00  0.17277848547E+04  0.17277848547E+04  0.25500000920E-02 0. -1.
       -2   -1    0    0    0  501  0.00000000000E+00  0.00000000000E+00 -0.17695664444E+04  0.17695664444E+04  0.25500000920E-02 0.  1.
    10030    2    1    2    0    0  0.00000000000E+00  0.00000000000E+00 -0.41781589665E+02  0.34973512991E+04  0.34971017154E+04 0.  0.
        2    1    3    3  502    0 -0.10869586466E+04 -0.11853595037E+04 -0.70714225268E+03  0.17568740472E+04  0.25500000920E-02 0.  1.
       -2    1    3    3    0  502  0.10869586466E+04  0.11853595037E+04  0.66536066301E+03  0.17404772519E+04  0.25500000920E-02 0. -1.
</event>
<event>
 5   0  0.1442864E-06  0.3252955E+04  0.7818609E-02  0.8174970E-01
       -2   -1    0    0    0  501  0.00000000000E+00  0.00000000000E+00  0.93018017926E+03  0.93018017926E+03  0.25500000920E-02 0. -1.
        2   -1    0    0  501    0  0.00000000000E+00  0.00000000000E+00 -0.28439960027E+04  0.28439960027E+04  0.25500000920E-02 0.  1.
    10030    2    1    2    0    0  0.00000000000E+00  0.00000000000E+00 -0.19138158235E+04  0.37741761820E+04  0.32529547870E+04 0.  0.
        1    1    3    3  502    0  0.15248822553E+03 -0.12137981899E+04 -0.22005046902E+04  0.25176933086E+04  0.50400001928E-02 0.  1.
       -1    1    3    3    0  502 -0.15248822553E+03  0.12137981899E+04  0.28668886676E+03  0.12564828733E+04  0.50400001928E-02 0. -1.
</event>
<event>
 5   0  0.4557237E-07  0.3481868E+04  0.7818609E-02  0.8118100E-01
       -1   -1    0    0    0  501  0.00000000000E+00  0.00000000000E+00  0.15449365676E+04  0.15449365676E+04  0.50400001928E-02 0.  1.
        1   -1    0    0  501    0  0.00000000000E+00  0.00000000000E+00 -0.19617965639E+04  0.19617965639E+04  0.50400001928E-02 0. -1.
    10030    2    1    2    0    0  0.00000000000E+00  0.00000000000E+00 -0.41685999632E+03  0.35067331315E+04  0.34818680330E+04 0.  0.
        2    1    3    3  502    0 -0.13050147651E+04  0.41597165554E+03 -0.12906994266E+04  0.18820204476E+04  0.25500000920E-02 0. -1.
       -2    1    3    3    0  502  0.13050147651E+04 -0.41597165554E+03  0.87383943027E+03  0.16247126839E+04  0.25500000920E-02 0.  1.
</event>
<event>
 5   0  0.4557237E-07  0.3546750E+04  0.7818609E-02  0.8102799E-01
       -1   -1    0    0    0  501  0.00000000000E+00  0.00000000000E+00  0.21252599314E+04  0.21252599314E+04  0.50400001928E-02 0.  1.
        1   -1    0    0  501    0  0.00000000000E+00  0.00000000000E+00 -0.14797526595E+04  0.14797526595E+04  0.50400001928E-02 0. -1.
    10030    2    1    2    0    0  0.00000000000E+00  0.00000000000E+00  0.64550727183E+03  0.36050125909E+04  0.35467500818E+04 0.  0.
        2    1    3    3  502    0 -0.16391413411E+04  0.50634369546E+03  0.77923095269E+03  0.18842423283E+04  0.25500000920E-02 0.  1.
       -2    1    3    3    0  502  0.16391413411E+04 -0.50634369546E+03 -0.13372368086E+03  0.17207702626E+04  0.25500000920E-02 0. -1.
</event>
<event>
 5   0  0.1442864E-06  0.3507936E+04  0.7818609E-02  0.8111912E-01
        2   -1    0    0  501    0  0.00000000000E+00  0.00000000000E+00  0.22439041278E+04  0.22439041278E+04  0.25500000920E-02 0.  1.
       -2   -1    0    0    0  501  0.00000000000E+00  0.00000000000E+00 -0.13710049109E+04  0.13710049109E+04  0.25500000920E-02 0. -1.
    10030    2    1    2    0    0  0.00000000000E+00  0.00000000000E+00  0.87289921694E+03  0.36149090387E+04  0.35079359052E+04 0.  0.
        1    1    3    3  502    0 -0.10066623839E+04  0.12148415572E+04  0.12261033217E+04  0.19981337593E+04  0.50400001928E-02 0.  1.
       -1    1    3    3    0  502  0.10066623839E+04 -0.12148415572E+04 -0.35320410479E+03  0.16167752794E+04  0.50400001928E-02 0. -1.
</event>
<event>
 5   0  0.1387133E-06  0.3434896E+04  0.7818609E-02  0.8129394E-01
       -2   -1    0    0    0  501  0.00000000000E+00  0.00000000000E+00  0.14704892044E+04  0.14704892044E+04  0.25500000920E-02 0. -1.
        2   -1    0    0  501    0  0.00000000000E+00  0.00000000000E+00 -0.20058816392E+04  0.20058816392E+04  0.25500000920E-02 0.  1.
    10030    2    1    2    0    0  0.00000000000E+00  0.00000000000E+00 -0.53539243474E+03  0.34763708436E+04  0.34348958038E+04 0.  0.
        4    1    3    3  502    0  0.14966209718E+03 -0.14620846152E+04 -0.11669833248E+04  0.18766837396E+04  0.12699999809E+01 0. -1.
       -4    1    3    3    0  502 -0.14966209718E+03  0.14620846152E+04  0.63159089004E+03  0.15996871040E+04  0.12699999809E+01 0.  1.
</event>
<event>
 5   0  0.1387133E-06  0.3505418E+04  0.7818609E-02  0.8112507E-01
        2   -1    0    0  501    0  0.00000000000E+00  0.00000000000E+00  0.20692509892E+04  0.20692509892E+04  0.25500000920E-02 0.  1.
       -2   -1    0    0    0  501  0.00000000000E+00  0.00000000000E+00 -0.14845899446E+04  0.14845899446E+04  0.25500000920E-02 0. -1.
    10030    2    1    2    0    0  0.00000000000E+00  0.00000000000E+00  0.58466104462E+03  0.35538409338E+04  0.35054182126E+04 0.  0.
        4    1    3    3  502    0 -0.15052620245E+04 -0.75271041173E+03  0.78858260670E+03  0.18585615047E+04  0.12699999809E+01 0.  1.
       -4    1    3    3    0  502  0.15052620245E+04  0.75271041173E+03 -0.20392156208E+03  0.16952794291E+04  0.12699999809E+01 0. -1.
</event>
<event>
 5   0  0.4700769E-07  0.3487324E+04  0.7818609E-02  0.8116801E-01
        1   -1    0    0  501    0  0.00000000000E+00  0.00000000000E+00  0.20900764968E+04  0.20900764968E+04  0.50400001928E-02 0.  1.
       -1   -1    0    0    0  501  0.00000000000E+00  0.00000000000E+00 -0.14546627439E+04  0.14546627439E+04  0.50400001928E-02 0. -1.
    10030    2    1    2    0    0  0.00000000000E+00  0.00000000000E+00  0.63541375287E+03  0.35447392407E+04  0.34873235651E+04 0.  0.
        3    1    3    3  502    0  0.15339452921E+04  0.82000421780E+03  0.44203720475E+03  0.17946565067E+04  0.10100000352E+00 0. -1.
       -3    1    3    3    0  502 -0.15339452921E+04 -0.82000421780E+03  0.19337654813E+03  0.17500827340E+04  0.10100000352E+00 0.  1.
</event>
<event>
 5   0  0.4409125E-07  0.3009832E+04  0.7818609E-02  0.8240929E-01
       -1   -1    0    0    0  501  0.00000000000E+00  0.00000000000E+00  0.14320508256E+04  0.14320508256E+04  0.50400001928E-02 0.  1.
        1   -1    0    0  501    0  0.00000000000E+00  0.00000000000E+00 -0.15814885122E+04  0.15814885122E+04  0.50400001928E-02 0. -1.
    10030    2    1    2    0    0  0.00000000000E+00  0.00000000000E+00 -0.14943768656E+03  0.30135393378E+04  0.30098318422E+04 0.  0.
        5    1    3    3  502    0 -0.71567478431E+03  0.10594419860E+04 -0.86951157660E+03  0.15461824570E+04  0.46999998093E+01 0. -1.
       -5    1    3    3    0  502  0.71567478431E+03 -0.10594419860E+04  0.72007389004E+03  0.14673568808E+04  0.46999998093E+01 0.  1.
</event>
<event>
 5   0  0.1378620E-06  0.3271453E+04  0.7818609E-02  0.8170197E-01
       -2   -1    0    0    0  501  0.00000000000E+00  0.00000000000E+00  0.11508376692E+04  0.11508376692E+04  0.25500000920E-02 0. -1.
        2   -1    0    0  501    0  0.00000000000E+00  0.00000000000E+00 -0.23249168747E+04  0.23249168747E+04  0.25500000920E-02 0.  1.
    10030    2    1    2    0    0  0.00000000000E+00  0.00000000000E+00 -0.11740792055E+04  0.34757545440E+04  0.32714534490E+04 0.  0.
        2    1    3    3  502    0  0.63448466894E+03 -0.72520214433E+03 -0.19913685515E+04  0.22122471953E+04  0.25500000920E-02 0.  1.
       -2    1    3    3    0  502 -0.63448466894E+03  0.72520214433E+03  0.81728934591E+03  0.12635073487E+04  0.25500000920E-02 0. -1.
</event>
<event>
 5   0  0.4557237E-07  0.3160917E+04  0.7818609E-02  0.8199216E-01
       -1   -1    0    0    0  501  0.00000000000E+00  0.00000000000E+00  0.11082662053E+04  0.11082662053E+04  0.50400001928E-02 0.  1.
        1   -1    0    0  501    0  0.00000000000E+00  0.00000000000E+00 -0.22538354323E+04  0.22538354323E+04  0.50400001928E-02 0. -1.
    10030    2    1    2    0    0  0.00000000000E+00  0.00000000000E+00 -0.11455692271E+04  0.33621016376E+04  0.31609173617E+04 0.  0.
        2    1    3    3  502    0  0.10223471937E+04 -0.11981829957E+04 -0.71152178123E+03  0.17283227478E+04  0.25500000920E-02 0. -1.
       -2    1    3    3    0  502 -0.10223471937E+04  0.11981829957E+04 -0.43404744583E+03  0.16337788898E+04  0.25500000920E-02 0.  1.
</event>
<event>
 5   0  0.4557237E-07  0.3475240E+04  0.7818609E-02  0.8119683E-01
       -1   -1    0    0    0  501  0.00000000000E+00  0.00000000000E+00  0.14722973320E+04  0.14722973320E+04  0.50400001928E-02 0.  1.
        1   -1    0    0  501    0  0.00000000000E+00  0.00000000000E+00 -0.20507567145E+04  0.20507567145E+04  0.50400001928E-02 0. -1.
    10030    2    1    2    0    0  0.00000000000E+00  0.00000000000E+00 -0.57845938252E+03  0.35230540465E+04  0.34752402158E+04 0.  0.
        2    1    3    3  502    0 -0.42654387963E+03 -0.83589967388E+03  0.11933051633E+04  0.15181057798E+04  0.25500000920E-02 0.  1.
       -2    1    3    3    0  502  0.42654387963E+03  0.83589967388E+03 -0.17717645458E+04  0.20049482666E+04  0.25500000920E-02 0. -1.
</event>
<event>
 5   0  0.4693374E-07  0.2599631E+04  0.7818609E-02  0.8368326E-01
       -1   -1    0    0    0  501  0.00000000000E+00  0.00000000000E+00  0.10781440196E+04  0.10781440196E+04  0.50400001928E-02 0. -1.
        1   -1    0    0  501    0  0.00000000000E+00  0.00000000000E+00 -0.15670639869E+04  0.15670639869E+04  0.50400001928E-02 0.  1.
    10030    2    1    2    0    0  0.00000000000E+00  0.00000000000E+00 -0.48891996724E+03  0.26452080065E+04  0.25996312553E+04 0.  0.
        1    1    3    3  502    0 -0.79098859732E+03  0.19482165124E+03  0.78616594767E+03  0.11321110079E+04  0.50400001928E-02 0. -1.
       -1    1    3    3    0  502  0.79098859732E+03 -0.19482165124E+03 -0.12750859149E+04  0.15130969986E+04  0.50400001928E-02 0.  1.
</event>
<event>
 5   0  0.1378620E-06  0.3355789E+04  0.7818609E-02  0.8148843E-01
        2   -1    0    0  501    0  0.00000000000E+00  0.00000000000E+00  0.17683191148E+04  0.17683191148E+04  0.25500000920E-02 0. -1.
       -2   -1    0    0    0  501  0.00000000000E+00  0.00000000000E+00 -0.15920935351E+04  0.15920935351E+04  0.25500000920E-02 0.  1.
    10030    2    1    2    0    0  0.00000000000E+00  0.00000000000E+00  0.17622557966E+03  0.33604126499E+04  0.33557886886E+04 0.  0.
        2    1    3    3  502    0 -0.13103489914E+04 -0.19657189567E+03  0.11189361096E+04  0.17342643993E+04  0.25500000920E-02 0. -1.
       -2    1    3    3    0  502  0.13103489914E+04  0.19657189567E+03 -0.94271052991E+03  0.16261482505E+04  0.25500000920E-02 0.  1.
</event>
<event>
 5   0  0.1387133E-06  0.3437538E+04  0.7818609E-02  0.8128754E-01
        2   -1    0    0  501    0  0.00000000000E+00  0.00000000000E+00  0.24002372993E+04  0.24002372993E+04  0.25500000920E-02 0. -1.
       -2   -1    0    0    0  501  0.00000000000E+00  0.00000000000E+00 -0.12307812655E+04  0.12307812655E+04  0.25500000920E-02 0.  1.
    10030    2    1    2    0    0  0.00000000000E+00  0.00000000000E+00  0.11694560338E+04  0.36310185648E+04  0.34375381311E+04 0.  0.
        4    1    3    3  502    0  0.11349247634E+04  0.22773317910E+03 -0.75731423912E+03  0.13832726012E+04  0.12699999809E+01 0.  1.
       -4    1    3    3    0  502 -0.11349247634E+04 -0.22773317910E+03  0.19267702729E+04  0.22477459636E+04  0.12699999809E+01 0. -1.
</event>
<event>
 5   0  0.4700769E-07  0.3514327E+04  0.7818609E-02  0.8110403E-01
        1   -1    0    0  501    0  0.00000000000E+00  0.00000000000E+00  0.96614786850E+03  0.96614786851E+03  0.50400001928E-02 0. -1.
       -1   -1    0    0    0  501  0.00000000000E+00  0.00000000000E+00 -0.31958089713E+04  0.31958089713E+04  0.50400001928E-02 0.  1.
    10030    2    1    2    0    0  0.00000000000E+00  0.00000000000E+00 -0.22296611028E+04  0.41619568399E+04  0.35143272618E+04 0.  0.
        3    1    3    3  502    0  0.76605198447E+03 -0.59729402889E+02  0.75664362990E+03  0.10783843644E+04  0.10100000352E+00 0. -1.
       -3    1    3    3    0  502 -0.76605198447E+03  0.59729402889E+02 -0.29863047327E+04  0.30835724755E+04  0.10100000352E+00 0.  1.
</event>
<event>
 5   0  0.1442864E-06  0.3522708E+04  0.7818609E-02  0.8108430E-01
        2   -1    0    0  501    0  0.00000000000E+00  0.00000000000E+00  0.17643945523E+04  0.17643945523E+04  0.25500000920E-02 0.  1.
       -2   -1    0    0    0  501  0.00000000000E+00  0.00000000000E+00 -0.17583183943E+04  0.17583183943E+04  0.25500000920E-02 0. -1.
    10030    2    1    2    0    0  0.00000000000E+00  0.00000000000E+00  0.60761579970E+01  0.35227129467E+04  0.35227077064E+04 0.  0.
        1    1    3    3  502    0  0.47054139258E+03 -0.89009933921E+03  0.14482673254E+04  0.17638492797E+04  0.50400001928E-02 0.  1.
       -1    1    3    3    0  502 -0.47054139258E+03  0.89009933921E+03 -0.14421911674E+04  0.17588636670E+04  0.50400001928E-02 0. -1.
</event>
<event>
 5   0  0.4557237E-07  0.3481845E+04  0.7818609E-02  0.8118106E-01
        1   -1    0    0  501    0  0.00000000000E+00  0.00000000000E+00  0.19666742488E+04  0.19666742488E+04  0.50400001928E-02 0. -1.
       -1   -1    0    0    0  501  0.00000000000E+00  0.00000000000E+00 -0.15410842972E+04  0.15410842972E+04  0.50400001928E-02 0.  1.
    10030    2    1    2    0    0  0.00000000000E+00  0.00000000000E+00  0.42558995156E+03  0.35077585460E+04  0.34818447998E+04 0.  0.
        2    1    3    3  502    0  0.10962702844E+04 -0.43134540655E+03  0.15041081575E+04  0.19105519479E+04  0.25500000920E-02 0. -1.
       -2    1    3    3    0  502 -0.10962702844E+04  0.43134540655E+03 -0.10785182059E+04  0.15972065980E+04  0.25500000920E-02 0.  1.
</event>
<event>
 5   0  0.4693374E-07  0.3636802E+04  0.7818609E-02  0.8082113E-01
        1   -1    0    0  501    0  0.00000000000E+00  0.00000000000E+00  0.19676549103E+04  0.19676549103E+04  0.50400001928E-02 0.  1.
       -1   -1    0    0    0  501  0.00000000000E+00  0.00000000000E+00 -0.16804685601E+04  0.16804685601E+04  0.50400001928E-02 0. -1.
    10030    2    1    2    0    0  0.00000000000E+00  0.00000000000E+00  0.28718635027E+03  0.36481234704E+04  0.36368020094E+04 0.  0.
        1    1    3    3  502    0  0.14921642902E+03  0.15263954188E+03 -0.16678572696E+04  0.16814613418E+04  0.50400001928E-02 0. -1.
       -1    1    3    3    0  502 -0.14921642902E+03 -0.15263954188E+03  0.19550436198E+04  0.19666621286E+04  0.50400001928E-02 0.  1.
</event>
<event>
 5   0  0.4700769E-07  0.3554588E+04  0.7818609E-02  0.8100974E-01
        1   -1    0    0  501    0  0.00000000000E+00  0.00000000000E+00  0.27579184803E+04  0.27579184803E+04  0.50400001928E-02 0.  1.
       -1   -1    0    0    0  501  0.00000000000E+00  0.00000000000E+00 -0.11453474182E+04  0.11453474182E+04  0.50400001928E-02 0. -1.
    10030    2    1    2    0    0  0.00000000000E+00  0.00000000000E+00  0.16125710621E+04  0.39032658985E+04  0.35545884775E+04 0.  0.
        3    1    3    3  502    0 -0.88303592482E+02 -0.56944674010E+03 -0.10399166450E+04  0.11889044339E+04  0.10100000352E+00 0. -1.
       -3    1    3    3    0  502  0.88303592482E+02  0.56944674010E+03  0.26524877071E+04  0.27143614646E+04  0.10100000352E+00 0.  1.
</event>
<event>
 5   0  0.4693374E-07  0.3526059E+04  0.7818609E-02  0.8107642E-01
        1   -1    0    0  501    0  0.00000000000E+00  0.00000000000E+00  0.11585625158E+04  0.11585625158E+04  0.50400001928E-02 0. -1.
       -1   -1    0    0    0  501  0.00000000000E+00  0.00000000000E+00 -0.26828696841E+04  0.26828696841E+04  0.50400001928E-02 0.  1.
    10030    2    1    2    0    0  0.00000000000E+00  0.00000000000E+00 -0.15243071683E+04  0.38414321999E+04  0.35260585649E+04 0.  0.
        1    1    3    3  502    0 -0.95046589667E+03  0.98864141548E+03 -0.19691611036E+04  0.23996651269E+04  0.50400001928E-02 0.  1.
       -1    1    3    3    0  502  0.95046589667E+03 -0.98864141548E+03  0.44485393530E+03  0.14417670730E+04  0.50400001928E-02 0. -1.
</event>
<event>
 5   0  0.4693374E-07  0.2922798E+04  0.7818609E-02  0.8266126E-01
        1   -1    0    0  501    0  0.00000000000E+00  0.00000000000E+00  0.15732817480E+04  0.15732817480E+04  0.50400001928E-02 0. -1.
       -1   -1    0    0    0  501  0.00000000000E+00  0.00000000000E+00 -0.13574731689E+04  0.13574731690E+04  0.50400001928E-02 0.  1.
    10030    2    1    2    0    0  0.00000000000E+00  0.00000000000E+00  0.21580857904E+03  0.29307549169E+04  0.29227984947E+04 0.  0.
        1    1    3    3  502    0 -0.17416030402E+03 -0.10577646221E+04  0.11038300376E+04  0.15387132803E+04  0.50400001928E-02 0. -1.
       -1    1    3    3    0  502  0.17416030402E+03  0.10577646221E+04 -0.88802145854E+03  0.13920416366E+04  0.50400001928E-02 0.  1.
</event>
<event>
 5   0  0.4557237E-07  0.3319879E+04  0.7818609E-02  0.8157855E-01
       -1   -1    0    0    0  501  0.00000000000E+00  0.00000000000E+00  0.14775239608E+04  0.14775239608E+04  0.50400001928E-02 0. -1.
        1   -1    0    0  501    0  0.00000000000E+00  0.00000000000E+00 -0.18648763018E+04  0.18648763018E+04  0.50400001928E-02 0.  1.
    10030    2    1    2    0    0  0.00000000000E+00  0.00000000000E+00 -0.38735234102E+03  0.33424002626E+04  0.33198791664E+04 0.  0.
        2    1    3    3  502    0 -0.10013129207E+04  0.80472381096E+03 -0.12520886127E+04  0.17938600478E+04  0.25500000920E-02 0.  1.
       -2    1    3    3    0  502  0.10013129207E+04 -0.80472381096E+03  0.86473627169E+03  0.15485402148E+04  0.25500000920E-02 0. -1.
</event>
<event>
 5   0  0.4693374E-07  0.2953709E+04  0.7818609E-02  0.8257074E-01
        1   -1    0    0  501    0  0.00000000000E+00  0.00000000000E+00  0.12296092648E+04  0.12296092648E+04  0.50400001928E-02 0. -1.
       -1   -1    0    0    0  501  0.00000000000E+00  0.00000000000E+00 -0.17738148192E+04  0.17738148192E+04  0.50400001928E-02 0.  1.
    10030    2    1    2    0    0  0.00000000000E+00  0.00000000000E+00 -0.54420555437E+03  0.30034240840E+04  0.29537089469E+04 0.  0.
        1    1    3    3  502    0  0.46530878121E+03  0.43219423749E+03 -0.16278845862E+04  0.17473729844E+04  0.50400001928E-02 0.  1.
       -1    1    3    3    0  502 -0.46530878121E+03 -0.43219423749E+03  0.10836790318E+04  0.12560510996E+04  0.50400001928E-02 0. -1.
</event>
<event>
 5   0  0.1378620E-06  0.3498906E+04  0.7818609E-02  0.8114049E-01
        2   -1    0    0  501    0  0.00000000000E+00  0.00000000000E+00  0.13734017625E+04  0.13734017625E+04  0.25500000920E-02 0.  1.
       -2   -1    0    0    0  501  0.00000000000E+00  0.00000000000E+00 -0.22284709323E+04  0.22284709323E+04  0.25500000920E-02 0. -1.
    10030    2    1    2    0    0  0.00000000000E+00  0.00000000000E+00 -0.85506916985E+03  0.36018726948E+04  0.34989060611E+04 0.  0.
        2    1    3    3  502    0  0.17465374049E+04  0.55797597163E+02 -0.34091795487E+03  0.17803739299E+04  0.25500000920E-02 0. -1.
       -2    1    3    3    0  502 -0.17465374049E+04 -0.55797597163E+02 -0.51415121499E+03  0.18214987648E+04  0.25500000920E-02 0.  1.
</event>
<event>
 5   0  0.4557237E-07  0.3501062E+04  0.7818609E-02  0.8113538E-01
       -1   -1    0    0    0  501  0.00000000000E+00  0.00000000000E+00  0.10972627839E+04  0.10972627839E+04  0.50400001928E-02 0. -1.
        1   -1    0    0  501    0  0.00000000000E+00  0.00000000000E+00 -0.27927293406E+04  0.27927293406E+04  0.50400001928E-02 0.  1.
    10030    2    1    2    0    0  0.00000000000E+00  0.00000000000E+00 -0.16954665567E+04  0.38899921246E+04  0.35010615368E+04 0.  0.
        2    1    3    3  502    0 -0.28060575323E+03  0.14744607042E+04  0.15322441019E+03  0.15087251827E+04  0.25500000920E-02 0. -1.
       -2    1    3    3    0  502  0.28060575323E+03 -0.14744607042E+04 -0.18486909669E+04  0.23812669418E+04  0.25500000920E-02 0.  1.
</event>
<event>
 5   0  0.4409125E-07  0.3484604E+04  0.7818609E-02  0.8117448E-01
       -1   -1    0    0    0  501  0.00000000000E+00  0.00000000000E+00  0.11663075997E+04  0.11663075997E+04  0.50400001928E-02 0.  1.
        1   -1    0    0  501    0  0.00000000000E+00  0.00000000000E+00 -0.26027575789E+04  0.26027575789E+04  0.50400001928E-02 0. -1.
    10030    2    1    2    0    0  0.00000000000E+00  0.00000000000E+00 -0.14364499792E+04  0.37690651786E+04  0.34846038193E+04 0.  0.
        5    1    3    3  502    0  0.14427466466E+04  0.97630305918E+03 -0.75082337024E+03  0.18969563445E+04  0.46999998093E+01 0. -1.
       -5    1    3    3    0  502 -0.14427466466E+04 -0.97630305918E+03 -0.68562660898E+03  0.18721088341E+04  0.46999998093E+01 0.  1.
</event>
<event>
 5   0  0.1442864E-06  0.3411378E+04  0.7818609E-02  0.8135119E-01
       -2   -1    0    0    0  501  0.00000000000E+00  0.00000000000E+00  0.14410522554E+04  0.14410522554E+04  0.25500000920E-02 0.  1.
        2   -1    0    0  501    0  0.00000000000E+00  0.00000000000E+00 -0.20189239514E+04  0.20189239514E+04  0.25500000920E-02 0. -1.
    10030    2    1    2    0    0  0.00000000000E+00  0.00000000000E+00 -0.57787169600E+03  0.34599762068E+04  0.34113779701E+04 0.  0.
        1    1    3    3  502    0  0.33973614043E+03 -0.13700585533E+04  0.68225100929E+03  0.15677842723E+04  0.50400001928E-02 0.  1.
       -1    1    3    3    0  502 -0.33973614043E+03  0.13700585533E+04 -0.12601227053E+04  0.18921919345E+04  0.50400001928E-02 0. -1.
</event>
<event>
 5   0  0.1442864E-06  0.3515805E+04  0.7818609E-02  0.8110054E-01
        2   -1    0    0  501    0  0.00000000000E+00  0.00000000000E+00  0.27149461236E+04  0.27149461236E+04  0.25500000920E-02 0. -1.
       -2   -1    0    0    0  501  0.00000000000E+00  0.00000000000E+00 -0.11382258666E+04  0.11382258666E+04  0.25500000920E-02 0.  1.
    10030    2    1    2    0    0  0.00000000000E+00  0.00000000000E+00  0.15767202570E+04  0.38531719902E+04  0.35158054010E+04 0.  0.
        1    1    3    3  502    0 -0.15650335375E+04  0.39510746386E+03  0.25285842626E+02  0.16143355461E+04  0.50400001928E-02 0.  1.
       -1    1    3    3    0  502  0.15650335375E+04 -0.39510746386E+03  0.15514344144E+04  0.22388364442E+04  0.50400001928E-02 0. -1.
</event>
<event>
 5   0  0.1378620E-06  0.3526637E+04  0.7818609E-02  0.8107506E-01
       -2   -1    0    0    0  501  0.00000000000E+00  0.00000000000E+00  0.19578186135E+04  0.19578186135E+04  0.25500000920E-02 0. -1.
        2   -1    0    0  501    0  0.00000000000E+00  0.00000000000E+00 -0.15881408304E+04  0.15881408304E+04  0.25500000920E-02 0.  1.
    10030    2    1    2    0    0  0.00000000000E+00  0.00000000000E+00  0.36967778308E+03  0.35459594439E+04  0.35266367427E+04 0.  0.
        2    1    3    3  502    0  0.83959623671E+03  0.45787108665E+03 -0.13047381956E+04  0.16176864751E+04  0.25500000920E-02 0.  1.
       -2    1    3    3    0  502 -0.83959623671E+03 -0.45787108665E+03  0.16744159787E+04  0.19282729688E+04  0.25500000920E-02 0. -1.
</event>
<event>
 5   0  0.1348388E-06  0.3521880E+04  0.7818609E-02  0.8108624E-01
        2   -1    0    0  501    0  0.00000000000E+00  0.00000000000E+00  0.11921716150E+04  0.11921716150E+04  0.25500000920E-02 0. -1.
       -2   -1    0    0    0  501  0.00000000000E+00  0.00000000000E+00 -0.26010605390E+04  0.26010605390E+04  0.25500000920E-02 0.  1.
    10030    2    1    2    0    0  0.00000000000E+00  0.00000000000E+00 -0.14088889240E+04  0.37932321540E+04  0.35218804884E+04 0.  0.
        5    1    3    3  502    0  0.12426894950E+04 -0.73427558178E+03 -0.17908487822E+04  0.23001302706E+04  0.46999998093E+01 0.  1.
       -5    1    3    3    0  502 -0.12426894950E+04  0.73427558178E+03  0.38195985821E+03  0.14931018835E+04  0.46999998093E+01 0. -1.
</event>
<event>
 5   0  0.4591195E-07  0.3238661E+04  0.7818609E-02  0.8178681E-01
       -1   -1    0    0    0  501  0.00000000000E+00  0.00000000000E+00  0.10944612586E+04  0.10944612586E+04  0.50400001928E-02 0.  1.
        1   -1    0    0  501    0  0.00000000000E+00  0.00000000000E+00 -0.23959103750E+04  0.23959103750E+04  0.50400001928E-02 0. -1.
    10030    2    1    2    0    0  0.00000000000E+00  0.00000000000E+00 -0.13014491164E+04  0.34903716336E+04  0.32386608865E+04 0.  0.
        4    1    3    3  502    0  0.40357910187E+02  0.98735581206E+03  0.73183988347E+03  0.12296712928E+04  0.12699999809E+01 0.  1.
       -4    1    3    3    0  502 -0.40357910187E+02 -0.98735581206E+03 -0.20332889999E+04  0.22607003407E+04  0.12699999809E+01 0. -1.
</event>
<event>
 5   0  0.1442864E-06  0.3533633E+04  0.7818609E-02  0.8105865E-01
        2   -1    0    0  501    0  0.00000000000E+00  0.00000000000E+00  0.20295516826E+04  0.20295516826E+04  0.25500000920E-02 0. -1.
       -2   -1    0    0    0  501  0.00000000000E+00  0.00000000000E+00 -0.15380935163E+04  0.15380935163E+04  0.25500000920E-02 0.  1.
    10030    2    1    2    0    0  0.00000000000E+00  0.00000000000E+00  0.49145816627E+03  0.35676451989E+04  0.35336328525E+04 0.  0.
        1    1    3    3  502    0  0.25398464215E+03 -0.16524308312E+04  0.82272304908E+03  0.18633059507E+04  0.50400001928E-02 0. -1.
       -1    1    3    3    0  502 -0.25398464215E+03  0.16524308312E+04 -0.33126488281E+03  0.17043392482E+04  0.50400001928E-02 0.  1.
</event>
<event>
 5   0  0.4693374E-07  0.3584000E+04  0.7818609E-02  0.8094167E-01
       -1   -1    0    0    0  501  0.00000000000E+00  0.00000000000E+00  0.12855233520E+04  0.12855233520E+04  0.50400001928E-02 0.  1.
        1   -1    0    0  501    0  0.00000000000E+00  0.00000000000E+00 -0.24980206567E+04  0.24980206567E+04  0.50400001928E-02 0. -1.
    10030    2    1    2    0    0  0.00000000000E+00  0.00000000000E+00 -0.12124973047E+04  0.37835440087E+04  0.35839999374E+04 0.  0.
        1    1    3    3  502    0  0.15935992819E+04 -0.27535548788E+03  0.20866551306E+03  0.16306197019E+04  0.50400001928E-02 0.  1.
       -1    1    3    3    0  502 -0.15935992819E+04  0.27535548788E+03 -0.14211628178E+04  0.21529243067E+04  0.50400001928E-02 0. -1.
</event>
<event>
 5   0  0.4557237E-07  0.3580727E+04  0.7818609E-02  0.8094921E-01
        1   -1    0    0  501    0  0.00000000000E+00  0.00000000000E+00  0.12579979549E+04  0.12579979549E+04  0.50400001928E-02 0. -1.
       -1   -1    0    0    0  501  0.00000000000E+00  0.00000000000E+00 -0.25480185317E+04  0.25480185317E+04  0.50400001928E-02 0.  1.
    10030    2    1    2    0    0  0.00000000000E+00  0.00000000000E+00 -0.12900205768E+04  0.38060164866E+04  0.35807273574E+04 0.  0.
        2    1    3    3  502    0 -0.98174993521E+03 -0.14701098282E+04 -0.34372200485E+03  0.18008888524E+04  0.25500000920E-02 0. -1.
       -2    1    3    3    0  502  0.98174993521E+03  0.14701098282E+04 -0.94629857192E+03  0.20051276342E+04  0.25500000920E-02 0.  1.
</event>
<event>
 5   0  0.4700769E-07  0.3609923E+04  0.7818609E-02  0.8088222E-01
        1   -1    0    0  501    0  0.00000000000E+00  0.00000000000E+00  0.27484334042E+04  0.27484334042E+04  0.50400001928E-02 0. -1.
       -1   -1    0    0    0  501  0.00000000000E+00  0.00000000000E+00 -0.11853611433E+04  0.11853611433E+04  0.50400001928E-02 0.  1.
    10030    2    1    2    0    0  0.00000000000E+00  0.00000000000E+00  0.15630722609E+04  0.39337945475E+04  0.36099230808E+04 0.  0.
        3    1    3    3  502    0 -0.14409062190E+04  0.86139232399E+03  0.58963626127E+02  0.16797869470E+04  0.10100000352E+00 0.  1.
       -3    1    3    3    0  502  0.14409062190E+04 -0.86139232399E+03  0.15041086347E+04  0.22540076005E+04  0.10100000352E+00 0. -1.
</event>
<event>
 5   0  0.4409125E-07  0.3595354E+04  0.7818609E-02  0.8091557E-01
        1   -1    0    0  501    0  0.00000000000E+00  0.00000000000E+00  0.23536909057E+04  0.23536909057E+04  0.50400001928E-02 0.  1.
       -1   -1    0    0    0  501  0.00000000000E+00  0.00000000000E+00 -0.13730109615E+04  0.13730109615E+04  0.50400001928E-02 0. -1.
    10030    2    1    2    0    0  0.00000000000E+00  0.00000000000E+00  0.98067994419E+03  0.37267018672E+04  0.35953544546E+04 0.  0.
        5    1    3    3  502    0 -0.61563121879E+03  0.13759053158E+04  0.15056679490E+04  0.21305340406E+04  0.46999998093E+01 0.  1.
       -5    1    3    3    0  502  0.61563121879E+03 -0.13759053158E+04 -0.52498800484E+03  0.15961678266E+04  0.46999998093E+01 0. -1.
</event>
<event>
 5   0  0.4557237E-07  0.2761276E+04  0.7818609E-02  0.8315392E-01
        1   -1    0    0  501    0  0.00000000000E+00  0.00000000000E+00  0.99677520454E+03  0.99677520455E+03  0.50400001928E-02 0.  1.
       -1   -1    0    0    0  501  0.00000000000E+00  0.00000000000E+00 -0.19123280761E+04  0.19123280761E+04  0.50400001928E-02 0. -1.
    10030    2    1    2    0    0  0.00000000000E+00  0.00000000000E+00 -0.91555287155E+03  0.29091032807E+04  0.27612759436E+04 0.  0.
        2    1    3    3  502    0 -0.99076382876E+02  0.10252470961E+04  0.51079696016E+03  0.11497222588E+04  0.25500000920E-02 0.  1.
       -2    1    3    3    0  502  0.99076382876E+02 -0.10252470961E+04 -0.14263498317E+04  0.17593810219E+04  0.25500000920E-02 0. -1.
</event>
<event>
 5   0  0.1442864E-06  0.3472856E+04  0.7818609E-02  0.8120253E-01
       -2   -1    0    0    0  501  0.00000000000E+00  0.00000000000E+00  0.33554115375E+04  0.33554115375E+04  0.25500000920E-02 0. -1.
        2   -1    0    0  501    0  0.00000000000E+00  0.00000000000E+00 -0.89860288946E+03  0.89860288947E+03  0.25500000920E-02 0.  1.
    10030    2    1    2    0    0  0.00000000000E+00  0.00000000000E+00  0.24568086480E+04  0.42540144269E+04  0.34728561749E+04 0.  0.
        1    1    3    3  502    0  0.12985201102E+04  0.21583298042E+03 -0.15877111660E+03  0.13258757934E+04  0.50400001928E-02 0.  1.
       -1    1    3    3    0  502 -0.12985201102E+04 -0.21583298042E+03  0.26155797646E+04  0.29281386335E+04  0.50400001928E-02 0. -1.
</event>
<event>
 5   0  0.1361560E-06  0.3536992E+04  0.7818609E-02  0.8105079E-01
        2   -1    0    0  501    0  0.00000000000E+00  0.00000000000E+00  0.16993263214E+04  0.16993263214E+04  0.25500000920E-02 0. -1.
       -2   -1    0    0    0  501  0.00000000000E+00  0.00000000000E+00 -0.18404808464E+04  0.18404808464E+04  0.25500000920E-02 0.  1.
    10030    2    1    2    0    0  0.00000000000E+00  0.00000000000E+00 -0.14115452499E+03  0.35398071679E+04  0.35369916858E+04 0.  0.
        3    1    3    3  502    0  0.10708497104E+04 -0.87293857934E+03  0.10343109021E+04  0.17258446969E+04  0.10100000352E+00 0. -1.
       -3    1    3    3    0  502 -0.10708497104E+04  0.87293857934E+03 -0.11754654271E+04  0.18139624709E+04  0.10100000352E+00 0.  1.
</event>
<event>
 5   0  0.4693374E-07  0.3482204E+04  0.7818609E-02  0.8118020E-01
       -1   -1    0    0    0  501  0.00000000000E+00  0.00000000000E+00  0.20908031623E+04  0.20908031623E+04  0.50400001928E-02 0.  1.
        1   -1    0    0  501    0  0.00000000000E+00  0.00000000000E+00 -0.14498906588E+04  0.14498906588E+04  0.50400001928E-02 0. -1.
    10030    2    1    2    0    0  0.00000000000E+00  0.00000000000E+00  0.64091250351E+03  0.35406938212E+04  0.34822038852E+04 0.  0.
        1    1    3    3  502    0  0.11956274456E+04  0.89676386578E+03 -0.58770073770E+03  0.16059584604E+04  0.50400001928E-02 0. -1.
       -1    1    3    3    0  502 -0.11956274456E+04 -0.89676386578E+03  0.12286132412E+04  0.19347353607E+04  0.50400001928E-02 0.  1.
</event>
<event>
 5   0  0.4557237E-07  0.3498518E+04  0.7818609E-02  0.8114141E-01
       -1   -1    0    0    0  501  0.00000000000E+00  0.00000000000E+00  0.13833307169E+04  0.13833307169E+04  0.50400001928E-02 0. -1.
        1   -1    0    0  501    0  0.00000000000E+00  0.00000000000E+00 -0.22119854799E+04  0.22119854799E+04  0.50400001928E-02 0.  1.
    10030    2    1    2    0    0  0.00000000000E+00  0.00000000000E+00 -0.82865476299E+03  0.35953161968E+04  0.34985182347E+04 0.  0.
        2    1    3    3  502    0  0.13153082768E+03 -0.91551915130E+03  0.11114855157E+04  0.14459860742E+04  0.25500000920E-02 0. -1.
       -2    1    3    3    0  502 -0.13153082768E+03  0.91551915130E+03 -0.19401402787E+04  0.21493301226E+04  0.25500000920E-02 0.  1.
</event>
<event>
 5   0  0.4693374E-07  0.3523384E+04  0.7818609E-02  0.8108270E-01
       -1   -1    0    0    0  501  0.00000000000E+00  0.00000000000E+00  0.12345294553E+04  0.12345294553E+04  0.50400001928E-02 0. -1.
        1   -1    0    0  501    0  0.00000000000E+00  0.00000000000E+00 -0.25139612621E+04  0.25139612621E+04  0.50400001928E-02 0.  1.
    10030    2    1    2    0    0  0.00000000000E+00  0.00000000000E+00 -0.12794318068E+04  0.37484907175E+04  0.35233842979E+04 0.  0.
        1    1    3    3  502    0  0.83812890133E+03  0.15374997015E+04 -0.43453736307E+03  0.18042139860E+04  0.50400001928E-02 0. -1.
       -1    1    3    3    0  502 -0.83812890133E+03 -0.15374997015E+04 -0.84489444373E+03  0.19442767315E+04  0.50400001928E-02 0.  1.
</event>
<event>
 5   0  0.4591195E-07  0.3516609E+04  0.7818609E-02  0.8109865E-01
       -1   -1    0    0    0  501  0.00000000000E+00  0.00000000000E+00  0.19237202231E+04  0.19237202231E+04  0.50400001928E-02 0.  1.
        1   -1    0    0  501    0  0.00000000000E+00  0.00000000000E+00 -0.16071122498E+04  0.16071122498E+04  0.50400001928E-02 0. -1.
    10030    2    1    2    0    0  0.00000000000E+00  0.00000000000E+00  0.31660797329E+03  0.35308324728E+04  0.35166087844E+04 0.  0.
        4    1    3    3  502    0  0.71853171591E+03 -0.30771344373E+03 -0.14230767489E+04  0.16236146206E+04  0.12699999809E+01 0. -1.
       -4    1    3    3    0  502 -0.71853171591E+03  0.30771344373E+03  0.17396847222E+04  0.19072178522E+04  0.12699999809E+01 0.  1.
</event>
<event>
 5   0  0.4409125E-07  0.3495170E+04  0.7818609E-02  0.8114936E-01
        1   -1    0    0  501    0  0.00000000000E+00  0.00000000000E+00  0.22006450607E+04  0.22006450607E+04  0.50400001928E-02 0.  1.
       -1   -1    0    0    0  501  0.00000000000E+00  0.00000000000E+00 -0.13877990725E+04  0.13877990725E+04  0.50400001928E-02 0. -1.
    10030    2    1    2    0    0  0.00000000000E+00  0.00000000000E+00  0.81284598824E+03  0.35884441332E+04  0.34951699095E+04 0.  0.
        5    1    3    3  502    0  0.77905144688E+03 -0.97874221816E+03 -0.84646013253E+03  0.15104219054E+04  0.46999998093E+01 0.  1.
       -5    1    3    3    0  502 -0.77905144688E+03  0.97874221816E+03  0.16593061208E+04  0.20780222277E+04  0.46999998093E+01 0. -1.
</event>
<event>
 5   0  0.1442864E-06  0.3495768E+04  0.7818609E-02  0.8114794E-01
       -2   -1    0    0    0  501  0.00000000000E+00  0.00000000000E+00  0.17336115112E+04  0.17336115112E+04  0.25500000920E-02 0.  1.
        2   -1    0    0  501    0  0.00000000000E+00  0.00000000000E+00 -0.17622741849E+04  0.17622741849E+04  0.25500000920E-02 0. -1.
    10030    2    1    2    0    0  0.00000000000E+00  0.00000000000E+00 -0.28662673686E+02  0.34958856960E+04  0.34957681918E+04 0.  0.
        1    1    3    3  502    0 -0.58788024905E+03 -0.11580446274E+04  0.11555063710E+04  0.17383513798E+04  0.50400001928E-02 0.  1.
       -1    1    3    3    0  502  0.58788024905E+03  0.11580446274E+04 -0.11841690447E+04  0.17575343162E+04  0.50400001928E-02 0. -1.
</event>
<event>
 5   0  0.4409125E-07  0.3493567E+04  0.7818609E-02  0.8115316E-01
        1   -1    0    0  501    0  0.00000000000E+00  0.00000000000E+00  0.14688647041E+04  0.14688647041E+04  0.50400001928E-02 0.  1.
       -1   -1    0    0    0  501  0.00000000000E+00  0.00000000000E+00 -0.20772869047E+04  0.20772869047E+04  0.50400001928E-02 0. -1.
    10030    2    1    2    0    0  0.00000000000E+00  0.00000000000E+00 -0.60842220062E+03  0.35461516088E+04  0.34935674687E+04 0.  0.
        5    1    3    3  502    0 -0.14842874115E+03 -0.48099145991E+03 -0.20020644655E+04  0.20643808006E+04  0.46999998093E+01 0. -1.
       -5    1    3    3    0  502  0.14842874115E+03  0.48099145991E+03  0.13936422649E+04  0.14817708083E+04  0.46999998093E+01 0.  1.
</event>
<event>
 5   0  0.1378620E-06  0.3524908E+04  0.7818609E-02  0.8107912E-01
       -2   -1    0    0    0  501  0.00000000000E+00  0.00000000000E+00  0.14737044277E+04  0.14737044277E+04  0.25500000920E-02 0. -1.
        2   -1    0    0  501    0  0.00000000000E+00  0.00000000000E+00 -0.21077791631E+04  0.21077791631E+04  0.25500000920E-02 0.  1.
    10030    2    1    2    0    0  0.00000000000E+00  0.00000000000E+00 -0.63407473538E+03  0.35814835909E+04  0.35249076501E+04 0.  0.
        2    1    3    3  502    0  0.96592618278E+03 -0.37589381888E+02  0.11803247787E+04  0.15256450883E+04  0.25500000920E-02 0. -1.
       -2    1    3    3    0  502 -0.96592618278E+03  0.37589381888E+02 -0.18143995140E+04  0.20558385026E+04  0.25500000920E-02 0.  1.
</event>
<event>
 5   0  0.4591195E-07  0.2841688E+04  0.7818609E-02  0.8290441E-01
        1   -1    0    0  501    0  0.00000000000E+00  0.00000000000E+00  0.12241698999E+04  0.12241699000E+04  0.50400001928E-02 0. -1.
       -1   -1    0    0    0  501  0.00000000000E+00  0.00000000000E+00 -0.16491157486E+04  0.16491157486E+04  0.50400001928E-02 0.  1.
    10030    2    1    2    0    0  0.00000000000E+00  0.00000000000E+00 -0.42494584868E+03  0.28732856486E+04  0.28416881328E+04 0.  0.
        4    1    3    3  502    0  0.48925894878E+03  0.70327031186E+03 -0.13585813285E+04  0.16061470324E+04  0.12699999809E+01 0.  1.
       -4    1    3    3    0  502 -0.48925894878E+03 -0.70327031186E+03  0.93363547987E+03  0.12671386162E+04  0.12699999809E+01 0. -1.
</event>
<event>
 5   0  0.1361560E-06  0.3453966E+04  0.7818609E-02  0.8124787E-01
        2   -1    0    0  501    0  0.00000000000E+00  0.00000000000E+00  0.13679521589E+04  0.13679521589E+04  0.25500000920E-02 0. -1.
       -2   -1    0    0    0  501  0.00000000000E+00  0.00000000000E+00 -0.21802445919E+04  0.21802445919E+04  0.25500000920E-02 0.  1.
    10030    2    1    2    0    0  0.00000000000E+00  0.00000000000E+00 -0.81229243299E+03  0.35481967509E+04  0.34539660083E+04 0.  0.
        3    1    3    3  502    0  0.16582980216E+03  0.13372616805E+04 -0.15157542659E+04  0.20281221192E+04  0.10100000352E+00 0.  1.
       -3    1    3    3    0  502 -0.16582980216E+03 -0.13372616805E+04  0.70346183289E+03  0.15200746317E+04  0.10100000352E+00 0. -1.
</event>
<event>
 5   0  0.4693374E-07  0.3425367E+04  0.7818609E-02  0.8131708E-01
       -1   -1    0    0    0  501  0.00000000000E+00  0.00000000000E+00  0.12931886739E+04  0.12931886739E+04  0.50400001928E-02 0.  1.
        1   -1    0    0  501    0  0.00000000000E+00  0.00000000000E+00 -0.22682577456E+04  0.22682577456E+04  0.50400001928E-02 0. -1.
    10030    2    1    2    0    0  0.00000000000E+00  0.00000000000E+00 -0.97506907168E+03  0.35614464195E+04  0.34253672657E+04 0.  0.
        1    1    3    3  502    0 -0.27975452057E+03  0.16892525152E+04 -0.52710668525E+03  0.17915574536E+04  0.50400001928E-02 0.  1.
       -1    1    3    3    0  502  0.27975452057E+03 -0.16892525152E+04 -0.44796238642E+03  0.17698889659E+04  0.50400001928E-02 0. -1.
</event>
<event>
 5   0  0.1361560E-06  0.3450513E+04  0.7818609E-02  0.8125619E-01
        2   -1    0    0  501    0  0.00000000000E+00  0.00000000000E+00  0.19913715743E+04  0.19913715743E+04  0.25500000920E-02 0. -1.
       -2   -1    0    0    0  501  0.00000000000E+00  0.00000000000E+00 -0.14947031467E+04  0.14947031467E+04  0.25500000920E-02 0.  1.
    10030    2    1    2    0    0  0.00000000000E+00  0.00000000000E+00  0.49666842760E+03  0.34860747211E+04  0.34505126335E+04 0.  0.
        3    1    3    3  502    0 -0.14277235568E+04  0.58798873626E+03 -0.52926308675E+03  0.16322514310E+04  0.10100000352E+00 0. -1.
       -3    1    3    3    0  502  0.14277235568E+04 -0.58798873626E+03  0.10259315143E+04  0.18538232901E+04  0.10100000352E+00 0.  1.
</event>
<event>
 5   0  0.4409125E-07  0.3475591E+04  0.7818609E-02  0.8119599E-01
        1   -1    0    0  501    0  0.00000000000E+00  0.00000000000E+00  0.11160186906E+04  0.11160186906E+04  0.50400001928E-02 0. -1.
       -1   -1    0    0    0  501  0.00000000000E+00  0.00000000000E+00 -0.27059876124E+04  0.27059876124E+04  0.50400001928E-02 0.  1.
    10030    2    1    2    0    0  0.00000000000E+00  0.00000000000E+00 -0.15899689218E+04  0.38220063031E+04  0.34755907424E+04 0.  0.
        5    1    3    3  502    0 -0.14432829759E+04  0.11001820742E+03 -0.18524660187E+04  0.23509194361E+04  0.46999998093E+01 0. -1.
       -5    1    3    3    0  502  0.14432829759E+04 -0.11001820742E+03  0.26249709691E+03  0.14710868670E+04  0.46999998093E+01 0.  1.
</event>
<event>
 5   0  0.4409125E-07  0.3470216E+04  0.7818609E-02  0.8120885E-01
       -1   -1    0    0    0  501  0.00000000000E+00  0.00000000000E+00  0.14005797032E+04  0.14005797032E+04  0.50400001928E-02 0.  1.
        1   -1    0    0  501    0  0.00000000000E+00  0.00000000000E+00 -0.21495386073E+04  0.21495386073E+04  0.50400001928E-02 0. -1.
    10030    2    1    2    0    0  0.00000000000E+00  0.00000000000E+00 -0.74895890409E+03  0.35501183105E+04  0.34702162149E+04 0.  0.
        5    1    3    3  502    0 -0.39802541432E+03 -0.23023450277E+03  0.13371078643E+04  0.14139701862E+04  0.46999998093E+01 0.  1.
       -5    1    3    3    0  502  0.39802541432E+03  0.23023450277E+03 -0.20860667684E+04  0.21361481243E+04  0.46999998093E+01 0. -1.
</event>
<event>
 5   0  0.4700769E-07  0.3490149E+04  0.7818609E-02  0.8116129E-01
        1   -1    0    0  501    0  0.00000000000E+00  0.00000000000E+00  0.17577394836E+04  0.17577394836E+04  0.50400001928E-02 0.  1.
       -1   -1    0    0    0  501  0.00000000000E+00  0.00000000000E+00 -0.17325005934E+04  0.17325005935E+04  0.50400001928E-02 0. -1.
    10030    2    1    2    0    0  0.00000000000E+00  0.00000000000E+00  0.25238890123E+02  0.34902400770E+04  0.34901488211E+04 0.  0.
        3    1    3    3  502    0  0.82023710750E+02  0.12606873473E+04 -0.11912493174E+04  0.17364145309E+04  0.10100000352E+00 0. -1.
       -3    1    3    3    0  502 -0.82023710750E+02 -0.12606873473E+04  0.12164882076E+04  0.17538255461E+04  0.10100000352E+00 0.  1.
</event>
<event>
 5   0  0.1348388E-06  0.3501579E+04  0.7818609E-02  0.8113416E-01
       -2   -1    0    0    0  501  0.00000000000E+00  0.00000000000E+00  0.10384455432E+04  0.10384455432E+04  0.25500000920E-02 0. -1.
        2   -1    0    0  501    0  0.00000000000E+00  0.00000000000E+00 -0.29517816331E+04  0.29517816331E+04  0.25500000920E-02 0.  1.
    10030    2    1    2    0    0  0.00000000000E+00  0.00000000000E+00 -0.19133360899E+04  0.39902271763E+04  0.35015793474E+04 0.  0.
        5    1    3    3  502    0  0.10836555983E+04  0.25520464771E+03 -0.24964551223E+04  0.27334500426E+04  0.46999998093E+01 0.  1.
       -5    1    3    3    0  502 -0.10836555983E+04 -0.25520464771E+03  0.58311903240E+03  0.12567771337E+04  0.46999998093E+01 0. -1.
</event>
<event>
 5   0  0.1442864E-06  0.3355579E+04  0.7818609E-02  0.8148895E-01
       -2   -1    0    0    0  501  0.00000000000E+00  0.00000000000E+00  0.24768281832E+04  0.24768281832E+04  0.25500000920E-02 0. -1.
        2   -1    0    0  501    0  0.00000000000E+00  0.00000000000E+00 -0.11365254115E+04  0.11365254115E+04  0.25500000920E-02 0.  1.
    10030    2    1    2    0    0  0.00000000000E+00  0.00000000000E+00  0.13403027717E+04  0.36133535947E+04  0.33555793360E+04 0.  0.
        1    1    3    3  502    0 -0.13325582334E+04 -0.28400709197E+03 -0.38414612375E+03  0.14156057778E+04  0.50400001928E-02 0.  1.
       -1    1    3    3    0  502  0.13325582334E+04  0.28400709197E+03  0.17244488955E+04  0.21977478169E+04  0.50400001928E-02 0. -1.
</event>
<event>
 5   0  0.1442864E-06  0.3521925E+04  0.7818609E-02  0.8108613E-01
       -2   -1    0    0    0  501  0.00000000000E+00  0.00000000000E+00  0.16437905603E+04  0.16437905603E+04  0.25500000920E-02 0. -1.
        2   -1    0    0  501    0  0.00000000000E+00  0.00000000000E+00 -0.18864870967E+04  0.18864870967E+04  0.25500000920E-02 0.  1.
    10030    2    1    2    0    0  0.00000000000E+00  0.00000000000E+00 -0.24269653634E+03  0.35302776570E+04  0.35219254289E+04 0.  0.
        1    1    3    3  502    0 -0.87351385708E+03  0.98249486866E+03 -0.12957354794E+04  0.18458746052E+04  0.50400001928E-02 0.  1.
       -1    1    3    3    0  502  0.87351385708E+03 -0.98249486866E+03  0.10530389430E+04  0.16844030518E+04  0.50400001928E-02 0. -1.
</event>
<event>
 5   0  0.4557237E-07  0.3485402E+04  0.7818609E-02  0.8117258E-01
        1   -1    0    0  501    0  0.00000000000E+00  0.00000000000E+00  0.16811329793E+04  0.16811329793E+04  0.50400001928E-02 0. -1.
       -1   -1    0    0    0  501  0.00000000000E+00  0.00000000000E+00 -0.18065234073E+04  0.18065234073E+04  0.50400001928E-02 0.  1.
    10030    2    1    2    0    0  0.00000000000E+00  0.00000000000E+00 -0.12539042803E+03  0.34876563866E+04  0.34854015998E+04 0.  0.
        2    1    3    3  502    0  0.14110632650E+04  0.10091096405E+04  0.10355760790E+03  0.17378509667E+04  0.25500000920E-02 0. -1.
       -2    1    3    3    0  502 -0.14110632650E+04 -0.10091096405E+04 -0.22894803593E+03  0.17498054199E+04  0.25500000920E-02 0.  1.
</event>
<event>
 5   0  0.4557237E-07  0.3569987E+04  0.7818609E-02  0.8097401E-01
       -1   -1    0    0    0  501  0.00000000000E+00  0.00000000000E+00  0.16683181342E+04  0.16683181342E+04  0.50400001928E-02 0.  1.
        1   -1    0    0  501    0  0.00000000000E+00  0.00000000000E+00 -0.19098285390E+04  0.19098285390E+04  0.50400001928E-02 0. -1.
    10030    2    1    2    0    0  0.00000000000E+00  0.00000000000E+00 -0.24151040477E+03  0.35781466732E+04  0.35699868822E+04 0.  0.
        2    1    3    3  502    0 -0.39742594961E+03 -0.17349753202E+04  0.14143801919E+02  0.17799682003E+04  0.25500000920E-02 0.  1.
       -2    1    3    3    0  502  0.39742594961E+03  0.17349753202E+04 -0.25565420669E+03  0.17981784729E+04  0.25500000920E-02 0. -1.
</event>
<event>
 5   0  0.1378620E-06  0.3509950E+04  0.7818609E-02  0.8111436E-01
        2   -1    0    0  501    0  0.00000000000E+00  0.00000000000E+00  0.22725392927E+04  0.22725392927E+04  0.25500000920E-02 0. -1.
       -2   -1    0    0    0  501  0.00000000000E+00  0.00000000000E+00 -0.13552842522E+04  0.13552842523E+04  0.25500000920E-02 0.  1.
    10030    2    1    2    0    0  0.00000000000E+00  0.00000000000E+00  0.91725504043E+03  0.36278235449E+04  0.35099496954E+04 0.  0.
        2    1    3    3  502    0  0.29306684732E+03 -0.97279115152E+03 -0.10204167594E+04  0.14399517924E+04  0.25500000920E-02 0.  1.
       -2    1    3    3    0  502 -0.29306684732E+03  0.97279115152E+03  0.19376717999E+04  0.21878717525E+04  0.25500000920E-02 0. -1.
</event>
<event>
 5   0  0.4409125E-07  0.3477231E+04  0.7818609E-02  0.8119207E-01
       -1   -1    0    0    0  501  0.00000000000E+00  0.00000000000E+00  0.14660779346E+04  0.14660779346E+04  0.50400001928E-02 0. -1.
        1   -1    0    0  501    0  0.00000000000E+00  0.00000000000E+00 -0.20618163024E+04  0.20618163024E+04  0.50400001928E-02 0.  1.
    10030    2    1    2    0    0  0.00000000000E+00  0.00000000000E+00 -0.59573836786E+03  0.35278942370E+04  0.34772307293E+04 0.  0.
        5    1    3    3  502    0  0.61222204887E+03  0.22468271328E+03  0.13372775995E+04  0.14878278217E+04  0.46999998093E+01 0. -1.
       -5    1    3    3    0  502 -0.61222204887E+03 -0.22468271328E+03 -0.19330159674E+04  0.20400664153E+04  0.46999998093E+01 0.  1.
</event>
<event>
 5   0  0.4591195E-07  0.3485646E+04  0.7818609E-02  0.8117200E-01
       -1   -1    0    0    0  501  0.00000000000E+00  0.00000000000E+00  0.15924360085E+04  0.15924360085E+04  0.50400001928E-02 0.  1.
        1   -1    0    0  501    0  0.00000000000E+00  0.00000000000E+00 -0.19074122878E+04  0.19074122878E+04  0.50400001928E-02 0. -1.
    10030    2    1    2    0    0  0.00000000000E+00  0.00000000000E+00 -0.31497627929E+03  0.34998482962E+04  0.34856460004E+04 0.  0.
        4    1    3    3  502    0  0.53169033137E+02 -0.69166794332E+03  0.14478379503E+04  0.16054494178E+04  0.12699999809E+01 0.  1.
       -4    1    3    3    0  502 -0.53169033137E+02  0.69166794332E+03 -0.17628142296E+04  0.18943988785E+04  0.12699999809E+01 0. -1.
</event>
<event>
 5   0  0.4700769E-07  0.2548591E+04  0.7818609E-02  0.8385876E-01
       -1   -1    0    0    0  501  0.00000000000E+00  0.00000000000E+00  0.13563957414E+04  0.13563957414E+04  0.50400001928E-02 0.  1.
        1   -1    0    0  501    0  0.00000000000E+00  0.00000000000E+00 -0.11971647389E+04  0.11971647389E+04  0.50400001928E-02 0. -1.
    10030    2    1    2    0    0  0.00000000000E+00  0.00000000000E+00  0.15923100254E+03  0.25535604803E+04  0.25485911038E+04 0.  0.
        3    1    3    3  502    0 -0.43891169432E+03 -0.11881798375E+04 -0.59991538963E+02  0.12680748388E+04  0.10100000352E+00 0.  1.
       -3    1    3    3    0  502  0.43891169432E+03  0.11881798375E+04  0.21922254150E+03  0.12854856416E+04  0.10100000352E+00 0. -1.
</event>
<event>
 5   0  0.4409125E-07  0.3495594E+04  0.7818609E-02  0.8114835E-01
        1   -1    0    0  501    0  0.00000000000E+00  0.00000000000E+00  0.30226489931E+04  0.30226489931E+04  0.50400001928E-02 0.  1.
       -1   -1    0    0    0  501  0.00000000000E+00  0.00000000000E+00 -0.10106349830E+04  0.10106349830E+04  0.50400001928E-02 0. -1.
    10030    2    1    2    0    0  0.00000000000E+00  0.00000000000E+00  0.20120140101E+04  0.40332839761E+04  0.34955942635E+04 0.  0.
        5    1    3    3  502    0 -0.33567759449E+03  0.16761109877E+04  0.58562196700E+03  0.18069318384E+04  0.46999998093E+01 0. -1.
       -5    1    3    3    0  502  0.33567759449E+03 -0.16761109877E+04  0.14263920431E+04  0.22263521377E+04  0.46999998093E+01 0.  1.
</event>
<event>
 5   0  0.1378620E-06  0.3245180E+04  0.7818609E-02  0.8176986E-01
       -2   -1    0    0    0  501  0.00000000000E+00  0.00000000000E+00  0.14708420320E+04  0.14708420320E+04  0.25500000920E-02 0. -1.
        2   -1    0    0  501    0  0.00000000000E+00  0.00000000000E+00 -0.17899944617E+04  0.17899944617E+04  0.25500000920E-02 0.  1.
    10030    2    1    2    0    0  0.00000000000E+00  0.00000000000E+00 -0.31915242972E+03  0.32608364938E+04  0.32451804828E+04 0.  0.
        2    1    3    3  502    0  0.52231044808E+03 -0.15318992622E+04 -0.43800831729E+02  0.16190868002E+04  0.25500000920E-02 0.  1.
       -2    1    3    3    0  502 -0.52231044808E+03  0.15318992622E+04 -0.27535159799E+03  0.16417496936E+04  0.25500000920E-02 0. -1.
</event>
<event>
 5   0  0.1378620E-06  0.3587654E+04  0.7818609E-02  0.8093326E-01
        2   -1    0    0  501    0  0.00000000000E+00  0.00000000000E+00  0.11157885562E+04  0.11157885562E+04  0.25500000920E-02 0. -1.
       -2   -1    0    0    0  501  0.00000000000E+00  0.00000000000E+00 -0.28838929524E+04  0.28838929524E+04  0.25500000920E-02 0.  1.
    10030    2    1    2    0    0  0.00000000000E+00  0.00000000000E+00 -0.17681043962E+04  0.39996815086E+04  0.35876536921E+04 0.  0.
        2    1    3    3  502    0 -0.61429748175E+03 -0.42098568262E+03 -0.27034127620E+04  0.28041096453E+04  0.25500000920E-02 0.  1.
       -2    1    3    3    0  502  0.61429748175E+03  0.42098568262E+03  0.93530836586E+03  0.11955718633E+04  0.25500000920E-02 0. -1.
</event>
<event>
 5   0  0.4591195E-07  0.3531250E+04  0.7818609E-02  0.8106424E-01
        1   -1    0    0  501    0  0.00000000000E+00  0.00000000000E+00  0.12885258514E+04  0.12885258514E+04  0.50400001928E-02 0.  1.
       -1   -1    0    0    0  501  0.00000000000E+00  0.00000000000E+00 -0.24193786209E+04  0.24193786209E+04  0.50400001928E-02 0. -1.
    10030    2    1    2    0    0  0.00000000000E+00  0.00000000000E+00 -0.11308527695E+04  0.37079044723E+04  0.35312501454E+04 0.  0.
        4    1    3    3  502    0 -0.81400851529E+03  0.89155351675E+03 -0.19182709976E+04  0.22665486470E+04  0.12699999809E+01 0. -1.
       -4    1    3    3    0  502  0.81400851529E+03 -0.89155351675E+03  0.78741822807E+03  0.14413558253E+04  0.12699999809E+01 0.  1.
</event>
<event>
 5   0  0.4693374E-07  0.3515146E+04  0.7818609E-02  0.8110210E-01
       -1   -1    0    0    0  501  0.00000000000E+00  0.00000000000E+00  0.26643694605E+04  0.26643694605E+04  0.50400001928E-02 0.  1.
        1   -1    0    0  501    0  0.00000000000E+00  0.00000000000E+00 -0.11593975360E+04  0.11593975360E+04  0.50400001928E-02 0. -1.
    10030    2    1    2    0    0  0.00000000000E+00  0.00000000000E+00  0.15049719244E+04  0.38237669965E+04  0.35151463056E+04 0.  0.
        1    1    3    3  502    0 -0.86049345208E+03  0.13315943605E+04 -0.72714923320E+02  0.15870979750E+04  0.50400001928E-02 0.  1.
       -1    1    3    3    0  502  0.86049345208E+03 -0.13315943605E+04  0.15776868478E+04  0.22366690215E+04  0.50400001928E-02 0. -1.
</event>
<event>
 5   0  0.4693374E-07  0.3523389E+04  0.7818609E-02  0.8108269E-01
        1   -1    0    0  501    0  0.00000000000E+00  0.00000000000E+00  0.20969084856E+04  0.20969084856E+04  0.50400001928E-02 0. -1.
       -1   -1    0    0    0  501  0.00000000000E+00  0.00000000000E+00 -0.14800678615E+04  0.14800678615E+04  0.50400001928E-02 0.  1.
    10030    2    1    2    0    0  0.00000000000E+00  0.00000000000E+00  0.61684062416E+03  0.35769763471E+04  0.35233886292E+04 0.  0.
        1    1    3    3  502    0  0.57367203001E+02  0.14625381535E+04  0.13037695910E+04  0.19601336671E+04  0.50400001928E-02 0. -1.
       -1    1    3    3    0  502 -0.57367203001E+02 -0.14625381535E+04 -0.68692896680E+03  0.16168426800E+04  0.50400001928E-02 0.  1.
</event>
<event>
 5   0  0.4409125E-07  0.3491784E+04  0.7818609E-02  0.8115740E-01
        1   -1    0    0  501    0  0.00000000000E+00  0.00000000000E+00  0.17353957582E+04  0.17353957582E+04  0.50400001928E-02 0.  1.
       -1   -1    0    0    0  501  0.00000000000E+00  0.00000000000E+00 -0.17564512766E+04  0.17564512767E+04  0.50400001928E-02 0. -1.
    10030    2    1    2    0    0  0.00000000000E+00  0.00000000000E+00 -0.21055518437E+02  0.34918470349E+04  0.34917835529E+04 0.  0.
        5    1    3    3  502    0 -0.41925176968E+03 -0.15704287055E+04 -0.64779725155E+03  0.17497661942E+04  0.46999998093E+01 0. -1.
       -5    1    3    3    0  502  0.41925176968E+03  0.15704287055E+04  0.62674173311E+03  0.17420808406E+04  0.46999998093E+01 0.  1.
</event>
<event>
 5   0  0.1442864E-06  0.3530022E+04  0.7818609E-02  0.8106712E-01
        2   -1    0    0  501    0  0.00000000000E+00  0.00000000000E+00  0.16872392691E+04  0.16872392691E+04  0.25500000920E-02 0. -1.
       -2   -1    0    0    0  501  0.00000000000E+00  0.00000000000E+00 -0.18463676565E+04  0.18463676565E+04  0.25500000920E-02 0.  1.
    10030    2    1    2    0    0  0.00000000000E+00  0.00000000000E+00 -0.15912838739E+03  0.35336069255E+04  0.35300221048E+04 0.  0.
        1    1    3    3  502    0 -0.57673962905E+03 -0.64244176256E+03  0.14614484046E+04  0.16974072750E+04  0.50400001928E-02 0. -1.
       -1    1    3    3    0  502  0.57673962905E+03  0.64244176256E+03 -0.16205767919E+04  0.18361996505E+04  0.50400001928E-02 0.  1.
</event>
<event>
 5   0  0.1361560E-06  0.3496462E+04  0.7818609E-02  0.8114629E-01
       -2   -1    0    0    0  501  0.00000000000E+00  0.00000000000E+00  0.11761466957E+04  0.11761466957E+04  0.25500000920E-02 0. -1.
        2   -1    0    0  501    0  0.00000000000E+00  0.00000000000E+00 -0.25985801776E+04  0.25985801776E+04  0.25500000920E-02 0.  1.
    10030    2    1    2    0    0  0.00000000000E+00  0.00000000000E+00 -0.14224334819E+04  0.37747268733E+04  0.34964619199E+04 0.  0.
        3    1    3    3  502    0  0.11928713879E+04 -0.11048506120E+04 -0.14047391910E+04  0.21487040810E+04  0.10100000352E+00 0.  1.
       -3    1    3    3    0  502 -0.11928713879E+04  0.11048506120E+04 -0.17694290896E+02  0.16260227922E+04  0.10100000352E+00 0. -1.
</event>
<event>
 5   0  0.1442864E-06  0.3473526E+04  0.7818609E-02  0.8120093E-01
       -2   -1    0    0    0  501  0.00000000000E+00  0.00000000000E+00  0.14716560136E+04  0.14716560136E+04  0.25500000920E-02 0. -1.
        2   -1    0    0  501    0  0.00000000000E+00  0.00000000000E+00 -0.20496263184E+04  0.20496263184E+04  0.25500000920E-02 0.  1.
    10030    2    1    2    0    0  0.00000000000E+00  0.00000000000E+00 -0.57797030486E+03  0.35212823320E+04  0.34735255273E+04 0.  0.
        1    1    3    3  502    0  0.70899694922E+03 -0.26441962120E+03  0.12957576334E+04  0.15005273255E+04  0.50400001928E-02 0. -1.
       -1    1    3    3    0  502 -0.70899694922E+03  0.26441962120E+03 -0.18737279382E+04  0.20207550066E+04  0.50400001928E-02 0.  1.
</event>
<event>
 5   0  0.1361560E-06  0.3386873E+04  0.7818609E-02  0.8141136E-01
        2   -1    0    0  501    0  0.00000000000E+00  0.00000000000E+00  0.20679157187E+04  0.20679157187E+04  0.25500000920E-02 0.  1.
       -2   -1    0    0    0  501  0.00000000000E+00  0.00000000000E+00 -0.13867719838E+04  0.13867719838E+04  0.25500000920E-02 0. -1.
    10030    2    1    2    0    0  0.00000000000E+00  0.00000000000E+00  0.68114373497E+03  0.34546877025E+04  0.33868732386E+04 0.  0.
        3    1    3    3  502    0  0.48957756540E+02  0.80545972099E+03  0.18591953862E+04  0.20267633602E+04  0.10100000352E+00 0.  1.
       -3    1    3    3    0  502 -0.48957756540E+02 -0.80545972099E+03 -0.11780516513E+04  0.14279243423E+04  0.10100000352E+00 0. -1.
</event>
<event>
 5   0  0.1348388E-06  0.3467158E+04  0.7818609E-02  0.8121618E-01
       -2   -1    0    0    0  501  0.00000000000E+00  0.00000000000E+00  0.13455340856E+04  0.13455340856E+04  0.25500000920E-02 0. -1.
        2   -1    0    0  501    0  0.00000000000E+00  0.00000000000E+00 -0.22335337084E+04  0.22335337084E+04  0.25500000920E-02 0.  1.
    10030    2    1    2    0    0  0.00000000000E+00  0.00000000000E+00 -0.88799962274E+03  0.35790677940E+04  0.34671577616E+04 0.  0.
        5    1    3    3  502    0  0.56411959736E+03 -0.42568554996E+03  0.11900771877E+04  0.13841043711E+04  0.46999998093E+01 0. -1.
       -5    1    3    3    0  502 -0.56411959736E+03  0.42568554996E+03 -0.20780768104E+04  0.21949634228E+04  0.46999998093E+01 0.  1.
</event>
<event>
 5   0  0.4557237E-07  0.2753961E+04  0.7818609E-02  0.8317706E-01
       -1   -1    0    0    0  501  0.00000000000E+00  0.00000000000E+00  0.14663100020E+04  0.14663100020E+04  0.50400001928E-02 0.  1.
        1   -1    0    0  501    0  0.00000000000E+00  0.00000000000E+00 -0.12930933604E+04  0.12930933604E+04  0.50400001928E-02 0. -1.
    10030    2    1    2    0    0  0.00000000000E+00  0.00000000000E+00  0.17321664161E+03  0.27594033624E+04  0.27539613126E+04 0.  0.
        2    1    3    3  502    0 -0.10418384925E+04  0.86479969429E+03 -0.16442572772E+03  0.13639434650E+04  0.25500000920E-02 0. -1.
       -2    1    3    3    0  502  0.10418384925E+04 -0.86479969429E+03  0.33764236933E+03  0.13954598974E+04  0.25500000920E-02 0.  1.
</event>
<event>
 5   0  0.4700769E-07  0.2648059E+04  0.7818609E-02  0.8352058E-01
       -1   -1    0    0    0  501  0.00000000000E+00  0.00000000000E+00  0.13537218355E+04  0.13537218355E+04  0.50400001928E-02 0. -1.
        1   -1    0    0  501    0  0.00000000000E+00  0.00000000000E+00 -0.12949880824E+04  0.12949880824E+04  0.50400001928E-02 0.  1.
    10030    2    1    2    0    0  0.00000000000E+00  0.00000000000E+00  0.58733753085E+02  0.26487099179E+04  0.26480586427E+04 0.  0.
        3    1    3    3  502    0 -0.49316979306E+03  0.34078409902E+03 -0.11514756269E+04  0.12981703958E+04  0.10100000352E+00 0.  1.
       -3    1    3    3    0  502  0.49316979306E+03 -0.34078409902E+03  0.12102093800E+04  0.13505395221E+04  0.10100000352E+00 0. -1.
</event>
<event>
 5   0  0.1442864E-06  0.3517002E+04  0.7818609E-02  0.8109772E-01
       -2   -1    0    0    0  501  0.00000000000E+00  0.00000000000E+00  0.17362256224E+04  0.17362256224E+04  0.25500000920E-02 0.  1.
        2   -1    0    0  501    0  0.00000000000E+00  0.00000000000E+00 -0.17810626614E+04  0.17810626614E+04  0.25500000920E-02 0. -1.
    10030    2    1    2    0    0  0.00000000000E+00  0.00000000000E+00 -0.44837038997E+02  0.35172882839E+04  0.35170024896E+04 0.  0.
        1    1    3    3  502    0 -0.56563411060E+03  0.10113242415E+04  0.13004164362E+04  0.17417811504E+04  0.50400001928E-02 0.  1.
       -1    1    3    3    0  502  0.56563411060E+03 -0.10113242415E+04 -0.13452534752E+04  0.17755071335E+04  0.50400001928E-02 0. -1.
</event>
<event>
 5   0  0.4700769E-07  0.2884874E+04  0.7818609E-02  0.8277392E-01
        1   -1    0    0  501    0  0.00000000000E+00  0.00000000000E+00  0.11205548404E+04  0.11205548404E+04  0.50400001928E-02 0. -1.
       -1   -1    0    0    0  501  0.00000000000E+00  0.00000000000E+00 -0.18567800697E+04  0.18567800697E+04  0.50400001928E-02 0.  1.
    10030    2    1    2    0    0  0.00000000000E+00  0.00000000000E+00 -0.73622522929E+03  0.29773349100E+04  0.28848735810E+04 0.  0.
        3    1    3    3  502    0  0.86214043528E+03 -0.10416570049E+04 -0.88649421405E+03  0.16168510902E+04  0.10100000352E+00 0.  1.
       -3    1    3    3    0  502 -0.86214043528E+03  0.10416570049E+04  0.15026898476E+03  0.13604838198E+04  0.10100000352E+00 0. -1.
</event>
<event>
 5   0  0.4557237E-07  0.3536812E+04  0.7818609E-02  0.8105121E-01
        1   -1    0    0  501    0  0.00000000000E+00  0.00000000000E+00  0.19822955603E+04  0.19822955603E+04  0.50400001928E-02 0. -1.
       -1   -1    0    0    0  501  0.00000000000E+00  0.00000000000E+00 -0.15775948675E+04  0.15775948675E+04  0.50400001928E-02 0.  1.
    10030    2    1    2    0    0  0.00000000000E+00  0.00000000000E+00  0.40470069286E+03  0.35598904278E+04  0.35368117291E+04 0.  0.
        2    1    3    3  502    0 -0.71169061182E+03  0.12370449422E+04  0.12534228186E+04  0.18994347787E+04  0.25500000920E-02 0. -1.
       -2    1    3    3    0  502  0.71169061182E+03 -0.12370449422E+04 -0.84872212577E+03  0.16604556492E+04  0.25500000920E-02 0.  1.
</event>
<event>
 5   0  0.4591195E-07  0.3478980E+04  0.7818609E-02  0.8118790E-01
        1   -1    0    0  501    0  0.00000000000E+00  0.00000000000E+00  0.22074363904E+04  0.22074363904E+04  0.50400001928E-02 0. -1.
       -1   -1    0    0    0  501  0.00000000000E+00  0.00000000000E+00 -0.13707419290E+04  0.13707419290E+04  0.50400001928E-02 0.  1.
    10030    2    1    2    0    0  0.00000000000E+00  0.00000000000E+00  0.83669446140E+03  0.35781783193E+04  0.34789800895E+04 0.  0.
        4    1    3    3  502    0 -0.16628193120E+04  0.13758215249E+03  0.92423279563E+03  0.19073816573E+04  0.12699999809E+01 0. -1.
       -4    1    3    3    0  502  0.16628193120E+04 -0.13758215249E+03 -0.87538334234E+02  0.16707966621E+04  0.12699999809E+01 0.  1.
</event>
<event>
 5   0  0.1387133E-06  0.3503280E+04  0.7818609E-02  0.8113013E-01
        2   -1    0    0  501    0  0.00000000000E+00  0.00000000000E+00  0.16555347708E+04  0.16555347708E+04  0.25500000920E-02 0. -1.
       -2   -1    0    0    0  501  0.00000000000E+00  0.00000000000E+00 -0.18533244107E+04  0.18533244107E+04  0.25500000920E-02 0.  1.
    10030    2    1    2    0    0  0.00000000000E+00  0.00000000000E+00 -0.19778963987E+03  0.35088591815E+04  0.35032801792E+04 0.  0.
        4    1    3    3  502    0 -0.16042638129E+04  0.47128303939E+03  0.42392429091E+03  0.17249589856E+04  0.12699999809E+01 0. -1.
       -4    1    3    3    0  502  0.16042638129E+04 -0.47128303939E+03 -0.62171393079E+03  0.17839001960E+04  0.12699999809E+01 0.  1.
</event>
<event>
 5   0  0.4409125E-07  0.3485935E+04  0.7818609E-02  0.8117131E-01
       -3   -1    0    0    0  501  0.00000000000E+00  0.00000000000E+00  0.10787203380E+04  0.10787203427E+04  0.10100000352E+00 0. -1.
        3   -1    0    0  501    0  0.00000000000E+00  0.00000000000E+00 -0.28162404318E+04  0.28162404336E+04  0.10100000352E+00 0.  1.
    10030    2    1    2    0    0  0.00000000000E+00  0.00000000000E+00 -0.17375200938E+04  0.38949607763E+04  0.34859350786E+04 0.  0.
        4    1    3    3  502    0  0.13884603422E+04 -0.12570691367E+02 -0.20459222281E+04  0.24726058159E+04  0.12699999809E+01 0.  1.
       -4    1    3    3    0  502 -0.13884603422E+04  0.12570691367E+02  0.30840213429E+03  0.14223549605E+04  0.12699999809E+01 0. -1.
</event>
<event>
 5   0  0.4409125E-07  0.3535711E+04  0.7818609E-02  0.8105379E-01
        1   -1    0    0  501    0  0.00000000000E+00  0.00000000000E+00  0.17761071970E+04  0.17761071970E+04  0.50400001928E-02 0. -1.
       -1   -1    0    0    0  501  0.00000000000E+00  0.00000000000E+00 -0.17596420466E+04  0.17596420466E+04  0.50400001928E-02 0.  1.
    10030    2    1    2    0    0  0.00000000000E+00  0.00000000000E+00  0.16465150399E+02  0.35357492435E+04  0.35357109062E+04 0.  0.
        5    1    3    3  502    0  0.69933233989E+03  0.11733832967E+04  0.11304732097E+04  0.17731006317E+04  0.46999998093E+01 0. -1.
       -5    1    3    3    0  502 -0.69933233989E+03 -0.11733832967E+04 -0.11140080593E+04  0.17626486118E+04  0.46999998093E+01 0.  1.
</event>
<event>
 5   0  0.4409125E-07  0.3494130E+04  0.7818609E-02  0.8115182E-01
       -1   -1    0    0    0  501  0.00000000000E+00  0.00000000000E+00  0.22227051260E+04  0.22227051260E+04  0.50400001928E-02 0.  1.
        1   -1    0    0  501    0  0.00000000000E+00  0.00000000000E+00 -0.13732081776E+04  0.13732081776E+04  0.50400001928E-02 0. -1.
    10030    2    1    2    0    0  0.00000000000E+00  0.00000000000E+00  0.84949694843E+03  0.35959133036E+04  0.34941304242E+04 0.  0.
        5    1    3    3  502    0  0.77898000634E+03  0.15599737205E+04  0.53695148794E+03  0.18244634415E+04  0.46999998093E+01 0. -1.
       -5    1    3    3    0  502 -0.77898000634E+03 -0.15599737205E+04  0.31254546049E+03  0.17714498621E+04  0.46999998093E+01 0.  1.
</event>
<event>
 5   0  0.1348388E-06  0.3441379E+04  0.7818609E-02  0.8127825E-01
        2   -1    0    0  501    0  0.00000000000E+00  0.00000000000E+00  0.14903112247E+04  0.14903112247E+04  0.25500000920E-02 0. -1.
       -2   -1    0    0    0  501  0.00000000000E+00  0.00000000000E+00 -0.19866808365E+04  0.19866808365E+04  0.25500000920E-02 0.  1.
    10030    2    1    2    0    0  0.00000000000E+00  0.00000000000E+00 -0.49636961180E+03  0.34769920612E+04  0.34413792296E+04 0.  0.
        5    1    3    3  502    0  0.18218967325E+03 -0.16909537432E+04  0.15732864360E+02  0.17008195823E+04  0.46999998093E+01 0. -1.
       -5    1    3    3    0  502 -0.18218967325E+03  0.16909537432E+04 -0.51210247616E+03  0.17761724789E+04  0.46999998093E+01 0.  1.
</event>
<event>
 5   0  0.1442864E-06  0.3440693E+04  0.7818609E-02  0.8127990E-01
       -2   -1    0    0    0  501  0.00000000000E+00  0.00000000000E+00  0.11299772688E+04  0.11299772688E+04  0.25500000920E-02 0.  1.
        2   -1    0    0  501    0  0.00000000000E+00  0.00000000000E+00 -0.26191612690E+04  0.26191612690E+04  0.25500000920E-02 0. -1.
    10030    2    1    2    0    0  0.00000000000E+00  0.00000000000E+00 -0.14891840002E+04  0.37491385378E+04  0.34406933588E+04 0.  0.
        1    1    3    3  502    0  0.46959657472E+03 -0.15926867323E+04 -0.25434718440E+03  0.16798406057E+04  0.50400001928E-02 0.  1.
       -1    1    3    3    0  502 -0.46959657472E+03  0.15926867323E+04 -0.12348368158E+04  0.20692979321E+04  0.50400001928E-02 0. -1.
</event>
<event>
 5   0  0.4557237E-07  0.3463749E+04  0.7818609E-02  0.8122435E-01
        1   -1    0    0  501    0  0.00000000000E+00  0.00000000000E+00  0.17316049177E+04  0.17316049178E+04  0.50400001928E-02 0.  1.
       -1   -1    0    0    0  501  0.00000000000E+00  0.00000000000E+00 -0.17321441808E+04  0.17321441808E+04  0.50400001928E-02 0. -1.
    10030    2    1    2    0    0  0.00000000000E+00  0.00000000000E+00 -0.53926304902E+00  0.34637490986E+04  0.34637490566E+04 0.  0.
        2    1    3    3  502    0 -0.15520793040E+04  0.32280525912E+03 -0.69757587150E+03  0.17319831113E+04  0.25500000920E-02 0.  1.
       -2    1    3    3    0  502  0.15520793040E+04 -0.32280525912E+03  0.69703660845E+03  0.17317659873E+04  0.25500000920E-02 0. -1.
</event>
<event>
 5   0  0.4557237E-07  0.2563245E+04  0.7818609E-02  0.8380794E-01
        1   -1    0    0  501    0  0.00000000000E+00  0.00000000000E+00  0.96852909544E+03  0.96852909546E+03  0.50400001928E-02 0. -1.
       -1   -1    0    0    0  501  0.00000000000E+00  0.00000000000E+00 -0.16959285884E+04  0.16959285884E+04  0.50400001928E-02 0.  1.
    10030    2    1    2    0    0  0.00000000000E+00  0.00000000000E+00 -0.72739949295E+03  0.26644576839E+04  0.25632449603E+04 0.  0.
        2    1    3    3  502    0  0.17624397514E+03 -0.50627437550E+03  0.84638918074E+03  0.10018734088E+04  0.25500000920E-02 0. -1.
       -2    1    3    3    0  502 -0.17624397514E+03  0.50627437550E+03 -0.15737886737E+04  0.16625842750E+04  0.25500000920E-02 0.  1.
</event>
<event>
 5   0  0.1442864E-06  0.3536611E+04  0.7818609E-02  0.8105168E-01
        2   -1    0    0  501    0  0.00000000000E+00  0.00000000000E+00  0.14277325813E+04  0.14277325813E+04  0.25500000920E-02 0. -1.
       -2   -1    0    0    0  501  0.00000000000E+00  0.00000000000E+00 -0.21901196275E+04  0.21901196275E+04  0.25500000920E-02 0.  1.
    10030    2    1    2    0    0  0.00000000000E+00  0.00000000000E+00 -0.76238704620E+03  0.36178522089E+04  0.35366114569E+04 0.  0.
        1    1    3    3  502    0 -0.34338929526E+03  0.91127998958E+03 -0.18910929068E+04  0.21271059705E+04  0.50400001928E-02 0.  1.
       -1    1    3    3    0  502  0.34338929526E+03 -0.91127998958E+03  0.11287058606E+04  0.14907462384E+04  0.50400001928E-02 0. -1.
</event>
<event>
 5   0  0.1442864E-06  0.3537189E+04  0.7818609E-02  0.8105033E-01
        2   -1    0    0  501    0  0.00000000000E+00  0.00000000000E+00  0.14679050331E+04  0.14679050331E+04  0.25500000920E-02 0. -1.
       -2   -1    0    0    0  501  0.00000000000E+00  0.00000000000E+00 -0.21308780759E+04  0.21308780759E+04  0.25500000920E-02 0.  1.
    10030    2    1    2    0    0  0.00000000000E+00  0.00000000000E+00 -0.66297304281E+03  0.35987831089E+04  0.35371890831E+04 0.  0.
        1    1    3    3  502    0 -0.15985780518E+04  0.66232078430E+03 -0.70365129351E+03  0.18679522884E+04  0.50400001928E-02 0.  1.
       -1    1    3    3    0  502  0.15985780518E+04 -0.66232078430E+03  0.40678250696E+02  0.17308308205E+04  0.50400001928E-02 0. -1.
</event>
<event>
 5   0  0.1361560E-06  0.3498477E+04  0.7818609E-02  0.8114151E-01
       -2   -1    0    0    0  501  0.00000000000E+00  0.00000000000E+00  0.30004135872E+04  0.30004135872E+04  0.25500000920E-02 0. -1.
        2   -1    0    0  501    0  0.00000000000E+00  0.00000000000E+00 -0.10198045806E+04  0.10198045806E+04  0.25500000920E-02 0.  1.
    10030    2    1    2    0    0  0.00000000000E+00  0.00000000000E+00  0.19806090066E+04  0.40202181678E+04  0.34984771086E+04 0.  0.
        3    1    3    3  502    0  0.13500699786E+04  0.78909761271E+03  0.89518841417E+02  0.15663261546E+04  0.10100000352E+00 0.  1.
       -3    1    3    3    0  502 -0.13500699786E+04 -0.78909761271E+03  0.18910901652E+04  0.24538920132E+04  0.10100000352E+00 0. -1.
</event>
<event>
 5   0  0.4591195E-07  0.3307592E+04  0.7818609E-02  0.8160966E-01
        1   -1    0    0  501    0  0.00000000000E+00  0.00000000000E+00  0.16916502101E+04  0.16916502101E+04  0.50400001928E-02 0. -1.
       -1   -1    0    0    0  501  0.00000000000E+00  0.00000000000E+00 -0.16167889377E+04  0.16167889377E+04  0.50400001928E-02 0.  1.
    10030    2    1    2    0    0  0.00000000000E+00  0.00000000000E+00  0.74861272443E+02  0.33084391478E+04  0.33075920826E+04 0.  0.
        4    1    3    3  502    0  0.75172647810E+03  0.12246439797E+04 -0.78143288846E+03  0.16356908470E+04  0.12699999809E+01 0.  1.
       -4    1    3    3    0  502 -0.75172647810E+03 -0.12246439797E+04  0.85629416091E+03  0.16727483008E+04  0.12699999809E+01 0. -1.
</event>
<event>
 5   0  0.4591195E-07  0.3479517E+04  0.7818609E-02  0.8118661E-01
        1   -1    0    0  501    0  0.00000000000E+00  0.00000000000E+00  0.21224282198E+04  0.21224282198E+04  0.50400001928E-02 0. -1.
       -1   -1    0    0    0  501  0.00000000000E+00  0.00000000000E+00 -0.14260830978E+04  0.14260830978E+04  0.50400001928E-02 0.  1.
    10030    2    1    2    0    0  0.00000000000E+00  0.00000000000E+00  0.69634512203E+03  0.35485113176E+04  0.34795166392E+04 0.  0.
        4    1    3    3  502    0  0.61182399915E+03  0.28754193766E+03 -0.12866573741E+04  0.14534434227E+04  0.12699999809E+01 0.  1.
       -4    1    3    3    0  502 -0.61182399915E+03 -0.28754193766E+03  0.19830024961E+04  0.20950678949E+04  0.12699999809E+01 0. -1.
</event>
<event>
 5   0  0.4693374E-07  0.3208021E+04  0.7818609E-02  0.8186702E-01
       -1   -1    0    0    0  501  0.00000000000E+00  0.00000000000E+00  0.12075445553E+04  0.12075445553E+04  0.50400001928E-02 0.  1.
        1   -1    0    0  501    0  0.00000000000E+00  0.00000000000E+00 -0.21306455954E+04  0.21306455954E+04  0.50400001928E-02 0. -1.
    10030    2    1    2    0    0  0.00000000000E+00  0.00000000000E+00 -0.92310104006E+03  0.33381901507E+04  0.32080208778E+04 0.  0.
        1    1    3    3  502    0  0.25642182397E+03 -0.87053519557E+03 -0.18378146449E+04  0.20496698143E+04  0.50400001928E-02 0. -1.
       -1    1    3    3    0  502 -0.25642182397E+03  0.87053519557E+03  0.91471360484E+03  0.12885203364E+04  0.50400001928E-02 0.  1.
</event>
<event>
 5   0  0.1348388E-06  0.3458964E+04  0.7818609E-02  0.8123584E-01
       -2   -1    0    0    0  501  0.00000000000E+00  0.00000000000E+00  0.18166900706E+04  0.18166900706E+04  0.25500000920E-02 0. -1.
        2   -1    0    0  501    0  0.00000000000E+00  0.00000000000E+00 -0.16464604996E+04  0.16464604997E+04  0.25500000920E-02 0.  1.
    10030    2    1    2    0    0  0.00000000000E+00  0.00000000000E+00  0.17022957099E+03  0.34631505703E+04  0.34589642620E+04 0.  0.
        5    1    3    3  502    0 -0.14057579808E+04  0.27198302915E+03 -0.88608812737E+03  0.16838362533E+04  0.46999998093E+01 0.  1.
       -5    1    3    3    0  502  0.14057579808E+04 -0.27198302915E+03  0.10563176984E+04  0.17793143169E+04  0.46999998093E+01 0. -1.
</event>
<event>
 5   0  0.4700769E-07  0.3534025E+04  0.7818609E-02  0.8105774E-01
       -1   -1    0    0    0  501  0.00000000000E+00  0.00000000000E+00  0.15648760752E+04  0.15648760752E+04  0.50400001928E-02 0. -1.
        1   -1    0    0  501    0  0.00000000000E+00  0.00000000000E+00 -0.19952588718E+04  0.19952588718E+04  0.50400001928E-02 0.  1.
    10030    2    1    2    0    0  0.00000000000E+00  0.00000000000E+00 -0.43038279665E+03  0.35601349470E+04  0.35340248286E+04 0.  0.
        3    1    3    3  502    0 -0.11808828952E+03  0.90189441608E+03  0.13109184472E+04  0.15955768761E+04  0.10100000352E+00 0. -1.
       -3    1    3    3    0  502  0.11808828952E+03 -0.90189441608E+03 -0.17413012439E+04  0.19645580709E+04  0.10100000352E+00 0.  1.
</event>
<event>
 5   0  0.1348388E-06  0.3488429E+04  0.7818609E-02  0.8116538E-01
       -2   -1    0    0    0  501  0.00000000000E+00  0.00000000000E+00  0.17096994866E+04  0.17096994866E+04  0.25500000920E-02 0.  1.
        2   -1    0    0  501    0  0.00000000000E+00  0.00000000000E+00 -0.17794258554E+04  0.17794258554E+04  0.25500000920E-02 0. -1.
    10030    2    1    2    0    0  0.00000000000E+00  0.00000000000E+00 -0.69726368779E+02  0.34891253420E+04  0.34884285696E+04 0.  0.
        5    1    3    3  502    0 -0.56239315162E+03  0.11575792343E+04  0.11426508769E+04  0.17210313353E+04  0.46999998093E+01 0.  1.
       -5    1    3    3    0  502  0.56239315162E+03 -0.11575792343E+04 -0.12123772456E+04  0.17680940067E+04  0.46999998093E+01 0. -1.
</event>
<event>
 5   0  0.1442864E-06  0.3531603E+04  0.7818609E-02  0.8106341E-01
       -2   -1    0    0    0  501  0.00000000000E+00  0.00000000000E+00  0.20359069009E+04  0.20359069009E+04  0.25500000920E-02 0. -1.
        2   -1    0    0  501    0  0.00000000000E+00  0.00000000000E+00 -0.15315307804E+04  0.15315307804E+04  0.25500000920E-02 0.  1.
    10030    2    1    2    0    0  0.00000000000E+00  0.00000000000E+00  0.50437612043E+03  0.35674376813E+04  0.35316025172E+04 0.  0.
        1    1    3    3  502    0 -0.99065551929E+03  0.14600337255E+04  0.32331020960E+03  0.17937743250E+04  0.50400001928E-02 0.  1.
       -1    1    3    3    0  502  0.99065551929E+03 -0.14600337255E+04  0.18106591083E+03  0.17736633563E+04  0.50400001928E-02 0. -1.
</event>
<event>
 5   0  0.1387133E-06  0.3034308E+04  0.7818609E-02  0.8234001E-01
       -2   -1    0    0    0  501  0.00000000000E+00  0.00000000000E+00  0.27454624229E+04  0.27454624229E+04  0.25500000920E-02 0.  1.
        2   -1    0    0  501    0  0.00000000000E+00  0.00000000000E+00 -0.83838539972E+03  0.83838539972E+03  0.25500000920E-02 0. -1.
    10030    2    1    2    0    0  0.00000000000E+00  0.00000000000E+00  0.19070770232E+04  0.35838478226E+04  0.30343075723E+04 0.  0.
        4    1    3    3  502    0  0.13502284145E+04 -0.60027210196E+03  0.13597964340E+04  0.20081064022E+04  0.12699999809E+01 0.  1.
       -4    1    3    3    0  502 -0.13502284145E+04  0.60027210196E+03  0.54728058916E+03  0.15757414204E+04  0.12699999809E+01 0. -1.
</event>
<event>
 5   0  0.1348388E-06  0.3608109E+04  0.7818609E-02  0.8088637E-01
        2   -1    0    0  501    0  0.00000000000E+00  0.00000000000E+00  0.21579478355E+04  0.21579478355E+04  0.25500000920E-02 0. -1.
       -2   -1    0    0    0  501  0.00000000000E+00  0.00000000000E+00 -0.15081979790E+04  0.15081979790E+04  0.25500000920E-02 0.  1.
    10030    2    1    2    0    0  0.00000000000E+00  0.00000000000E+00  0.64974985650E+03  0.36661458145E+04  0.36081089586E+04 0.  0.
        5    1    3    3  502    0  0.11437359846E+04  0.11834810835E+04 -0.42581257759E+03  0.17000287994E+04  0.46999998093E+01 0.  1.
       -5    1    3    3    0  502 -0.11437359846E+04 -0.11834810835E+04  0.10755624341E+04  0.19661170151E+04  0.46999998093E+01 0. -1.
</event>
<event>
 5   0  0.4591195E-07  0.3499610E+04  0.7818609E-02  0.8113882E-01
        1   -1    0    0  501    0  0.00000000000E+00  0.00000000000E+00  0.32242366356E+04  0.32242366356E+04  0.50400001928E-02 0. -1.
       -1   -1    0    0    0  501  0.00000000000E+00  0.00000000000E+00 -0.94962554157E+03  0.94962554158E+03  0.50400001928E-02 0.  1.
    10030    2    1    2    0    0  0.00000000000E+00  0.00000000000E+00  0.22746110941E+04  0.41738621772E+04  0.34996099562E+04 0.  0.
        4    1    3    3  502    0  0.11236195974E+04  0.13407135994E+04  0.11876508876E+04  0.21143675648E+04  0.12699999809E+01 0.  1.
       -4    1    3    3    0  502 -0.11236195974E+04 -0.13407135994E+04  0.10869602064E+04  0.20594946124E+04  0.12699999809E+01 0. -1.
</event>
<event>
 5   0  0.1442864E-06  0.3522197E+04  0.7818609E-02  0.8108550E-01
       -2   -1    0    0    0  501  0.00000000000E+00  0.00000000000E+00  0.12019549397E+04  0.12019549397E+04  0.25500000920E-02 0.  1.
        2   -1    0    0  501    0  0.00000000000E+00  0.00000000000E+00 -0.25803530175E+04  0.25803530175E+04  0.25500000920E-02 0. -1.
    10030    2    1    2    0    0  0.00000000000E+00  0.00000000000E+00 -0.13783980778E+04  0.37823079572E+04  0.35221970731E+04 0.  0.
        1    1    3    3  502    0  0.11025253305E+04 -0.13002364187E+04 -0.21464619665E+03  0.17182112322E+04  0.50400001928E-02 0. -1.
       -1    1    3    3    0  502 -0.11025253305E+04  0.13002364187E+04 -0.11637518812E+04  0.20640967249E+04  0.50400001928E-02 0.  1.
</event>
<event>
 5   0  0.4693374E-07  0.3553234E+04  0.7818609E-02  0.8101289E-01
       -1   -1    0    0    0  501  0.00000000000E+00  0.00000000000E+00  0.18112971090E+04  0.18112971090E+04  0.50400001928E-02 0.  1.
        1   -1    0    0  501    0  0.00000000000E+00  0.00000000000E+00 -0.17426010463E+04  0.17426010463E+04  0.50400001928E-02 0. -1.
    10030    2    1    2    0    0  0.00000000000E+00  0.00000000000E+00  0.68696062666E+02  0.35538981553E+04  0.35532341534E+04 0.  0.
        1    1    3    3  502    0  0.12396731385E+04 -0.16929980432E+03 -0.12272029886E+04  0.17525635764E+04  0.50400001928E-02 0. -1.
       -1    1    3    3    0  502 -0.12396731385E+04  0.16929980432E+03  0.12958990513E+04  0.18013345789E+04  0.50400001928E-02 0.  1.
</event>
<event>
 5   0  0.4557237E-07  0.3555483E+04  0.7818609E-02  0.8100766E-01
       -1   -1    0    0    0  501  0.00000000000E+00  0.00000000000E+00  0.97090072743E+03  0.97090072745E+03  0.50400001928E-02 0.  1.
        1   -1    0    0  501    0  0.00000000000E+00  0.00000000000E+00 -0.32550846603E+04  0.32550846603E+04  0.50400001928E-02 0. -1.
    10030    2    1    2    0    0  0.00000000000E+00  0.00000000000E+00 -0.22841839329E+04  0.42259853877E+04  0.35554825634E+04 0.  0.
        2    1    3    3  502    0 -0.71862121496E+03  0.91677804435E+03  0.45409357702E+03  0.12502397410E+04  0.25500000920E-02 0.  1.
       -2    1    3    3    0  502  0.71862121496E+03 -0.91677804435E+03 -0.27382775099E+04  0.29757456468E+04  0.25500000920E-02 0. -1.
</event>
<event>
 5   0  0.4557237E-07  0.3486111E+04  0.7818609E-02  0.8117089E-01
        1   -1    0    0  501    0  0.00000000000E+00  0.00000000000E+00  0.15206119204E+04  0.15206119204E+04  0.50400001928E-02 0. -1.
       -1   -1    0    0    0  501  0.00000000000E+00  0.00000000000E+00 -0.19980395042E+04  0.19980395042E+04  0.50400001928E-02 0.  1.
    10030    2    1    2    0    0  0.00000000000E+00  0.00000000000E+00 -0.47742758376E+03  0.35186514247E+04  0.34861111214E+04 0.  0.
        2    1    3    3  502    0  0.40082666275E+03 -0.14904095372E+04  0.57894670150E+03  0.16483815958E+04  0.25500000920E-02 0. -1.
       -2    1    3    3    0  502 -0.40082666275E+03  0.14904095372E+04 -0.10563742853E+04  0.18702698289E+04  0.25500000920E-02 0.  1.
</event>
<event>
 5   0  0.4693374E-07  0.3460287E+04  0.7818609E-02  0.8123266E-01
       -1   -1    0    0    0  501  0.00000000000E+00  0.00000000000E+00  0.18963870167E+04  0.18963870167E+04  0.50400001928E-02 0.  1.
        1   -1    0    0  501    0  0.00000000000E+00  0.00000000000E+00 -0.15784732184E+04  0.15784732184E+04  0.50400001928E-02 0. -1.
    10030    2    1    2    0    0  0.00000000000E+00  0.00000000000E+00  0.31791379823E+03  0.34748602351E+04  0.34602867613E+04 0.  0.
        1    1    3    3  502    0  0.66958128855E+02 -0.16708166858E+04  0.60499457533E+03  0.17782379550E+04  0.50400001928E-02 0.  1.
       -1    1    3    3    0  502 -0.66958128855E+02  0.16708166858E+04 -0.28708077710E+03  0.16966222801E+04  0.50400001928E-02 0. -1.
</event>
<event>
 5   0  0.4591195E-07  0.3524984E+04  0.7818609E-02  0.8107895E-01
       -1   -1    0    0    0  501  0.00000000000E+00  0.00000000000E+00  0.15891246809E+04  0.15891246809E+04  0.50400001928E-02 0. -1.
        1   -1    0    0  501    0  0.00000000000E+00  0.00000000000E+00 -0.19547725573E+04  0.19547725573E+04  0.50400001928E-02 0.  1.
    10030    2    1    2    0    0  0.00000000000E+00  0.00000000000E+00 -0.36564787642E+03  0.35438972383E+04  0.35249835838E+04 0.  0.
        4    1    3    3  502    0  0.11256176743E+04 -0.13485081355E+04 -0.32812053283E+03  0.17869398527E+04  0.12699999809E+01 0.  1.
       -4    1    3    3    0  502 -0.11256176743E+04  0.13485081355E+04 -0.37527343590E+02  0.17569573856E+04  0.12699999809E+01 0. -1.
</event>
<event>
 5   0  0.1387133E-06  0.3229766E+04  0.7818609E-02  0.8181000E-01
       -2   -1    0    0    0  501  0.00000000000E+00  0.00000000000E+00  0.12894653848E+04  0.12894653848E+04  0.25500000920E-02 0.  1.
        2   -1    0    0  501    0  0.00000000000E+00  0.00000000000E+00 -0.20224252283E+04  0.20224252283E+04  0.25500000920E-02 0. -1.
    10030    2    1    2    0    0  0.00000000000E+00  0.00000000000E+00 -0.73295984351E+03  0.33118906131E+04  0.32297661372E+04 0.  0.
        4    1    3    3  502    0  0.35579417642E+03  0.78807763252E+03  0.10320879391E+04  0.13464260016E+04  0.12699999809E+01 0.  1.
       -4    1    3    3    0  502 -0.35579417642E+03 -0.78807763252E+03 -0.17650477827E+04  0.19654646114E+04  0.12699999809E+01 0. -1.
</event>
<event>
 5   0  0.1387133E-06  0.3477461E+04  0.7818609E-02  0.8119152E-01
       -2   -1    0    0    0  501  0.00000000000E+00  0.00000000000E+00  0.12705014530E+04  0.12705014530E+04  0.25500000920E-02 0.  1.
        2   -1    0    0  501    0  0.00000000000E+00  0.00000000000E+00 -0.23795202433E+04  0.23795202433E+04  0.25500000920E-02 0. -1.
    10030    2    1    2    0    0  0.00000000000E+00  0.00000000000E+00 -0.11090187903E+04  0.36500216963E+04  0.34774611006E+04 0.  0.
        4    1    3    3  502    0 -0.95068831293E+02  0.34291473859E+03  0.12318710604E+04  0.12822388713E+04  0.12699999809E+01 0.  1.
       -4    1    3    3    0  502  0.95068831293E+02 -0.34291473859E+03 -0.23408898507E+04  0.23677828250E+04  0.12699999809E+01 0. -1.
</event>
<event>
 5   0  0.4409125E-07  0.3393533E+04  0.7818609E-02  0.8139495E-01
        1   -1    0    0  501    0  0.00000000000E+00  0.00000000000E+00  0.89532443662E+03  0.89532443663E+03  0.50400001928E-02 0. -1.
       -1   -1    0    0    0  501  0.00000000000E+00  0.00000000000E+00 -0.32156126579E+04  0.32156126579E+04  0.50400001928E-02 0.  1.
    10030    2    1    2    0    0  0.00000000000E+00  0.00000000000E+00 -0.23202882213E+04  0.41109370946E+04  0.33935330211E+04 0.  0.
        5    1    3    3  502    0 -0.13380053427E+04 -0.92312457825E+03 -0.17493610330E+04  0.23880333746E+04  0.46999998093E+01 0.  1.
       -5    1    3    3    0  502  0.13380053427E+04  0.92312457825E+03 -0.57092718826E+03  0.17229037200E+04  0.46999998093E+01 0. -1.
</event>
<event>
 5   0  0.1378620E-06  0.3487869E+04  0.7818609E-02  0.8116671E-01
        2   -1    0    0  501    0  0.00000000000E+00  0.00000000000E+00  0.99591272326E+03  0.99591272326E+03  0.25500000920E-02 0. -1.
       -2   -1    0    0    0  501  0.00000000000E+00  0.00000000000E+00 -0.30537899001E+04  0.30537899001E+04  0.25500000920E-02 0.  1.
    10030    2    1    2    0    0  0.00000000000E+00  0.00000000000E+00 -0.20578771769E+04  0.40497026234E+04  0.34878693873E+04 0.  0.
        2    1    3    3  502    0 -0.15866096696E+04 -0.52704268695E+03 -0.45282190336E+03  0.17320946607E+04  0.25500000920E-02 0. -1.
       -2    1    3    3    0  502  0.15866096696E+04  0.52704268695E+03 -0.16050552735E+04  0.23176079627E+04  0.25500000920E-02 0.  1.
</event>
<event>
 5   0  0.4409125E-07  0.2509234E+04  0.7818609E-02  0.8399703E-01
       -3   -1    0    0    0  501  0.00000000000E+00  0.00000000000E+00  0.10539625192E+04  0.10539625240E+04  0.10100000352E+00 0.  1.
        3   -1    0    0  501    0  0.00000000000E+00  0.00000000000E+00 -0.14934717492E+04  0.14934717526E+04  0.10100000352E+00 0. -1.
    10030    2    1    2    0    0  0.00000000000E+00  0.00000000000E+00 -0.43950923002E+03  0.25474342767E+04  0.25092335544E+04 0.  0.
        2    1    3    3  502    0  0.15343678470E+03  0.50238505788E+03  0.93694592633E+03  0.10741514149E+04  0.25500000920E-02 0.  1.
       -2    1    3    3    0  502 -0.15343678470E+03 -0.50238505788E+03 -0.13764551563E+04  0.14732828617E+04  0.25500000920E-02 0. -1.
</event>
<event>
 5   0  0.1442864E-06  0.3691038E+04  0.7818609E-02  0.8069951E-01
       -2   -1    0    0    0  501  0.00000000000E+00  0.00000000000E+00  0.16187685872E+04  0.16187685872E+04  0.25500000920E-02 0.  1.
        2   -1    0    0  501    0  0.00000000000E+00  0.00000000000E+00 -0.21040316751E+04  0.21040316751E+04  0.25500000920E-02 0. -1.
    10030    2    1    2    0    0  0.00000000000E+00  0.00000000000E+00 -0.48526308786E+03  0.37228002623E+04  0.36910380015E+04 0.  0.
        1    1    3    3  502    0  0.38443186643E+03  0.13532635797E+04 -0.14474104823E+04  0.20184417951E+04  0.50400001928E-02 0. -1.
       -1    1    3    3    0  502 -0.38443186643E+03 -0.13532635797E+04  0.96214739441E+03  0.17043584672E+04  0.50400001928E-02 0.  1.
</event>
<event>
 5   0  0.1387133E-06  0.3406598E+04  0.7818609E-02  0.8136289E-01
        2   -1    0    0  501    0  0.00000000000E+00  0.00000000000E+00  0.17803626529E+04  0.17803626529E+04  0.25500000920E-02 0.  1.
       -2   -1    0    0    0  501  0.00000000000E+00  0.00000000000E+00 -0.16295707537E+04  0.16295707537E+04  0.25500000920E-02 0. -1.
    10030    2    1    2    0    0  0.00000000000E+00  0.00000000000E+00  0.15079189917E+03  0.34099334066E+04  0.34065976634E+04 0.  0.
        4    1    3    3  502    0  0.14780456135E+04  0.15338439793E+03  0.90872522486E+03  0.17418176587E+04  0.12699999809E+01 0.  1.
       -4    1    3    3    0  502 -0.14780456135E+04 -0.15338439793E+03 -0.75793332569E+03  0.16681157478E+04  0.12699999809E+01 0. -1.
</event>
<event>
 5   0  0.4409125E-07  0.3507625E+04  0.7818609E-02  0.8111985E-01
       -1   -1    0    0    0  501  0.00000000000E+00  0.00000000000E+00  0.19255177776E+04  0.19255177776E+04  0.50400001928E-02 0. -1.
        1   -1    0    0  501    0  0.00000000000E+00  0.00000000000E+00 -0.15974192106E+04  0.15974192106E+04  0.50400001928E-02 0.  1.
    10030    2    1    2    0    0  0.00000000000E+00  0.00000000000E+00  0.32809856695E+03  0.35229369882E+04  0.35076254580E+04 0.  0.
        5    1    3    3  502    0  0.10324925869E+04 -0.25022534295E+03  0.15655556786E+04  0.18919937466E+04  0.46999998093E+01 0. -1.
       -5    1    3    3    0  502 -0.10324925869E+04  0.25022534295E+03 -0.12374571117E+04  0.16309432416E+04  0.46999998093E+01 0.  1.
</event>
<event>
 5   0  0.1387133E-06  0.3464312E+04  0.7818609E-02  0.8122300E-01
        2   -1    0    0  501    0  0.00000000000E+00  0.00000000000E+00  0.10429708184E+04  0.10429708184E+04  0.25500000920E-02 0. -1.
       -2   -1    0    0    0  501  0.00000000000E+00  0.00000000000E+00 -0.28767474098E+04  0.28767474098E+04  0.25500000920E-02 0.  1.
    10030    2    1    2    0    0  0.00000000000E+00  0.00000000000E+00 -0.18337765914E+04  0.39197182282E+04  0.34643115336E+04 0.  0.
        4    1    3    3  502    0  0.85778555673E+03 -0.14881246531E+04 -0.66375804998E+03  0.18414362347E+04  0.12699999809E+01 0.  1.
       -4    1    3    3    0  502 -0.85778555673E+03  0.14881246531E+04 -0.11700185414E+04  0.20782819936E+04  0.12699999809E+01 0. -1.
</event>
<event>
 5   0  0.1348388E-06  0.3546934E+04  0.7818609E-02  0.8102756E-01
       -2   -1    0    0    0  501  0.00000000000E+00  0.00000000000E+00  0.15310509278E+04  0.15310509278E+04  0.25500000920E-02 0. -1.
        2   -1    0    0  501    0  0.00000000000E+00  0.00000000000E+00 -0.20542653362E+04  0.20542653362E+04  0.25500000920E-02 0.  1.
    10030    2    1    2    0    0  0.00000000000E+00  0.00000000000E+00 -0.52321440839E+03  0.35853162640E+04  0.35469338020E+04 0.  0.
        5    1    3    3  502    0 -0.13690561882E+04  0.70734325948E+03  0.62568056150E+03  0.16631739501E+04  0.46999998093E+01 0. -1.
       -5    1    3    3    0  502  0.13690561882E+04 -0.70734325948E+03 -0.11488949699E+04  0.19221423139E+04  0.46999998093E+01 0.  1.
</event>
<event>
 5   0  0.1442864E-06  0.3475953E+04  0.7818609E-02  0.8119513E-01
       -2   -1    0    0    0  501  0.00000000000E+00  0.00000000000E+00  0.14156617403E+04  0.14156617404E+04  0.25500000920E-02 0.  1.
        2   -1    0    0  501    0  0.00000000000E+00  0.00000000000E+00 -0.21336750797E+04  0.21336750797E+04  0.25500000920E-02 0. -1.
    10030    2    1    2    0    0  0.00000000000E+00  0.00000000000E+00 -0.71801333931E+03  0.35493368200E+04  0.34759529206E+04 0.  0.
        1    1    3    3  502    0 -0.49355709397E+03 -0.26116315638E+03  0.13215702017E+04  0.14346959947E+04  0.50400001928E-02 0.  1.
       -1    1    3    3    0  502  0.49355709397E+03  0.26116315638E+03 -0.20395835410E+04  0.21146408253E+04  0.50400001928E-02 0. -1.
</event>
<event>
 5   0  0.4591195E-07  0.3509399E+04  0.7818609E-02  0.8111566E-01
        1   -1    0    0  501    0  0.00000000000E+00  0.00000000000E+00  0.18027761095E+04  0.18027761095E+04  0.50400001928E-02 0. -1.
       -1   -1    0    0    0  501  0.00000000000E+00  0.00000000000E+00 -0.17079045800E+04  0.17079045801E+04  0.50400001928E-02 0.  1.
    10030    2    1    2    0    0  0.00000000000E+00  0.00000000000E+00  0.94871529488E+02  0.35106806896E+04  0.35093985663E+04 0.  0.
        4    1    3    3  502    0  0.28942085669E+03  0.12486584127E+04 -0.11513574559E+04  0.17229445343E+04  0.12699999809E+01 0.  1.
       -4    1    3    3    0  502 -0.28942085669E+03 -0.12486584127E+04  0.12462289854E+04  0.17877361553E+04  0.12699999809E+01 0. -1.
</event>
<event>
 5   0  0.1442864E-06  0.3430771E+04  0.7818609E-02  0.8130395E-01
        2   -1    0    0  501    0  0.00000000000E+00  0.00000000000E+00  0.19788776222E+04  0.19788776222E+04  0.25500000920E-02 0. -1.
       -2   -1    0    0    0  501  0.00000000000E+00  0.00000000000E+00 -0.14869776806E+04  0.14869776806E+04  0.25500000920E-02 0.  1.
    10030    2    1    2    0    0  0.00000000000E+00  0.00000000000E+00  0.49189994167E+03  0.34658553028E+04  0.34307706754E+04 0.  0.
        1    1    3    3  502    0 -0.93644978291E+03  0.10318874369E+04  0.12565890098E+04  0.18763650545E+04  0.50400001928E-02 0. -1.
       -1    1    3    3    0  502  0.93644978291E+03 -0.10318874369E+04 -0.76468906812E+03  0.15894902482E+04  0.50400001928E-02 0.  1.
</event>
<event>
 5   0  0.4557237E-07  0.3499872E+04  0.7818609E-02  0.8113820E-01
       -1   -1    0    0    0  501  0.00000000000E+00  0.00000000000E+00  0.21842226726E+04  0.21842226726E+04  0.50400001928E-02 0.  1.
        1   -1    0    0  501    0  0.00000000000E+00  0.00000000000E+00 -0.14019983286E+04  0.14019983286E+04  0.50400001928E-02 0. -1.
    10030    2    1    2    0    0  0.00000000000E+00  0.00000000000E+00  0.78222434404E+03  0.35862210013E+04  0.34998723042E+04 0.  0.
        2    1    3    3  502    0  0.23900559033E+03 -0.15324627143E+04  0.12214827652E+04  0.19742304295E+04  0.25500000920E-02 0.  1.
       -2    1    3    3    0  502 -0.23900559033E+03  0.15324627143E+04 -0.43925842115E+03  0.16119905718E+04  0.25500000920E-02 0. -1.
</event>
<event>
 5   0  0.1361560E-06  0.3492363E+04  0.7818609E-02  0.8115602E-01
        2   -1    0    0  501    0  0.00000000000E+00  0.00000000000E+00  0.24974127543E+04  0.24974127543E+04  0.25500000920E-02 0. -1.
       -2   -1    0    0    0  501  0.00000000000E+00  0.00000000000E+00 -0.12209233862E+04  0.12209233862E+04  0.25500000920E-02 0.  1.
    10030    2    1    2    0    0  0.00000000000E+00  0.00000000000E+00  0.12764893681E+04  0.37183361405E+04  0.34923628888E+04 0.  0.
        3    1    3    3  502    0  0.16355083943E+03  0.99244809654E+03  0.21579958991E+04  0.23808923563E+04  0.10100000352E+00 0. -1.
       -3    1    3    3    0  502 -0.16355083943E+03 -0.99244809654E+03 -0.88150653104E+03  0.13374437842E+04  0.10100000352E+00 0.  1.
</event>
<event>
 5   0  0.4591195E-07  0.2600868E+04  0.7818609E-02  0.8367906E-01
       -1   -1    0    0    0  501  0.00000000000E+00  0.00000000000E+00  0.11655113263E+04  0.11655113263E+04  0.50400001928E-02 0.  1.
        1   -1    0    0  501    0  0.00000000000E+00  0.00000000000E+00 -0.14509761113E+04  0.14509761113E+04  0.50400001928E-02 0. -1.
    10030    2    1    2    0    0  0.00000000000E+00  0.00000000000E+00 -0.28546478497E+03  0.26164874376E+04  0.26008683872E+04 0.  0.
        4    1    3    3  502    0  0.28513469773E+03 -0.44377534312E+03 -0.13385207469E+04  0.14387069729E+04  0.12699999809E+01 0. -1.
       -4    1    3    3    0  502 -0.28513469773E+03  0.44377534312E+03  0.10530559620E+04  0.11777804647E+04  0.12699999809E+01 0.  1.
</event>
<event>
 5   0  0.4693374E-07  0.3307572E+04  0.7818609E-02  0.8160971E-01
        1   -1    0    0  501    0  0.00000000000E+00  0.00000000000E+00  0.17393582796E+04  0.17393582796E+04  0.50400001928E-02 0.  1.
       -1   -1    0    0    0  501  0.00000000000E+00  0.00000000000E+00 -0.15724237671E+04  0.15724237671E+04  0.50400001928E-02 0. -1.
    10030    2    1    2    0    0  0.00000000000E+00  0.00000000000E+00  0.16693451242E+03  0.33117820467E+04  0.33075720995E+04 0.  0.
        1    1    3    3  502    0  0.20203609923E+02 -0.42647753681E+03 -0.15162888072E+04  0.15752533200E+04  0.50400001928E-02 0. -1.
       -1    1    3    3    0  502 -0.20203609923E+02  0.42647753681E+03  0.16832233196E+04  0.17365287268E+04  0.50400001928E-02 0.  1.
</event>
<event>
 5   0  0.1442864E-06  0.3471488E+04  0.7818609E-02  0.8120580E-01
        2   -1    0    0  501    0  0.00000000000E+00  0.00000000000E+00  0.19576236893E+04  0.19576236893E+04  0.25500000920E-02 0. -1.
       -2   -1    0    0    0  501  0.00000000000E+00  0.00000000000E+00 -0.15390123912E+04  0.15390123913E+04  0.25500000920E-02 0.  1.
    10030    2    1    2    0    0  0.00000000000E+00  0.00000000000E+00  0.41861129804E+03  0.34966360805E+04  0.34714879318E+04 0.  0.
        1    1    3    3  502    0  0.12992856690E+04  0.34586583430E+03 -0.89639007647E+03  0.16159460369E+04  0.50400001928E-02 0.  1.
       -1    1    3    3    0  502 -0.12992856690E+04 -0.34586583430E+03  0.13150013745E+04  0.18806900436E+04  0.50400001928E-02 0. -1.
</event>
<event>
 5   0  0.1387133E-06  0.3518231E+04  0.7818609E-02  0.8109483E-01
        2   -1    0    0  501    0  0.00000000000E+00  0.00000000000E+00  0.19694122868E+04  0.19694122868E+04  0.25500000920E-02 0.  1.
       -2   -1    0    0    0  501  0.00000000000E+00  0.00000000000E+00 -0.15712745966E+04  0.15712745966E+04  0.25500000920E-02 0. -1.
    10030    2    1    2    0    0  0.00000000000E+00  0.00000000000E+00  0.39813769021E+03  0.35406868835E+04  0.35182310877E+04 0.  0.
        4    1    3    3  502    0 -0.72231367336E+03 -0.11545940415E+04  0.13195761875E+04  0.18963405208E+04  0.12699999809E+01 0.  1.
       -4    1    3    3    0  502  0.72231367336E+03  0.11545940415E+04 -0.92143849724E+03  0.16443463627E+04  0.12699999809E+01 0. -1.
</event>
<event>
 5   0  0.4409125E-07  0.3512665E+04  0.7818609E-02  0.8110795E-01
       -3   -1    0    0    0  501  0.00000000000E+00  0.00000000000E+00  0.24507256096E+04  0.24507256117E+04  0.10100000352E+00 0. -1.
        3   -1    0    0  501    0  0.00000000000E+00  0.00000000000E+00 -0.12586901439E+04  0.12586901479E+04  0.10100000352E+00 0.  1.
    10030    2    1    2    0    0  0.00000000000E+00  0.00000000000E+00  0.11920354657E+04  0.37094157596E+04  0.35126651884E+04 0.  0.
        2    1    3    3  502    0  0.48748430028E+03  0.16307932592E+04  0.13865785050E+03  0.17077334677E+04  0.25500000920E-02 0.  1.
       -2    1    3    3    0  502 -0.48748430028E+03 -0.16307932592E+04  0.10533776152E+04  0.20016822919E+04  0.25500000920E-02 0. -1.
</event>
<event>
 5   0  0.1442864E-06  0.2997174E+04  0.7818609E-02  0.8244538E-01
        2   -1    0    0  501    0  0.00000000000E+00  0.00000000000E+00  0.15229224660E+04  0.15229224660E+04  0.25500000920E-02 0.  1.
       -2   -1    0    0    0  501  0.00000000000E+00  0.00000000000E+00 -0.14746399103E+04  0.14746399103E+04  0.25500000920E-02 0. -1.
    10030    2    1    2    0    0  0.00000000000E+00  0.00000000000E+00  0.48282555628E+02  0.29975623763E+04  0.29971735009E+04 0.  0.
        1    1    3    3  502    0  0.15546153803E+03  0.11984372761E+04 -0.86216897223E+03  0.14845051470E+04  0.50400001928E-02 0. -1.
       -1    1    3    3    0  502 -0.15546153803E+03 -0.11984372761E+04  0.91045152785E+03  0.15130572293E+04  0.50400001928E-02 0.  1.
</event>
<event>
 5   0  0.1361560E-06  0.3468679E+04  0.7818609E-02  0.8121253E-01
        2   -1    0    0  501    0  0.00000000000E+00  0.00000000000E+00  0.19448362131E+04  0.19448362131E+04  0.25500000920E-02 0. -1.
       -2   -1    0    0    0  501  0.00000000000E+00  0.00000000000E+00 -0.15466255318E+04  0.15466255318E+04  0.25500000920E-02 0.  1.
    10030    2    1    2    0    0  0.00000000000E+00  0.00000000000E+00  0.39821068128E+03  0.34914617448E+04  0.34686789083E+04 0.  0.
        3    1    3    3  502    0 -0.12903127705E+04  0.51631537873E+03  0.12434384657E+04  0.18648398977E+04  0.10100000352E+00 0. -1.
       -3    1    3    3    0  502  0.12903127705E+04 -0.51631537873E+03 -0.84522778439E+03  0.16266218471E+04  0.10100000352E+00 0.  1.
</event>
<event>
 5   0  0.4693374E-07  0.3384888E+04  0.7818609E-02  0.8141625E-01
       -1   -1    0    0    0  501  0.00000000000E+00  0.00000000000E+00  0.26009777027E+04  0.26009777027E+04  0.50400001928E-02 0.  1.
        1   -1    0    0  501    0  0.00000000000E+00  0.00000000000E+00 -0.11012655878E+04  0.11012655878E+04  0.50400001928E-02 0. -1.
    10030    2    1    2    0    0  0.00000000000E+00  0.00000000000E+00  0.14997121149E+04  0.37022432906E+04  0.33848883224E+04 0.  0.
        1    1    3    3  502    0  0.32698140517E+02  0.15750496495E+04  0.73390336088E+02  0.15770975583E+04  0.50400001928E-02 0. -1.
       -1    1    3    3    0  502 -0.32698140517E+02 -0.15750496495E+04  0.14263217788E+04  0.21251457323E+04  0.50400001928E-02 0.  1.
</event>
<event>
 5   0  0.4693374E-07  0.3457165E+04  0.7818609E-02  0.8124017E-01
        1   -1    0    0  501    0  0.00000000000E+00  0.00000000000E+00  0.20728734646E+04  0.20728734646E+04  0.50400001928E-02 0. -1.
       -1   -1    0    0    0  501  0.00000000000E+00  0.00000000000E+00 -0.14414764616E+04  0.14414764616E+04  0.50400001928E-02 0.  1.
    10030    2    1    2    0    0  0.00000000000E+00  0.00000000000E+00  0.63139700302E+03  0.35143499262E+04  0.34571654905E+04 0.  0.
        1    1    3    3  502    0  0.31248627229E+03 -0.44670746995E+03  0.19831983019E+04  0.20567621979E+04  0.50400001928E-02 0. -1.
       -1    1    3    3    0  502 -0.31248627229E+03  0.44670746995E+03 -0.13518012989E+04  0.14575877283E+04  0.50400001928E-02 0.  1.
</event>
<event>
 5   0  0.4700769E-07  0.3488871E+04  0.7818609E-02  0.8116432E-01
       -1   -1    0    0    0  501  0.00000000000E+00  0.00000000000E+00  0.23158850845E+04  0.23158850846E+04  0.50400001928E-02 0.  1.
        1   -1    0    0  501    0  0.00000000000E+00  0.00000000000E+00 -0.13139923304E+04  0.13139923304E+04  0.50400001928E-02 0. -1.
    10030    2    1    2    0    0  0.00000000000E+00  0.00000000000E+00  0.10018927542E+04  0.36298774149E+04  0.34888710146E+04 0.  0.
        3    1    3    3  502    0  0.71050676713E+03 -0.15587470822E+04  0.15817247527E+03  0.17203287112E+04  0.10100000352E+00 0. -1.
       -3    1    3    3    0  502 -0.71050676713E+03  0.15587470822E+04  0.84372027892E+03  0.19095487037E+04  0.10100000352E+00 0.  1.
</event>
<event>
 5   0  0.4409125E-07  0.3595516E+04  0.7818609E-02  0.8091520E-01
        1   -1    0    0  501    0  0.00000000000E+00  0.00000000000E+00  0.18708838316E+04  0.18708838316E+04  0.50400001928E-02 0. -1.
       -1   -1    0    0    0  501  0.00000000000E+00  0.00000000000E+00 -0.17274900124E+04  0.17274900124E+04  0.50400001928E-02 0.  1.
    10030    2    1    2    0    0  0.00000000000E+00  0.00000000000E+00  0.14339381921E+03  0.35983738440E+04  0.35955156145E+04 0.  0.
        5    1    3    3  502    0 -0.14668967019E+03 -0.42400483918E+03 -0.16705525915E+04  0.17297589468E+04  0.46999998093E+01 0.  1.
       -5    1    3    3    0  502  0.14668967019E+03  0.42400483918E+03  0.18139464107E+04  0.18686148972E+04  0.46999998093E+01 0. -1.
</event>
<event>
 5   0  0.4409125E-07  0.3372119E+04  0.7818609E-02  0.8144783E-01
       -1   -1    0    0    0  501  0.00000000000E+00  0.00000000000E+00  0.21213050244E+04  0.21213050244E+04  0.50400001928E-02 0.  1.
        1   -1    0    0  501    0  0.00000000000E+00  0.00000000000E+00 -0.13401166892E+04  0.13401166892E+04  0.50400001928E-02 0. -1.
    10030    2    1    2    0    0  0.00000000000E+00  0.00000000000E+00  0.78118833524E+03  0.34614217136E+04  0.33721187796E+04 0.  0.
        5    1    3    3  502    0  0.95087432096E+03  0.12093882974E+04  0.10987870280E+04  0.18905388256E+04  0.46999998093E+01 0.  1.
       -5    1    3    3    0  502 -0.95087432096E+03 -0.12093882974E+04 -0.31759869274E+03  0.15708828880E+04  0.46999998093E+01 0. -1.
</event>
<event>
 5   0  0.1387133E-06  0.3448000E+04  0.7818609E-02  0.8126225E-01
       -2   -1    0    0    0  501  0.00000000000E+00  0.00000000000E+00  0.12752989097E+04  0.12752989097E+04  0.25500000920E-02 0.  1.
        2   -1    0    0  501    0  0.00000000000E+00  0.00000000000E+00 -0.23305722000E+04  0.23305722000E+04  0.25500000920E-02 0. -1.
    10030    2    1    2    0    0  0.00000000000E+00  0.00000000000E+00 -0.10552732902E+04  0.36058711097E+04  0.34480001077E+04 0.  0.
        4    1    3    3  502    0 -0.45517672853E+03  0.93448046801E+03  0.91074149681E+03  0.13819881643E+04  0.12699999809E+01 0.  1.
       -4    1    3    3    0  502  0.45517672853E+03 -0.93448046801E+03 -0.19660147870E+04  0.22238829454E+04  0.12699999809E+01 0. -1.
</event>
<event>
 5   0  0.1442864E-06  0.3525316E+04  0.7818609E-02  0.8107816E-01
       -2   -1    0    0    0  501  0.00000000000E+00  0.00000000000E+00  0.13201506405E+04  0.13201506405E+04  0.25500000920E-02 0.  1.
        2   -1    0    0  501    0  0.00000000000E+00  0.00000000000E+00 -0.23534920606E+04  0.23534920606E+04  0.25500000920E-02 0. -1.
    10030    2    1    2    0    0  0.00000000000E+00  0.00000000000E+00 -0.10333414201E+04  0.36736427011E+04  0.35253164687E+04 0.  0.
        1    1    3    3  502    0  0.11766087765E+02 -0.32086814892E+03  0.12894189929E+04  0.13287949989E+04  0.50400001928E-02 0.  1.
       -1    1    3    3    0  502 -0.11766087765E+02  0.32086814892E+03 -0.23227604130E+04  0.23448477021E+04  0.50400001928E-02 0. -1.
</event>
<event>
 5   0  0.4557237E-07  0.3351878E+04  0.7818609E-02  0.8149819E-01
       -1   -1    0    0    0  501  0.00000000000E+00  0.00000000000E+00  0.14589362646E+04  0.14589362646E+04  0.50400001928E-02 0.  1.
        1   -1    0    0  501    0  0.00000000000E+00  0.00000000000E+00 -0.19252187338E+04  0.19252187338E+04  0.50400001928E-02 0. -1.
    10030    2    1    2    0    0  0.00000000000E+00  0.00000000000E+00 -0.46628246921E+03  0.33841549984E+04  0.33518779381E+04 0.  0.
        2    1    3    3  502    0 -0.26791708763E+03  0.10238444271E+04  0.10788856455E+04  0.15113011655E+04  0.25500000920E-02 0.  1.
       -2    1    3    3    0  502  0.26791708763E+03 -0.10238444271E+04 -0.15451681147E+04  0.18728538329E+04  0.25500000920E-02 0. -1.
</event>
<event>
 5   0  0.1348388E-06  0.3467506E+04  0.7818609E-02  0.8121534E-01
       -2   -1    0    0    0  501  0.00000000000E+00  0.00000000000E+00  0.17560731612E+04  0.17560731612E+04  0.25500000920E-02 0. -1.
        2   -1    0    0  501    0  0.00000000000E+00  0.00000000000E+00 -0.17117169391E+04  0.17117169391E+04  0.25500000920E-02 0.  1.
    10030    2    1    2    0    0  0.00000000000E+00  0.00000000000E+00  0.44356222130E+02  0.34677901003E+04  0.34675064102E+04 0.  0.
        5    1    3    3  502    0 -0.11103303973E+04  0.12349702616E+04 -0.47575111255E+03  0.17275260778E+04  0.46999998093E+01 0.  1.
       -5    1    3    3    0  502  0.11103303973E+04 -0.12349702616E+04  0.52010733468E+03  0.17402640225E+04  0.46999998093E+01 0. -1.
</event>
<event>
 5   0  0.4557237E-07  0.3566214E+04  0.7818609E-02  0.8098275E-01
        1   -1    0    0  501    0  0.00000000000E+00  0.00000000000E+00  0.15232567532E+04  0.15232567532E+04  0.50400001928E-02 0. -1.
       -1   -1    0    0    0  501  0.00000000000E+00  0.00000000000E+00 -0.20872846615E+04  0.20872846615E+04  0.50400001928E-02 0.  1.
    10030    2    1    2    0    0  0.00000000000E+00  0.00000000000E+00 -0.56402790833E+03  0.36105414147E+04  0.35662139344E+04 0.  0.
        2    1    3    3  502    0 -0.10882698471E+04  0.54264785263E+03 -0.16023220414E+04  0.20115252612E+04  0.25500000920E-02 0.  1.
       -2    1    3    3    0  502  0.10882698471E+04 -0.54264785263E+03  0.10382941331E+04  0.15990161534E+04  0.25500000920E-02 0. -1.
</event>
<event>
 5   0  0.1378620E-06  0.3430893E+04  0.7818609E-02  0.8130366E-01
        2   -1    0    0  501    0  0.00000000000E+00  0.00000000000E+00  0.21008032589E+04  0.21008032589E+04  0.25500000920E-02 0. -1.
       -2   -1    0    0    0  501  0.00000000000E+00  0.00000000000E+00 -0.14007766558E+04  0.14007766558E+04  0.25500000920E-02 0.  1.
    10030    2    1    2    0    0  0.00000000000E+00  0.00000000000E+00  0.70002660307E+03  0.35015799146E+04  0.34308926905E+04 0.  0.
        2    1    3    3  502    0 -0.80121664515E+03 -0.82686012369E+03 -0.94784339154E+03  0.14913258770E+04  0.25500000920E-02 0. -1.
       -2    1    3    3    0  502  0.80121664515E+03  0.82686012369E+03  0.16478699946E+04  0.20102540376E+04  0.25500000920E-02 0.  1.
</event>
<event>
 5   0  0.1361560E-06  0.3453256E+04  0.7818609E-02  0.8124958E-01
        2   -1    0    0  501    0  0.00000000000E+00  0.00000000000E+00  0.15506375852E+04  0.15506375852E+04  0.25500000920E-02 0. -1.
       -2   -1    0    0    0  501  0.00000000000E+00  0.00000000000E+00 -0.19225924357E+04  0.19225924357E+04  0.25500000920E-02 0.  1.
    10030    2    1    2    0    0  0.00000000000E+00  0.00000000000E+00 -0.37195485055E+03  0.34732300209E+04  0.34532559081E+04 0.  0.
        3    1    3    3  502    0 -0.11815946681E+04 -0.79829105473E+03  0.79320884314E+03  0.16317520788E+04  0.10100000352E+00 0. -1.
       -3    1    3    3    0  502  0.11815946681E+04  0.79829105473E+03 -0.11651636937E+04  0.18414779420E+04  0.10100000352E+00 0.  1.
</event>
<event>
 5   0  0.1442864E-06  0.3513641E+04  0.7818609E-02  0.8110565E-01
        2   -1    0    0  501    0  0.00000000000E+00  0.00000000000E+00  0.28711661295E+04  0.28711661295E+04  0.25500000920E-02 0. -1.
       -2   -1    0    0    0  501  0.00000000000E+00  0.00000000000E+00 -0.10749702895E+04  0.10749702895E+04  0.25500000920E-02 0.  1.
    10030    2    1    2    0    0  0.00000000000E+00  0.00000000000E+00  0.17961958400E+04  0.39461364190E+04  0.35136410092E+04 0.  0.
        1    1    3    3  502    0  0.31432642404E+03 -0.15408731342E+04  0.17776484794E+04  0.23734205765E+04  0.50400001928E-02 0.  1.
       -1    1    3    3    0  502 -0.31432642404E+03  0.15408731342E+04  0.18547360642E+02  0.15727158425E+04  0.50400001928E-02 0. -1.
</event>
<event>
 5   0  0.1387133E-06  0.3517062E+04  0.7818609E-02  0.8109758E-01
        2   -1    0    0  501    0  0.00000000000E+00  0.00000000000E+00  0.23664353400E+04  0.23664353400E+04  0.25500000920E-02 0.  1.
       -2   -1    0    0    0  501  0.00000000000E+00  0.00000000000E+00 -0.13067886661E+04  0.13067886661E+04  0.25500000920E-02 0. -1.
    10030    2    1    2    0    0  0.00000000000E+00  0.00000000000E+00  0.10596466739E+04  0.36732240061E+04  0.35170617744E+04 0.  0.
        4    1    3    3  502    0  0.21838941073E+03  0.16419158769E+04 -0.87034773350E+02  0.16586616129E+04  0.12699999809E+01 0. -1.
       -4    1    3    3    0  502 -0.21838941073E+03 -0.16419158769E+04  0.11466814473E+04  0.20145623932E+04  0.12699999809E+01 0.  1.
</event>
<event>
 5   0  0.4409125E-07  0.2981475E+04  0.7818609E-02  0.8249041E-01
       -1   -1    0    0    0  501  0.00000000000E+00  0.00000000000E+00  0.21364755774E+04  0.21364755774E+04  0.50400001928E-02 0. -1.
        1   -1    0    0  501    0  0.00000000000E+00  0.00000000000E+00 -0.10401698904E+04  0.10401698904E+04  0.50400001928E-02 0.  1.
    10030    2    1    2    0    0  0.00000000000E+00  0.00000000000E+00  0.10963056870E+04  0.31766454679E+04  0.29814745126E+04 0.  0.
        5    1    3    3  502    0  0.11075129110E+04  0.75305136429E+03 -0.14938198058E+03  0.13475935112E+04  0.46999998093E+01 0. -1.
       -5    1    3    3    0  502 -0.11075129110E+04 -0.75305136429E+03  0.12456876676E+04  0.18290519567E+04  0.46999998093E+01 0.  1.
</event>
<event>
 5   0  0.4591195E-07  0.3504007E+04  0.7818609E-02  0.8112841E-01
       -1   -1    0    0    0  501  0.00000000000E+00  0.00000000000E+00  0.15628547213E+04  0.15628547214E+04  0.50400001928E-02 0. -1.
        1   -1    0    0  501    0  0.00000000000E+00  0.00000000000E+00 -0.19640446794E+04  0.19640446794E+04  0.50400001928E-02 0.  1.
    10030    2    1    2    0    0  0.00000000000E+00  0.00000000000E+00 -0.40118995805E+03  0.35268994008E+04  0.35040071348E+04 0.  0.
        4    1    3    3  502    0  0.84996862389E+02  0.11411374915E+04  0.11347584464E+04  0.16115512979E+04  0.12699999809E+01 0. -1.
       -4    1    3    3    0  502 -0.84996862389E+02 -0.11411374915E+04 -0.15359484045E+04  0.19153481029E+04  0.12699999809E+01 0.  1.
</event>
<event>
 5   0  0.4409125E-07  0.2868773E+04  0.7818609E-02  0.8282229E-01
        3   -1    0    0  501    0  0.00000000000E+00  0.00000000000E+00  0.12423703804E+04  0.12423703845E+04  0.10100000352E+00 0.  1.
       -3   -1    0    0    0  501  0.00000000000E+00  0.00000000000E+00 -0.16560798630E+04  0.16560798661E+04  0.10100000352E+00 0. -1.
    10030    2    1    2    0    0  0.00000000000E+00  0.00000000000E+00 -0.41370948266E+03  0.28984502506E+04  0.28687729640E+04 0.  0.
        4    1    3    3  502    0 -0.13796059228E+04 -0.38028713945E+03 -0.30549750905E+03  0.14633048731E+04  0.12699999809E+01 0.  1.
       -4    1    3    3    0  502  0.13796059228E+04  0.38028713945E+03 -0.10821197361E+03  0.14351453776E+04  0.12699999809E+01 0. -1.
</event>
<event>
 5   0  0.1361560E-06  0.3523894E+04  0.7818609E-02  0.8108151E-01
        2   -1    0    0  501    0  0.00000000000E+00  0.00000000000E+00  0.17065116788E+04  0.17065116788E+04  0.25500000920E-02 0. -1.
       -2   -1    0    0    0  501  0.00000000000E+00  0.00000000000E+00 -0.18191831997E+04  0.18191831997E+04  0.25500000920E-02 0.  1.
    10030    2    1    2    0    0  0.00000000000E+00  0.00000000000E+00 -0.11267152089E+03  0.35256948784E+04  0.35238940824E+04 0.  0.
        3    1    3    3  502    0 -0.83763443747E+03 -0.38198806965E+03  0.14467338628E+04  0.17148134640E+04  0.10100000352E+00 0. -1.
       -3    1    3    3    0  502  0.83763443747E+03  0.38198806965E+03 -0.15594053837E+04  0.18108814144E+04  0.10100000352E+00 0.  1.
</event>
<event>
 5   0  0.1378620E-06  0.3511434E+04  0.7818609E-02  0.8111086E-01
       -2   -1    0    0    0  501  0.00000000000E+00  0.00000000000E+00  0.12590999377E+04  0.12590999377E+04  0.25500000920E-02 0.  1.
        2   -1    0    0  501    0  0.00000000000E+00  0.00000000000E+00 -0.24482108961E+04  0.24482108961E+04  0.25500000920E-02 0. -1.
    10030    2    1    2    0    0  0.00000000000E+00  0.00000000000E+00 -0.11891109584E+04  0.37073108338E+04  0.35114340015E+04 0.  0.
        2    1    3    3  502    0 -0.60178403605E+02  0.52771032706E+02 -0.24462837361E+04  0.24475927642E+04  0.25500000920E-02 0. -1.
       -2    1    3    3    0  502  0.60178403605E+02 -0.52771032706E+02  0.12571727776E+04  0.12597180696E+04  0.25500000920E-02 0.  1.
</event>
<event>
 5   0  0.1348388E-06  0.3494748E+04  0.7818609E-02  0.8115036E-01
       -2   -1    0    0    0  501  0.00000000000E+00  0.00000000000E+00  0.16592376424E+04  0.16592376424E+04  0.25500000920E-02 0. -1.
        2   -1    0    0  501    0  0.00000000000E+00  0.00000000000E+00 -0.18401925016E+04  0.18401925016E+04  0.25500000920E-02 0.  1.
    10030    2    1    2    0    0  0.00000000000E+00  0.00000000000E+00 -0.18095485921E+03  0.34994301439E+04  0.34947484418E+04 0.  0.
        5    1    3    3  502    0  0.17740854822E+03 -0.59211256450E+02  0.16491797592E+04  0.16597577336E+04  0.46999998093E+01 0. -1.
       -5    1    3    3    0  502 -0.17740854822E+03  0.59211256450E+02 -0.18301346184E+04  0.18396724104E+04  0.46999998093E+01 0.  1.
</event>
<event>
 5   0  0.4591195E-07  0.3495925E+04  0.7818609E-02  0.8114756E-01
        1   -1    0    0  501    0  0.00000000000E+00  0.00000000000E+00  0.16078412447E+04  0.16078412447E+04  0.50400001928E-02 0. -1.
       -1   -1    0    0    0  501  0.00000000000E+00  0.00000000000E+00 -0.19002955681E+04  0.19002955681E+04  0.50400001928E-02 0.  1.
    10030    2    1    2    0    0  0.00000000000E+00  0.00000000000E+00 -0.29245432337E+03  0.35081368128E+04  0.34959253948E+04 0.  0.
        4    1    3    3  502    0 -0.14378760315E+04 -0.96440038758E+03  0.95063129664E+02  0.17339533446E+04  0.12699999809E+01 0. -1.
       -4    1    3    3    0  502  0.14378760315E+04  0.96440038758E+03 -0.38751745303E+03  0.17741834682E+04  0.12699999809E+01 0.  1.
</event>
<event>
 5   0  0.4693374E-07  0.3510205E+04  0.7818609E-02  0.8111376E-01
       -1   -1    0    0    0  501  0.00000000000E+00  0.00000000000E+00  0.14794095332E+04  0.14794095332E+04  0.50400001928E-02 0.  1.
        1   -1    0    0  501    0  0.00000000000E+00  0.00000000000E+00 -0.20821717015E+04  0.20821717015E+04  0.50400001928E-02 0. -1.
    10030    2    1    2    0    0  0.00000000000E+00  0.00000000000E+00 -0.60276216834E+03  0.35615812347E+04  0.35102049313E+04 0.  0.
        1    1    3    3  502    0 -0.39509928847E+03  0.15087460405E+04  0.51536430886E+03  0.16425645903E+04  0.50400001928E-02 0.  1.
       -1    1    3    3    0  502  0.39509928847E+03 -0.15087460405E+04 -0.11181264772E+04  0.19190166444E+04  0.50400001928E-02 0. -1.
</event>
<event>
 5   0  0.1378620E-06  0.3329537E+04  0.7818609E-02  0.8155420E-01
        2   -1    0    0  501    0  0.00000000000E+00  0.00000000000E+00  0.16725965827E+04  0.16725965827E+04  0.25500000920E-02 0.  1.
       -2   -1    0    0    0  501  0.00000000000E+00  0.00000000000E+00 -0.16569771652E+04  0.16569771652E+04  0.25500000920E-02 0. -1.
    10030    2    1    2    0    0  0.00000000000E+00  0.00000000000E+00  0.15619417512E+02  0.33295737480E+04  0.33295371115E+04 0.  0.
        2    1    3    3  502    0  0.13629360700E+04  0.17117473180E+03  0.94832993233E+03  0.16691989637E+04  0.25500000920E-02 0.  1.
       -2    1    3    3    0  502 -0.13629360700E+04 -0.17117473180E+03 -0.93271051482E+03  0.16603747843E+04  0.25500000920E-02 0. -1.
</event>
<event>
 5   0  0.4591195E-07  0.3539559E+04  0.7818609E-02  0.8104479E-01
       -1   -1    0    0    0  501  0.00000000000E+00  0.00000000000E+00  0.15934044110E+04  0.15934044110E+04  0.50400001928E-02 0.  1.
        1   -1    0    0  501    0  0.00000000000E+00  0.00000000000E+00 -0.19656771713E+04  0.19656771713E+04  0.50400001928E-02 0. -1.
    10030    2    1    2    0    0  0.00000000000E+00  0.00000000000E+00 -0.37227276031E+03  0.35590815822E+04  0.35395585461E+04 0.  0.
        4    1    3    3  502    0 -0.12006575778E+04  0.12012854401E+04 -0.68632533146E+03  0.18318595473E+04  0.12699999809E+01 0. -1.
       -4    1    3    3    0  502  0.12006575778E+04 -0.12012854401E+04  0.31405257114E+03  0.17272220349E+04  0.12699999809E+01 0.  1.
</event>
<event>
 5   0  0.1387133E-06  0.3475410E+04  0.7818609E-02  0.8119642E-01
       -2   -1    0    0    0  501  0.00000000000E+00  0.00000000000E+00  0.17478315684E+04  0.17478315684E+04  0.25500000920E-02 0.  1.
        2   -1    0    0  501    0  0.00000000000E+00  0.00000000000E+00 -0.17276373740E+04  0.17276373740E+04  0.25500000920E-02 0. -1.
    10030    2    1    2    0    0  0.00000000000E+00  0.00000000000E+00  0.20194194425E+02  0.34754689424E+04  0.34754102728E+04 0.  0.
        4    1    3    3  502    0 -0.27901072471E+02  0.24069991806E+03 -0.17106592995E+04  0.17277360250E+04  0.12699999809E+01 0. -1.
       -4    1    3    3    0  502  0.27901072471E+02 -0.24069991806E+03  0.17308534939E+04  0.17477329174E+04  0.12699999809E+01 0.  1.
</event>
<event>
 5   0  0.4409125E-07  0.3512100E+04  0.7818609E-02  0.8110928E-01
        1   -1    0    0  501    0  0.00000000000E+00  0.00000000000E+00  0.11088611239E+04  0.11088611239E+04  0.50400001928E-02 0.  1.
       -1   -1    0    0    0  501  0.00000000000E+00  0.00000000000E+00 -0.27809717267E+04  0.27809717267E+04  0.50400001928E-02 0. -1.
    10030    2    1    2    0    0  0.00000000000E+00  0.00000000000E+00 -0.16721106028E+04  0.38898328506E+04  0.35120999043E+04 0.  0.
        5    1    3    3  502    0 -0.10776797309E+04 -0.85577194159E+03 -0.20442264436E+04  0.24642692753E+04  0.46999998093E+01 0. -1.
       -5    1    3    3    0  502  0.10776797309E+04  0.85577194159E+03  0.37211584086E+03  0.14255635754E+04  0.46999998093E+01 0.  1.
</event>
<event>
 5   0  0.1348388E-06  0.3458738E+04  0.7818609E-02  0.8123639E-01
        2   -1    0    0  501    0  0.00000000000E+00  0.00000000000E+00  0.22982839969E+04  0.22982839969E+04  0.25500000920E-02 0. -1.
       -2   -1    0    0    0  501  0.00000000000E+00  0.00000000000E+00 -0.13012828869E+04  0.13012828869E+04  0.25500000920E-02 0.  1.
    10030    2    1    2    0    0  0.00000000000E+00  0.00000000000E+00  0.99700110999E+03  0.35995668838E+04  0.34587382870E+04 0.  0.
        5    1    3    3  502    0 -0.18201916137E+02  0.28277166171E+03 -0.12769525959E+04  0.13080218441E+04  0.46999998093E+01 0.  1.
       -5    1    3    3    0  502  0.18201916137E+02 -0.28277166171E+03  0.22739537059E+04  0.22915450397E+04  0.46999998093E+01 0. -1.
</event>
<event>
 5   0  0.1442864E-06  0.3474947E+04  0.7818609E-02  0.8119753E-01
       -2   -1    0    0    0  501  0.00000000000E+00  0.00000000000E+00  0.17215470722E+04  0.17215470722E+04  0.25500000920E-02 0. -1.
        2   -1    0    0  501    0  0.00000000000E+00  0.00000000000E+00 -0.17535469948E+04  0.17535469948E+04  0.25500000920E-02 0.  1.
    10030    2    1    2    0    0  0.00000000000E+00  0.00000000000E+00 -0.31999922573E+02  0.34750940670E+04  0.34749467305E+04 0.  0.
        1    1    3    3  502    0  0.31910944474E+03 -0.44628838274E+03 -0.16646478952E+04  0.17527283798E+04  0.50400001928E-02 0.  1.
       -1    1    3    3    0  502 -0.31910944474E+03  0.44628838274E+03  0.16326479726E+04  0.17223656873E+04  0.50400001928E-02 0. -1.
</event>
<event>
 5   0  0.4700769E-07  0.3451119E+04  0.7818609E-02  0.8125473E-01
       -1   -1    0    0    0  501  0.00000000000E+00  0.00000000000E+00  0.15394777137E+04  0.15394777137E+04  0.50400001928E-02 0. -1.
        1   -1    0    0  501    0  0.00000000000E+00  0.00000000000E+00 -0.19341335376E+04  0.19341335376E+04  0.50400001928E-02 0.  1.
    10030    2    1    2    0    0  0.00000000000E+00  0.00000000000E+00 -0.39465582382E+03  0.34736112513E+04  0.34511189353E+04 0.  0.
        3    1    3    3  502    0  0.30458800849E+03  0.13220804707E+04  0.87586927098E+03  0.16148738700E+04  0.10100000352E+00 0. -1.
       -3    1    3    3    0  502 -0.30458800849E+03 -0.13220804707E+04 -0.12705250948E+04  0.18587373813E+04  0.10100000352E+00 0.  1.
</event>
<event>
 5   0  0.4591195E-07  0.3394055E+04  0.7818609E-02  0.8139367E-01
        1   -1    0    0  501    0  0.00000000000E+00  0.00000000000E+00  0.20761297431E+04  0.20761297431E+04  0.50400001928E-02 0. -1.
       -1   -1    0    0    0  501  0.00000000000E+00  0.00000000000E+00 -0.13871499081E+04  0.13871499081E+04  0.50400001928E-02 0.  1.
    10030    2    1    2    0    0  0.00000000000E+00  0.00000000000E+00  0.68897983499E+03  0.34632796511E+04  0.33940554988E+04 0.  0.
        4    1    3    3  502    0  0.36867993145E+03  0.14300402486E+04  0.11975807385E+04  0.19013524773E+04  0.12699999809E+01 0. -1.
       -4    1    3    3    0  502 -0.36867993145E+03 -0.14300402486E+04 -0.50860090355E+03  0.15619271739E+04  0.12699999809E+01 0.  1.
</event>
<event>
 5   0  0.4591195E-07  0.3601116E+04  0.7818609E-02  0.8090236E-01
       -1   -1    0    0    0  501  0.00000000000E+00  0.00000000000E+00  0.25873104216E+04  0.25873104216E+04  0.50400001928E-02 0. -1.
        1   -1    0    0  501    0  0.00000000000E+00  0.00000000000E+00 -0.12530421789E+04  0.12530421789E+04  0.50400001928E-02 0.  1.
    10030    2    1    2    0    0  0.00000000000E+00  0.00000000000E+00  0.13342682426E+04  0.38403526005E+04  0.36011159872E+04 0.  0.
        4    1    3    3  502    0 -0.69181519097E+02  0.16546141963E+04 -0.86551291706E+02  0.16583205239E+04  0.12699999809E+01 0.  1.
       -4    1    3    3    0  502  0.69181519097E+02 -0.16546141963E+04  0.14208195343E+04  0.21820320766E+04  0.12699999809E+01 0. -1.
</event>
<event>
 5   0  0.4591195E-07  0.3421190E+04  0.7818609E-02  0.8132725E-01
       -1   -1    0    0    0  501  0.00000000000E+00  0.00000000000E+00  0.11230505783E+04  0.11230505783E+04  0.50400001928E-02 0. -1.
        1   -1    0    0  501    0  0.00000000000E+00  0.00000000000E+00 -0.26055240945E+04  0.26055240945E+04  0.50400001928E-02 0.  1.
    10030    2    1    2    0    0  0.00000000000E+00  0.00000000000E+00 -0.14824735162E+04  0.37285746727E+04  0.34211900508E+04 0.  0.
        4    1    3    3  502    0  0.16915204674E+03  0.43923286530E+03 -0.25335620353E+04  0.25769121298E+04  0.12699999809E+01 0.  1.
       -4    1    3    3    0  502 -0.16915204674E+03 -0.43923286530E+03  0.10510885191E+04  0.11516625429E+04  0.12699999809E+01 0. -1.
</event>
<event>
 5   0  0.4700769E-07  0.3733308E+04  0.7818609E-02  0.8060620E-01
       -1   -1    0    0    0  501  0.00000000000E+00  0.00000000000E+00  0.20318398389E+04  0.20318398389E+04  0.50400001928E-02 0.  1.
        1   -1    0    0  501    0  0.00000000000E+00  0.00000000000E+00 -0.17148973274E+04  0.17148973275E+04  0.50400001928E-02 0. -1.
    10030    2    1    2    0    0  0.00000000000E+00  0.00000000000E+00  0.31694251141E+03  0.37467371663E+04  0.37333077610E+04 0.  0.
        3    1    3    3  502    0  0.46746246281E+03  0.80420688008E+03 -0.14657219923E+04  0.17359754690E+04  0.10100000352E+00 0. -1.
       -3    1    3    3    0  502 -0.46746246281E+03 -0.80420688008E+03  0.17826645038E+04  0.20107616973E+04  0.10100000352E+00 0.  1.
</event>
<event>
 5   0  0.1348388E-06  0.3413858E+04  0.7818609E-02  0.8134513E-01
       -2   -1    0    0    0  501  0.00000000000E+00  0.00000000000E+00  0.20153920551E+04  0.20153920551E+04  0.25500000920E-02 0. -1.
        2   -1    0    0  501    0  0.00000000000E+00  0.00000000000E+00 -0.14456775478E+04  0.14456775478E+04  0.25500000920E-02 0.  1.
    10030    2    1    2    0    0  0.00000000000E+00  0.00000000000E+00  0.56971450732E+03  0.34610696030E+04  0.34138582538E+04 0.  0.
        5    1    3    3  502    0 -0.14495622075E+04  0.35579409438E+03 -0.55470418269E+03  0.15923375431E+04  0.46999998093E+01 0.  1.
       -5    1    3    3    0  502  0.14495622075E+04 -0.35579409438E+03  0.11244186900E+04  0.18687320598E+04  0.46999998093E+01 0. -1.
</event>
<event>
 5   0  0.1378620E-06  0.3520328E+04  0.7818609E-02  0.8108989E-01
       -2   -1    0    0    0  501  0.00000000000E+00  0.00000000000E+00  0.15763278271E+04  0.15763278271E+04  0.25500000920E-02 0.  1.
        2   -1    0    0  501    0  0.00000000000E+00  0.00000000000E+00 -0.19654399725E+04  0.19654399725E+04  0.25500000920E-02 0. -1.
    10030    2    1    2    0    0  0.00000000000E+00  0.00000000000E+00 -0.38911214542E+03  0.35417677996E+04  0.35203282353E+04 0.  0.
        2    1    3    3  502    0 -0.58635735167E+03  0.13715639457E+04  0.74557325859E+03  0.16675976987E+04  0.25500000920E-02 0.  1.
       -2    1    3    3    0  502  0.58635735167E+03 -0.13715639457E+04 -0.11346854040E+04  0.18741701009E+04  0.25500000920E-02 0. -1.
</event>
<event>
 5   0  0.4557237E-07  0.3431482E+04  0.7818609E-02  0.8130223E-01
       -1   -1    0    0    0  501  0.00000000000E+00  0.00000000000E+00  0.14579861947E+04  0.14579861947E+04  0.50400001928E-02 0. -1.
        1   -1    0    0  501    0  0.00000000000E+00  0.00000000000E+00 -0.20190639027E+04  0.20190639027E+04  0.50400001928E-02 0.  1.
    10030    2    1    2    0    0  0.00000000000E+00  0.00000000000E+00 -0.56107770798E+03  0.34770500974E+04  0.34314820683E+04 0.  0.
        2    1    3    3  502    0  0.13752234024E+04 -0.10052707046E+04 -0.72980495435E+02  0.17050321841E+04  0.25500000920E-02 0. -1.
       -2    1    3    3    0  502 -0.13752234024E+04  0.10052707046E+04 -0.48809721255E+03  0.17720179133E+04  0.25500000920E-02 0.  1.
</event>
<event>
 5   0  0.4693374E-07  0.2776584E+04  0.7818609E-02  0.8310575E-01
       -1   -1    0    0    0  501  0.00000000000E+00  0.00000000000E+00  0.11704200980E+04  0.11704200981E+04  0.50400001928E-02 0.  1.
        1   -1    0    0  501    0  0.00000000000E+00  0.00000000000E+00 -0.16467201252E+04  0.16467201252E+04  0.50400001928E-02 0. -1.
    10030    2    1    2    0    0  0.00000000000E+00  0.00000000000E+00 -0.47630002716E+03  0.28171402233E+04  0.27765837502E+04 0.  0.
        1    1    3    3  502    0 -0.86382421448E+02 -0.12576647553E+04  0.35186948325E+03  0.13088142315E+04  0.50400001928E-02 0. -1.
       -1    1    3    3    0  502  0.86382421448E+02  0.12576647553E+04 -0.82816951041E+03  0.15083259917E+04  0.50400001928E-02 0.  1.
</event>
<event>
 5   0  0.4700769E-07  0.3475496E+04  0.7818609E-02  0.8119622E-01
        1   -1    0    0  501    0  0.00000000000E+00  0.00000000000E+00  0.22234626311E+04  0.22234626311E+04  0.50400001928E-02 0. -1.
       -1   -1    0    0    0  501  0.00000000000E+00  0.00000000000E+00 -0.13581377623E+04  0.13581377623E+04  0.50400001928E-02 0.  1.
    10030    2    1    2    0    0  0.00000000000E+00  0.00000000000E+00  0.86532486881E+03  0.35816003934E+04  0.34754962594E+04 0.  0.
        3    1    3    3  502    0  0.15462593239E+04  0.50721573450E+03 -0.19552339678E+03  0.16390287084E+04  0.10100000352E+00 0.  1.
       -3    1    3    3    0  502 -0.15462593239E+04 -0.50721573450E+03  0.10608482656E+04  0.19425716849E+04  0.10100000352E+00 0. -1.
</event>
<event>
 5   0  0.4693374E-07  0.2956144E+04  0.7818609E-02  0.8256366E-01
       -1   -1    0    0    0  501  0.00000000000E+00  0.00000000000E+00  0.98594889239E+03  0.98594889240E+03  0.50400001928E-02 0. -1.
        1   -1    0    0  501    0  0.00000000000E+00  0.00000000000E+00 -0.22158313882E+04  0.22158313882E+04  0.50400001928E-02 0.  1.
    10030    2    1    2    0    0  0.00000000000E+00  0.00000000000E+00 -0.12298824958E+04  0.32017802806E+04  0.29561437739E+04 0.  0.
        1    1    3    3  502    0 -0.88720140559E+03  0.87428488196E+03 -0.14767980102E+04  0.19319505045E+04  0.50400001928E-02 0.  1.
       -1    1    3    3    0  502  0.88720140559E+03 -0.87428488196E+03  0.24691551443E+03  0.12698297761E+04  0.50400001928E-02 0. -1.
</event>
<event>
 5   0  0.4591195E-07  0.2612311E+04  0.7818609E-02  0.8364032E-01
       -1   -1    0    0    0  501  0.00000000000E+00  0.00000000000E+00  0.71584719354E+03  0.71584719356E+03  0.50400001928E-02 0.  1.
        1   -1    0    0  501    0  0.00000000000E+00  0.00000000000E+00 -0.23832484410E+04  0.23832484410E+04  0.50400001928E-02 0. -1.
    10030    2    1    2    0    0  0.00000000000E+00  0.00000000000E+00 -0.16674012474E+04  0.30990956345E+04  0.26123106308E+04 0.  0.
        4    1    3    3  502    0  0.12604379750E+04 -0.30691266838E+03 -0.10141683450E+04  0.16466445639E+04  0.12699999809E+01 0. -1.
       -4    1    3    3    0  502 -0.12604379750E+04  0.30691266838E+03 -0.65323290244E+03  0.14524510706E+04  0.12699999809E+01 0.  1.
</event>
<event>
 5   0  0.4591195E-07  0.3550638E+04  0.7818609E-02  0.8101893E-01
        1   -1    0    0  501    0  0.00000000000E+00  0.00000000000E+00  0.19360961863E+04  0.19360961863E+04  0.50400001928E-02 0. -1.
       -1   -1    0    0    0  501  0.00000000000E+00  0.00000000000E+00 -0.16278926750E+04  0.16278926750E+04  0.50400001928E-02 0.  1.
    10030    2    1    2    0    0  0.00000000000E+00  0.00000000000E+00  0.30820351126E+03  0.35639888613E+04  0.35506375764E+04 0.  0.
        4    1    3    3  502    0 -0.42256606516E+03  0.99588295590E+03 -0.12588170168E+04  0.16598092770E+04  0.12699999809E+01 0.  1.
       -4    1    3    3    0  502  0.42256606516E+03 -0.99588295590E+03  0.15670205280E+04  0.19041795843E+04  0.12699999809E+01 0. -1.
</event>
<event>
 5   0  0.4700769E-07  0.3449110E+04  0.7818609E-02  0.8125957E-01
       -1   -1    0    0    0  501  0.00000000000E+00  0.00000000000E+00  0.14258963775E+04  0.14258963775E+04  0.50400001928E-02 0.  1.
        1   -1    0    0  501    0  0.00000000000E+00  0.00000000000E+00 -0.20857685402E+04  0.20857685402E+04  0.50400001928E-02 0. -1.
    10030    2    1    2    0    0  0.00000000000E+00  0.00000000000E+00 -0.65987216265E+03  0.35116649177E+04  0.34491099175E+04 0.  0.
        3    1    3    3  502    0 -0.15423001873E+04 -0.40257438455E+03 -0.10001559727E+04  0.18817725641E+04  0.10100000352E+00 0. -1.
       -3    1    3    3    0  502  0.15423001873E+04  0.40257438455E+03  0.34028381001E+03  0.16298923537E+04  0.10100000352E+00 0.  1.
</event>
<event>
 5   0  0.1378620E-06  0.3350661E+04  0.7818609E-02  0.8150123E-01
        2   -1    0    0  501    0  0.00000000000E+00  0.00000000000E+00  0.21179793205E+04  0.21179793205E+04  0.25500000920E-02 0.  1.
       -2   -1    0    0    0  501  0.00000000000E+00  0.00000000000E+00 -0.13251932974E+04  0.13251932974E+04  0.25500000920E-02 0. -1.
    10030    2    1    2    0    0  0.00000000000E+00  0.00000000000E+00  0.79278602312E+03  0.34431726179E+04  0.33506608300E+04 0.  0.
        2    1    3    3  502    0 -0.86200521307E+03  0.64754404974E+03  0.17141263507E+04  0.20249926987E+04  0.25500000920E-02 0.  1.
       -2    1    3    3    0  502  0.86200521307E+03 -0.64754404974E+03 -0.92134032761E+03  0.14181799191E+04  0.25500000920E-02 0. -1.
</event>
<event>
 5   0  0.4409125E-07  0.2985401E+04  0.7818609E-02  0.8247912E-01
       -3   -1    0    0    0  501  0.00000000000E+00  0.00000000000E+00  0.16541370081E+04  0.16541370112E+04  0.10100000352E+00 0.  1.
        3   -1    0    0  501    0  0.00000000000E+00  0.00000000000E+00 -0.13470191189E+04  0.13470191226E+04  0.10100000352E+00 0. -1.
    10030    2    1    2    0    0  0.00000000000E+00  0.00000000000E+00  0.30711788924E+03  0.30011561338E+04  0.29854005999E+04 0.  0.
        4    1    3    3  502    0  0.65101878348E+03 -0.40490291240E+03  0.14410917579E+04  0.16323354105E+04  0.12699999809E+01 0.  1.
       -4    1    3    3    0  502 -0.65101878348E+03  0.40490291240E+03 -0.11339738686E+04  0.13688207233E+04  0.12699999809E+01 0. -1.
</event>
<event>
 5   0  0.1442864E-06  0.2517935E+04  0.7818609E-02  0.8396624E-01
       -2   -1    0    0    0  501  0.00000000000E+00  0.00000000000E+00  0.11980584893E+04  0.11980584893E+04  0.25500000920E-02 0. -1.
        2   -1    0    0  501    0  0.00000000000E+00  0.00000000000E+00 -0.13229728048E+04  0.13229728048E+04  0.25500000920E-02 0.  1.
    10030    2    1    2    0    0  0.00000000000E+00  0.00000000000E+00 -0.12491431554E+03  0.25210312941E+04  0.25179347092E+04 0.  0.
        1    1    3    3  502    0 -0.10897899501E+04  0.57379130927E+03  0.19886228467E+03  0.12475675574E+04  0.50400001928E-02 0. -1.
       -1    1    3    3    0  502  0.10897899501E+04 -0.57379130927E+03 -0.32377660021E+03  0.12734637367E+04  0.50400001928E-02 0.  1.
</event>
<event>
 5   0  0.4700769E-07  0.3480863E+04  0.7818609E-02  0.8118340E-01
       -1   -1    0    0    0  501  0.00000000000E+00  0.00000000000E+00  0.16592547753E+04  0.16592547753E+04  0.50400001928E-02 0.  1.
        1   -1    0    0  501    0  0.00000000000E+00  0.00000000000E+00 -0.18255798848E+04  0.18255798848E+04  0.50400001928E-02 0. -1.
    10030    2    1    2    0    0  0.00000000000E+00  0.00000000000E+00 -0.16632510951E+03  0.34848346601E+04  0.34808631927E+04 0.  0.
        3    1    3    3  502    0  0.15619454486E+04  0.26598376893E+03  0.63785438575E+03  0.17080044430E+04  0.10100000352E+00 0.  1.
       -3    1    3    3    0  502 -0.15619454486E+04 -0.26598376893E+03 -0.80417949526E+03  0.17768302171E+04  0.10100000352E+00 0. -1.
</event>
<event>
 5   0  0.1442864E-06  0.3537333E+04  0.7818609E-02  0.8104999E-01
        2   -1    0    0  501    0  0.00000000000E+00  0.00000000000E+00  0.26422045493E+04  0.26422045493E+04  0.25500000920E-02 0.  1.
       -2   -1    0    0    0  501  0.00000000000E+00  0.00000000000E+00 -0.11839285970E+04  0.11839285970E+04  0.25500000920E-02 0. -1.
    10030    2    1    2    0    0  0.00000000000E+00  0.00000000000E+00  0.14582759523E+04  0.38261331462E+04  0.35373331904E+04 0.  0.
        1    1    3    3  502    0  0.39880157068E+02 -0.80548634436E+03  0.24317501372E+04  0.25619928587E+04  0.50400001928E-02 0.  1.
       -1    1    3    3    0  502 -0.39880157068E+02  0.80548634436E+03 -0.97347418496E+03  0.12641402876E+04  0.50400001928E-02 0. -1.
</event>
<event>
 5   0  0.4693374E-07  0.3482693E+04  0.7818609E-02  0.8117904E-01
        1   -1    0    0  501    0  0.00000000000E+00  0.00000000000E+00  0.23179441187E+04  0.23179441187E+04  0.50400001928E-02 0. -1.
       -1   -1    0    0    0  501  0.00000000000E+00  0.00000000000E+00 -0.13081801320E+04  0.13081801320E+04  0.50400001928E-02 0.  1.
    10030    2    1    2    0    0  0.00000000000E+00  0.00000000000E+00  0.10097639867E+04  0.36261242508E+04  0.34826934653E+04 0.  0.
        1    1    3    3  502    0 -0.96432929252E+03 -0.79364834710E+03  0.17683146473E+04  0.21648892293E+04  0.50400001928E-02 0. -1.
       -1    1    3    3    0  502  0.96432929252E+03  0.79364834710E+03 -0.75855066058E+03  0.14612350215E+04  0.50400001928E-02 0.  1.
</event>
<event>
 5   0  0.1348388E-06  0.3478789E+04  0.7818609E-02  0.8118835E-01
        2   -1    0    0  501    0  0.00000000000E+00  0.00000000000E+00  0.25759983268E+04  0.25759983268E+04  0.25500000920E-02 0.  1.
       -2   -1    0    0    0  501  0.00000000000E+00  0.00000000000E+00 -0.11744934865E+04  0.11744934865E+04  0.25500000920E-02 0. -1.
    10030    2    1    2    0    0  0.00000000000E+00  0.00000000000E+00  0.14015048404E+04  0.37504918133E+04  0.34787890169E+04 0.  0.
        5    1    3    3  502    0  0.20084660650E+03 -0.16348559872E+04  0.13033122121E+04  0.21004138332E+04  0.46999998093E+01 0.  1.
       -5    1    3    3    0  502 -0.20084660650E+03  0.16348559872E+04  0.98192628223E+02  0.16500779801E+04  0.46999998093E+01 0. -1.
</event>
<event>
 5   0  0.4557237E-07  0.3052149E+04  0.7818609E-02  0.8228994E-01
       -1   -1    0    0    0  501  0.00000000000E+00  0.00000000000E+00  0.19979028130E+04  0.19979028130E+04  0.50400001928E-02 0.  1.
        1   -1    0    0  501    0  0.00000000000E+00  0.00000000000E+00 -0.11656743757E+04  0.11656743757E+04  0.50400001928E-02 0. -1.
    10030    2    1    2    0    0  0.00000000000E+00  0.00000000000E+00  0.83222843737E+03  0.31635771887E+04  0.30521494814E+04 0.  0.
        2    1    3    3  502    0  0.12820509275E+04 -0.81974730397E+03  0.29674066891E+03  0.15503855159E+04  0.25500000920E-02 0.  1.
       -2    1    3    3    0  502 -0.12820509275E+04  0.81974730397E+03  0.53548776846E+03  0.16131916728E+04  0.25500000920E-02 0. -1.
</event>
<event>
 5   0  0.1361560E-06  0.3522074E+04  0.7818609E-02  0.8108579E-01
        2   -1    0    0  501    0  0.00000000000E+00  0.00000000000E+00  0.18474323276E+04  0.18474323276E+04  0.25500000920E-02 0.  1.
       -2   -1    0    0    0  501  0.00000000000E+00  0.00000000000E+00 -0.16786820067E+04  0.16786820067E+04  0.25500000920E-02 0. -1.
    10030    2    1    2    0    0  0.00000000000E+00  0.00000000000E+00  0.16875032087E+03  0.35261143343E+04  0.35220740520E+04 0.  0.
        3    1    3    3  502    0 -0.62206762140E+03  0.14393530949E+04 -0.71813400115E+03  0.17246512433E+04  0.10100000352E+00 0. -1.
       -3    1    3    3    0  502  0.62206762140E+03 -0.14393530949E+04  0.88688432201E+03  0.18014630910E+04  0.10100000352E+00 0.  1.
</event>
<event>
 5   0  0.1378620E-06  0.3500770E+04  0.7818609E-02  0.8113608E-01
       -2   -1    0    0    0  501  0.00000000000E+00  0.00000000000E+00  0.16647321030E+04  0.16647321030E+04  0.25500000920E-02 0. -1.
        2   -1    0    0  501    0  0.00000000000E+00  0.00000000000E+00 -0.18404445694E+04  0.18404445694E+04  0.25500000920E-02 0.  1.
    10030    2    1    2    0    0  0.00000000000E+00  0.00000000000E+00 -0.17571246638E+03  0.35051766724E+04  0.35007697202E+04 0.  0.
        2    1    3    3  502    0  0.10348755426E+04  0.52865919132E+03 -0.13984727971E+04  0.18182887817E+04  0.25500000920E-02 0.  1.
       -2    1    3    3    0  502 -0.10348755426E+04 -0.52865919132E+03  0.12227603308E+04  0.16868878907E+04  0.25500000920E-02 0. -1.
</event>
<event>
 5   0  0.4557237E-07  0.3389360E+04  0.7818609E-02  0.8140523E-01
       -1   -1    0    0    0  501  0.00000000000E+00  0.00000000000E+00  0.25743484911E+04  0.25743484911E+04  0.50400001928E-02 0. -1.
        1   -1    0    0  501    0  0.00000000000E+00  0.00000000000E+00 -0.11155991198E+04  0.11155991199E+04  0.50400001928E-02 0.  1.
    10030    2    1    2    0    0  0.00000000000E+00  0.00000000000E+00  0.14587493712E+04  0.36899476109E+04  0.33893603590E+04 0.  0.
        2    1    3    3  502    0 -0.90170200212E+03  0.14077027941E+04  0.10319573052E+04  0.19645939878E+04  0.25500000920E-02 0. -1.
       -2    1    3    3    0  502  0.90170200212E+03 -0.14077027941E+04  0.42679206600E+03  0.17253536231E+04  0.25500000920E-02 0.  1.
</event>
<event>
 5   0  0.1348388E-06  0.3476391E+04  0.7818609E-02  0.8119408E-01
       -2   -1    0    0    0  501  0.00000000000E+00  0.00000000000E+00  0.12779267209E+04  0.12779267209E+04  0.25500000920E-02 0. -1.
        2   -1    0    0  501    0  0.00000000000E+00  0.00000000000E+00 -0.23642390314E+04  0.23642390314E+04  0.25500000920E-02 0.  1.
    10030    2    1    2    0    0  0.00000000000E+00  0.00000000000E+00 -0.10863123106E+04  0.36421657523E+04  0.34763913662E+04 0.  0.
        5    1    3    3  502    0 -0.45032563082E+03 -0.33901103958E+03 -0.22658206197E+04  0.23348847572E+04  0.46999998093E+01 0.  1.
       -5    1    3    3    0  502  0.45032563082E+03  0.33901103958E+03  0.11795083092E+04  0.13072809951E+04  0.46999998093E+01 0. -1.
</event>
<event>
 5   0  0.1348388E-06  0.3520669E+04  0.7818609E-02  0.8108909E-01
        2   -1    0    0  501    0  0.00000000000E+00  0.00000000000E+00  0.13165617849E+04  0.13165617849E+04  0.25500000920E-02 0.  1.
       -2   -1    0    0    0  501  0.00000000000E+00  0.00000000000E+00 -0.23536897896E+04  0.23536897896E+04  0.25500000920E-02 0. -1.
    10030    2    1    2    0    0  0.00000000000E+00  0.00000000000E+00 -0.10371280047E+04  0.36702515744E+04  0.35206692718E+04 0.  0.
        5    1    3    3  502    0 -0.10282958048E+04  0.42334888989E+03  0.90401599521E+03  0.14331376607E+04  0.46999998093E+01 0.  1.
       -5    1    3    3    0  502  0.10282958048E+04 -0.42334888989E+03 -0.19411439999E+04  0.22371139138E+04  0.46999998093E+01 0. -1.
</event>
<event>
 5   0  0.1361560E-06  0.3209661E+04  0.7818609E-02  0.8186270E-01
        2   -1    0    0  501    0  0.00000000000E+00  0.00000000000E+00  0.16053485261E+04  0.16053485261E+04  0.25500000920E-02 0.  1.
       -2   -1    0    0    0  501  0.00000000000E+00  0.00000000000E+00 -0.16043123689E+04  0.16043123689E+04  0.25500000920E-02 0. -1.
    10030    2    1    2    0    0  0.00000000000E+00  0.00000000000E+00  0.10361571417E+01  0.32096608950E+04  0.32096607278E+04 0.  0.
        3    1    3    3  502    0  0.78011068906E+03  0.13055377371E+04 -0.51180900815E+03  0.16046650558E+04  0.10100000352E+00 0. -1.
       -3    1    3    3    0  502 -0.78011068906E+03 -0.13055377371E+04  0.51284516529E+03  0.16049958392E+04  0.10100000352E+00 0.  1.
</event>
<event>
 5   0  0.1442864E-06  0.3539457E+04  0.7818609E-02  0.8104502E-01
       -2   -1    0    0    0  501  0.00000000000E+00  0.00000000000E+00  0.11618182582E+04  0.11618182582E+04  0.25500000920E-02 0. -1.
        2   -1    0    0  501    0  0.00000000000E+00  0.00000000000E+00 -0.26957225546E+04  0.26957225546E+04  0.25500000920E-02 0.  1.
    10030    2    1    2    0    0  0.00000000000E+00  0.00000000000E+00 -0.15339042964E+04  0.38575408128E+04  0.35394574064E+04 0.  0.
        1    1    3    3  502    0 -0.42868466530E+03  0.99434283228E+03 -0.22925536070E+04  0.25354073147E+04  0.50400001928E-02 0.  1.
       -1    1    3    3    0  502  0.42868466530E+03 -0.99434283228E+03  0.75864931058E+03  0.13221334981E+04  0.50400001928E-02 0. -1.
</event>
<event>
 5   0  0.4409125E-07  0.3513380E+04  0.7818609E-02  0.8110626E-01
        1   -1    0    0  501    0  0.00000000000E+00  0.00000000000E+00  0.31996174014E+04  0.31996174014E+04  0.50400001928E-02 0. -1.
       -1   -1    0    0    0  501  0.00000000000E+00  0.00000000000E+00 -0.96447774904E+03  0.96447774905E+03  0.50400001928E-02 0.  1.
    10030    2    1    2    0    0  0.00000000000E+00  0.00000000000E+00  0.22351396523E+04  0.41640951504E+04  0.35133800188E+04 0.  0.
        5    1    3    3  502    0 -0.70502131934E+03  0.27518245820E+03 -0.76133745605E+03  0.10735163054E+04  0.46999998093E+01 0.  1.
       -5    1    3    3    0  502  0.70502131934E+03 -0.27518245820E+03  0.29964771084E+04  0.30905788450E+04  0.46999998093E+01 0. -1.
</event>
<event>
 5   0  0.4693374E-07  0.3602821E+04  0.7818609E-02  0.8089846E-01
        1   -1    0    0  501    0  0.00000000000E+00  0.00000000000E+00  0.24927284251E+04  0.24927284251E+04  0.50400001928E-02 0. -1.
       -1   -1    0    0    0  501  0.00000000000E+00  0.00000000000E+00 -0.13018184799E+04  0.13018184799E+04  0.50400001928E-02 0.  1.
    10030    2    1    2    0    0  0.00000000000E+00  0.00000000000E+00  0.11909099452E+04  0.37945469050E+04  0.36028210775E+04 0.  0.
        1    1    3    3  502    0  0.15313580803E+04  0.79699654732E+03  0.53464454556E+02  0.17271709569E+04  0.50400001928E-02 0.  1.
       -1    1    3    3    0  502 -0.15313580803E+04 -0.79699654732E+03  0.11374454907E+04  0.20673759481E+04  0.50400001928E-02 0. -1.
</event>
<event>
 5   0  0.1378620E-06  0.3491185E+04  0.7818609E-02  0.8115882E-01
        2   -1    0    0  501    0  0.00000000000E+00  0.00000000000E+00  0.19445309929E+04  0.19445309929E+04  0.25500000920E-02 0.  1.
       -2   -1    0    0    0  501  0.00000000000E+00  0.00000000000E+00 -0.15670071159E+04  0.15670071160E+04  0.25500000920E-02 0. -1.
    10030    2    1    2    0    0  0.00000000000E+00  0.00000000000E+00  0.37752387691E+03  0.35115381088E+04  0.34911854164E+04 0.  0.
        2    1    3    3  502    0 -0.34714541652E+03  0.14699870196E+04 -0.69139490306E+03  0.16611437897E+04  0.25500000920E-02 0. -1.
       -2    1    3    3    0  502  0.34714541652E+03 -0.14699870196E+04  0.10689187800E+04  0.18503943191E+04  0.25500000920E-02 0.  1.
</event>
<event>
 5   0  0.4557237E-07  0.3467032E+04  0.7818609E-02  0.8121648E-01
        1   -1    0    0  501    0  0.00000000000E+00  0.00000000000E+00  0.25365201795E+04  0.25365201795E+04  0.50400001928E-02 0.  1.
       -1   -1    0    0    0  501  0.00000000000E+00  0.00000000000E+00 -0.11847244075E+04  0.11847244075E+04  0.50400001928E-02 0. -1.
    10030    2    1    2    0    0  0.00000000000E+00  0.00000000000E+00  0.13517957720E+04  0.37212445870E+04  0.34670317949E+04 0.  0.
        2    1    3    3  502    0 -0.75760683824E+03  0.99218907544E+02 -0.99423697221E+03  0.12539217160E+04  0.25500000920E-02 0. -1.
       -2    1    3    3    0  502  0.75760683824E+03 -0.99218907544E+02  0.23460327442E+04  0.24673228710E+04  0.25500000920E-02 0.  1.
</event>
<event>
 5   0  0.1361560E-06  0.3510740E+04  0.7818609E-02  0.8111250E-01
        2   -1    0    0  501    0  0.00000000000E+00  0.00000000000E+00  0.20160862453E+04  0.20160862453E+04  0.25500000920E-02 0.  1.
       -2   -1    0    0    0  501  0.00000000000E+00  0.00000000000E+00 -0.15283687301E+04  0.15283687301E+04  0.25500000920E-02 0. -1.
    10030    2    1    2    0    0  0.00000000000E+00  0.00000000000E+00  0.48771751524E+03  0.35444549754E+04  0.35107396227E+04 0.  0.
        3    1    3    3  502    0  0.63893377341E+03  0.16176656956E+04  0.44219831415E+01  0.17392809530E+04  0.10100000352E+00 0.  1.
       -3    1    3    3    0  502 -0.63893377341E+03 -0.16176656956E+04  0.48329553210E+03  0.18051740224E+04  0.10100000352E+00 0. -1.
</event>
<event>
 5   0  0.1348388E-06  0.3771026E+04  0.7818609E-02  0.8052401E-01
       -2   -1    0    0    0  501  0.00000000000E+00  0.00000000000E+00  0.30174575028E+04  0.30174575028E+04  0.25500000920E-02 0.  1.
        2   -1    0    0  501    0  0.00000000000E+00  0.00000000000E+00 -0.11781967115E+04  0.11781967115E+04  0.25500000920E-02 0. -1.
    10030    2    1    2    0    0  0.00000000000E+00  0.00000000000E+00  0.18392607913E+04  0.41956542143E+04  0.37710255936E+04 0.  0.
        5    1    3    3  502    0  0.91468505780E+03  0.15179236148E+04  0.20340823191E+03  0.17838547738E+04  0.46999998093E+01 0.  1.
       -5    1    3    3    0  502 -0.91468505780E+03 -0.15179236148E+04  0.16358525594E+04  0.24117994405E+04  0.46999998093E+01 0. -1.
</event>
<event>
 5   0  0.4409125E-07  0.3437539E+04  0.7818609E-02  0.8128754E-01
        1   -1    0    0  501    0  0.00000000000E+00  0.00000000000E+00  0.25026117507E+04  0.25026117507E+04  0.50400001928E-02 0.  1.
       -1   -1    0    0    0  501  0.00000000000E+00  0.00000000000E+00 -0.11804339006E+04  0.11804339006E+04  0.50400001928E-02 0. -1.
    10030    2    1    2    0    0  0.00000000000E+00  0.00000000000E+00  0.13221778502E+04  0.36830456513E+04  0.34375385092E+04 0.  0.
        5    1    3    3  502    0  0.73141176552E+03  0.73761044479E+03 -0.80605692491E+03  0.13148316224E+04  0.46999998093E+01 0. -1.
       -5    1    3    3    0  502 -0.73141176552E+03 -0.73761044479E+03  0.21282347751E+04  0.23682140289E+04  0.46999998093E+01 0.  1.
</event>
<event>
 5   0  0.4409125E-07  0.3232189E+04  0.7818609E-02  0.8180368E-01
       -1   -1    0    0    0  501  0.00000000000E+00  0.00000000000E+00  0.12744744560E+04  0.12744744560E+04  0.50400001928E-02 0. -1.
        1   -1    0    0  501    0  0.00000000000E+00  0.00000000000E+00 -0.20492850578E+04  0.20492850578E+04  0.50400001928E-02 0.  1.
    10030    2    1    2    0    0  0.00000000000E+00  0.00000000000E+00 -0.77481060184E+03  0.33237595139E+04  0.32321890163E+04 0.  0.
        5    1    3    3  502    0  0.15993608639E+04 -0.13256539980E+02 -0.14931071970E+03  0.16063768828E+04  0.46999998093E+01 0. -1.
       -5    1    3    3    0  502 -0.15993608639E+04  0.13256539980E+02 -0.62549988214E+03  0.17173826310E+04  0.46999998093E+01 0.  1.
</event>
<event>
 5   0  0.1442864E-06  0.3469822E+04  0.7818609E-02  0.8120979E-01
       -2   -1    0    0    0  501  0.00000000000E+00  0.00000000000E+00  0.14013509373E+04  0.14013509373E+04  0.25500000920E-02 0. -1.
        2   -1    0    0  501    0  0.00000000000E+00  0.00000000000E+00 -0.21478672263E+04  0.21478672263E+04  0.25500000920E-02 0.  1.
    10030    2    1    2    0    0  0.00000000000E+00  0.00000000000E+00 -0.74651628902E+03  0.35492181636E+04  0.34698217537E+04 0.  0.
        1    1    3    3  502    0  0.79670008682E+03  0.15375128925E+04 -0.26481901224E+03  0.17518007970E+04  0.50400001928E-02 0. -1.
       -1    1    3    3    0  502 -0.79670008682E+03 -0.15375128925E+04 -0.48169727678E+03  0.17974173666E+04  0.50400001928E-02 0.  1.
</event>
<event>
 5   0  0.1387133E-06  0.3479930E+04  0.7818609E-02  0.8118563E-01
        2   -1    0    0  501    0  0.00000000000E+00  0.00000000000E+00  0.19824852881E+04  0.19824852881E+04  0.25500000920E-02 0.  1.
       -2   -1    0    0    0  501  0.00000000000E+00  0.00000000000E+00 -0.15271129459E+04  0.15271129459E+04  0.25500000920E-02 0. -1.
    10030    2    1    2    0    0  0.00000000000E+00  0.00000000000E+00  0.45537234218E+03  0.35095982340E+04  0.34799304295E+04 0.  0.
        4    1    3    3  502    0  0.10832114281E+04 -0.13375194914E+04 -0.29778231644E+02  0.17213929661E+04  0.12699999809E+01 0. -1.
       -4    1    3    3    0  502 -0.10832114281E+04  0.13375194914E+04  0.48515057383E+03  0.17882052679E+04  0.12699999809E+01 0.  1.
</event>
<event>
 5   0  0.4557237E-07  0.3597568E+04  0.7818609E-02  0.8091049E-01
       -1   -1    0    0    0  501  0.00000000000E+00  0.00000000000E+00  0.18075139259E+04  0.18075139259E+04  0.50400001928E-02 0. -1.
        1   -1    0    0  501    0  0.00000000000E+00  0.00000000000E+00 -0.17900965807E+04  0.17900965807E+04  0.50400001928E-02 0.  1.
    10030    2    1    2    0    0  0.00000000000E+00  0.00000000000E+00  0.17417345187E+02  0.35976105066E+04  0.35975683445E+04 0.  0.
        2    1    3    3  502    0  0.95621101194E+03 -0.77194335866E+02  0.15303460483E+04  0.18061720550E+04  0.25500000920E-02 0. -1.
       -2    1    3    3    0  502 -0.95621101194E+03  0.77194335866E+02 -0.15129287031E+04  0.17914384515E+04  0.25500000920E-02 0.  1.
</event>
<event>
 5   0  0.4591195E-07  0.3260064E+04  0.7818609E-02  0.8173132E-01
        1   -1    0    0  501    0  0.00000000000E+00  0.00000000000E+00  0.19397481303E+04  0.19397481303E+04  0.50400001928E-02 0. -1.
       -1   -1    0    0    0  501  0.00000000000E+00  0.00000000000E+00 -0.13697675525E+04  0.13697675525E+04  0.50400001928E-02 0.  1.
    10030    2    1    2    0    0  0.00000000000E+00  0.00000000000E+00  0.56998057783E+03  0.33095156828E+04  0.32600638331E+04 0.  0.
        4    1    3    3  502    0  0.13587096585E+04  0.28834440587E+03  0.11510240417E+04  0.18039103054E+04  0.12699999809E+01 0. -1.
       -4    1    3    3    0  502 -0.13587096585E+04 -0.28834440587E+03 -0.58104346386E+03  0.15056053774E+04  0.12699999809E+01 0.  1.
</event>
<event>
 5   0  0.1361560E-06  0.3636451E+04  0.7818609E-02  0.8082193E-01
       -2   -1    0    0    0  501  0.00000000000E+00  0.00000000000E+00  0.21689345642E+04  0.21689345642E+04  0.25500000920E-02 0. -1.
        2   -1    0    0  501    0  0.00000000000E+00  0.00000000000E+00 -0.15242245605E+04  0.15242245605E+04  0.25500000920E-02 0.  1.
    10030    2    1    2    0    0  0.00000000000E+00  0.00000000000E+00  0.64471000372E+03  0.36931591248E+04  0.36364506503E+04 0.  0.
        3    1    3    3  502    0 -0.33145913418E+03 -0.15204844247E+04  0.12773407136E+04  0.20132901808E+04  0.10100000352E+00 0. -1.
       -3    1    3    3    0  502  0.33145913418E+03  0.15204844247E+04 -0.63263070991E+03  0.16798689439E+04  0.10100000352E+00 0.  1.
</event>
<event>
 5   0  0.4693374E-07  0.3463753E+04  0.7818609E-02  0.8122434E-01
        1   -1    0    0  501    0  0.00000000000E+00  0.00000000000E+00  0.18105298174E+04  0.18105298174E+04  0.50400001928E-02 0.  1.
       -1   -1    0    0    0  501  0.00000000000E+00  0.00000000000E+00 -0.16566400502E+04  0.16566400502E+04  0.50400001928E-02 0. -1.
    10030    2    1    2    0    0  0.00000000000E+00  0.00000000000E+00  0.15388976726E+03  0.34671698676E+04  0.34637529979E+04 0.  0.
        1    1    3    3  502    0  0.35955450357E+03  0.21603842104E+03  0.17589131860E+04  0.18082388217E+04  0.50400001928E-02 0.  1.
       -1    1    3    3    0  502 -0.35955450357E+03 -0.21603842104E+03 -0.16050234187E+04  0.16589310459E+04  0.50400001928E-02 0. -1.
</event>
<event>
 5   0  0.1348388E-06  0.3511233E+04  0.7818609E-02  0.8111133E-01
        2   -1    0    0  501    0  0.00000000000E+00  0.00000000000E+00  0.20112653856E+04  0.20112653856E+04  0.25500000920E-02 0.  1.
       -2   -1    0    0    0  501  0.00000000000E+00  0.00000000000E+00 -0.15324625112E+04  0.15324625112E+04  0.25500000920E-02 0. -1.
    10030    2    1    2    0    0  0.00000000000E+00  0.00000000000E+00  0.47880287445E+03  0.35437278968E+04  0.35112327200E+04 0.  0.
        5    1    3    3  502    0  0.59424047426E+03 -0.65873124759E+03  0.17683866069E+04  0.19784493623E+04  0.46999998093E+01 0.  1.
       -5    1    3    3    0  502 -0.59424047426E+03  0.65873124759E+03 -0.12895837324E+04  0.15652785345E+04  0.46999998093E+01 0. -1.
</event>
<event>
 5   0  0.4557237E-07  0.3013201E+04  0.7818609E-02  0.8239971E-01
       -1   -1    0    0    0  501  0.00000000000E+00  0.00000000000E+00  0.11368293408E+04  0.11368293408E+04  0.50400001928E-02 0. -1.
        1   -1    0    0  501    0  0.00000000000E+00  0.00000000000E+00 -0.19966459817E+04  0.19966459817E+04  0.50400001928E-02 0.  1.
    10030    2    1    2    0    0  0.00000000000E+00  0.00000000000E+00 -0.85981664095E+03  0.31334753226E+04  0.30132014438E+04 0.  0.
        2    1    3    3  502    0 -0.12756588298E+04 -0.64291278979E+02  0.40098813002E+03  0.13387420585E+04  0.25500000920E-02 0. -1.
       -2    1    3    3    0  502  0.12756588298E+04  0.64291278979E+02 -0.12608047710E+04  0.17947332641E+04  0.25500000920E-02 0.  1.
</event>
<event>
 5   0  0.1442864E-06  0.3492865E+04  0.7818609E-02  0.8115483E-01
       -2   -1    0    0    0  501  0.00000000000E+00  0.00000000000E+00  0.11842228015E+04  0.11842228015E+04  0.25500000920E-02 0.  1.
        2   -1    0    0  501    0  0.00000000000E+00  0.00000000000E+00 -0.25755514884E+04  0.25755514884E+04  0.25500000920E-02 0. -1.
    10030    2    1    2    0    0  0.00000000000E+00  0.00000000000E+00 -0.13913286869E+04  0.37597742899E+04  0.34928651844E+04 0.  0.
        1    1    3    3  502    0  0.19618626344E+03 -0.56788922113E+03  0.10694731824E+04  0.12266866370E+04  0.50400001928E-02 0.  1.
       -1    1    3    3    0  502 -0.19618626344E+03  0.56788922113E+03 -0.24608018693E+04  0.25330876529E+04  0.50400001928E-02 0. -1.
</event>
<event>
 5   0  0.1378620E-06  0.3568357E+04  0.7818609E-02  0.8097779E-01
        2   -1    0    0  501    0  0.00000000000E+00  0.00000000000E+00  0.20300504331E+04  0.20300504331E+04  0.25500000920E-02 0. -1.
       -2   -1    0    0    0  501  0.00000000000E+00  0.00000000000E+00 -0.15680854915E+04  0.15680854915E+04  0.25500000920E-02 0.  1.
    10030    2    1    2    0    0  0.00000000000E+00  0.00000000000E+00  0.46196494160E+03  0.35981359247E+04  0.35683568383E+04 0.  0.
        2    1    3    3  502    0  0.89092869313E+03  0.10267119353E+04  0.13962219344E+04  0.19486731446E+04  0.25500000920E-02 0. -1.
       -2    1    3    3    0  502 -0.89092869313E+03 -0.10267119353E+04 -0.93425699276E+03  0.16494627801E+04  0.25500000920E-02 0.  1.
</event>
<event>
 5   0  0.4591195E-07  0.3536719E+04  0.7818609E-02  0.8105143E-01
        1   -1    0    0  501    0  0.00000000000E+00  0.00000000000E+00  0.16482417154E+04  0.16482417154E+04  0.50400001928E-02 0. -1.
       -1   -1    0    0    0  501  0.00000000000E+00  0.00000000000E+00 -0.18972311491E+04  0.18972311492E+04  0.50400001928E-02 0.  1.
    10030    2    1    2    0    0  0.00000000000E+00  0.00000000000E+00 -0.24898943374E+03  0.35454728646E+04  0.35367191146E+04 0.  0.
        4    1    3    3  502    0  0.97832103512E+03 -0.95401507410E+03 -0.12496974883E+04  0.18517565268E+04  0.12699999809E+01 0.  1.
       -4    1    3    3    0  502 -0.97832103512E+03  0.95401507410E+03  0.10007080546E+04  0.16937163378E+04  0.12699999809E+01 0. -1.
</event>
<event>
 5   0  0.1387133E-06  0.3479670E+04  0.7818609E-02  0.8118625E-01
       -2   -1    0    0    0  501  0.00000000000E+00  0.00000000000E+00  0.19026079159E+04  0.19026079159E+04  0.25500000920E-02 0. -1.
        2   -1    0    0  501    0  0.00000000000E+00  0.00000000000E+00 -0.15909875712E+04  0.15909875712E+04  0.25500000920E-02 0.  1.
    10030    2    1    2    0    0  0.00000000000E+00  0.00000000000E+00  0.31162034470E+03  0.34935954871E+04  0.34796698390E+04 0.  0.
        4    1    3    3  502    0 -0.10572101723E+04 -0.86839154499E+03 -0.92330597220E+03  0.16505431697E+04  0.12699999809E+01 0.  1.
       -4    1    3    3    0  502  0.10572101723E+04  0.86839154499E+03  0.12349263169E+04  0.18430523174E+04  0.12699999809E+01 0. -1.
</event>
<event>
 5   0  0.1348388E-06  0.3451433E+04  0.7818609E-02  0.8125397E-01
        2   -1    0    0  501    0  0.00000000000E+00  0.00000000000E+00  0.19187024621E+04  0.19187024621E+04  0.25500000920E-02 0.  1.
       -2   -1    0    0    0  501  0.00000000000E+00  0.00000000000E+00 -0.15521411137E+04  0.15521411137E+04  0.25500000920E-02 0. -1.
    10030    2    1    2    0    0  0.00000000000E+00  0.00000000000E+00  0.36656134845E+03  0.34708435758E+04  0.34514327323E+04 0.  0.
        5    1    3    3  502    0  0.46985256357E+03 -0.73290256159E+03 -0.13151217871E+04  0.15771731044E+04  0.46999998093E+01 0. -1.
       -5    1    3    3    0  502 -0.46985256357E+03  0.73290256159E+03  0.16816831355E+04  0.18936704715E+04  0.46999998093E+01 0.  1.
</event>
<event>
 5   0  0.4693374E-07  0.3414031E+04  0.7818609E-02  0.8134471E-01
       -1   -1    0    0    0  501  0.00000000000E+00  0.00000000000E+00  0.11689701530E+04  0.11689701530E+04  0.50400001928E-02 0.  1.
        1   -1    0    0  501    0  0.00000000000E+00  0.00000000000E+00 -0.24927083883E+04  0.24927083883E+04  0.50400001928E-02 0. -1.
    10030    2    1    2    0    0  0.00000000000E+00  0.00000000000E+00 -0.13237382353E+04  0.36616785414E+04  0.34140308764E+04 0.  0.
        1    1    3    3  502    0  0.90576358277E+03 -0.12910906038E+04 -0.13623762358E+04  0.20840805222E+04  0.50400001928E-02 0. -1.
       -1    1    3    3    0  502 -0.90576358277E+03  0.12910906038E+04  0.38638000524E+02  0.15775980192E+04  0.50400001928E-02 0.  1.
</event>
<event>
 5   0  0.1387133E-06  0.3181745E+04  0.7818609E-02  0.8193655E-01
       -2   -1    0    0    0  501  0.00000000000E+00  0.00000000000E+00  0.16528215272E+04  0.16528215272E+04  0.25500000920E-02 0. -1.
        2   -1    0    0  501    0  0.00000000000E+00  0.00000000000E+00 -0.15312456878E+04  0.15312456878E+04  0.25500000920E-02 0.  1.
    10030    2    1    2    0    0  0.00000000000E+00  0.00000000000E+00  0.12157583942E+03  0.31840672151E+04  0.31817453301E+04 0.  0.
        4    1    3    3  502    0 -0.68245491073E+03  0.13224552630E+04 -0.50197608055E+03  0.15705458370E+04  0.12699999809E+01 0.  1.
       -4    1    3    3    0  502  0.68245491073E+03 -0.13224552630E+04  0.62355191997E+03  0.16135213781E+04  0.12699999809E+01 0. -1.
</event>
<event>
 5   0  0.4700769E-07  0.3422508E+04  0.7818609E-02  0.8132404E-01
        1   -1    0    0  501    0  0.00000000000E+00  0.00000000000E+00  0.22440312986E+04  0.22440312986E+04  0.50400001928E-02 0. -1.
       -1   -1    0    0    0  501  0.00000000000E+00  0.00000000000E+00 -0.13049681818E+04  0.13049681818E+04  0.50400001928E-02 0.  1.
    10030    2    1    2    0    0  0.00000000000E+00  0.00000000000E+00  0.93906311681E+03  0.35489994804E+04  0.34225075273E+04 0.  0.
        3    1    3    3  502    0  0.10019192457E+04 -0.39637240320E+03 -0.90905294975E+03  0.14097271128E+04  0.10100000352E+00 0.  1.
       -3    1    3    3    0  502 -0.10019192457E+04  0.39637240320E+03  0.18481160666E+04  0.21392723676E+04  0.10100000352E+00 0. -1.
</event>
<event>
 5   0  0.4557237E-07  0.3567148E+04  0.7818609E-02  0.8098059E-01
       -1   -1    0    0    0  501  0.00000000000E+00  0.00000000000E+00  0.17577618720E+04  0.17577618721E+04  0.50400001928E-02 0. -1.
        1   -1    0    0  501    0  0.00000000000E+00  0.00000000000E+00 -0.18097649243E+04  0.18097649243E+04  0.50400001928E-02 0.  1.
    10030    2    1    2    0    0  0.00000000000E+00  0.00000000000E+00 -0.52003052219E+02  0.35675267963E+04  0.35671477577E+04 0.  0.
        2    1    3    3  502    0  0.15223165932E+03  0.47489800938E+03 -0.17386183563E+04  0.18087278364E+04  0.25500000920E-02 0.  1.
       -2    1    3    3    0  502 -0.15223165932E+03 -0.47489800938E+03  0.16866153041E+04  0.17587989599E+04  0.25500000920E-02 0. -1.
</event>
<event>
 5   0  0.4557237E-07  0.3510888E+04  0.7818609E-02  0.8111215E-01
       -1   -1    0    0    0  501  0.00000000000E+00  0.00000000000E+00  0.20945642651E+04  0.20945642651E+04  0.50400001928E-02 0. -1.
        1   -1    0    0  501    0  0.00000000000E+00  0.00000000000E+00 -0.14712286354E+04  0.14712286354E+04  0.50400001928E-02 0.  1.
    10030    2    1    2    0    0  0.00000000000E+00  0.00000000000E+00  0.62333562970E+03  0.35657929005E+04  0.35108875946E+04 0.  0.
        2    1    3    3  502    0  0.54948100296E+03  0.10041306248E+04  0.16634118935E+04  0.20191945949E+04  0.25500000920E-02 0. -1.
       -2    1    3    3    0  502 -0.54948100296E+03 -0.10041306248E+04 -0.10400762638E+04  0.15465983056E+04  0.25500000920E-02 0.  1.
</event>
<event>
 5   0  0.4693374E-07  0.3487045E+04  0.7818609E-02  0.8116867E-01
        1   -1    0    0  501    0  0.00000000000E+00  0.00000000000E+00  0.21468678164E+04  0.21468678164E+04  0.50400001928E-02 0.  1.
       -1   -1    0    0    0  501  0.00000000000E+00  0.00000000000E+00 -0.14159558892E+04  0.14159558892E+04  0.50400001928E-02 0. -1.
    10030    2    1    2    0    0  0.00000000000E+00  0.00000000000E+00  0.73091192720E+03  0.35628237055E+04  0.34870446672E+04 0.  0.
        1    1    3    3  502    0 -0.15107434917E+04  0.83098345790E+03  0.62990631887E+03  0.18356637425E+04  0.50400001928E-02 0.  1.
       -1    1    3    3    0  502  0.15107434917E+04 -0.83098345790E+03  0.10100560833E+03  0.17271599630E+04  0.50400001928E-02 0. -1.
</event>
<event>
 5   0  0.4409125E-07  0.3434073E+04  0.7818609E-02  0.8129594E-01
        1   -1    0    0  501    0  0.00000000000E+00  0.00000000000E+00  0.26648474661E+04  0.26648474661E+04  0.50400001928E-02 0.  1.
       -1   -1    0    0    0  501  0.00000000000E+00  0.00000000000E+00 -0.11063349624E+04  0.11063349624E+04  0.50400001928E-02 0. -1.
    10030    2    1    2    0    0  0.00000000000E+00  0.00000000000E+00  0.15585125037E+04  0.37711824284E+04  0.34340727547E+04 0.  0.
        5    1    3    3  502    0  0.11553682327E+04  0.10808766609E+04  0.46670184876E+02  0.15828361587E+04  0.46999998093E+01 0. -1.
       -5    1    3    3    0  502 -0.11553682327E+04 -0.10808766609E+04  0.15118423188E+04  0.21883462697E+04  0.46999998093E+01 0.  1.
</event>
<event>
 5   0  0.4557237E-07  0.3479189E+04  0.7818609E-02  0.8118740E-01
        1   -1    0    0  501    0  0.00000000000E+00  0.00000000000E+00  0.18469156052E+04  0.18469156052E+04  0.50400001928E-02 0.  1.
       -1   -1    0    0    0  501  0.00000000000E+00  0.00000000000E+00 -0.16385096142E+04  0.16385096142E+04  0.50400001928E-02 0. -1.
    10030    2    1    2    0    0  0.00000000000E+00  0.00000000000E+00  0.20840599103E+03  0.34854252194E+04  0.34791889720E+04 0.  0.
        2    1    3    3  502    0 -0.12515415283E+04 -0.10603158875E+04 -0.47611332373E+03  0.17080134295E+04  0.25500000920E-02 0. -1.
       -2    1    3    3    0  502  0.12515415283E+04  0.10603158875E+04  0.68451931476E+03  0.17774117898E+04  0.25500000920E-02 0.  1.
</event>
<event>
 5   0  0.1387133E-06  0.2787117E+04  0.7818609E-02  0.8307279E-01
        2   -1    0    0  501    0  0.00000000000E+00  0.00000000000E+00  0.92020914427E+03  0.92020914427E+03  0.25500000920E-02 0.  1.
       -2   -1    0    0    0  501  0.00000000000E+00  0.00000000000E+00 -0.21103948772E+04  0.21103948772E+04  0.25500000920E-02 0. -1.
    10030    2    1    2    0    0  0.00000000000E+00  0.00000000000E+00 -0.11901857330E+04  0.30306040215E+04  0.27871165487E+04 0.  0.
        4    1    3    3  502    0  0.10021437473E+04  0.94140394355E+02 -0.16430572390E+04  0.19268609726E+04  0.12699999809E+01 0. -1.
       -4    1    3    3    0  502 -0.10021437473E+04 -0.94140394355E+02  0.45287150604E+03  0.11037430489E+04  0.12699999809E+01 0.  1.
</event>
<event>
 5   0  0.1387133E-06  0.3423710E+04  0.7818609E-02  0.8132111E-01
        2   -1    0    0  501    0  0.00000000000E+00  0.00000000000E+00  0.12019950998E+04  0.12019950998E+04  0.25500000920E-02 0.  1.
       -2   -1    0    0    0  501  0.00000000000E+00  0.00000000000E+00 -0.24379865051E+04  0.24379865051E+04  0.25500000920E-02 0. -1.
    10030    2    1    2    0    0  0.00000000000E+00  0.00000000000E+00 -0.12359914053E+04  0.36399816049E+04  0.34237101703E+04 0.  0.
        4    1    3    3  502    0 -0.78215535001E+03 -0.22907499517E+03 -0.22184809850E+04  0.23634512559E+04  0.12699999809E+01 0. -1.
       -4    1    3    3    0  502  0.78215535001E+03  0.22907499517E+03  0.98248957969E+03  0.12765303491E+04  0.12699999809E+01 0.  1.
</event>
<event>
 5   0  0.1442864E-06  0.3489675E+04  0.7818609E-02  0.8116241E-01
        2   -1    0    0  501    0  0.00000000000E+00  0.00000000000E+00  0.17446898202E+04  0.17446898202E+04  0.25500000920E-02 0.  1.
       -2   -1    0    0    0  501  0.00000000000E+00  0.00000000000E+00 -0.17449856649E+04  0.17449856649E+04  0.25500000920E-02 0. -1.
    10030    2    1    2    0    0  0.00000000000E+00  0.00000000000E+00 -0.29584473363E+00  0.34896754851E+04  0.34896754725E+04 0.  0.
        1    1    3    3  502    0  0.13126557362E+04 -0.36228436916E+03  0.10907891466E+04  0.17447452560E+04  0.50400001928E-02 0.  1.
       -1    1    3    3    0  502 -0.13126557362E+04  0.36228436916E+03 -0.10910849914E+04  0.17449302291E+04  0.50400001928E-02 0. -1.
</event>
<event>
 5   0  0.4591195E-07  0.3512962E+04  0.7818609E-02  0.8110725E-01
        1   -1    0    0  501    0  0.00000000000E+00  0.00000000000E+00  0.24612760080E+04  0.24612760080E+04  0.50400001928E-02 0.  1.
       -1   -1    0    0    0  501  0.00000000000E+00  0.00000000000E+00 -0.12535064806E+04  0.12535064807E+04  0.50400001928E-02 0. -1.
    10030    2    1    2    0    0  0.00000000000E+00  0.00000000000E+00  0.12077695274E+04  0.37147824887E+04  0.35129619564E+04 0.  0.
        4    1    3    3  502    0 -0.15679358333E+04 -0.18977762524E+03 -0.20889868827E+03  0.15931348340E+04  0.12699999809E+01 0. -1.
       -4    1    3    3    0  502  0.15679358333E+04  0.18977762524E+03  0.14166682157E+04  0.21216476547E+04  0.12699999809E+01 0.  1.
</event>
<event>
 5   0  0.4591195E-07  0.3721410E+04  0.7818609E-02  0.8063234E-01
       -1   -1    0    0    0  501  0.00000000000E+00  0.00000000000E+00  0.21991746330E+04  0.21991746330E+04  0.50400001928E-02 0.  1.
        1   -1    0    0  501    0  0.00000000000E+00  0.00000000000E+00 -0.15743287339E+04  0.15743287339E+04  0.50400001928E-02 0. -1.
    10030    2    1    2    0    0  0.00000000000E+00  0.00000000000E+00  0.62484589908E+03  0.37735033669E+04  0.37214103862E+04 0.  0.
        4    1    3    3  502    0  0.11550770214E+04  0.54777710972E+03 -0.10585234109E+04  0.16597397723E+04  0.12699999809E+01 0. -1.
       -4    1    3    3    0  502 -0.11550770214E+04 -0.54777710972E+03  0.16833693100E+04  0.21137635946E+04  0.12699999809E+01 0.  1.
</event>
<event>
 5   0  0.1348388E-06  0.3444829E+04  0.7818609E-02  0.8126991E-01
        2   -1    0    0  501    0  0.00000000000E+00  0.00000000000E+00  0.14259220688E+04  0.14259220688E+04  0.25500000920E-02 0. -1.
       -2   -1    0    0    0  501  0.00000000000E+00  0.00000000000E+00 -0.20805562182E+04  0.20805562182E+04  0.25500000920E-02 0.  1.
    10030    2    1    2    0    0  0.00000000000E+00  0.00000000000E+00 -0.65463414935E+03  0.35064782870E+04  0.34448286036E+04 0.  0.
        5    1    3    3  502    0  0.17888049163E+03 -0.17126154805E+04 -0.28610895758E+03  0.17455458859E+04  0.46999998093E+01 0.  1.
       -5    1    3    3    0  502 -0.17888049163E+03  0.17126154805E+04 -0.36852519177E+03  0.17609324011E+04  0.46999998093E+01 0. -1.
</event>
<event>
 5   0  0.4409125E-07  0.3506912E+04  0.7818609E-02  0.8112154E-01
       -1   -1    0    0    0  501  0.00000000000E+00  0.00000000000E+00  0.18050465402E+04  0.18050465402E+04  0.50400001928E-02 0.  1.
        1   -1    0    0  501    0  0.00000000000E+00  0.00000000000E+00 -0.17033398332E+04  0.17033398332E+04  0.50400001928E-02 0. -1.
    10030    2    1    2    0    0  0.00000000000E+00  0.00000000000E+00  0.10170670692E+03  0.35083863734E+04  0.35069118453E+04 0.  0.
        5    1    3    3  502    0  0.85110230127E+03 -0.10693520635E+04 -0.10481059618E+04  0.17223347991E+04  0.46999998093E+01 0. -1.
       -5    1    3    3    0  502 -0.85110230127E+03  0.10693520635E+04  0.11498126687E+04  0.17860515743E+04  0.46999998093E+01 0.  1.
</event>
<event>
 5   0  0.4409125E-07  0.3490481E+04  0.7818609E-02  0.8116050E-01
        3   -1    0    0  501    0  0.00000000000E+00  0.00000000000E+00  0.17405522019E+04  0.17405522048E+04  0.10100000352E+00 0.  1.
       -3   -1    0    0    0  501  0.00000000000E+00  0.00000000000E+00 -0.17499410473E+04  0.17499410503E+04  0.10100000352E+00 0. -1.
    10030    2    1    2    0    0  0.00000000000E+00  0.00000000000E+00 -0.93888454300E+01  0.34904932551E+04  0.34904806279E+04 0.  0.
        1    1    3    3  502    0 -0.10054923074E+04 -0.46556422224E+03  0.13436794433E+04  0.17416197265E+04  0.50400001928E-02 0.  1.
       -1    1    3    3    0  502  0.10054923074E+04  0.46556422224E+03 -0.13530682887E+04  0.17488735286E+04  0.50400001928E-02 0. -1.
</event>
<event>
 5   0  0.1378620E-06  0.3434162E+04  0.7818609E-02  0.8129572E-01
        2   -1    0    0  501    0  0.00000000000E+00  0.00000000000E+00  0.12602587635E+04  0.12602587635E+04  0.25500000920E-02 0. -1.
       -2   -1    0    0    0  501  0.00000000000E+00  0.00000000000E+00 -0.23394932258E+04  0.23394932258E+04  0.25500000920E-02 0.  1.
    10030    2    1    2    0    0  0.00000000000E+00  0.00000000000E+00 -0.10792344623E+04  0.35997519892E+04  0.34341618132E+04 0.  0.
        2    1    3    3  502    0 -0.13476506461E+04 -0.20803186957E+03  0.55421639983E+03  0.14719359159E+04  0.25500000920E-02 0. -1.
       -2    1    3    3    0  502  0.13476506461E+04  0.20803186957E+03 -0.16334508621E+04  0.21278160733E+04  0.25500000920E-02 0.  1.
</event>
<event>
 5   0  0.4700769E-07  0.3647037E+04  0.7818609E-02  0.8079801E-01
       -1   -1    0    0    0  501  0.00000000000E+00  0.00000000000E+00  0.15337179209E+04  0.15337179209E+04  0.50400001928E-02 0.  1.
        1   -1    0    0  501    0  0.00000000000E+00  0.00000000000E+00 -0.21680778529E+04  0.21680778529E+04  0.50400001928E-02 0. -1.
    10030    2    1    2    0    0  0.00000000000E+00  0.00000000000E+00 -0.63435993199E+03  0.37017957738E+04  0.36470370752E+04 0.  0.
        3    1    3    3  502    0 -0.20645828117E+03 -0.39095906584E+03 -0.21128511441E+04  0.21586139026E+04  0.10100000352E+00 0. -1.
       -3    1    3    3    0  502  0.20645828117E+03  0.39095906584E+03  0.14784912121E+04  0.15431818712E+04  0.10100000352E+00 0.  1.
</event>
<event>
 5   0  0.1361560E-06  0.3560861E+04  0.7818609E-02  0.8099516E-01
        2   -1    0    0  501    0  0.00000000000E+00  0.00000000000E+00  0.25899119449E+04  0.25899119449E+04  0.25500000920E-02 0.  1.
       -2   -1    0    0    0  501  0.00000000000E+00  0.00000000000E+00 -0.12239535543E+04  0.12239535543E+04  0.25500000920E-02 0. -1.
    10030    2    1    2    0    0  0.00000000000E+00  0.00000000000E+00  0.13659583906E+04  0.38138654993E+04  0.35608605310E+04 0.  0.
        3    1    3    3  502    0 -0.40093675121E+03  0.13222749765E+04 -0.51964083569E+03  0.14762073026E+04  0.10100000352E+00 0. -1.
       -3    1    3    3    0  502  0.40093675121E+03 -0.13222749765E+04  0.18855992263E+04  0.23376581967E+04  0.10100000352E+00 0.  1.
</event>
<event>
 5   0  0.1387133E-06  0.3442242E+04  0.7818609E-02  0.8127616E-01
        2   -1    0    0  501    0  0.00000000000E+00  0.00000000000E+00  0.24559648454E+04  0.24559648454E+04  0.25500000920E-02 0.  1.
       -2   -1    0    0    0  501  0.00000000000E+00  0.00000000000E+00 -0.12061480665E+04  0.12061480665E+04  0.25500000920E-02 0. -1.
    10030    2    1    2    0    0  0.00000000000E+00  0.00000000000E+00  0.12498167788E+04  0.36621129119E+04  0.34422418565E+04 0.  0.
        4    1    3    3  502    0  0.11232481543E+04 -0.30031365191E+03  0.19749733290E+04  0.22918106311E+04  0.12699999809E+01 0.  1.
       -4    1    3    3    0  502 -0.11232481543E+04  0.30031365191E+03 -0.72515655013E+03  0.13703022808E+04  0.12699999809E+01 0. -1.
</event>
<event>
 5   0  0.1387133E-06  0.3412552E+04  0.7818609E-02  0.8134833E-01
       -2   -1    0    0    0  501  0.00000000000E+00  0.00000000000E+00  0.12184268502E+04  0.12184268502E+04  0.25500000920E-02 0.  1.
        2   -1    0    0  501    0  0.00000000000E+00  0.00000000000E+00 -0.23894559589E+04  0.23894559589E+04  0.25500000920E-02 0. -1.
    10030    2    1    2    0    0  0.00000000000E+00  0.00000000000E+00 -0.11710291086E+04  0.36078828091E+04  0.34125517126E+04 0.  0.
        4    1    3    3  502    0  0.16789187457E+04  0.30304955520E+03 -0.61482310814E+03  0.18134542328E+04  0.12699999809E+01 0.  1.
       -4    1    3    3    0  502 -0.16789187457E+04 -0.30304955520E+03 -0.55620600049E+03  0.17944285763E+04  0.12699999809E+01 0. -1.
</event>
<event>
 5   0  0.4557237E-07  0.3473177E+04  0.7818609E-02  0.8120176E-01
        1   -1    0    0  501    0  0.00000000000E+00  0.00000000000E+00  0.18644615248E+04  0.18644615248E+04  0.50400001928E-02 0. -1.
       -1   -1    0    0    0  501  0.00000000000E+00  0.00000000000E+00 -0.16174855789E+04  0.16174855789E+04  0.50400001928E-02 0.  1.
    10030    2    1    2    0    0  0.00000000000E+00  0.00000000000E+00  0.24697594590E+03  0.34819471037E+04  0.34731770060E+04 0.  0.
        2    1    3    3  502    0  0.10633079344E+04  0.19085775530E+03 -0.12396104084E+04  0.16442884208E+04  0.25500000920E-02 0.  1.
       -2    1    3    3    0  502 -0.10633079344E+04 -0.19085775530E+03  0.14865863543E+04  0.18376586829E+04  0.25500000920E-02 0. -1.
</event>
<event>
 5   0  0.1442864E-06  0.3481869E+04  0.7818609E-02  0.8118100E-01
       -2   -1    0    0    0  501  0.00000000000E+00  0.00000000000E+00  0.25720760062E+04  0.25720760062E+04  0.25500000920E-02 0.  1.
        2   -1    0    0  501    0  0.00000000000E+00  0.00000000000E+00 -0.11783682219E+04  0.11783682219E+04  0.25500000920E-02 0. -1.
    10030    2    1    2    0    0  0.00000000000E+00  0.00000000000E+00  0.13937077843E+04  0.37504442281E+04  0.34818688258E+04 0.  0.
        1    1    3    3  502    0  0.10221060938E+04 -0.33952990528E+03  0.21701574968E+04  0.24227185112E+04  0.50400001928E-02 0.  1.
       -1    1    3    3    0  502 -0.10221060938E+04  0.33952990528E+03 -0.77644971242E+03  0.13277257170E+04  0.50400001928E-02 0. -1.
</event>
<event>
 5   0  0.4693374E-07  0.3500150E+04  0.7818609E-02  0.8113754E-01
       -1   -1    0    0    0  501  0.00000000000E+00  0.00000000000E+00  0.17557346891E+04  0.17557346891E+04  0.50400001928E-02 0.  1.
        1   -1    0    0  501    0  0.00000000000E+00  0.00000000000E+00 -0.17444339810E+04  0.17444339811E+04  0.50400001928E-02 0. -1.
    10030    2    1    2    0    0  0.00000000000E+00  0.00000000000E+00  0.11300708074E+02  0.35001686702E+04  0.35001504273E+04 0.  0.
        1    1    3    3  502    0  0.42657384819E+03 -0.11624139501E+04 -0.12311227693E+04  0.17460912669E+04  0.50400001928E-02 0. -1.
       -1    1    3    3    0  502 -0.42657384819E+03  0.11624139501E+04  0.12424234774E+04  0.17540774032E+04  0.50400001928E-02 0.  1.
</event>
<event>
 5   0  0.4409125E-07  0.2551825E+04  0.7818609E-02  0.8384752E-01
       -1   -1    0    0    0  501  0.00000000000E+00  0.00000000000E+00  0.79009638524E+03  0.79009638525E+03  0.50400001928E-02 0. -1.
        1   -1    0    0  501    0  0.00000000000E+00  0.00000000000E+00 -0.20604481511E+04  0.20604481511E+04  0.50400001928E-02 0.  1.
    10030    2    1    2    0    0  0.00000000000E+00  0.00000000000E+00 -0.12703517658E+04  0.28505445363E+04  0.25518249440E+04 0.  0.
        5    1    3    3  502    0  0.12406528147E+04 -0.73656413538E+02 -0.31279994268E+03  0.12816046848E+04  0.46999998093E+01 0. -1.
       -5    1    3    3    0  502 -0.12406528147E+04  0.73656413538E+02 -0.95755182313E+03  0.15689398516E+04  0.46999998093E+01 0.  1.
</event>
<event>
 5   0  0.1442864E-06  0.3498757E+04  0.7818609E-02  0.8114085E-01
        2   -1    0    0  501    0  0.00000000000E+00  0.00000000000E+00  0.20007613906E+04  0.20007613907E+04  0.25500000920E-02 0. -1.
       -2   -1    0    0    0  501  0.00000000000E+00  0.00000000000E+00 -0.15295801137E+04  0.15295801137E+04  0.25500000920E-02 0.  1.
    10030    2    1    2    0    0  0.00000000000E+00  0.00000000000E+00  0.47118127698E+03  0.35303415043E+04  0.34987568280E+04 0.  0.
        1    1    3    3  502    0  0.17002353539E+04 -0.10672930382E+03 -0.16565914238E+03  0.17116174673E+04  0.50400001928E-02 0.  1.
       -1    1    3    3    0  502 -0.17002353539E+04  0.10672930382E+03  0.63684041936E+03  0.18187240370E+04  0.50400001928E-02 0. -1.
</event>
<event>
 5   0  0.4409125E-07  0.3382090E+04  0.7818609E-02  0.8142316E-01
        1   -1    0    0  501    0  0.00000000000E+00  0.00000000000E+00  0.17224945739E+04  0.17224945739E+04  0.50400001928E-02 0.  1.
       -1   -1    0    0    0  501  0.00000000000E+00  0.00000000000E+00 -0.16601691585E+04  0.16601691585E+04  0.50400001928E-02 0. -1.
    10030    2    1    2    0    0  0.00000000000E+00  0.00000000000E+00  0.62325415335E+02  0.33826637324E+04  0.33820895123E+04 0.  0.
        5    1    3    3  502    0  0.75483869454E+03  0.32180485055E+03 -0.14476925609E+04  0.16640840296E+04  0.46999998093E+01 0. -1.
       -5    1    3    3    0  502 -0.75483869454E+03 -0.32180485055E+03  0.15100179762E+04  0.17185797029E+04  0.46999998093E+01 0.  1.
</event>
<event>
 5   0  0.4409125E-07  0.3491737E+04  0.7818609E-02  0.8115751E-01
        1   -1    0    0  501    0  0.00000000000E+00  0.00000000000E+00  0.11775199229E+04  0.11775199230E+04  0.50400001928E-02 0. -1.
       -1   -1    0    0    0  501  0.00000000000E+00  0.00000000000E+00 -0.25885391463E+04  0.25885391464E+04  0.50400001928E-02 0.  1.
    10030    2    1    2    0    0  0.00000000000E+00  0.00000000000E+00 -0.14110192234E+04  0.37660590693E+04  0.34917367691E+04 0.  0.
        5    1    3    3  502    0  0.68076101968E+03 -0.42739079554E+03  0.96606718896E+03  0.12567443501E+04  0.46999998093E+01 0. -1.
       -5    1    3    3    0  502 -0.68076101968E+03  0.42739079554E+03 -0.23770864124E+04  0.25093147192E+04  0.46999998093E+01 0.  1.
</event>
<event>
 5   0  0.4591195E-07  0.2791256E+04  0.7818609E-02  0.8305988E-01
       -1   -1    0    0    0  501  0.00000000000E+00  0.00000000000E+00  0.14026070950E+04  0.14026070950E+04  0.50400001928E-02 0. -1.
        1   -1    0    0  501    0  0.00000000000E+00  0.00000000000E+00 -0.13886835597E+04  0.13886835597E+04  0.50400001928E-02 0.  1.
    10030    2    1    2    0    0  0.00000000000E+00  0.00000000000E+00  0.13923535267E+02  0.27912906547E+04  0.27912559278E+04 0.  0.
        4    1    3    3  502    0 -0.13812866376E+04  0.48533047313E+02 -0.18660605235E+03  0.13946797710E+04  0.12699999809E+01 0. -1.
       -4    1    3    3    0  502  0.13812866376E+04 -0.48533047313E+02  0.20052958762E+03  0.13966108837E+04  0.12699999809E+01 0.  1.
</event>
<event>
 5   0  0.1348388E-06  0.3490429E+04  0.7818609E-02  0.8116062E-01
        2   -1    0    0  501    0  0.00000000000E+00  0.00000000000E+00  0.17661457588E+04  0.17661457588E+04  0.25500000920E-02 0. -1.
       -2   -1    0    0    0  501  0.00000000000E+00  0.00000000000E+00 -0.17245308230E+04  0.17245308230E+04  0.25500000920E-02 0.  1.
    10030    2    1    2    0    0  0.00000000000E+00  0.00000000000E+00  0.41614935825E+02  0.34906765818E+04  0.34904285118E+04 0.  0.
        5    1    3    3  502    0 -0.39564698104E+03 -0.11235233054E+04  0.12964017685E+04  0.17605455935E+04  0.46999998093E+01 0. -1.
       -5    1    3    3    0  502  0.39564698104E+03  0.11235233054E+04 -0.12547868327E+04  0.17301309883E+04  0.46999998093E+01 0.  1.
</event>
<event>
 5   0  0.1442864E-06  0.3577505E+04  0.7818609E-02  0.8095664E-01
        2   -1    0    0  501    0  0.00000000000E+00  0.00000000000E+00  0.17312236855E+04  0.17312236855E+04  0.25500000920E-02 0.  1.
       -2   -1    0    0    0  501  0.00000000000E+00  0.00000000000E+00 -0.18481927949E+04  0.18481927949E+04  0.25500000920E-02 0. -1.
    10030    2    1    2    0    0  0.00000000000E+00  0.00000000000E+00 -0.11696910934E+03  0.35794164804E+04  0.35775047963E+04 0.  0.
        1    1    3    3  502    0  0.78232627439E+03  0.11473684584E+04  0.10695691814E+04  0.17528454047E+04  0.50400001928E-02 0.  1.
       -1    1    3    3    0  502 -0.78232627439E+03 -0.11473684584E+04 -0.11865382908E+04  0.18265710757E+04  0.50400001928E-02 0. -1.
</event>
<event>
 5   0  0.4557237E-07  0.3505690E+04  0.7818609E-02  0.8112443E-01
       -1   -1    0    0    0  501  0.00000000000E+00  0.00000000000E+00  0.16434761541E+04  0.16434761541E+04  0.50400001928E-02 0. -1.
        1   -1    0    0  501    0  0.00000000000E+00  0.00000000000E+00 -0.18694918581E+04  0.18694918581E+04  0.50400001928E-02 0.  1.
    10030    2    1    2    0    0  0.00000000000E+00  0.00000000000E+00 -0.22601570397E+03  0.35129680123E+04  0.35056898261E+04 0.  0.
        2    1    3    3  502    0 -0.72960017347E+03  0.23853285402E+02  0.14839065855E+04  0.16537424669E+04  0.25500000920E-02 0. -1.
       -2    1    3    3    0  502  0.72960017347E+03 -0.23853285402E+02 -0.17099222895E+04  0.18592255453E+04  0.25500000920E-02 0.  1.
</event>
<event>
 5   0  0.4409125E-07  0.3482881E+04  0.7818609E-02  0.8117859E-01
        1   -1    0    0  501    0  0.00000000000E+00  0.00000000000E+00  0.15513251502E+04  0.15513251502E+04  0.50400001928E-02 0.  1.
       -1   -1    0    0    0  501  0.00000000000E+00  0.00000000000E+00 -0.19548544915E+04  0.19548544915E+04  0.50400001928E-02 0. -1.
    10030    2    1    2    0    0  0.00000000000E+00  0.00000000000E+00 -0.40352934129E+03  0.35061796418E+04  0.34828809556E+04 0.  0.
        5    1    3    3  502    0 -0.15708202483E+04  0.21223493167E+03 -0.92774968694E+03  0.18366440837E+04  0.46999998093E+01 0. -1.
       -5    1    3    3    0  502  0.15708202483E+04 -0.21223493167E+03  0.52422034565E+03  0.16695355580E+04  0.46999998093E+01 0.  1.
</event>
<event>
 5   0  0.1361560E-06  0.3424339E+04  0.7818609E-02  0.8131958E-01
        2   -1    0    0  501    0  0.00000000000E+00  0.00000000000E+00  0.25767181048E+04  0.25767181048E+04  0.25500000920E-02 0. -1.
       -2   -1    0    0    0  501  0.00000000000E+00  0.00000000000E+00 -0.11376970256E+04  0.11376970256E+04  0.25500000920E-02 0.  1.
    10030    2    1    2    0    0  0.00000000000E+00  0.00000000000E+00  0.14390210792E+04  0.37144151304E+04  0.34243390741E+04 0.  0.
        3    1    3    3  502    0  0.10283248573E+04  0.17224173399E+03 -0.75362211793E+03  0.12864935033E+04  0.10100000352E+00 0.  1.
       -3    1    3    3    0  502 -0.10283248573E+04 -0.17224173399E+03  0.21926431972E+04  0.24279216271E+04  0.10100000352E+00 0. -1.
</event>
<event>
 5   0  0.1442864E-06  0.3503577E+04  0.7818609E-02  0.8112943E-01
        2   -1    0    0  501    0  0.00000000000E+00  0.00000000000E+00  0.15080232061E+04  0.15080232061E+04  0.25500000920E-02 0. -1.
       -2   -1    0    0    0  501  0.00000000000E+00  0.00000000000E+00 -0.20349569759E+04  0.20349569759E+04  0.25500000920E-02 0.  1.
    10030    2    1    2    0    0  0.00000000000E+00  0.00000000000E+00 -0.52693376982E+03  0.35429801820E+04  0.35035766543E+04 0.  0.
        1    1    3    3  502    0  0.10356158907E+04 -0.26015953925E+03 -0.16678183946E+04  0.19803538715E+04  0.50400001928E-02 0.  1.
       -1    1    3    3    0  502 -0.10356158907E+04  0.26015953925E+03  0.11408846248E+04  0.15626263105E+04  0.50400001928E-02 0. -1.
</event>
<event>
 5   0  0.4409125E-07  0.3526406E+04  0.7818609E-02  0.8107560E-01
       -3   -1    0    0    0  501  0.00000000000E+00  0.00000000000E+00  0.20026764973E+04  0.20026764999E+04  0.10100000352E+00 0. -1.
        3   -1    0    0  501    0  0.00000000000E+00  0.00000000000E+00 -0.15523649917E+04  0.15523649950E+04  0.10100000352E+00 0.  1.
    10030    2    1    2    0    0  0.00000000000E+00  0.00000000000E+00  0.45031150558E+03  0.35550414949E+04  0.35264060428E+04 0.  0.
        5    1    3    3  502    0  0.10674598780E+04  0.90661892640E+03 -0.85472618700E+03  0.16407338034E+04  0.46999998093E+01 0.  1.
       -5    1    3    3    0  502 -0.10674598780E+04 -0.90661892640E+03  0.13050376926E+04  0.19143076915E+04  0.46999998093E+01 0. -1.
</event>
<event>
 5   0  0.4557237E-07  0.3496161E+04  0.7818609E-02  0.8114700E-01
        1   -1    0    0  501    0  0.00000000000E+00  0.00000000000E+00  0.24578678239E+04  0.24578678239E+04  0.50400001928E-02 0.  1.
       -1   -1    0    0    0  501  0.00000000000E+00  0.00000000000E+00 -0.12432668753E+04  0.12432668753E+04  0.50400001928E-02 0. -1.
    10030    2    1    2    0    0  0.00000000000E+00  0.00000000000E+00  0.12146009487E+04  0.37011346992E+04  0.34961611229E+04 0.  0.
        2    1    3    3  502    0  0.12062980027E+04  0.43009351168E+03  0.18668679915E+04  0.22639194769E+04  0.25500000920E-02 0.  1.
       -2    1    3    3    0  502 -0.12062980027E+04 -0.43009351168E+03 -0.65226704287E+03  0.14372152223E+04  0.25500000920E-02 0. -1.
</event>
<event>
 5   0  0.4409125E-07  0.3533812E+04  0.7818609E-02  0.8105823E-01
        1   -1    0    0  501    0  0.00000000000E+00  0.00000000000E+00  0.16848239054E+04  0.16848239054E+04  0.50400001928E-02 0. -1.
       -1   -1    0    0    0  501  0.00000000000E+00  0.00000000000E+00 -0.18529867330E+04  0.18529867330E+04  0.50400001928E-02 0.  1.
    10030    2    1    2    0    0  0.00000000000E+00  0.00000000000E+00 -0.16816282756E+03  0.35378106384E+04  0.35338117347E+04 0.  0.
        5    1    3    3  502    0 -0.43020228850E+03  0.16461246310E+04 -0.56120643938E+03  0.17915845131E+04  0.46999998093E+01 0.  1.
       -5    1    3    3    0  502  0.43020228850E+03 -0.16461246310E+04  0.39304361182E+03  0.17462261253E+04  0.46999998093E+01 0. -1.
</event>
<event>
 5   0  0.4557237E-07  0.3550534E+04  0.7818609E-02  0.8101917E-01
        1   -1    0    0  501    0  0.00000000000E+00  0.00000000000E+00  0.17901683782E+04  0.17901683782E+04  0.50400001928E-02 0.  1.
       -1   -1    0    0    0  501  0.00000000000E+00  0.00000000000E+00 -0.17604893774E+04  0.17604893775E+04  0.50400001928E-02 0. -1.
    10030    2    1    2    0    0  0.00000000000E+00  0.00000000000E+00  0.29679000775E+02  0.35506577557E+04  0.35505337141E+04 0.  0.
        2    1    3    3  502    0  0.74613006178E+03  0.10700436332E+04 -0.11893076147E+04  0.17652637334E+04  0.25500000920E-02 0. -1.
       -2    1    3    3    0  502 -0.74613006178E+03 -0.10700436332E+04  0.12189866155E+04  0.17853940223E+04  0.25500000920E-02 0.  1.
</event>
<event>
 5   0  0.4409125E-07  0.2672508E+04  0.7818609E-02  0.8343981E-01
       -1   -1    0    0    0  501  0.00000000000E+00  0.00000000000E+00  0.79672042283E+03  0.79672042284E+03  0.50400001928E-02 0. -1.
        1   -1    0    0  501    0  0.00000000000E+00  0.00000000000E+00 -0.22411557425E+04  0.22411557426E+04  0.50400001928E-02 0.  1.
    10030    2    1    2    0    0  0.00000000000E+00  0.00000000000E+00 -0.14444353197E+04  0.30378761654E+04  0.26725078491E+04 0.  0.
        5    1    3    3  502    0 -0.23803105754E+03 -0.13148368158E+04 -0.73346045642E+03  0.15242837556E+04  0.46999998093E+01 0.  1.
       -5    1    3    3    0  502  0.23803105754E+03  0.13148368158E+04 -0.71097486330E+03  0.15135924097E+04  0.46999998093E+01 0. -1.
</event>
<event>
 5   0  0.4557237E-07  0.3527130E+04  0.7818609E-02  0.8107390E-01
       -1   -1    0    0    0  501  0.00000000000E+00  0.00000000000E+00  0.21026172655E+04  0.21026172655E+04  0.50400001928E-02 0.  1.
        1   -1    0    0  501    0  0.00000000000E+00  0.00000000000E+00 -0.14791860540E+04  0.14791860540E+04  0.50400001928E-02 0. -1.
    10030    2    1    2    0    0  0.00000000000E+00  0.00000000000E+00  0.62343121146E+03  0.35818033195E+04  0.35271303554E+04 0.  0.
        2    1    3    3  502    0 -0.99919393847E+03 -0.12508893551E+04 -0.43937703929E+03  0.16601701383E+04  0.25500000920E-02 0. -1.
       -2    1    3    3    0  502  0.99919393847E+03  0.12508893551E+04  0.10628082508E+04  0.19216331812E+04  0.25500000920E-02 0.  1.
</event>
<event>
 5   0  0.1361560E-06  0.3523734E+04  0.7818609E-02  0.8108188E-01
       -2   -1    0    0    0  501  0.00000000000E+00  0.00000000000E+00  0.20562518154E+04  0.20562518154E+04  0.25500000920E-02 0. -1.
        2   -1    0    0  501    0  0.00000000000E+00  0.00000000000E+00 -0.15096280463E+04  0.15096280463E+04  0.25500000920E-02 0.  1.
    10030    2    1    2    0    0  0.00000000000E+00  0.00000000000E+00  0.54662376909E+03  0.35658798616E+04  0.35237340482E+04 0.  0.
        3    1    3    3  502    0  0.36910488787E+03  0.12660147994E+04 -0.90905630994E+03  0.16016913795E+04  0.10100000352E+00 0.  1.
       -3    1    3    3    0  502 -0.36910488787E+03 -0.12660147994E+04  0.14556800790E+04  0.19641884821E+04  0.10100000352E+00 0. -1.
</event>
<event>
 5   0  0.1378620E-06  0.3522034E+04  0.7818609E-02  0.8108588E-01
       -2   -1    0    0    0  501  0.00000000000E+00  0.00000000000E+00  0.13785880411E+04  0.13785880411E+04  0.25500000920E-02 0.  1.
        2   -1    0    0  501    0  0.00000000000E+00  0.00000000000E+00 -0.22495335852E+04  0.22495335852E+04  0.25500000920E-02 0. -1.
    10030    2    1    2    0    0  0.00000000000E+00  0.00000000000E+00 -0.87094554411E+03  0.36281216264E+04  0.35220335596E+04 0.  0.
        2    1    3    3  502    0  0.14138235745E+04  0.11513537301E+03 -0.15104707329E+04  0.20721185026E+04  0.25500000920E-02 0. -1.
       -2    1    3    3    0  502 -0.14138235745E+04 -0.11513537301E+03  0.63952518880E+03  0.15560031237E+04  0.25500000920E-02 0.  1.
</event>
<event>
 5   0  0.1442864E-06  0.3514764E+04  0.7818609E-02  0.8110300E-01
        2   -1    0    0  501    0  0.00000000000E+00  0.00000000000E+00  0.13229051423E+04  0.13229051423E+04  0.25500000920E-02 0. -1.
       -2   -1    0    0    0  501  0.00000000000E+00  0.00000000000E+00 -0.23345529592E+04  0.23345529592E+04  0.25500000920E-02 0.  1.
    10030    2    1    2    0    0  0.00000000000E+00  0.00000000000E+00 -0.10116478168E+04  0.36574581015E+04  0.35147643532E+04 0.  0.
        1    1    3    3  502    0  0.74703687528E+03  0.13504456524E+04  0.36891312010E+03  0.15867780070E+04  0.50400001928E-02 0. -1.
       -1    1    3    3    0  502 -0.74703687528E+03 -0.13504456524E+04 -0.13805609370E+04  0.20706800945E+04  0.50400001928E-02 0.  1.
</event>
<event>
 5   0  0.4557237E-07  0.3482260E+04  0.7818609E-02  0.8118007E-01
       -1   -1    0    0    0  501  0.00000000000E+00  0.00000000000E+00  0.11254830360E+04  0.11254830361E+04  0.50400001928E-02 0. -1.
        1   -1    0    0  501    0  0.00000000000E+00  0.00000000000E+00 -0.26935399668E+04  0.26935399668E+04  0.50400001928E-02 0.  1.
    10030    2    1    2    0    0  0.00000000000E+00  0.00000000000E+00 -0.15680569307E+04  0.38190230028E+04  0.34822599211E+04 0.  0.
        2    1    3    3  502    0 -0.55126790187E+03  0.12324409259E+04 -0.19897725233E+04  0.24045793042E+04  0.25500000920E-02 0.  1.
       -2    1    3    3    0  502  0.55126790187E+03 -0.12324409259E+04  0.42171559263E+03  0.14144436986E+04  0.25500000920E-02 0. -1.
</event>
<event>
 5   0  0.1387133E-06  0.3351906E+04  0.7818609E-02  0.8149812E-01
       -2   -1    0    0    0  501  0.00000000000E+00  0.00000000000E+00  0.18678841553E+04  0.18678841553E+04  0.25500000920E-02 0.  1.
        2   -1    0    0  501    0  0.00000000000E+00  0.00000000000E+00 -0.15037436849E+04  0.15037436849E+04  0.25500000920E-02 0. -1.
    10030    2    1    2    0    0  0.00000000000E+00  0.00000000000E+00  0.36414047038E+03  0.33716278402E+04  0.33519063249E+04 0.  0.
        4    1    3    3  502    0 -0.51786680572E+03  0.10338404859E+04 -0.10382475095E+04  0.15540179158E+04  0.12699999809E+01 0. -1.
       -4    1    3    3    0  502  0.51786680572E+03 -0.10338404859E+04  0.14023879799E+04  0.18176099245E+04  0.12699999809E+01 0.  1.
</event>
<event>
 5   0  0.4693374E-07  0.3477464E+04  0.7818609E-02  0.8119152E-01
        1   -1    0    0  501    0  0.00000000000E+00  0.00000000000E+00  0.12859469488E+04  0.12859469488E+04  0.50400001928E-02 0.  1.
       -1   -1    0    0    0  501  0.00000000000E+00  0.00000000000E+00 -0.23509434247E+04  0.23509434247E+04  0.50400001928E-02 0. -1.
    10030    2    1    2    0    0  0.00000000000E+00  0.00000000000E+00 -0.10649964759E+04  0.36368903734E+04  0.34774637446E+04 0.  0.
        1    1    3    3  502    0  0.49614811035E+03  0.14831479103E+04 -0.13271330195E+04  0.20511393719E+04  0.50400001928E-02 0. -1.
       -1    1    3    3    0  502 -0.49614811035E+03 -0.14831479103E+04  0.26213654364E+03  0.15857510015E+04  0.50400001928E-02 0.  1.
</event>
<event>
 5   0  0.4591195E-07  0.3032555E+04  0.7818609E-02  0.8234495E-01
        1   -1    0    0  501    0  0.00000000000E+00  0.00000000000E+00  0.18009814017E+04  0.18009814017E+04  0.50400001928E-02 0. -1.
       -1   -1    0    0    0  501  0.00000000000E+00  0.00000000000E+00 -0.12765801688E+04  0.12765801688E+04  0.50400001928E-02 0.  1.
    10030    2    1    2    0    0  0.00000000000E+00  0.00000000000E+00  0.52440123292E+03  0.30775615704E+04  0.30325547920E+04 0.  0.
        4    1    3    3  502    0 -0.21383059544E+03  0.13797097055E+04  0.86239415804E+03  0.16410507889E+04  0.12699999809E+01 0. -1.
       -4    1    3    3    0  502  0.21383059544E+03 -0.13797097055E+04 -0.33799292512E+03  0.14365107815E+04  0.12699999809E+01 0.  1.
</event>
<event>
 5   0  0.1361560E-06  0.3456733E+04  0.7818609E-02  0.8124121E-01
       -2   -1    0    0    0  501  0.00000000000E+00  0.00000000000E+00  0.97434091640E+03  0.97434091640E+03  0.25500000920E-02 0. -1.
        2   -1    0    0  501    0  0.00000000000E+00  0.00000000000E+00 -0.30659201833E+04  0.30659201833E+04  0.25500000920E-02 0.  1.
    10030    2    1    2    0    0  0.00000000000E+00  0.00000000000E+00 -0.20915792669E+04  0.40402610997E+04  0.34567334181E+04 0.  0.
        3    1    3    3  502    0  0.10083776873E+04 -0.87088367421E+03 -0.23325350226E+04  0.26862582855E+04  0.10100000352E+00 0.  1.
       -3    1    3    3    0  502 -0.10083776873E+04  0.87088367421E+03  0.24095575578E+03  0.13540028142E+04  0.10100000352E+00 0. -1.
</event>
<event>
 5   0  0.4409125E-07  0.2977603E+04  0.7818609E-02  0.8250156E-01
        1   -1    0    0  501    0  0.00000000000E+00  0.00000000000E+00  0.16088143995E+04  0.16088143995E+04  0.50400001928E-02 0.  1.
       -1   -1    0    0    0  501  0.00000000000E+00  0.00000000000E+00 -0.13777408680E+04  0.13777408680E+04  0.50400001928E-02 0. -1.
    10030    2    1    2    0    0  0.00000000000E+00  0.00000000000E+00  0.23107353142E+03  0.29865552675E+04  0.29776026244E+04 0.  0.
        5    1    3    3  502    0  0.42426091245E+03 -0.53160493159E+02 -0.13148238461E+04  0.13826088370E+04  0.46999998093E+01 0. -1.
       -5    1    3    3    0  502 -0.42426091245E+03  0.53160493159E+02  0.15458973776E+04  0.16039464305E+04  0.46999998093E+01 0.  1.
</event>
<event>
 5   0  0.1361560E-06  0.3519167E+04  0.7818609E-02  0.8109263E-01
       -2   -1    0    0    0  501  0.00000000000E+00  0.00000000000E+00  0.14597472834E+04  0.14597472834E+04  0.25500000920E-02 0.  1.
        2   -1    0    0  501    0  0.00000000000E+00  0.00000000000E+00 -0.21210064516E+04  0.21210064516E+04  0.25500000920E-02 0. -1.
    10030    2    1    2    0    0  0.00000000000E+00  0.00000000000E+00 -0.66125916819E+03  0.35807537349E+04  0.35191666091E+04 0.  0.
        3    1    3    3  502    0  0.14605172604E+04 -0.97669362098E+03 -0.23360730650E+03  0.17724597262E+04  0.10100000352E+00 0.  1.
       -3    1    3    3    0  502 -0.14605172604E+04  0.97669362098E+03 -0.42765186169E+03  0.18082940087E+04  0.10100000352E+00 0. -1.
</event>
<event>
 5   0  0.4591195E-07  0.3468043E+04  0.7818609E-02  0.8121405E-01
       -1   -1    0    0    0  501  0.00000000000E+00  0.00000000000E+00  0.14099832051E+04  0.14099832051E+04  0.50400001928E-02 0. -1.
        1   -1    0    0  501    0  0.00000000000E+00  0.00000000000E+00 -0.21325289665E+04  0.21325289665E+04  0.50400001928E-02 0.  1.
    10030    2    1    2    0    0  0.00000000000E+00  0.00000000000E+00 -0.72254576144E+03  0.35425121716E+04  0.34680426913E+04 0.  0.
        4    1    3    3  502    0  0.13539015040E+04  0.70026615897E+03  0.48316255396E+03  0.15990214640E+04  0.12699999809E+01 0. -1.
       -4    1    3    3    0  502 -0.13539015040E+04 -0.70026615897E+03 -0.12057083154E+04  0.19434907076E+04  0.12699999809E+01 0.  1.
</event>
<event>
 5   0  0.4409125E-07  0.3536739E+04  0.7818609E-02  0.8105138E-01
       -1   -1    0    0    0  501  0.00000000000E+00  0.00000000000E+00  0.23599693890E+04  0.23599693890E+04  0.50400001928E-02 0. -1.
        1   -1    0    0  501    0  0.00000000000E+00  0.00000000000E+00 -0.13250724122E+04  0.13250724122E+04  0.50400001928E-02 0.  1.
    10030    2    1    2    0    0  0.00000000000E+00  0.00000000000E+00  0.10348969768E+04  0.36850418012E+04  0.35367387979E+04 0.  0.
        5    1    3    3  502    0 -0.80540426795E+03  0.13081106999E+04  0.14301231126E+04  0.20988339251E+04  0.46999998093E+01 0. -1.
       -5    1    3    3    0  502  0.80540426795E+03 -0.13081106999E+04 -0.39522613577E+03  0.15862078762E+04  0.46999998093E+01 0.  1.
</event>
<event>
 5   0  0.1348388E-06  0.3501293E+04  0.7818609E-02  0.8113483E-01
       -2   -1    0    0    0  501  0.00000000000E+00  0.00000000000E+00  0.31895434213E+04  0.31895434213E+04  0.25500000920E-02 0.  1.
        2   -1    0    0  501    0  0.00000000000E+00  0.00000000000E+00 -0.96087858422E+03  0.96087858422E+03  0.25500000920E-02 0. -1.
    10030    2    1    2    0    0  0.00000000000E+00  0.00000000000E+00  0.22286648371E+04  0.41504220055E+04  0.35012934564E+04 0.  0.
        5    1    3    3  502    0  0.71574744501E+03 -0.99971120670E+03  0.25915789022E+04  0.28684525790E+04  0.46999998093E+01 0.  1.
       -5    1    3    3    0  502 -0.71574744501E+03  0.99971120670E+03 -0.36291406510E+03  0.12819694265E+04  0.46999998093E+01 0. -1.
</event>
<event>
 5   0  0.4693374E-07  0.2960573E+04  0.7818609E-02  0.8255080E-01
        1   -1    0    0  501    0  0.00000000000E+00  0.00000000000E+00  0.21711207616E+04  0.21711207616E+04  0.50400001928E-02 0.  1.
       -1   -1    0    0    0  501  0.00000000000E+00  0.00000000000E+00 -0.10092703166E+04  0.10092703166E+04  0.50400001928E-02 0. -1.
    10030    2    1    2    0    0  0.00000000000E+00  0.00000000000E+00  0.11618504450E+04  0.31803910782E+04  0.29605727408E+04 0.  0.
        1    1    3    3  502    0  0.37812678398E+03 -0.13632764062E+04  0.11298506160E+03  0.14192491143E+04  0.50400001928E-02 0. -1.
       -1    1    3    3    0  502 -0.37812678398E+03  0.13632764062E+04  0.10488653834E+04  0.17611419639E+04  0.50400001928E-02 0.  1.
</event>
<event>
 5   0  0.1348388E-06  0.2606006E+04  0.7818609E-02  0.8366164E-01
       -2   -1    0    0    0  501  0.00000000000E+00  0.00000000000E+00  0.10040471779E+04  0.10040471779E+04  0.25500000920E-02 0.  1.
        2   -1    0    0  501    0  0.00000000000E+00  0.00000000000E+00 -0.16909734727E+04  0.16909734727E+04  0.25500000920E-02 0. -1.
    10030    2    1    2    0    0  0.00000000000E+00  0.00000000000E+00 -0.68692629474E+03  0.26950206506E+04  0.26060062495E+04 0.  0.
        5    1    3    3  502    0 -0.95301848055E+03 -0.44297914355E+03  0.45312025084E+03  0.11444714053E+04  0.46999998093E+01 0.  1.
       -5    1    3    3    0  502  0.95301848055E+03  0.44297914355E+03 -0.11400465456E+04  0.15505492453E+04  0.46999998093E+01 0. -1.
</event>
<event>
 5   0  0.4557237E-07  0.3340256E+04  0.7818609E-02  0.8152727E-01
       -1   -1    0    0    0  501  0.00000000000E+00  0.00000000000E+00  0.11748761446E+04  0.11748761446E+04  0.50400001928E-02 0. -1.
        1   -1    0    0  501    0  0.00000000000E+00  0.00000000000E+00 -0.23741455182E+04  0.23741455182E+04  0.50400001928E-02 0.  1.
    10030    2    1    2    0    0  0.00000000000E+00  0.00000000000E+00 -0.11992693736E+04  0.35490216628E+04  0.33402556389E+04 0.  0.
        2    1    3    3  502    0  0.92184697691E+00 -0.15846684892E+04 -0.11599983051E+04  0.19638663748E+04  0.25500000920E-02 0.  1.
       -2    1    3    3    0  502 -0.92184697691E+00  0.15846684892E+04 -0.39271068482E+02  0.15851552880E+04  0.25500000920E-02 0. -1.
</event>
<event>
 5   0  0.4700769E-07  0.3528129E+04  0.7818609E-02  0.8107156E-01
       -1   -1    0    0    0  501  0.00000000000E+00  0.00000000000E+00  0.22742648999E+04  0.22742648999E+04  0.50400001928E-02 0.  1.
        1   -1    0    0  501    0  0.00000000000E+00  0.00000000000E+00 -0.13683208746E+04  0.13683208746E+04  0.50400001928E-02 0. -1.
    10030    2    1    2    0    0  0.00000000000E+00  0.00000000000E+00  0.90594402537E+03  0.36425857745E+04  0.35281293270E+04 0.  0.
        3    1    3    3  502    0 -0.43845641183E+03  0.17025158778E+04  0.60301305156E+03  0.18586094506E+04  0.10100000352E+00 0.  1.
       -3    1    3    3    0  502  0.43845641183E+03 -0.17025158778E+04  0.30293097381E+03  0.17839763239E+04  0.10100000352E+00 0. -1.
</event>
<event>
 5   0  0.4409125E-07  0.3477535E+04  0.7818609E-02  0.8119135E-01
       -1   -1    0    0    0  501  0.00000000000E+00  0.00000000000E+00  0.18016473852E+04  0.18016473852E+04  0.50400001928E-02 0. -1.
        1   -1    0    0  501    0  0.00000000000E+00  0.00000000000E+00 -0.16780820762E+04  0.16780820762E+04  0.50400001928E-02 0.  1.
    10030    2    1    2    0    0  0.00000000000E+00  0.00000000000E+00  0.12356530896E+03  0.34797294614E+04  0.34775348652E+04 0.  0.
        5    1    3    3  502    0 -0.15183078498E+04 -0.69466478608E+03 -0.42377836068E+03  0.17226224429E+04  0.46999998093E+01 0.  1.
       -5    1    3    3    0  502  0.15183078498E+04  0.69466478608E+03  0.54734366964E+03  0.17571070185E+04  0.46999998093E+01 0. -1.
</event>
<event>
 5   0  0.1378620E-06  0.3489927E+04  0.7818609E-02  0.8116181E-01
        2   -1    0    0  501    0  0.00000000000E+00  0.00000000000E+00  0.20569730618E+04  0.20569730618E+04  0.25500000920E-02 0. -1.
       -2   -1    0    0    0  501  0.00000000000E+00  0.00000000000E+00 -0.14802806334E+04  0.14802806334E+04  0.25500000920E-02 0.  1.
    10030    2    1    2    0    0  0.00000000000E+00  0.00000000000E+00  0.57669242837E+03  0.35372536952E+04  0.34899268685E+04 0.  0.
        2    1    3    3  502    0 -0.15622030467E+04  0.20383943067E+03 -0.47207348749E+03  0.16446526229E+04  0.25500000920E-02 0.  1.
       -2    1    3    3    0  502  0.15622030467E+04 -0.20383943067E+03  0.10487659159E+04  0.18926010723E+04  0.25500000920E-02 0. -1.
</event>
<event>
 5   0  0.1442864E-06  0.3616492E+04  0.7818609E-02  0.8086724E-01
       -2   -1    0    0    0  501  0.00000000000E+00  0.00000000000E+00  0.11105186221E+04  0.11105186222E+04  0.25500000920E-02 0. -1.
        2   -1    0    0  501    0  0.00000000000E+00  0.00000000000E+00 -0.29443483237E+04  0.29443483237E+04  0.25500000920E-02 0.  1.
    10030    2    1    2    0    0  0.00000000000E+00  0.00000000000E+00 -0.18338297016E+04  0.40548669459E+04  0.36164920260E+04 0.  0.
        1    1    3    3  502    0  0.12174901878E+04 -0.13147859828E+04 -0.64501348874E+03  0.19044650007E+04  0.50400001928E-02 0. -1.
       -1    1    3    3    0  502 -0.12174901878E+04  0.13147859828E+04 -0.11888162128E+04  0.21504019452E+04  0.50400001928E-02 0.  1.
</event>
<event>
 5   0  0.4693374E-07  0.3475113E+04  0.7818609E-02  0.8119713E-01
        1   -1    0    0  501    0  0.00000000000E+00  0.00000000000E+00  0.20964560719E+04  0.20964560719E+04  0.50400001928E-02 0. -1.
       -1   -1    0    0    0  501  0.00000000000E+00  0.00000000000E+00 -0.14400983500E+04  0.14400983500E+04  0.50400001928E-02 0.  1.
    10030    2    1    2    0    0  0.00000000000E+00  0.00000000000E+00  0.65635772191E+03  0.35365544220E+04  0.34751131953E+04 0.  0.
        1    1    3    3  502    0 -0.11679501364E+03 -0.16417301192E+04  0.89496749893E+03  0.18734688905E+04  0.50400001928E-02 0. -1.
       -1    1    3    3    0  502  0.11679501364E+03  0.16417301192E+04 -0.23860977702E+03  0.16630855315E+04  0.50400001928E-02 0.  1.
</event>
<event>
 5   0  0.4700769E-07  0.3510164E+04  0.7818609E-02  0.8111385E-01
        1   -1    0    0  501    0  0.00000000000E+00  0.00000000000E+00  0.13707284927E+04  0.13707284927E+04  0.50400001928E-02 0. -1.
       -1   -1    0    0    0  501  0.00000000000E+00  0.00000000000E+00 -0.22472083594E+04  0.22472083594E+04  0.50400001928E-02 0.  1.
    10030    2    1    2    0    0  0.00000000000E+00  0.00000000000E+00 -0.87647986672E+03  0.36179368521E+04  0.35101638294E+04 0.  0.
        3    1    3    3  502    0  0.11581997729E+04 -0.13123471053E+04 -0.57116019615E+03  0.18411696333E+04  0.10100000352E+00 0.  1.
       -3    1    3    3    0  502 -0.11581997729E+04  0.13123471053E+04 -0.30531967057E+03  0.17767672189E+04  0.10100000352E+00 0. -1.
</event>
<event>
 5   0  0.4700769E-07  0.3585963E+04  0.7818609E-02  0.8093715E-01
        1   -1    0    0  501    0  0.00000000000E+00  0.00000000000E+00  0.21359127002E+04  0.21359127002E+04  0.50400001928E-02 0.  1.
       -1   -1    0    0    0  501  0.00000000000E+00  0.00000000000E+00 -0.15051093774E+04  0.15051093774E+04  0.50400001928E-02 0. -1.
    10030    2    1    2    0    0  0.00000000000E+00  0.00000000000E+00  0.63080332279E+03  0.36410220777E+04  0.35859627631E+04 0.  0.
        3    1    3    3  502    0  0.12100242772E+04 -0.13120047515E+04  0.48910440450E+03  0.18506048601E+04  0.10100000352E+00 0.  1.
       -3    1    3    3    0  502 -0.12100242772E+04  0.13120047515E+04  0.14169891829E+03  0.17904172176E+04  0.10100000352E+00 0. -1.
</event>
<event>
 5   0  0.4591195E-07  0.3500439E+04  0.7818609E-02  0.8113686E-01
       -1   -1    0    0    0  501  0.00000000000E+00  0.00000000000E+00  0.13117697765E+04  0.13117697765E+04  0.50400001928E-02 0. -1.
        1   -1    0    0  501    0  0.00000000000E+00  0.00000000000E+00 -0.23352178633E+04  0.23352178633E+04  0.50400001928E-02 0.  1.
    10030    2    1    2    0    0  0.00000000000E+00  0.00000000000E+00 -0.10234480868E+04  0.36469876398E+04  0.35004389523E+04 0.  0.
        4    1    3    3  502    0  0.32166418461E+03 -0.77272648342E+03 -0.21131814343E+04  0.22729081489E+04  0.12699999809E+01 0.  1.
       -4    1    3    3    0  502 -0.32166418461E+03  0.77272648342E+03  0.10897333476E+04  0.13740794910E+04  0.12699999809E+01 0. -1.
</event>
<event>
 5   0  0.1442864E-06  0.2990169E+04  0.7818609E-02  0.8246544E-01
       -2   -1    0    0    0  501  0.00000000000E+00  0.00000000000E+00  0.99457780141E+03  0.99457780142E+03  0.25500000920E-02 0.  1.
        2   -1    0    0  501    0  0.00000000000E+00  0.00000000000E+00 -0.22474642070E+04  0.22474642070E+04  0.25500000920E-02 0. -1.
    10030    2    1    2    0    0  0.00000000000E+00  0.00000000000E+00 -0.12528864056E+04  0.32420420084E+04  0.29901692325E+04 0.  0.
        1    1    3    3  502    0 -0.64130894712E+03 -0.12316066595E+04 -0.12273335351E+04  0.18532349381E+04  0.50400001928E-02 0. -1.
       -1    1    3    3    0  502  0.64130894712E+03  0.12316066595E+04 -0.25552870494E+02  0.13888070703E+04  0.50400001928E-02 0.  1.
</event>
<event>
 5   0  0.1361560E-06  0.3508833E+04  0.7818609E-02  0.8111700E-01
        2   -1    0    0  501    0  0.00000000000E+00  0.00000000000E+00  0.17283161041E+04  0.17283161041E+04  0.25500000920E-02 0. -1.
       -2   -1    0    0    0  501  0.00000000000E+00  0.00000000000E+00 -0.17809106843E+04  0.17809106843E+04  0.25500000920E-02 0.  1.
    10030    2    1    2    0    0  0.00000000000E+00  0.00000000000E+00 -0.52594580196E+02  0.35092267884E+04  0.35088326353E+04 0.  0.
        3    1    3    3  502    0 -0.18302002240E+03 -0.15630624911E+03  0.17117266355E+04  0.17285647390E+04  0.10100000352E+00 0. -1.
       -3    1    3    3    0  502  0.18302002240E+03  0.15630624911E+03 -0.17643212157E+04  0.17806620494E+04  0.10100000352E+00 0.  1.
</event>
<event>
 5   0  0.4700769E-07  0.3482168E+04  0.7818609E-02  0.8118029E-01
        1   -1    0    0  501    0  0.00000000000E+00  0.00000000000E+00  0.21338794047E+04  0.21338794047E+04  0.50400001928E-02 0. -1.
       -1   -1    0    0    0  501  0.00000000000E+00  0.00000000000E+00 -0.14205923593E+04  0.14205923593E+04  0.50400001928E-02 0.  1.
    10030    2    1    2    0    0  0.00000000000E+00  0.00000000000E+00  0.71328704540E+03  0.35544717641E+04  0.34821675882E+04 0.  0.
        3    1    3    3  502    0  0.12387741610E+04 -0.54536481989E+03  0.14745496866E+04  0.20015696333E+04  0.10100000352E+00 0. -1.
       -3    1    3    3    0  502 -0.12387741610E+04  0.54536481989E+03 -0.76126264116E+03  0.15529021308E+04  0.10100000352E+00 0.  1.
</event>
<event>
 5   0  0.1387133E-06  0.2955309E+04  0.7818609E-02  0.8256609E-01
        2   -1    0    0  501    0  0.00000000000E+00  0.00000000000E+00  0.18036828452E+04  0.18036828452E+04  0.25500000920E-02 0.  1.
       -2   -1    0    0    0  501  0.00000000000E+00  0.00000000000E+00 -0.12105577924E+04  0.12105577924E+04  0.25500000920E-02 0. -1.
    10030    2    1    2    0    0  0.00000000000E+00  0.00000000000E+00  0.59312505272E+03  0.30142406376E+04  0.29553086629E+04 0.  0.
        4    1    3    3  502    0  0.76490804212E+02  0.13019905774E+04 -0.41186007560E+03  0.13677209663E+04  0.12699999809E+01 0.  1.
       -4    1    3    3    0  502 -0.76490804212E+02 -0.13019905774E+04  0.10049851283E+04  0.16465196713E+04  0.12699999809E+01 0. -1.
</event>
<event>
 5   0  0.4700769E-07  0.3461980E+04  0.7818609E-02  0.8122860E-01
        1   -1    0    0  501    0  0.00000000000E+00  0.00000000000E+00  0.14550569177E+04  0.14550569177E+04  0.50400001928E-02 0. -1.
       -1   -1    0    0    0  501  0.00000000000E+00  0.00000000000E+00 -0.20592497675E+04  0.20592497675E+04  0.50400001928E-02 0.  1.
    10030    2    1    2    0    0  0.00000000000E+00  0.00000000000E+00 -0.60419284976E+03  0.35143066852E+04  0.34619795606E+04 0.  0.
        3    1    3    3  502    0 -0.16656141635E+04  0.31929546150E+03  0.49704165170E+02  0.16966704593E+04  0.10100000352E+00 0. -1.
       -3    1    3    3    0  502  0.16656141635E+04 -0.31929546150E+03 -0.65389701493E+03  0.18176362259E+04  0.10100000352E+00 0.  1.
</event>
<event>
 5   0  0.4700769E-07  0.3375523E+04  0.7818609E-02  0.8143940E-01
        1   -1    0    0  501    0  0.00000000000E+00  0.00000000000E+00  0.22164716464E+04  0.22164716465E+04  0.50400001928E-02 0. -1.
       -1   -1    0    0    0  501  0.00000000000E+00  0.00000000000E+00 -0.12851685395E+04  0.12851685395E+04  0.50400001928E-02 0.  1.
    10030    2    1    2    0    0  0.00000000000E+00  0.00000000000E+00  0.93130310697E+03  0.35016401859E+04  0.33755234431E+04 0.  0.
        3    1    3    3  502    0 -0.12391342057E+04  0.43592641064E+03  0.15649883077E+04  0.20432018571E+04  0.10100000352E+00 0. -1.
       -3    1    3    3    0  502  0.12391342057E+04 -0.43592641064E+03 -0.63368520072E+03  0.14584383289E+04  0.10100000352E+00 0.  1.
</event>
<event>
 5   0  0.1348388E-06  0.3529502E+04  0.7818609E-02  0.8106834E-01
       -2   -1    0    0    0  501  0.00000000000E+00  0.00000000000E+00  0.20654033282E+04  0.20654033282E+04  0.25500000920E-02 0. -1.
        2   -1    0    0  501    0  0.00000000000E+00  0.00000000000E+00 -0.15078631369E+04  0.15078631369E+04  0.25500000920E-02 0.  1.
    10030    2    1    2    0    0  0.00000000000E+00  0.00000000000E+00  0.55754019125E+03  0.35732664651E+04  0.35295016880E+04 0.  0.
        5    1    3    3  502    0  0.10602532470E+04 -0.43532433949E+03  0.16373030772E+04  0.19986064357E+04  0.46999998093E+01 0. -1.
       -5    1    3    3    0  502 -0.10602532470E+04  0.43532433949E+03 -0.10797628859E+04  0.15746600294E+04  0.46999998093E+01 0.  1.
</event>
<event>
 5   0  0.4591195E-07  0.3494540E+04  0.7818609E-02  0.8115085E-01
       -1   -1    0    0    0  501  0.00000000000E+00  0.00000000000E+00  0.20879377248E+04  0.20879377248E+04  0.50400001928E-02 0. -1.
        1   -1    0    0  501    0  0.00000000000E+00  0.00000000000E+00 -0.14621856727E+04  0.14621856727E+04  0.50400001928E-02 0.  1.
    10030    2    1    2    0    0  0.00000000000E+00  0.00000000000E+00  0.62575205206E+03  0.35501233975E+04  0.34945400995E+04 0.  0.
        4    1    3    3  502    0 -0.10038200949E+04  0.13835285470E+04 -0.55023538392E+02  0.17102149648E+04  0.12699999809E+01 0.  1.
       -4    1    3    3    0  502  0.10038200949E+04 -0.13835285470E+04  0.68077559045E+03  0.18399084327E+04  0.12699999809E+01 0. -1.
</event>
<event>
 5   0  0.4700769E-07  0.3572667E+04  0.7818609E-02  0.8096781E-01
        1   -1    0    0  501    0  0.00000000000E+00  0.00000000000E+00  0.17801495718E+04  0.17801495718E+04  0.50400001928E-02 0. -1.
       -1   -1    0    0    0  501  0.00000000000E+00  0.00000000000E+00 -0.17925389356E+04  0.17925389356E+04  0.50400001928E-02 0.  1.
    10030    2    1    2    0    0  0.00000000000E+00  0.00000000000E+00 -0.12389363810E+02  0.35726885073E+04  0.35726670254E+04 0.  0.
        3    1    3    3  502    0  0.76576258906E+03 -0.20249998629E+03  0.15949360592E+04  0.17807918549E+04  0.10100000352E+00 0. -1.
       -3    1    3    3    0  502 -0.76576258906E+03  0.20249998629E+03 -0.16073254230E+04  0.17918966524E+04  0.10100000352E+00 0.  1.
</event>
<event>
 5   0  0.1378620E-06  0.3537416E+04  0.7818609E-02  0.8104980E-01
        2   -1    0    0  501    0  0.00000000000E+00  0.00000000000E+00  0.25001277080E+04  0.25001277080E+04  0.25500000920E-02 0.  1.
       -2   -1    0    0    0  501  0.00000000000E+00  0.00000000000E+00 -0.12512670763E+04  0.12512670763E+04  0.25500000920E-02 0. -1.
    10030    2    1    2    0    0  0.00000000000E+00  0.00000000000E+00  0.12488606317E+04  0.37513947843E+04  0.35374157164E+04 0.  0.
        2    1    3    3  502    0  0.11819271983E+04  0.11800698282E+04  0.71459420012E+01  0.16701999179E+04  0.25500000920E-02 0. -1.
       -2    1    3    3    0  502 -0.11819271983E+04 -0.11800698282E+04  0.12417146897E+04  0.20811948664E+04  0.25500000920E-02 0.  1.
</event>
<event>
 5   0  0.4693374E-07  0.3128785E+04  0.7818609E-02  0.8207882E-01
       -1   -1    0    0    0  501  0.00000000000E+00  0.00000000000E+00  0.14954127077E+04  0.14954127077E+04  0.50400001928E-02 0.  1.
        1   -1    0    0  501    0  0.00000000000E+00  0.00000000000E+00 -0.16365538802E+04  0.16365538802E+04  0.50400001928E-02 0. -1.
    10030    2    1    2    0    0  0.00000000000E+00  0.00000000000E+00 -0.14114117251E+03  0.31319665879E+04  0.31287847285E+04 0.  0.
        1    1    3    3  502    0  0.27445945866E+03 -0.49508145817E+03  0.13892985731E+04  0.15001947106E+04  0.50400001928E-02 0.  1.
       -1    1    3    3    0  502 -0.27445945866E+03  0.49508145817E+03 -0.15304397456E+04  0.16317718773E+04  0.50400001928E-02 0. -1.
</event>
<event>
 5   0  0.1442864E-06  0.3726525E+04  0.7818609E-02  0.8062109E-01
       -2   -1    0    0    0  501  0.00000000000E+00  0.00000000000E+00  0.10413148228E+04  0.10413148228E+04  0.25500000920E-02 0.  1.
        2   -1    0    0  501    0  0.00000000000E+00  0.00000000000E+00 -0.33340040629E+04  0.33340040629E+04  0.25500000920E-02 0. -1.
    10030    2    1    2    0    0  0.00000000000E+00  0.00000000000E+00 -0.22926892401E+04  0.43753188857E+04  0.37265253790E+04 0.  0.
        1    1    3    3  502    0  0.47837881628E+03  0.17688341663E+04 -0.74970115392E+03  0.19798162592E+04  0.50400001928E-02 0.  1.
       -1    1    3    3    0  502 -0.47837881628E+03 -0.17688341663E+04 -0.15429880862E+04  0.23955026266E+04  0.50400001928E-02 0. -1.
</event>
<event>
 5   0  0.4557237E-07  0.3400520E+04  0.7818609E-02  0.8137779E-01
       -1   -1    0    0    0  501  0.00000000000E+00  0.00000000000E+00  0.13489607745E+04  0.13489607745E+04  0.50400001928E-02 0.  1.
        1   -1    0    0  501    0  0.00000000000E+00  0.00000000000E+00 -0.21430456302E+04  0.21430456302E+04  0.50400001928E-02 0. -1.
    10030    2    1    2    0    0  0.00000000000E+00  0.00000000000E+00 -0.79408485566E+03  0.34920064047E+04  0.34005202503E+04 0.  0.
        2    1    3    3  502    0  0.16142495143E+04  0.52491823549E+03 -0.49736331124E+03  0.17688162459E+04  0.25500000920E-02 0. -1.
       -2    1    3    3    0  502 -0.16142495143E+04 -0.52491823549E+03 -0.29672154443E+03  0.17231901588E+04  0.25500000920E-02 0.  1.
</event>
<event>
 5   0  0.4591195E-07  0.3650505E+04  0.7818609E-02  0.8079020E-01
       -1   -1    0    0    0  501  0.00000000000E+00  0.00000000000E+00  0.15206366282E+04  0.15206366282E+04  0.50400001928E-02 0. -1.
        1   -1    0    0  501    0  0.00000000000E+00  0.00000000000E+00 -0.21908896726E+04  0.21908896726E+04  0.50400001928E-02 0.  1.
    10030    2    1    2    0    0  0.00000000000E+00  0.00000000000E+00 -0.67025304448E+03  0.37115263008E+04  0.36505052168E+04 0.  0.
        4    1    3    3  502    0  0.11232681287E+04  0.12983171827E+04 -0.96531537719E+03  0.19695670048E+04  0.12699999809E+01 0.  1.
       -4    1    3    3    0  502 -0.11232681287E+04 -0.12983171827E+04  0.29506233271E+03  0.17419592960E+04  0.12699999809E+01 0. -1.
</event>
<event>
 5   0  0.1361560E-06  0.3513109E+04  0.7818609E-02  0.8110690E-01
       -2   -1    0    0    0  501  0.00000000000E+00  0.00000000000E+00  0.98193758749E+03  0.98193758749E+03  0.25500000920E-02 0.  1.
        2   -1    0    0  501    0  0.00000000000E+00  0.00000000000E+00 -0.31422404368E+04  0.31422404368E+04  0.25500000920E-02 0. -1.
    10030    2    1    2    0    0  0.00000000000E+00  0.00000000000E+00 -0.21603028493E+04  0.41241780243E+04  0.35131091607E+04 0.  0.
        3    1    3    3  502    0  0.18729905440E+02 -0.25729659159E+03 -0.31198800867E+04  0.31305277688E+04  0.10100000352E+00 0. -1.
       -3    1    3    3    0  502 -0.18729905440E+02  0.25729659159E+03  0.95957723744E+03  0.99365025548E+03  0.10100000352E+00 0.  1.
</event>
<event>
 5   0  0.4700769E-07  0.3461312E+04  0.7818609E-02  0.8123020E-01
        1   -1    0    0  501    0  0.00000000000E+00  0.00000000000E+00  0.18842218879E+04  0.18842218879E+04  0.50400001928E-02 0. -1.
       -1   -1    0    0    0  501  0.00000000000E+00  0.00000000000E+00 -0.15896057989E+04  0.15896057989E+04  0.50400001928E-02 0.  1.
    10030    2    1    2    0    0  0.00000000000E+00  0.00000000000E+00  0.29461608899E+03  0.34738276868E+04  0.34613119128E+04 0.  0.
        3    1    3    3  502    0  0.36645853159E+03 -0.11337268539E+04 -0.11124364577E+04  0.16300746355E+04  0.10100000352E+00 0.  1.
       -3    1    3    3    0  502 -0.36645853159E+03  0.11337268539E+04  0.14070525467E+04  0.18437530513E+04  0.10100000352E+00 0. -1.
</event>
<event>
 5   0  0.1378620E-06  0.3536760E+04  0.7818609E-02  0.8105133E-01
        2   -1    0    0  501    0  0.00000000000E+00  0.00000000000E+00  0.25806799594E+04  0.25806799594E+04  0.25500000920E-02 0. -1.
       -2   -1    0    0    0  501  0.00000000000E+00  0.00000000000E+00 -0.12117610619E+04  0.12117610619E+04  0.25500000920E-02 0.  1.
    10030    2    1    2    0    0  0.00000000000E+00  0.00000000000E+00  0.13689188975E+04  0.37924410213E+04  0.35367598098E+04 0.  0.
        2    1    3    3  502    0 -0.14708877894E+04  0.50098192783E+03 -0.22076992301E+03  0.15694690631E+04  0.25500000920E-02 0.  1.
       -2    1    3    3    0  502  0.14708877894E+04 -0.50098192783E+03  0.15896888205E+04  0.22229719582E+04  0.25500000920E-02 0. -1.
</event>
<event>
 5   0  0.1361560E-06  0.3063113E+04  0.7818609E-02  0.8225935E-01
       -2   -1    0    0    0  501  0.00000000000E+00  0.00000000000E+00  0.10523195839E+04  0.10523195839E+04  0.25500000920E-02 0.  1.
        2   -1    0    0  501    0  0.00000000000E+00  0.00000000000E+00 -0.22290427161E+04  0.22290427161E+04  0.25500000920E-02 0. -1.
    10030    2    1    2    0    0  0.00000000000E+00  0.00000000000E+00 -0.11767231322E+04  0.32813623000E+04  0.30631129940E+04 0.  0.
        3    1    3    3  502    0 -0.92148625781E+03  0.10616689421E+04  0.62715235292E+02  0.14071997289E+04  0.10100000352E+00 0.  1.
       -3    1    3    3    0  502  0.92148625781E+03 -0.10616689421E+04 -0.12394383675E+04  0.18741625711E+04  0.10100000352E+00 0. -1.
</event>
<event>
 5   0  0.1378620E-06  0.3176358E+04  0.7818609E-02  0.8195089E-01
        2   -1    0    0  501    0  0.00000000000E+00  0.00000000000E+00  0.23823744983E+04  0.23823744983E+04  0.25500000920E-02 0. -1.
       -2   -1    0    0    0  501  0.00000000000E+00  0.00000000000E+00 -0.10587388647E+04  0.10587388647E+04  0.25500000920E-02 0.  1.
    10030    2    1    2    0    0  0.00000000000E+00  0.00000000000E+00  0.13236356336E+04  0.34411133630E+04  0.31763579594E+04 0.  0.
        2    1    3    3  502    0 -0.13253920633E+04  0.52189572101E+03  0.14226927979E+04  0.20132297589E+04  0.25500000920E-02 0. -1.
       -2    1    3    3    0  502  0.13253920633E+04 -0.52189572101E+03 -0.99057164282E+02  0.14278836041E+04  0.25500000920E-02 0.  1.
</event>
<event>
 5   0  0.1378620E-06  0.3488407E+04  0.7818609E-02  0.8116543E-01
       -2   -1    0    0    0  501  0.00000000000E+00  0.00000000000E+00  0.16828489831E+04  0.16828489831E+04  0.25500000920E-02 0. -1.
        2   -1    0    0  501    0  0.00000000000E+00  0.00000000000E+00 -0.18077954114E+04  0.18077954114E+04  0.25500000920E-02 0.  1.
    10030    2    1    2    0    0  0.00000000000E+00  0.00000000000E+00 -0.12494642834E+03  0.34906443946E+04  0.34884074704E+04 0.  0.
        2    1    3    3  502    0  0.10358161859E+04  0.15256952381E+03  0.13334317377E+04  0.16953562545E+04  0.25500000920E-02 0. -1.
       -2    1    3    3    0  502 -0.10358161859E+04 -0.15256952381E+03 -0.14583781661E+04  0.17952881400E+04  0.25500000920E-02 0.  1.
</event>
<event>
 5   0  0.4409125E-07  0.3966104E+04  0.7818609E-02  0.8011420E-01
       -1   -1    0    0    0  501  0.00000000000E+00  0.00000000000E+00  0.19708354096E+04  0.19708354096E+04  0.50400001928E-02 0. -1.
        1   -1    0    0  501    0  0.00000000000E+00  0.00000000000E+00 -0.19953440415E+04  0.19953440415E+04  0.50400001928E-02 0.  1.
    10030    2    1    2    0    0  0.00000000000E+00  0.00000000000E+00 -0.24508631845E+02  0.39661794511E+04  0.39661037260E+04 0.  0.
        5    1    3    3  502    0  0.12541661394E+04 -0.12941545827E+04 -0.83973842964E+03  0.19882030856E+04  0.46999998093E+01 0.  1.
       -5    1    3    3    0  502 -0.12541661394E+04  0.12941545827E+04  0.81522979780E+03  0.19779763655E+04  0.46999998093E+01 0. -1.
</event>
<event>
 5   0  0.4693374E-07  0.3450741E+04  0.7818609E-02  0.8125564E-01
        1   -1    0    0  501    0  0.00000000000E+00  0.00000000000E+00  0.22074825656E+04  0.22074825656E+04  0.50400001928E-02 0. -1.
       -1   -1    0    0    0  501  0.00000000000E+00  0.00000000000E+00 -0.13485512338E+04  0.13485512338E+04  0.50400001928E-02 0.  1.
    10030    2    1    2    0    0  0.00000000000E+00  0.00000000000E+00  0.85893133180E+03  0.35560337993E+04  0.34507409855E+04 0.  0.
        1    1    3    3  502    0  0.43276282037E+03  0.79257514252E+03 -0.10855793758E+04  0.14120699687E+04  0.50400001928E-02 0.  1.
       -1    1    3    3    0  502 -0.43276282037E+03 -0.79257514252E+03  0.19445107076E+04  0.21439638307E+04  0.50400001928E-02 0. -1.
</event>
<event>
 5   0  0.1378620E-06  0.3522899E+04  0.7818609E-02  0.8108384E-01
       -2   -1    0    0    0  501  0.00000000000E+00  0.00000000000E+00  0.17422080599E+04  0.17422080599E+04  0.25500000920E-02 0. -1.
        2   -1    0    0  501    0  0.00000000000E+00  0.00000000000E+00 -0.17809039339E+04  0.17809039339E+04  0.25500000920E-02 0.  1.
    10030    2    1    2    0    0  0.00000000000E+00  0.00000000000E+00 -0.38695874027E+02  0.35231119938E+04  0.35228994806E+04 0.  0.
        2    1    3    3  502    0  0.13509938747E+03 -0.17554804130E+04  0.33018021052E+02  0.17609808388E+04  0.25500000920E-02 0.  1.
       -2    1    3    3    0  502 -0.13509938747E+03  0.17554804130E+04 -0.71713895080E+02  0.17621311550E+04  0.25500000920E-02 0. -1.
</event>
<event>
 5   0  0.1378620E-06  0.3542578E+04  0.7818609E-02  0.8103773E-01
       -2   -1    0    0    0  501  0.00000000000E+00  0.00000000000E+00  0.28290566095E+04  0.28290566095E+04  0.25500000920E-02 0. -1.
        2   -1    0    0  501    0  0.00000000000E+00  0.00000000000E+00 -0.11090145772E+04  0.11090145772E+04  0.25500000920E-02 0.  1.
    10030    2    1    2    0    0  0.00000000000E+00  0.00000000000E+00  0.17200420324E+04  0.39380711867E+04  0.35425781683E+04 0.  0.
        2    1    3    3  502    0 -0.67848530010E+03 -0.13412079464E+04  0.19018144038E+04  0.24240625166E+04  0.25500000920E-02 0. -1.
       -2    1    3    3    0  502  0.67848530010E+03  0.13412079464E+04 -0.18177237142E+03  0.15140086701E+04  0.25500000920E-02 0.  1.
</event>
<event>
 5   0  0.1361560E-06  0.3506982E+04  0.7818609E-02  0.8112137E-01
        2   -1    0    0  501    0  0.00000000000E+00  0.00000000000E+00  0.15437971580E+04  0.15437971580E+04  0.25500000920E-02 0. -1.
       -2   -1    0    0    0  501  0.00000000000E+00  0.00000000000E+00 -0.19916678899E+04  0.19916678899E+04  0.25500000920E-02 0.  1.
    10030    2    1    2    0    0  0.00000000000E+00  0.00000000000E+00 -0.44787073192E+03  0.35354650480E+04  0.35069823086E+04 0.  0.
        3    1    3    3  502    0 -0.14755637135E+03  0.95556860383E+03 -0.16986375791E+04  0.19545469743E+04  0.10100000352E+00 0.  1.
       -3    1    3    3    0  502  0.14755637135E+03 -0.95556860383E+03  0.12507668472E+04  0.15809180737E+04  0.10100000352E+00 0. -1.
</event>
<event>
 5   0  0.4557237E-07  0.3550417E+04  0.7818609E-02  0.8101945E-01
        1   -1    0    0  501    0  0.00000000000E+00  0.00000000000E+00  0.17073298625E+04  0.17073298625E+04  0.50400001928E-02 0. -1.
       -1   -1    0    0    0  501  0.00000000000E+00  0.00000000000E+00 -0.18457858160E+04  0.18457858160E+04  0.50400001928E-02 0.  1.
    10030    2    1    2    0    0  0.00000000000E+00  0.00000000000E+00 -0.13845595356E+03  0.35531156785E+04  0.35504170140E+04 0.  0.
        2    1    3    3  502    0  0.12162202687E+04 -0.11467548209E+04 -0.66728315069E+03  0.17998625405E+04  0.25500000920E-02 0.  1.
       -2    1    3    3    0  502 -0.12162202687E+04  0.11467548209E+04  0.52882719713E+03  0.17532531380E+04  0.25500000920E-02 0. -1.
</event>
<event>
 5   0  0.4693374E-07  0.3484401E+04  0.7818609E-02  0.8117497E-01
        1   -1    0    0  501    0  0.00000000000E+00  0.00000000000E+00  0.14465935667E+04  0.14465935667E+04  0.50400001928E-02 0.  1.
       -1   -1    0    0    0  501  0.00000000000E+00  0.00000000000E+00 -0.20982133950E+04  0.20982133950E+04  0.50400001928E-02 0. -1.
    10030    2    1    2    0    0  0.00000000000E+00  0.00000000000E+00 -0.65161982829E+03  0.35448069618E+04  0.34844006652E+04 0.  0.
        1    1    3    3  502    0 -0.16896440937E+04  0.40660541623E+03 -0.20105914315E+03  0.17494713221E+04  0.50400001928E-02 0.  1.
       -1    1    3    3    0  502  0.16896440937E+04 -0.40660541623E+03 -0.45056068514E+03  0.17953356396E+04  0.50400001928E-02 0. -1.
</event>
<event>
 5   0  0.1378620E-06  0.3540358E+04  0.7818609E-02  0.8104292E-01
        2   -1    0    0  501    0  0.00000000000E+00  0.00000000000E+00  0.19471490238E+04  0.19471490239E+04  0.25500000920E-02 0. -1.
       -2   -1    0    0    0  501  0.00000000000E+00  0.00000000000E+00 -0.16092933292E+04  0.16092933292E+04  0.25500000920E-02 0.  1.
    10030    2    1    2    0    0  0.00000000000E+00  0.00000000000E+00  0.33785569463E+03  0.35564423531E+04  0.35403581373E+04 0.  0.
        2    1    3    3  502    0 -0.58867191531E+03  0.11720670041E+04  0.13631341015E+04  0.18916686455E+04  0.25500000920E-02 0. -1.
       -2    1    3    3    0  502  0.58867191531E+03 -0.11720670041E+04 -0.10252784068E+04  0.16647737076E+04  0.25500000920E-02 0.  1.
</event>
<event>
 5   0  0.1348388E-06  0.3446541E+04  0.7818609E-02  0.8126577E-01
        2   -1    0    0  501    0  0.00000000000E+00  0.00000000000E+00  0.19120906681E+04  0.19120906681E+04  0.25500000920E-02 0.  1.
       -2   -1    0    0    0  501  0.00000000000E+00  0.00000000000E+00 -0.15530966537E+04  0.15530966537E+04  0.25500000920E-02 0. -1.
    10030    2    1    2    0    0  0.00000000000E+00  0.00000000000E+00  0.35899401432E+03  0.34651873218E+04  0.34465412333E+04 0.  0.
        5    1    3    3  502    0  0.12594280114E+04  0.90430332045E+03 -0.57671316321E+03  0.16542501546E+04  0.46999998093E+01 0. -1.
       -5    1    3    3    0  502 -0.12594280114E+04 -0.90430332045E+03  0.93570717754E+03  0.18109371672E+04  0.46999998093E+01 0.  1.
</event>
<event>
 5   0  0.4557237E-07  0.3418592E+04  0.7818609E-02  0.8133358E-01
        1   -1    0    0  501    0  0.00000000000E+00  0.00000000000E+00  0.11489345065E+04  0.11489345065E+04  0.50400001928E-02 0.  1.
       -1   -1    0    0    0  501  0.00000000000E+00  0.00000000000E+00 -0.25429589965E+04  0.25429589965E+04  0.50400001928E-02 0. -1.
    10030    2    1    2    0    0  0.00000000000E+00  0.00000000000E+00 -0.13940244900E+04  0.36918935030E+04  0.34185923066E+04 0.  0.
        2    1    3    3  502    0  0.84887402935E+03 -0.63197630825E+03 -0.21466001598E+04  0.23932976033E+04  0.25500000920E-02 0. -1.
       -2    1    3    3    0  502 -0.84887402935E+03  0.63197630825E+03  0.75257566982E+03  0.12985958997E+04  0.25500000920E-02 0.  1.
</event>
<event>
 5   0  0.4409125E-07  0.3494638E+04  0.7818609E-02  0.8115062E-01
        1   -1    0    0  501    0  0.00000000000E+00  0.00000000000E+00  0.20710549384E+04  0.20710549384E+04  0.50400001928E-02 0.  1.
       -1   -1    0    0    0  501  0.00000000000E+00  0.00000000000E+00 -0.14741878709E+04  0.14741878709E+04  0.50400001928E-02 0. -1.
    10030    2    1    2    0    0  0.00000000000E+00  0.00000000000E+00  0.59686706755E+03  0.35452428094E+04  0.34946382189E+04 0.  0.
        5    1    3    3  502    0  0.11265746192E+04  0.10763636758E+03  0.16490063985E+04  0.20000000381E+04  0.46999998093E+01 0.  1.
       -5    1    3    3    0  502 -0.11265746192E+04 -0.10763636758E+03 -0.10521393309E+04  0.15452427712E+04  0.46999998093E+01 0. -1.
</event>
<event>
 5   0  0.1387133E-06  0.3501119E+04  0.7818609E-02  0.8113525E-01
        2   -1    0    0  501    0  0.00000000000E+00  0.00000000000E+00  0.18986877267E+04  0.18986877267E+04  0.25500000920E-02 0.  1.
       -2   -1    0    0    0  501  0.00000000000E+00  0.00000000000E+00 -0.16139879009E+04  0.16139879009E+04  0.25500000920E-02 0. -1.
    10030    2    1    2    0    0  0.00000000000E+00  0.00000000000E+00  0.28469982586E+03  0.35126756276E+04  0.35011192601E+04 0.  0.
        4    1    3    3  502    0 -0.87101422906E+03  0.11479685761E+04 -0.85489257209E+03  0.16755120297E+04  0.12699999809E+01 0. -1.
       -4    1    3    3    0  502  0.87101422906E+03 -0.11479685761E+04  0.11395923979E+04  0.18371635979E+04  0.12699999809E+01 0.  1.
</event>
<event>
 5   0  0.4700769E-07  0.3502668E+04  0.7818609E-02  0.8113158E-01
       -1   -1    0    0    0  501  0.00000000000E+00  0.00000000000E+00  0.14501181943E+04  0.14501181943E+04  0.50400001928E-02 0. -1.
        1   -1    0    0  501    0  0.00000000000E+00  0.00000000000E+00 -0.21151179543E+04  0.21151179543E+04  0.50400001928E-02 0.  1.
    10030    2    1    2    0    0  0.00000000000E+00  0.00000000000E+00 -0.66499975998E+03  0.35652361486E+04  0.35026681422E+04 0.  0.
        3    1    3    3  502    0 -0.56206915868E+03 -0.80513615951E+03 -0.18085784193E+04  0.20579411759E+04  0.10100000352E+00 0.  1.
       -3    1    3    3    0  502  0.56206915868E+03  0.80513615951E+03  0.11435786593E+04  0.15072949727E+04  0.10100000352E+00 0. -1.
</event>
<event>
 5   0  0.4557237E-07  0.3166859E+04  0.7818609E-02  0.8197625E-01
        1   -1    0    0  501    0  0.00000000000E+00  0.00000000000E+00  0.21675887307E+04  0.21675887307E+04  0.50400001928E-02 0. -1.
       -1   -1    0    0    0  501  0.00000000000E+00  0.00000000000E+00 -0.11566995040E+04  0.11566995041E+04  0.50400001928E-02 0.  1.
    10030    2    1    2    0    0  0.00000000000E+00  0.00000000000E+00  0.10108892267E+04  0.33242882348E+04  0.31668588916E+04 0.  0.
        2    1    3    3  502    0 -0.13448960173E+04  0.22513350981E+03  0.13503276774E+04  0.19190662393E+04  0.25500000920E-02 0. -1.
       -2    1    3    3    0  502  0.13448960173E+04 -0.22513350981E+03 -0.33943845067E+03  0.14052219954E+04  0.25500000920E-02 0.  1.
</event>
<event>
 5   0  0.1378620E-06  0.3497162E+04  0.7818609E-02  0.8114463E-01
        2   -1    0    0  501    0  0.00000000000E+00  0.00000000000E+00  0.14624837593E+04  0.14624837593E+04  0.25500000920E-02 0. -1.
       -2   -1    0    0    0  501  0.00000000000E+00  0.00000000000E+00 -0.20906454236E+04  0.20906454236E+04  0.25500000920E-02 0.  1.
    10030    2    1    2    0    0  0.00000000000E+00  0.00000000000E+00 -0.62816166431E+03  0.35531291830E+04  0.34971616941E+04 0.  0.
        2    1    3    3  502    0 -0.11688284179E+04 -0.77482658529E+03 -0.13753154690E+04  0.19641814445E+04  0.25500000920E-02 0.  1.
       -2    1    3    3    0  502  0.11688284179E+04  0.77482658529E+03  0.74715380468E+03  0.15889477385E+04  0.25500000920E-02 0. -1.
</event>
<event>
 5   0  0.1348388E-06  0.3432809E+04  0.7818609E-02  0.8129901E-01
        2   -1    0    0  501    0  0.00000000000E+00  0.00000000000E+00  0.93841154571E+03  0.93841154571E+03  0.25500000920E-02 0. -1.
       -2   -1    0    0    0  501  0.00000000000E+00  0.00000000000E+00 -0.31393940086E+04  0.31393940086E+04  0.25500000920E-02 0.  1.
    10030    2    1    2    0    0  0.00000000000E+00  0.00000000000E+00 -0.22009824629E+04  0.40778055543E+04  0.34328085203E+04 0.  0.
        5    1    3    3  502    0  0.86250316524E+02  0.16312503771E+04 -0.17263700449E+04  0.23767188584E+04  0.46999998093E+01 0. -1.
       -5    1    3    3    0  502 -0.86250316524E+02 -0.16312503771E+04 -0.47461241802E+03  0.17010866960E+04  0.46999998093E+01 0.  1.
</event>
<event>
 5   0  0.4591195E-07  0.3396912E+04  0.7818609E-02  0.8138665E-01
        1   -1    0    0  501    0  0.00000000000E+00  0.00000000000E+00  0.21181718203E+04  0.21181718204E+04  0.50400001928E-02 0. -1.
       -1   -1    0    0    0  501  0.00000000000E+00  0.00000000000E+00 -0.13619070851E+04  0.13619070852E+04  0.50400001928E-02 0.  1.
    10030    2    1    2    0    0  0.00000000000E+00  0.00000000000E+00  0.75626473520E+03  0.34800789055E+04  0.33969122507E+04 0.  0.
        4    1    3    3  502    0  0.51511583152E+03  0.71163493549E+03  0.18673314631E+04  0.20636610689E+04  0.12699999809E+01 0. -1.
       -4    1    3    3    0  502 -0.51511583152E+03 -0.71163493549E+03 -0.11110667279E+04  0.14164178366E+04  0.12699999809E+01 0.  1.
</event>
<event>
 5   0  0.1348388E-06  0.3486147E+04  0.7818609E-02  0.8117081E-01
       -2   -1    0    0    0  501  0.00000000000E+00  0.00000000000E+00  0.11050226552E+04  0.11050226552E+04  0.25500000920E-02 0. -1.
        2   -1    0    0  501    0  0.00000000000E+00  0.00000000000E+00 -0.27495417355E+04  0.27495417355E+04  0.25500000920E-02 0.  1.
    10030    2    1    2    0    0  0.00000000000E+00  0.00000000000E+00 -0.16445190804E+04  0.38545643907E+04  0.34861473917E+04 0.  0.
        5    1    3    3  502    0 -0.16525802355E+04 -0.25858730278E+03 -0.28014348751E+03  0.16959927157E+04  0.46999998093E+01 0.  1.
       -5    1    3    3    0  502  0.16525802355E+04  0.25858730278E+03 -0.13643755929E+04  0.21585716751E+04  0.46999998093E+01 0. -1.
</event>
<event>
 5   0  0.4700769E-07  0.3159071E+04  0.7818609E-02  0.8199711E-01
        1   -1    0    0  501    0  0.00000000000E+00  0.00000000000E+00  0.25663221262E+04  0.25663221262E+04  0.50400001928E-02 0. -1.
       -1   -1    0    0    0  501  0.00000000000E+00  0.00000000000E+00 -0.97218200751E+03  0.97218200753E+03  0.50400001928E-02 0.  1.
    10030    2    1    2    0    0  0.00000000000E+00  0.00000000000E+00  0.15941401187E+04  0.35385041337E+04  0.31590708739E+04 0.  0.
        3    1    3    3  502    0  0.11100490139E+04 -0.27170856679E+03 -0.42425875864E+03  0.12190282454E+04  0.10100000352E+00 0.  1.
       -3    1    3    3    0  502 -0.11100490139E+04  0.27170856679E+03  0.20183988773E+04  0.23194758883E+04  0.10100000352E+00 0. -1.
</event>
<event>
 5   0  0.1378620E-06  0.3510011E+04  0.7818609E-02  0.8111422E-01
        2   -1    0    0  501    0  0.00000000000E+00  0.00000000000E+00  0.31484702682E+04  0.31484702682E+04  0.25500000920E-02 0.  1.
       -2   -1    0    0    0  501  0.00000000000E+00  0.00000000000E+00 -0.97826697428E+03  0.97826697428E+03  0.25500000920E-02 0. -1.
    10030    2    1    2    0    0  0.00000000000E+00  0.00000000000E+00  0.21702032939E+04  0.41267372425E+04  0.35100111013E+04 0.  0.
        2    1    3    3  502    0 -0.68035809564E+03  0.69070679726E+03  0.28050423728E+04  0.29678655178E+04  0.25500000920E-02 0.  1.
       -2    1    3    3    0  502  0.68035809564E+03 -0.69070679726E+03 -0.63483907896E+03  0.11588717247E+04  0.25500000920E-02 0. -1.
</event>
<event>
 5   0  0.1361560E-06  0.3510458E+04  0.7818609E-02  0.8111316E-01
        2   -1    0    0  501    0  0.00000000000E+00  0.00000000000E+00  0.20392302515E+04  0.20392302515E+04  0.25500000920E-02 0.  1.
       -2   -1    0    0    0  501  0.00000000000E+00  0.00000000000E+00 -0.15107798857E+04  0.15107798857E+04  0.25500000920E-02 0. -1.
    10030    2    1    2    0    0  0.00000000000E+00  0.00000000000E+00  0.52845036585E+03  0.35500101372E+04  0.35104575464E+04 0.  0.
        3    1    3    3  502    0  0.37733239500E+03  0.19107090222E+03  0.19869269454E+04  0.20314444424E+04  0.10100000352E+00 0.  1.
       -3    1    3    3    0  502 -0.37733239500E+03 -0.19107090222E+03 -0.14584765796E+04  0.15185656948E+04  0.10100000352E+00 0. -1.
</event>
<event>
 5   0  0.1442864E-06  0.3481692E+04  0.7818609E-02  0.8118142E-01
        2   -1    0    0  501    0  0.00000000000E+00  0.00000000000E+00  0.14536841254E+04  0.14536841254E+04  0.25500000920E-02 0.  1.
       -2   -1    0    0    0  501  0.00000000000E+00  0.00000000000E+00 -0.20847341184E+04  0.20847341184E+04  0.25500000920E-02 0. -1.
    10030    2    1    2    0    0  0.00000000000E+00  0.00000000000E+00 -0.63104999296E+03  0.35384182438E+04  0.34816920562E+04 0.  0.
        1    1    3    3  502    0 -0.25083323846E+03 -0.14002814063E+04 -0.13352872799E+04  0.19510759724E+04  0.50400001928E-02 0. -1.
       -1    1    3    3    0  502  0.25083323846E+03  0.14002814063E+04  0.70423728689E+03  0.15873422714E+04  0.50400001928E-02 0.  1.
</event>
<event>
 5   0  0.4693374E-07  0.2647853E+04  0.7818609E-02  0.8352126E-01
       -1   -1    0    0    0  501  0.00000000000E+00  0.00000000000E+00  0.14994692422E+04  0.14994692422E+04  0.50400001928E-02 0.  1.
        1   -1    0    0  501    0  0.00000000000E+00  0.00000000000E+00 -0.11689342605E+04  0.11689342605E+04  0.50400001928E-02 0. -1.
    10030    2    1    2    0    0  0.00000000000E+00  0.00000000000E+00  0.33053498170E+03  0.26684035028E+04  0.26478526922E+04 0.  0.
        1    1    3    3  502    0 -0.10263057984E+04 -0.83027863773E+03  0.26662023477E+03  0.13467563097E+04  0.50400001928E-02 0.  1.
       -1    1    3    3    0  502  0.10263057984E+04  0.83027863773E+03  0.63914746939E+02  0.13216471931E+04  0.50400001928E-02 0. -1.
</event>
<event>
 5   0  0.1361560E-06  0.3492273E+04  0.7818609E-02  0.8115624E-01
       -2   -1    0    0    0  501  0.00000000000E+00  0.00000000000E+00  0.14809915261E+04  0.14809915261E+04  0.25500000920E-02 0. -1.
        2   -1    0    0  501    0  0.00000000000E+00  0.00000000000E+00 -0.20587506388E+04  0.20587506388E+04  0.25500000920E-02 0.  1.
    10030    2    1    2    0    0  0.00000000000E+00  0.00000000000E+00 -0.57775911264E+03  0.35397421649E+04  0.34922727559E+04 0.  0.
        3    1    3    3  502    0  0.20887122591E+03 -0.54103899369E+03  0.13805177282E+04  0.14973909275E+04  0.10100000352E+00 0. -1.
       -3    1    3    3    0  502 -0.20887122591E+03  0.54103899369E+03 -0.19582768408E+04  0.20423512375E+04  0.10100000352E+00 0.  1.
</event>
<event>
 5   0  0.4591195E-07  0.3485327E+04  0.7818609E-02  0.8117276E-01
        1   -1    0    0  501    0  0.00000000000E+00  0.00000000000E+00  0.20951297775E+04  0.20951297775E+04  0.50400001928E-02 0.  1.
       -1   -1    0    0    0  501  0.00000000000E+00  0.00000000000E+00 -0.14494934762E+04  0.14494934762E+04  0.50400001928E-02 0. -1.
    10030    2    1    2    0    0  0.00000000000E+00  0.00000000000E+00  0.64563630130E+03  0.35446232537E+04  0.34853274992E+04 0.  0.
        4    1    3    3  502    0 -0.42996175154E+03  0.12535611157E+03 -0.13899639579E+04  0.14603364954E+04  0.12699999809E+01 0. -1.
       -4    1    3    3    0  502  0.42996175154E+03 -0.12535611157E+03  0.20356002592E+04  0.20842867583E+04  0.12699999809E+01 0.  1.
</event>
<event>
 5   0  0.1348388E-06  0.3557460E+04  0.7818609E-02  0.8100306E-01
       -2   -1    0    0    0  501  0.00000000000E+00  0.00000000000E+00  0.12622689637E+04  0.12622689637E+04  0.25500000920E-02 0. -1.
        2   -1    0    0  501    0  0.00000000000E+00  0.00000000000E+00 -0.25065028285E+04  0.25065028285E+04  0.25500000920E-02 0.  1.
    10030    2    1    2    0    0  0.00000000000E+00  0.00000000000E+00 -0.12442338648E+04  0.37687717921E+04  0.35574601770E+04 0.  0.
        5    1    3    3  502    0 -0.15648523506E+04  0.79511560158E+03 -0.92711904228E+03  0.19850802270E+04  0.46999998093E+01 0. -1.
       -5    1    3    3    0  502  0.15648523506E+04 -0.79511560158E+03 -0.31711482253E+03  0.17836915652E+04  0.46999998093E+01 0.  1.
</event>
<event>
 5   0  0.4591195E-07  0.3521147E+04  0.7818609E-02  0.8108797E-01
        1   -1    0    0  501    0  0.00000000000E+00  0.00000000000E+00  0.16440935567E+04  0.16440935567E+04  0.50400001928E-02 0.  1.
       -1   -1    0    0    0  501  0.00000000000E+00  0.00000000000E+00 -0.18853056640E+04  0.18853056640E+04  0.50400001928E-02 0. -1.
    10030    2    1    2    0    0  0.00000000000E+00  0.00000000000E+00 -0.24121210733E+03  0.35293992207E+04  0.35211469123E+04 0.  0.
        4    1    3    3  502    0  0.14075896003E+04 -0.34194301341E+03  0.88243085747E+03  0.16961483834E+04  0.12699999809E+01 0.  1.
       -4    1    3    3    0  502 -0.14075896003E+04  0.34194301341E+03 -0.11236429648E+04  0.18332508373E+04  0.12699999809E+01 0. -1.
</event>
<event>
 5   0  0.4409125E-07  0.3460808E+04  0.7818609E-02  0.8123141E-01
       -1   -1    0    0    0  501  0.00000000000E+00  0.00000000000E+00  0.17670633400E+04  0.17670633400E+04  0.50400001928E-02 0.  1.
        1   -1    0    0  501    0  0.00000000000E+00  0.00000000000E+00 -0.16945051809E+04  0.16945051809E+04  0.50400001928E-02 0. -1.
    10030    2    1    2    0    0  0.00000000000E+00  0.00000000000E+00  0.72558159086E+02  0.34615685209E+04  0.34608079892E+04 0.  0.
        5    1    3    3  502    0  0.15220155254E+04 -0.64036208235E+03  0.55377178507E+03  0.17416314581E+04  0.46999998093E+01 0.  1.
       -5    1    3    3    0  502 -0.15220155254E+04  0.64036208235E+03 -0.48121362598E+03  0.17199370628E+04  0.46999998093E+01 0. -1.
</event>
<event>
 5   0  0.1442864E-06  0.3487351E+04  0.7818609E-02  0.8116794E-01
       -2   -1    0    0    0  501  0.00000000000E+00  0.00000000000E+00  0.14737479968E+04  0.14737479968E+04  0.25500000920E-02 0.  1.
        2   -1    0    0  501    0  0.00000000000E+00  0.00000000000E+00 -0.20630419228E+04  0.20630419228E+04  0.25500000920E-02 0. -1.
    10030    2    1    2    0    0  0.00000000000E+00  0.00000000000E+00 -0.58929392596E+03  0.35367899196E+04  0.34873508003E+04 0.  0.
        1    1    3    3  502    0 -0.80687708654E+03  0.93460201928E+03 -0.15433090953E+04  0.19764449223E+04  0.50400001928E-02 0. -1.
       -1    1    3    3    0  502  0.80687708654E+03 -0.93460201928E+03  0.95401516933E+03  0.15603449973E+04  0.50400001928E-02 0.  1.
</event>
<event>
 5   0  0.1387133E-06  0.3500116E+04  0.7818609E-02  0.8113762E-01
        2   -1    0    0  501    0  0.00000000000E+00  0.00000000000E+00  0.10741124717E+04  0.10741124718E+04  0.25500000920E-02 0. -1.
       -2   -1    0    0    0  501  0.00000000000E+00  0.00000000000E+00 -0.28513809117E+04  0.28513809117E+04  0.25500000920E-02 0.  1.
    10030    2    1    2    0    0  0.00000000000E+00  0.00000000000E+00 -0.17772684400E+04  0.39254933835E+04  0.35001164546E+04 0.  0.
        4    1    3    3  502    0 -0.13550931276E+04  0.89955009503E+03 -0.16130732226E+04  0.22907366920E+04  0.12699999809E+01 0.  1.
       -4    1    3    3    0  502  0.13550931276E+04 -0.89955009503E+03 -0.16419521744E+03  0.16347566915E+04  0.12699999809E+01 0. -1.
</event>
<event>
 5   0  0.1361560E-06  0.3526039E+04  0.7818609E-02  0.8107647E-01
       -2   -1    0    0    0  501  0.00000000000E+00  0.00000000000E+00  0.17483138343E+04  0.17483138343E+04  0.25500000920E-02 0. -1.
        2   -1    0    0  501    0  0.00000000000E+00  0.00000000000E+00 -0.17778489199E+04  0.17778489199E+04  0.25500000920E-02 0.  1.
    10030    2    1    2    0    0  0.00000000000E+00  0.00000000000E+00 -0.29535085548E+02  0.35261627542E+04  0.35260390593E+04 0.  0.
        3    1    3    3  502    0  0.68679053557E+03  0.15991184932E+04  0.26698097286E+03  0.17607214558E+04  0.10100000352E+00 0.  1.
       -3    1    3    3    0  502 -0.68679053557E+03 -0.15991184932E+04 -0.29651605841E+03  0.17654412984E+04  0.10100000352E+00 0. -1.
</event>
<event>
 5   0  0.4591195E-07  0.2778307E+04  0.7818609E-02  0.8310035E-01
       -1   -1    0    0    0  501  0.00000000000E+00  0.00000000000E+00  0.16969498081E+04  0.16969498081E+04  0.50400001928E-02 0.  1.
        1   -1    0    0  501    0  0.00000000000E+00  0.00000000000E+00 -0.11371861197E+04  0.11371861197E+04  0.50400001928E-02 0. -1.
    10030    2    1    2    0    0  0.00000000000E+00  0.00000000000E+00  0.55976368845E+03  0.28341359278E+04  0.27783072311E+04 0.  0.
        4    1    3    3  502    0  0.21837127471E+02  0.10026657418E+04 -0.70064639619E+03  0.12234060795E+04  0.12699999809E+01 0. -1.
       -4    1    3    3    0  502 -0.21837127471E+02 -0.10026657418E+04  0.12604100846E+04  0.16107298483E+04  0.12699999809E+01 0.  1.
</event>
<event>
 5   0  0.4557237E-07  0.3443450E+04  0.7818609E-02  0.8127324E-01
       -1   -1    0    0    0  501  0.00000000000E+00  0.00000000000E+00  0.17642030780E+04  0.17642030780E+04  0.50400001928E-02 0.  1.
        1   -1    0    0  501    0  0.00000000000E+00  0.00000000000E+00 -0.16802698810E+04  0.16802698810E+04  0.50400001928E-02 0. -1.
    10030    2    1    2    0    0  0.00000000000E+00  0.00000000000E+00  0.83933197016E+02  0.34444729590E+04  0.34434501860E+04 0.  0.
        2    1    3    3  502    0 -0.61245382558E+03  0.14514856668E+04  0.73674252619E+03  0.17391664323E+04  0.25500000920E-02 0.  1.
       -2    1    3    3    0  502  0.61245382558E+03 -0.14514856668E+04 -0.65280932917E+03  0.17053065266E+04  0.25500000920E-02 0. -1.
</event>
<event>
 5   0  0.1348388E-06  0.3476667E+04  0.7818609E-02  0.8119342E-01
       -2   -1    0    0    0  501  0.00000000000E+00  0.00000000000E+00  0.10660466412E+04  0.10660466412E+04  0.25500000920E-02 0.  1.
        2   -1    0    0  501    0  0.00000000000E+00  0.00000000000E+00 -0.28345881489E+04  0.28345881489E+04  0.25500000920E-02 0. -1.
    10030    2    1    2    0    0  0.00000000000E+00  0.00000000000E+00 -0.17685415077E+04  0.39006347901E+04  0.34766668953E+04 0.  0.
        5    1    3    3  502    0 -0.80423301071E+03  0.14832186334E+04 -0.13536855582E+04  0.21631493084E+04  0.46999998093E+01 0.  1.
       -5    1    3    3    0  502  0.80423301071E+03 -0.14832186334E+04 -0.41485594946E+03  0.17374854816E+04  0.46999998093E+01 0. -1.
</event>
<event>
 5   0  0.4693374E-07  0.3468046E+04  0.7818609E-02  0.8121405E-01
       -1   -1    0    0    0  501  0.00000000000E+00  0.00000000000E+00  0.24513635926E+04  0.24513635927E+04  0.50400001928E-02 0.  1.
        1   -1    0    0  501    0  0.00000000000E+00  0.00000000000E+00 -0.12265972098E+04  0.12265972098E+04  0.50400001928E-02 0. -1.
    10030    2    1    2    0    0  0.00000000000E+00  0.00000000000E+00  0.12247663829E+04  0.36779608024E+04  0.34680459875E+04 0.  0.
        1    1    3    3  502    0 -0.75740346587E+03 -0.13804416416E+04 -0.15791128178E+03  0.15824712032E+04  0.50400001928E-02 0. -1.
       -1    1    3    3    0  502  0.75740346587E+03  0.13804416416E+04  0.13826776647E+04  0.20954895992E+04  0.50400001928E-02 0.  1.
</event>
<event>
 5   0  0.1361560E-06  0.3395339E+04  0.7818609E-02  0.8139051E-01
       -2   -1    0    0    0  501  0.00000000000E+00  0.00000000000E+00  0.15406516486E+04  0.15406516486E+04  0.25500000920E-02 0.  1.
        2   -1    0    0  501    0  0.00000000000E+00  0.00000000000E+00 -0.18706897886E+04  0.18706897886E+04  0.25500000920E-02 0. -1.
    10030    2    1    2    0    0  0.00000000000E+00  0.00000000000E+00 -0.33003813999E+03  0.34113414371E+04  0.33953387500E+04 0.  0.
        3    1    3    3  502    0  0.15912823567E+04  0.53795626067E+02  0.42683098309E+03  0.16484108124E+04  0.10100000352E+00 0.  1.
       -3    1    3    3    0  502 -0.15912823567E+04 -0.53795626067E+02 -0.75686912308E+03  0.17629306248E+04  0.10100000352E+00 0. -1.
</event>
<event>
 5   0  0.4557237E-07  0.3551720E+04  0.7818609E-02  0.8101641E-01
       -1   -1    0    0    0  501  0.00000000000E+00  0.00000000000E+00  0.13485934997E+04  0.13485934998E+04  0.50400001928E-02 0.  1.
        1   -1    0    0  501    0  0.00000000000E+00  0.00000000000E+00 -0.23384942408E+04  0.23384942408E+04  0.50400001928E-02 0. -1.
    10030    2    1    2    0    0  0.00000000000E+00  0.00000000000E+00 -0.98990074105E+03  0.36870877406E+04  0.35517196581E+04 0.  0.
        2    1    3    3  502    0  0.19720073529E+03 -0.10225428527E+04  0.99834466345E+03  0.14426274927E+04  0.25500000920E-02 0.  1.
       -2    1    3    3    0  502 -0.19720073529E+03  0.10225428527E+04 -0.19882454045E+04  0.22444602479E+04  0.25500000920E-02 0. -1.
</event>
<event>
 5   0  0.4591195E-07  0.3443846E+04  0.7818609E-02  0.8127228E-01
        1   -1    0    0  501    0  0.00000000000E+00  0.00000000000E+00  0.21082561040E+04  0.21082561040E+04  0.50400001928E-02 0. -1.
       -1   -1    0    0    0  501  0.00000000000E+00  0.00000000000E+00 -0.14063846755E+04  0.14063846755E+04  0.50400001928E-02 0.  1.
    10030    2    1    2    0    0  0.00000000000E+00  0.00000000000E+00  0.70187142849E+03  0.35146407794E+04  0.34438461502E+04 0.  0.
        4    1    3    3  502    0  0.15725611341E+04  0.54151277121E+03 -0.10413751087E+03  0.16664425690E+04  0.12699999809E+01 0. -1.
       -4    1    3    3    0  502 -0.15725611341E+04 -0.54151277121E+03  0.80600893937E+03  0.18481982104E+04  0.12699999809E+01 0.  1.
</event>
<event>
 5   0  0.4409125E-07  0.3481899E+04  0.7818609E-02  0.8118093E-01
       -3   -1    0    0    0  501  0.00000000000E+00  0.00000000000E+00  0.16818844479E+04  0.16818844509E+04  0.10100000352E+00 0. -1.
        3   -1    0    0  501    0  0.00000000000E+00  0.00000000000E+00 -0.18020886529E+04  0.18020886558E+04  0.10100000352E+00 0.  1.
    10030    2    1    2    0    0  0.00000000000E+00  0.00000000000E+00 -0.12020420504E+03  0.34839731067E+04  0.34818988436E+04 0.  0.
        5    1    3    3  502    0  0.91296463223E+03 -0.13700855867E+04  0.50613595220E+03  0.17224501812E+04  0.46999998093E+01 0. -1.
       -5    1    3    3    0  502 -0.91296463223E+03  0.13700855867E+04 -0.62634015724E+03  0.17615229255E+04  0.46999998093E+01 0.  1.
</event>
<event>
 5   0  0.1387133E-06  0.3485787E+04  0.7818609E-02  0.8117166E-01
       -2   -1    0    0    0  501  0.00000000000E+00  0.00000000000E+00  0.11637490953E+04  0.11637490953E+04  0.25500000920E-02 0.  1.
        2   -1    0    0  501    0  0.00000000000E+00  0.00000000000E+00 -0.26102515968E+04  0.26102515969E+04  0.25500000920E-02 0. -1.
    10030    2    1    2    0    0  0.00000000000E+00  0.00000000000E+00 -0.14465025015E+04  0.37740006922E+04  0.34857871044E+04 0.  0.
        4    1    3    3  502    0  0.13601557629E+04  0.50594587256E+03 -0.17682902493E+04  0.22875438671E+04  0.12699999809E+01 0.  1.
       -4    1    3    3    0  502 -0.13601557629E+04 -0.50594587256E+03  0.32178774771E+03  0.14864568251E+04  0.12699999809E+01 0. -1.
</event>
<event>
 5   0  0.4409125E-07  0.3538065E+04  0.7818609E-02  0.8104828E-01
       -1   -1    0    0    0  501  0.00000000000E+00  0.00000000000E+00  0.29120720126E+04  0.29120720127E+04  0.50400001928E-02 0. -1.
        1   -1    0    0  501    0  0.00000000000E+00  0.00000000000E+00 -0.10746561625E+04  0.10746561625E+04  0.50400001928E-02 0.  1.
    10030    2    1    2    0    0  0.00000000000E+00  0.00000000000E+00  0.18374158502E+04  0.39867281752E+04  0.35380650837E+04 0.  0.
        5    1    3    3  502    0 -0.72099264341E+03 -0.28308685401E+03 -0.87341132007E+03  0.11674065199E+04  0.46999998093E+01 0.  1.
       -5    1    3    3    0  502  0.72099264341E+03  0.28308685401E+03  0.27108271702E+04  0.28193216552E+04  0.46999998093E+01 0. -1.
</event>
<event>
 5   0  0.1378620E-06  0.3526718E+04  0.7818609E-02  0.8107487E-01
       -2   -1    0    0    0  501  0.00000000000E+00  0.00000000000E+00  0.11978043122E+04  0.11978043122E+04  0.25500000920E-02 0. -1.
        2   -1    0    0  501    0  0.00000000000E+00  0.00000000000E+00 -0.25959450432E+04  0.25959450432E+04  0.25500000920E-02 0.  1.
    10030    2    1    2    0    0  0.00000000000E+00  0.00000000000E+00 -0.13981407309E+04  0.37937493554E+04  0.35267175486E+04 0.  0.
        2    1    3    3  502    0 -0.14152277791E+04  0.98916458480E+03 -0.10841077539E+04  0.20387755797E+04  0.25500000920E-02 0. -1.
       -2    1    3    3    0  502  0.14152277791E+04 -0.98916458480E+03 -0.31403297703E+03  0.17549737756E+04  0.25500000920E-02 0.  1.
</event>
<event>
 5   0  0.4591195E-07  0.3447090E+04  0.7818609E-02  0.8126445E-01
        1   -1    0    0  501    0  0.00000000000E+00  0.00000000000E+00  0.12224570071E+04  0.12224570071E+04  0.50400001928E-02 0. -1.
       -1   -1    0    0    0  501  0.00000000000E+00  0.00000000000E+00 -0.24300300706E+04  0.24300300706E+04  0.50400001928E-02 0.  1.
    10030    2    1    2    0    0  0.00000000000E+00  0.00000000000E+00 -0.12075730635E+04  0.36524870778E+04  0.34470899538E+04 0.  0.
        4    1    3    3  502    0  0.58006883329E+02 -0.13982747664E+04 -0.16697468476E+04  0.21786677739E+04  0.12699999809E+01 0.  1.
       -4    1    3    3    0  502 -0.58006883329E+02  0.13982747664E+04  0.46217378412E+03  0.14738193039E+04  0.12699999809E+01 0. -1.
</event>
<event>
 5   0  0.4693374E-07  0.3313463E+04  0.7818609E-02  0.8159478E-01
       -1   -1    0    0    0  501  0.00000000000E+00  0.00000000000E+00  0.11735729480E+04  0.11735729480E+04  0.50400001928E-02 0. -1.
        1   -1    0    0  501    0  0.00000000000E+00  0.00000000000E+00 -0.23388061630E+04  0.23388061630E+04  0.50400001928E-02 0.  1.
    10030    2    1    2    0    0  0.00000000000E+00  0.00000000000E+00 -0.11652332149E+04  0.35123791110E+04  0.33134632297E+04 0.  0.
        1    1    3    3  502    0 -0.13612352820E+04 -0.50222710175E+03  0.26512196537E+03  0.14749519352E+04  0.50400001928E-02 0. -1.
       -1    1    3    3    0  502  0.13612352820E+04  0.50222710175E+03 -0.14303551803E+04  0.20374271758E+04  0.50400001928E-02 0.  1.
</event>
<event>
 5   0  0.1378620E-06  0.3509425E+04  0.7818609E-02  0.8111560E-01
       -2   -1    0    0    0  501  0.00000000000E+00  0.00000000000E+00  0.19165275995E+04  0.19165275995E+04  0.25500000920E-02 0.  1.
        2   -1    0    0  501    0  0.00000000000E+00  0.00000000000E+00 -0.16065599290E+04  0.16065599290E+04  0.25500000920E-02 0. -1.
    10030    2    1    2    0    0  0.00000000000E+00  0.00000000000E+00  0.30996767057E+03  0.35230875285E+04  0.35094252773E+04 0.  0.
        2    1    3    3  502    0 -0.81949397953E+03  0.81201846483E+03 -0.11723100715E+04  0.16447660240E+04  0.25500000920E-02 0. -1.
       -2    1    3    3    0  502  0.81949397953E+03 -0.81201846483E+03  0.14822777421E+04  0.18783215046E+04  0.25500000920E-02 0.  1.
</event>
<event>
 5   0  0.1442864E-06  0.3430361E+04  0.7818609E-02  0.8130495E-01
       -2   -1    0    0    0  501  0.00000000000E+00  0.00000000000E+00  0.19935725238E+04  0.19935725238E+04  0.25500000920E-02 0. -1.
        2   -1    0    0  501    0  0.00000000000E+00  0.00000000000E+00 -0.14756642374E+04  0.14756642374E+04  0.25500000920E-02 0.  1.
    10030    2    1    2    0    0  0.00000000000E+00  0.00000000000E+00  0.51790828638E+03  0.34692367612E+04  0.34303607263E+04 0.  0.
        1    1    3    3  502    0  0.20853423684E+03 -0.17022629909E+03  0.19720757532E+04  0.19903633581E+04  0.50400001928E-02 0. -1.
       -1    1    3    3    0  502 -0.20853423684E+03  0.17022629909E+03 -0.14541674668E+04  0.14788734031E+04  0.50400001928E-02 0.  1.
</event>
<event>
 5   0  0.4557237E-07  0.3521745E+04  0.7818609E-02  0.8108656E-01
       -1   -1    0    0    0  501  0.00000000000E+00  0.00000000000E+00  0.18378200842E+04  0.18378200842E+04  0.50400001928E-02 0.  1.
        1   -1    0    0  501    0  0.00000000000E+00  0.00000000000E+00 -0.16871466282E+04  0.16871466282E+04  0.50400001928E-02 0. -1.
    10030    2    1    2    0    0  0.00000000000E+00  0.00000000000E+00  0.15067345600E+03  0.35249667124E+04  0.35217449984E+04 0.  0.
        2    1    3    3  502    0  0.28531531123E+03 -0.14165427208E+04  0.10825742867E+04  0.18055373696E+04  0.25500000920E-02 0.  1.
       -2    1    3    3    0  502 -0.28531531123E+03  0.14165427208E+04 -0.93190083071E+03  0.17194293428E+04  0.25500000920E-02 0. -1.
</event>
<event>
 5   0  0.4693374E-07  0.3492411E+04  0.7818609E-02  0.8115591E-01
       -1   -1    0    0    0  501  0.00000000000E+00  0.00000000000E+00  0.15393479408E+04  0.15393479408E+04  0.50400001928E-02 0. -1.
        1   -1    0    0  501    0  0.00000000000E+00  0.00000000000E+00 -0.19808602851E+04  0.19808602851E+04  0.50400001928E-02 0.  1.
    10030    2    1    2    0    0  0.00000000000E+00  0.00000000000E+00 -0.44151234436E+03  0.35202082259E+04  0.34924107438E+04 0.  0.
        1    1    3    3  502    0  0.11253164008E+04 -0.21129100017E+03  0.11081656889E+04  0.15934277777E+04  0.50400001928E-02 0. -1.
       -1    1    3    3    0  502 -0.11253164008E+04  0.21129100017E+03 -0.15496780333E+04  0.19267804482E+04  0.50400001928E-02 0.  1.
</event>
<event>
 5   0  0.4693374E-07  0.3513962E+04  0.7818609E-02  0.8110489E-01
        1   -1    0    0  501    0  0.00000000000E+00  0.00000000000E+00  0.27776957954E+04  0.27776957954E+04  0.50400001928E-02 0.  1.
       -1   -1    0    0    0  501  0.00000000000E+00  0.00000000000E+00 -0.11113464577E+04  0.11113464577E+04  0.50400001928E-02 0. -1.
    10030    2    1    2    0    0  0.00000000000E+00  0.00000000000E+00  0.16663493377E+04  0.38890422531E+04  0.35139620845E+04 0.  0.
        1    1    3    3  502    0  0.13418541798E+04  0.90361774652E+03  0.15918242942E+04  0.22695819561E+04  0.50400001928E-02 0.  1.
       -1    1    3    3    0  502 -0.13418541798E+04 -0.90361774652E+03  0.74525043541E+02  0.16194602971E+04  0.50400001928E-02 0. -1.
</event>
<event>
 5   0  0.1387133E-06  0.3502514E+04  0.7818609E-02  0.8113194E-01
        2   -1    0    0  501    0  0.00000000000E+00  0.00000000000E+00  0.17263740955E+04  0.17263740955E+04  0.25500000920E-02 0.  1.
       -2   -1    0    0    0  501  0.00000000000E+00  0.00000000000E+00 -0.17764989329E+04  0.17764989329E+04  0.25500000920E-02 0. -1.
    10030    2    1    2    0    0  0.00000000000E+00  0.00000000000E+00 -0.50124837439E+02  0.35028730284E+04  0.35025143760E+04 0.  0.
        4    1    3    3  502    0  0.31618126216E+03  0.10377054269E+04  0.13498863397E+04  0.17317614982E+04  0.12699999809E+01 0.  1.
       -4    1    3    3    0  502 -0.31618126216E+03 -0.10377054269E+04 -0.14000111772E+04  0.17711115303E+04  0.12699999809E+01 0. -1.
</event>
<event>
 5   0  0.4700769E-07  0.3512090E+04  0.7818609E-02  0.8110931E-01
        1   -1    0    0  501    0  0.00000000000E+00  0.00000000000E+00  0.26757649247E+04  0.26757649247E+04  0.50400001928E-02 0.  1.
       -1   -1    0    0    0  501  0.00000000000E+00  0.00000000000E+00 -0.11524533150E+04  0.11524533150E+04  0.50400001928E-02 0. -1.
    10030    2    1    2    0    0  0.00000000000E+00  0.00000000000E+00  0.15233116097E+04  0.38282182397E+04  0.35120900658E+04 0.  0.
        3    1    3    3  502    0  0.14834698733E+04  0.43750412475E+03 -0.14482577342E+03  0.15534050466E+04  0.10100000352E+00 0. -1.
       -3    1    3    3    0  502 -0.14834698733E+04 -0.43750412475E+03  0.16681373831E+04  0.22748131931E+04  0.10100000352E+00 0.  1.
</event>
<event>
 5   0  0.4693374E-07  0.3535643E+04  0.7818609E-02  0.8105395E-01
       -1   -1    0    0    0  501  0.00000000000E+00  0.00000000000E+00  0.13205545498E+04  0.13205545498E+04  0.50400001928E-02 0.  1.
        1   -1    0    0  501    0  0.00000000000E+00  0.00000000000E+00 -0.23665762172E+04  0.23665762172E+04  0.50400001928E-02 0. -1.
    10030    2    1    2    0    0  0.00000000000E+00  0.00000000000E+00 -0.10460216674E+04  0.36871307669E+04  0.35356430764E+04 0.  0.
        1    1    3    3  502    0 -0.16676963145E+03  0.74739921972E+03 -0.21846329157E+04  0.23149597578E+04  0.50400001928E-02 0. -1.
       -1    1    3    3    0  502  0.16676963145E+03 -0.74739921972E+03  0.11386112483E+04  0.13721710092E+04  0.50400001928E-02 0.  1.
</event>
<event>
 5   0  0.4693374E-07  0.2770747E+04  0.7818609E-02  0.8312408E-01
        1   -1    0    0  501    0  0.00000000000E+00  0.00000000000E+00  0.16356425328E+04  0.16356425328E+04  0.50400001928E-02 0. -1.
       -1   -1    0    0    0  501  0.00000000000E+00  0.00000000000E+00 -0.11733984409E+04  0.11733984409E+04  0.50400001928E-02 0.  1.
    10030    2    1    2    0    0  0.00000000000E+00  0.00000000000E+00  0.46224409191E+03  0.28090409738E+04  0.27707474789E+04 0.  0.
        1    1    3    3  502    0  0.21487007438E+03  0.62113869775E+03  0.14675169302E+04  0.16079764834E+04  0.50400001928E-02 0. -1.
       -1    1    3    3    0  502 -0.21487007438E+03 -0.62113869775E+03 -0.10052728383E+04  0.12010644904E+04  0.50400001928E-02 0.  1.
</event>
<event>
 5   0  0.1387133E-06  0.3469571E+04  0.7818609E-02  0.8121039E-01
        2   -1    0    0  501    0  0.00000000000E+00  0.00000000000E+00  0.24611633838E+04  0.24611633838E+04  0.25500000920E-02 0. -1.
       -2   -1    0    0    0  501  0.00000000000E+00  0.00000000000E+00 -0.12227878205E+04  0.12227878205E+04  0.25500000920E-02 0.  1.
    10030    2    1    2    0    0  0.00000000000E+00  0.00000000000E+00  0.12383755634E+04  0.36839512043E+04  0.34695709302E+04 0.  0.
        4    1    3    3  502    0  0.15297908367E+04 -0.59225870105E+03  0.20007121515E+02  0.16405585240E+04  0.12699999809E+01 0. -1.
       -4    1    3    3    0  502 -0.15297908367E+04  0.59225870105E+03  0.12183684418E+04  0.20433926803E+04  0.12699999809E+01 0.  1.
</event>
<event>
 5   0  0.1361560E-06  0.3500172E+04  0.7818609E-02  0.8113749E-01
       -2   -1    0    0    0  501  0.00000000000E+00  0.00000000000E+00  0.19890510577E+04  0.19890510577E+04  0.25500000920E-02 0.  1.
        2   -1    0    0  501    0  0.00000000000E+00  0.00000000000E+00 -0.15398300185E+04  0.15398300185E+04  0.25500000920E-02 0. -1.
    10030    2    1    2    0    0  0.00000000000E+00  0.00000000000E+00  0.44922103915E+03  0.35288810762E+04  0.35001717255E+04 0.  0.
        3    1    3    3  502    0 -0.80615587146E+03  0.80994661276E+03  0.15609634072E+04  0.19345561696E+04  0.10100000352E+00 0.  1.
       -3    1    3    3    0  502  0.80615587146E+03 -0.80994661276E+03 -0.11117423680E+04  0.15943249066E+04  0.10100000352E+00 0. -1.
</event>
<event>
 5   0  0.1348388E-06  0.3449701E+04  0.7818609E-02  0.8125815E-01
        2   -1    0    0  501    0  0.00000000000E+00  0.00000000000E+00  0.21540973803E+04  0.21540973803E+04  0.25500000920E-02 0.  1.
       -2   -1    0    0    0  501  0.00000000000E+00  0.00000000000E+00 -0.13811393300E+04  0.13811393300E+04  0.25500000920E-02 0. -1.
    10030    2    1    2    0    0  0.00000000000E+00  0.00000000000E+00  0.77295805032E+03  0.35352367103E+04  0.34497006320E+04 0.  0.
        5    1    3    3  502    0  0.16052114990E+03 -0.10877937768E+04  0.17483482726E+04  0.20653828005E+04  0.46999998093E+01 0.  1.
       -5    1    3    3    0  502 -0.16052114990E+03  0.10877937768E+04 -0.97539022226E+03  0.14698539098E+04  0.46999998093E+01 0. -1.
</event>
<event>
 5   0  0.1361560E-06  0.3575001E+04  0.7818609E-02  0.8096242E-01
        2   -1    0    0  501    0  0.00000000000E+00  0.00000000000E+00  0.15330204122E+04  0.15330204122E+04  0.25500000920E-02 0. -1.
       -2   -1    0    0    0  501  0.00000000000E+00  0.00000000000E+00 -0.20842235505E+04  0.20842235505E+04  0.25500000920E-02 0.  1.
    10030    2    1    2    0    0  0.00000000000E+00  0.00000000000E+00 -0.55120313822E+03  0.36172439627E+04  0.35750005575E+04 0.  0.
        3    1    3    3  502    0  0.13381812852E+04 -0.11741846555E+04 -0.11333676579E+03  0.17838957340E+04  0.10100000352E+00 0. -1.
       -3    1    3    3    0  502 -0.13381812852E+04  0.11741846555E+04 -0.43786637242E+03  0.18333482287E+04  0.10100000352E+00 0.  1.
</event>
<event>
 5   0  0.4409125E-07  0.3524591E+04  0.7818609E-02  0.8107987E-01
        1   -1    0    0  501    0  0.00000000000E+00  0.00000000000E+00  0.19979334190E+04  0.19979334190E+04  0.50400001928E-02 0.  1.
       -1   -1    0    0    0  501  0.00000000000E+00  0.00000000000E+00 -0.15544490157E+04  0.15544490157E+04  0.50400001928E-02 0. -1.
    10030    2    1    2    0    0  0.00000000000E+00  0.00000000000E+00  0.44348440327E+03  0.35523824348E+04  0.35245911177E+04 0.  0.
        5    1    3    3  502    0  0.11765235584E+04 -0.11647488088E+04 -0.38702038720E+03  0.17001924424E+04  0.46999998093E+01 0. -1.
       -5    1    3    3    0  502 -0.11765235584E+04  0.11647488088E+04  0.83050479047E+03  0.18521899924E+04  0.46999998093E+01 0.  1.
</event>
<event>
 5   0  0.1348388E-06  0.3495630E+04  0.7818609E-02  0.8114826E-01
        2   -1    0    0  501    0  0.00000000000E+00  0.00000000000E+00  0.94815187198E+03  0.94815187198E+03  0.25500000920E-02 0.  1.
       -2   -1    0    0    0  501  0.00000000000E+00  0.00000000000E+00 -0.32219074117E+04  0.32219074117E+04  0.25500000920E-02 0. -1.
    10030    2    1    2    0    0  0.00000000000E+00  0.00000000000E+00 -0.22737555398E+04  0.41700592837E+04  0.34956301542E+04 0.  0.
        5    1    3    3  502    0 -0.75781730238E+03 -0.81052621132E+03  0.47406839036E+03  0.12066493823E+04  0.46999998093E+01 0.  1.
       -5    1    3    3    0  502  0.75781730238E+03  0.81052621132E+03 -0.27478239301E+04  0.29634099014E+04  0.46999998093E+01 0. -1.
</event>
<event>
 5   0  0.1378620E-06  0.3468191E+04  0.7818609E-02  0.8121370E-01
        2   -1    0    0  501    0  0.00000000000E+00  0.00000000000E+00  0.26670280555E+04  0.26670280555E+04  0.25500000920E-02 0.  1.
       -2   -1    0    0    0  501  0.00000000000E+00  0.00000000000E+00 -0.11275049201E+04  0.11275049201E+04  0.25500000920E-02 0. -1.
    10030    2    1    2    0    0  0.00000000000E+00  0.00000000000E+00  0.15395231355E+04  0.37945329756E+04  0.34681910296E+04 0.  0.
        2    1    3    3  502    0  0.50307955157E+03  0.34572593294E+03 -0.10060713322E+04  0.11767731223E+04  0.25500000920E-02 0. -1.
       -2    1    3    3    0  502 -0.50307955157E+03 -0.34572593294E+03  0.25455944676E+04  0.26177598533E+04  0.25500000920E-02 0.  1.
</event>
<event>
 5   0  0.1348388E-06  0.3494116E+04  0.7818609E-02  0.8115186E-01
        2   -1    0    0  501    0  0.00000000000E+00  0.00000000000E+00  0.21894534758E+04  0.21894534758E+04  0.25500000920E-02 0.  1.
       -2   -1    0    0    0  501  0.00000000000E+00  0.00000000000E+00 -0.13940519130E+04  0.13940519130E+04  0.25500000920E-02 0. -1.
    10030    2    1    2    0    0  0.00000000000E+00  0.00000000000E+00  0.79540156282E+03  0.35835053888E+04  0.34941160864E+04 0.  0.
        5    1    3    3  502    0  0.87465036352E+03  0.14278556639E+03  0.19418037417E+04  0.21344846773E+04  0.46999998093E+01 0.  1.
       -5    1    3    3    0  502 -0.87465036352E+03 -0.14278556639E+03 -0.11464021789E+04  0.14490207115E+04  0.46999998093E+01 0. -1.
</event>
<event>
 5   0  0.4693374E-07  0.3503746E+04  0.7818609E-02  0.8112903E-01
       -1   -1    0    0    0  501  0.00000000000E+00  0.00000000000E+00  0.32414355244E+04  0.32414355244E+04  0.50400001928E-02 0. -1.
        1   -1    0    0  501    0  0.00000000000E+00  0.00000000000E+00 -0.94682104120E+03  0.94682104121E+03  0.50400001928E-02 0.  1.
    10030    2    1    2    0    0  0.00000000000E+00  0.00000000000E+00  0.22946144832E+04  0.41882565656E+04  0.35037461999E+04 0.  0.
        1    1    3    3  502    0 -0.93278309853E+03  0.21633675462E+03  0.29009425203E+04  0.30548900809E+04  0.50400001928E-02 0. -1.
       -1    1    3    3    0  502  0.93278309853E+03 -0.21633675462E+03 -0.60632803703E+03  0.11333664848E+04  0.50400001928E-02 0.  1.
</event>
<event>
 5   0  0.1378620E-06  0.3365502E+04  0.7818609E-02  0.8146425E-01
        2   -1    0    0  501    0  0.00000000000E+00  0.00000000000E+00  0.23958004871E+04  0.23958004871E+04  0.25500000920E-02 0. -1.
       -2   -1    0    0    0  501  0.00000000000E+00  0.00000000000E+00 -0.11819229821E+04  0.11819229821E+04  0.25500000920E-02 0.  1.
    10030    2    1    2    0    0  0.00000000000E+00  0.00000000000E+00  0.12138775050E+04  0.35777234691E+04  0.33655024327E+04 0.  0.
        2    1    3    3  502    0  0.39732314918E+03 -0.39388845155E+03 -0.10801569713E+04  0.12164509360E+04  0.25500000920E-02 0.  1.
       -2    1    3    3    0  502 -0.39732314918E+03  0.39388845155E+03  0.22940344763E+04  0.23612725331E+04  0.25500000920E-02 0. -1.
</event>
<event>
 5   0  0.4409125E-07  0.3472401E+04  0.7818609E-02  0.8120362E-01
        1   -1    0    0  501    0  0.00000000000E+00  0.00000000000E+00  0.12690042167E+04  0.12690042167E+04  0.50400001928E-02 0. -1.
       -1   -1    0    0    0  501  0.00000000000E+00  0.00000000000E+00 -0.23753993694E+04  0.23753993694E+04  0.50400001928E-02 0.  1.
    10030    2    1    2    0    0  0.00000000000E+00  0.00000000000E+00 -0.11063951527E+04  0.36444035861E+04  0.34724007926E+04 0.  0.
        5    1    3    3  502    0  0.96879212351E+03 -0.18569301381E+03  0.94632562823E+03  0.13669653831E+04  0.46999998093E+01 0. -1.
       -5    1    3    3    0  502 -0.96879212351E+03  0.18569301381E+03 -0.20527207810E+04  0.22774382030E+04  0.46999998093E+01 0.  1.
</event>
<event>
 5   0  0.4700769E-07  0.3536614E+04  0.7818609E-02  0.8105167E-01
        1   -1    0    0  501    0  0.00000000000E+00  0.00000000000E+00  0.21387193048E+04  0.21387193048E+04  0.50400001928E-02 0. -1.
       -1   -1    0    0    0  501  0.00000000000E+00  0.00000000000E+00 -0.14620473705E+04  0.14620473705E+04  0.50400001928E-02 0.  1.
    10030    2    1    2    0    0  0.00000000000E+00  0.00000000000E+00  0.67667193425E+03  0.36007666753E+04  0.35366135983E+04 0.  0.
        3    1    3    3  502    0 -0.36341829680E+03 -0.52756245116E+03 -0.13397466402E+04  0.14850306625E+04  0.10100000352E+00 0.  1.
       -3    1    3    3    0  502  0.36341829680E+03  0.52756245116E+03  0.20164185745E+04  0.21157360128E+04  0.10100000352E+00 0. -1.
</event>
<event>
 5   0  0.1387133E-06  0.3458743E+04  0.7818609E-02  0.8123638E-01
        2   -1    0    0  501    0  0.00000000000E+00  0.00000000000E+00  0.21794563450E+04  0.21794563450E+04  0.25500000920E-02 0. -1.
       -2   -1    0    0    0  501  0.00000000000E+00  0.00000000000E+00 -0.13722346759E+04  0.13722346759E+04  0.25500000920E-02 0.  1.
    10030    2    1    2    0    0  0.00000000000E+00  0.00000000000E+00  0.80722166904E+03  0.35516910209E+04  0.34587428764E+04 0.  0.
        4    1    3    3  502    0 -0.10791113666E+04  0.10163489047E+04  0.13182072048E+04  0.19837132569E+04  0.12699999809E+01 0. -1.
       -4    1    3    3    0  502  0.10791113666E+04 -0.10163489047E+04 -0.51098553581E+03  0.15679777640E+04  0.12699999809E+01 0.  1.
</event>
<event>
 5   0  0.4409125E-07  0.3541537E+04  0.7818609E-02  0.8104016E-01
        1   -1    0    0  501    0  0.00000000000E+00  0.00000000000E+00  0.14926367372E+04  0.14926367372E+04  0.50400001928E-02 0.  1.
       -1   -1    0    0    0  501  0.00000000000E+00  0.00000000000E+00 -0.21007265240E+04  0.21007265240E+04  0.50400001928E-02 0. -1.
    10030    2    1    2    0    0  0.00000000000E+00  0.00000000000E+00 -0.60808978678E+03  0.35933632612E+04  0.35415372845E+04 0.  0.
        5    1    3    3  502    0  0.26553458916E+03 -0.15419042866E+03 -0.20735022132E+04  0.20961194681E+04  0.46999998093E+01 0. -1.
       -5    1    3    3    0  502 -0.26553458916E+03  0.15419042866E+03  0.14654124264E+04  0.14972437931E+04  0.46999998093E+01 0.  1.
</event>
<event>
 5   0  0.4693374E-07  0.3608627E+04  0.7818609E-02  0.8088518E-01
       -1   -1    0    0    0  501  0.00000000000E+00  0.00000000000E+00  0.13985218436E+04  0.13985218436E+04  0.50400001928E-02 0. -1.
        1   -1    0    0  501    0  0.00000000000E+00  0.00000000000E+00 -0.23278489060E+04  0.23278489060E+04  0.50400001928E-02 0.  1.
    10030    2    1    2    0    0  0.00000000000E+00  0.00000000000E+00 -0.92932706241E+03  0.37263707497E+04  0.36086271871E+04 0.  0.
        1    1    3    3  502    0  0.32163016881E+03  0.10760970960E+04 -0.19228710119E+04  0.22268506581E+04  0.50400001928E-02 0.  1.
       -1    1    3    3    0  502 -0.32163016881E+03 -0.10760970960E+04  0.99354394945E+03  0.14995200915E+04  0.50400001928E-02 0. -1.
</event>
<event>
 5   0  0.4409125E-07  0.3487267E+04  0.7818609E-02  0.8116814E-01
        1   -1    0    0  501    0  0.00000000000E+00  0.00000000000E+00  0.19550179929E+04  0.19550179929E+04  0.50400001928E-02 0. -1.
       -1   -1    0    0    0  501  0.00000000000E+00  0.00000000000E+00 -0.15551046727E+04  0.15551046727E+04  0.50400001928E-02 0.  1.
    10030    2    1    2    0    0  0.00000000000E+00  0.00000000000E+00  0.39991332025E+03  0.35101226656E+04  0.34872669046E+04 0.  0.
        5    1    3    3  502    0 -0.17249843235E+04  0.24099938760E+03  0.28162973023E+03  0.17643664631E+04  0.46999998093E+01 0. -1.
       -5    1    3    3    0  502  0.17249843235E+04 -0.24099938760E+03  0.11828359002E+03  0.17457562026E+04  0.46999998093E+01 0.  1.
</event>
<event>
 5   0  0.1348388E-06  0.3454701E+04  0.7818609E-02  0.8124610E-01
       -2   -1    0    0    0  501  0.00000000000E+00  0.00000000000E+00  0.13913026082E+04  0.13913026082E+04  0.25500000920E-02 0.  1.
        2   -1    0    0  501    0  0.00000000000E+00  0.00000000000E+00 -0.21445653490E+04  0.21445653490E+04  0.25500000920E-02 0. -1.
    10030    2    1    2    0    0  0.00000000000E+00  0.00000000000E+00 -0.75326274085E+03  0.35358679572E+04  0.34547007763E+04 0.  0.
        5    1    3    3  502    0 -0.43390732347E+03 -0.15202916071E+04  0.33552911531E+03  0.16162190487E+04  0.46999998093E+01 0.  1.
       -5    1    3    3    0  502  0.43390732347E+03  0.15202916071E+04 -0.10887918562E+04  0.19196489085E+04  0.46999998093E+01 0. -1.
</event>
<event>
 5   0  0.4693374E-07  0.3081282E+04  0.7818609E-02  0.8220894E-01
        1   -1    0    0  501    0  0.00000000000E+00  0.00000000000E+00  0.15317314561E+04  0.15317314561E+04  0.50400001928E-02 0. -1.
       -1   -1    0    0    0  501  0.00000000000E+00  0.00000000000E+00 -0.15496019932E+04  0.15496019932E+04  0.50400001928E-02 0.  1.
    10030    2    1    2    0    0  0.00000000000E+00  0.00000000000E+00 -0.17870537097E+02  0.30813334493E+04  0.30812816278E+04 0.  0.
        1    1    3    3  502    0  0.48801185145E+03 -0.90764768048E+03  0.11363325412E+04  0.15340246162E+04  0.50400001928E-02 0. -1.
       -1    1    3    3    0  502 -0.48801185145E+03  0.90764768048E+03 -0.11542030783E+04  0.15473088331E+04  0.50400001928E-02 0.  1.
</event>
<event>
 5   0  0.4409125E-07  0.3457570E+04  0.7818609E-02  0.8123920E-01
       -3   -1    0    0    0  501  0.00000000000E+00  0.00000000000E+00  0.20528516312E+04  0.20528516337E+04  0.10100000352E+00 0.  1.
        3   -1    0    0  501    0  0.00000000000E+00  0.00000000000E+00 -0.14558760974E+04  0.14558761009E+04  0.10100000352E+00 0. -1.
    10030    2    1    2    0    0  0.00000000000E+00  0.00000000000E+00  0.59697553384E+03  0.35087277345E+04  0.34575700321E+04 0.  0.
        1    1    3    3  502    0 -0.13361517213E+03 -0.12461915255E+04 -0.90986579641E+03  0.15487743864E+04  0.50400001928E-02 0. -1.
       -1    1    3    3    0  502  0.13361517213E+03  0.12461915255E+04  0.15068413302E+04  0.19599533482E+04  0.50400001928E-02 0.  1.
</event>
<event>
 5   0  0.1348388E-06  0.3292651E+04  0.7818609E-02  0.8164768E-01
       -2   -1    0    0    0  501  0.00000000000E+00  0.00000000000E+00  0.14516119028E+04  0.14516119028E+04  0.25500000920E-02 0.  1.
        2   -1    0    0  501    0  0.00000000000E+00  0.00000000000E+00 -0.18671570815E+04  0.18671570815E+04  0.25500000920E-02 0. -1.
    10030    2    1    2    0    0  0.00000000000E+00  0.00000000000E+00 -0.41554517874E+03  0.33187689843E+04  0.32926508736E+04 0.  0.
        5    1    3    3  502    0  0.11426826316E+04 -0.32402495352E+03 -0.13568372687E+04  0.18032596127E+04  0.46999998093E+01 0.  1.
       -5    1    3    3    0  502 -0.11426826316E+04  0.32402495352E+03  0.94129208994E+03  0.15155093716E+04  0.46999998093E+01 0. -1.
</event>
<event>
 5   0  0.4409125E-07  0.2959346E+04  0.7818609E-02  0.8255436E-01
       -1   -1    0    0    0  501  0.00000000000E+00  0.00000000000E+00  0.99960937848E+03  0.99960937849E+03  0.50400001928E-02 0.  1.
        1   -1    0    0  501    0  0.00000000000E+00  0.00000000000E+00 -0.21902883575E+04  0.21902883575E+04  0.50400001928E-02 0. -1.
    10030    2    1    2    0    0  0.00000000000E+00  0.00000000000E+00 -0.11906789790E+04  0.31898977360E+04  0.29593464033E+04 0.  0.
        5    1    3    3  502    0 -0.67073115114E+03  0.98070331046E+03 -0.15459472741E+04  0.19497780193E+04  0.46999998093E+01 0. -1.
       -5    1    3    3    0  502  0.67073115114E+03 -0.98070331046E+03  0.35526829508E+03  0.12401197167E+04  0.46999998093E+01 0.  1.
</event>
<event>
 5   0  0.1387133E-06  0.3498812E+04  0.7818609E-02  0.8114071E-01
        2   -1    0    0  501    0  0.00000000000E+00  0.00000000000E+00  0.18271460239E+04  0.18271460239E+04  0.25500000920E-02 0.  1.
       -2   -1    0    0    0  501  0.00000000000E+00  0.00000000000E+00 -0.16749739014E+04  0.16749739014E+04  0.25500000920E-02 0. -1.
    10030    2    1    2    0    0  0.00000000000E+00  0.00000000000E+00  0.15217212250E+03  0.35021199253E+04  0.34988123151E+04 0.  0.
        4    1    3    3  502    0  0.18468641254E+03 -0.15343616829E+04 -0.74447270347E+03  0.17154055101E+04  0.12699999809E+01 0. -1.
       -4    1    3    3    0  502 -0.18468641254E+03  0.15343616829E+04  0.89664482596E+03  0.17867144153E+04  0.12699999809E+01 0.  1.
</event>
<event>
 5   0  0.4591195E-07  0.3504055E+04  0.7818609E-02  0.8112830E-01
       -1   -1    0    0    0  501  0.00000000000E+00  0.00000000000E+00  0.21105284801E+04  0.21105284801E+04  0.50400001928E-02 0. -1.
        1   -1    0    0  501    0  0.00000000000E+00  0.00000000000E+00 -0.14544229348E+04  0.14544229348E+04  0.50400001928E-02 0.  1.
    10030    2    1    2    0    0  0.00000000000E+00  0.00000000000E+00  0.65610554527E+03  0.35649514149E+04  0.35040553797E+04 0.  0.
        4    1    3    3  502    0  0.88477002326E+03  0.28548725923E+03  0.18388784951E+04  0.20605331110E+04  0.12699999809E+01 0. -1.
       -4    1    3    3    0  502 -0.88477002326E+03 -0.28548725923E+03 -0.11827729498E+04  0.15044183038E+04  0.12699999809E+01 0.  1.
</event>
<event>
 5   0  0.4557237E-07  0.3446672E+04  0.7818609E-02  0.8126546E-01
       -1   -1    0    0    0  501  0.00000000000E+00  0.00000000000E+00  0.13085046685E+04  0.13085046685E+04  0.50400001928E-02 0.  1.
        1   -1    0    0  501    0  0.00000000000E+00  0.00000000000E+00 -0.22696795721E+04  0.22696795721E+04  0.50400001928E-02 0. -1.
    10030    2    1    2    0    0  0.00000000000E+00  0.00000000000E+00 -0.96117490367E+03  0.35781842406E+04  0.34466716212E+04 0.  0.
        2    1    3    3  502    0  0.12255500914E+04  0.10091564340E+04 -0.11766297756E+04  0.19760636032E+04  0.25500000920E-02 0. -1.
       -2    1    3    3    0  502 -0.12255500914E+04 -0.10091564340E+04  0.21545487198E+03  0.16021206374E+04  0.25500000920E-02 0.  1.
</event>
<event>
 5   0  0.4700769E-07  0.3505631E+04  0.7818609E-02  0.8112457E-01
        1   -1    0    0  501    0  0.00000000000E+00  0.00000000000E+00  0.24671455632E+04  0.24671455632E+04  0.50400001928E-02 0.  1.
       -1   -1    0    0    0  501  0.00000000000E+00  0.00000000000E+00 -0.12453101604E+04  0.12453101604E+04  0.50400001928E-02 0. -1.
    10030    2    1    2    0    0  0.00000000000E+00  0.00000000000E+00  0.12218354028E+04  0.37124557237E+04  0.35056305779E+04 0.  0.
        3    1    3    3  502    0 -0.37222204400E+03 -0.16382958040E+04  0.11402038310E+04  0.20304253687E+04  0.10100000352E+00 0.  1.
       -3    1    3    3    0  502  0.37222204400E+03  0.16382958040E+04  0.81631571850E+02  0.16820303550E+04  0.10100000352E+00 0. -1.
</event>
<event>
 5   0  0.1361560E-06  0.2606794E+04  0.7818609E-02  0.8365897E-01
       -2   -1    0    0    0  501  0.00000000000E+00  0.00000000000E+00  0.92331982783E+03  0.92331982783E+03  0.25500000920E-02 0.  1.
        2   -1    0    0  501    0  0.00000000000E+00  0.00000000000E+00 -0.18399298144E+04  0.18399298144E+04  0.25500000920E-02 0. -1.
    10030    2    1    2    0    0  0.00000000000E+00  0.00000000000E+00 -0.91660998653E+03  0.27632496422E+04  0.26067939538E+04 0.  0.
        3    1    3    3  502    0 -0.23880902880E+03  0.72558440563E+03  0.66117745134E+03  0.10102762564E+04  0.10100000352E+00 0.  1.
       -3    1    3    3    0  502  0.23880902880E+03 -0.72558440563E+03 -0.15777874379E+04  0.17529733858E+04  0.10100000352E+00 0. -1.
</event>
<event>
 5   0  0.4557237E-07  0.2603012E+04  0.7818609E-02  0.8367179E-01
       -1   -1    0    0    0  501  0.00000000000E+00  0.00000000000E+00  0.13135973279E+04  0.13135973279E+04  0.50400001928E-02 0. -1.
        1   -1    0    0  501    0  0.00000000000E+00  0.00000000000E+00 -0.12895259073E+04  0.12895259074E+04  0.50400001928E-02 0.  1.
    10030    2    1    2    0    0  0.00000000000E+00  0.00000000000E+00  0.24071420508E+02  0.26031232352E+04  0.26030119371E+04 0.  0.
        2    1    3    3  502    0  0.41431796725E+03 -0.13983067156E+03  0.12379371328E+04  0.13128976882E+04  0.25500000920E-02 0. -1.
       -2    1    3    3    0  502 -0.41431796725E+03  0.13983067156E+03 -0.12138657123E+04  0.12902255471E+04  0.25500000920E-02 0.  1.
</event>
<event>
 5   0  0.4557237E-07  0.3557387E+04  0.7818609E-02  0.8100323E-01
       -1   -1    0    0    0  501  0.00000000000E+00  0.00000000000E+00  0.17773670267E+04  0.17773670267E+04  0.50400001928E-02 0.  1.
        1   -1    0    0  501    0  0.00000000000E+00  0.00000000000E+00 -0.17800208530E+04  0.17800208530E+04  0.50400001928E-02 0. -1.
    10030    2    1    2    0    0  0.00000000000E+00  0.00000000000E+00 -0.26538262538E+01  0.35573878797E+04  0.35573868898E+04 0.  0.
        2    1    3    3  502    0  0.81177029661E+03  0.12255691356E+04  0.10000522401E+04  0.17779469068E+04  0.25500000920E-02 0.  1.
       -2    1    3    3    0  502 -0.81177029661E+03 -0.12255691356E+04 -0.10027060663E+04  0.17794409729E+04  0.25500000920E-02 0. -1.
</event>
<event>
 5   0  0.1348388E-06  0.2913356E+04  0.7818609E-02  0.8268915E-01
        2   -1    0    0  501    0  0.00000000000E+00  0.00000000000E+00  0.13537920046E+04  0.13537920046E+04  0.25500000920E-02 0. -1.
       -2   -1    0    0    0  501  0.00000000000E+00  0.00000000000E+00 -0.15673828416E+04  0.15673828416E+04  0.25500000920E-02 0.  1.
    10030    2    1    2    0    0  0.00000000000E+00  0.00000000000E+00 -0.21359083705E+03  0.29211748462E+04  0.29133557003E+04 0.  0.
        5    1    3    3  502    0  0.61402729103E+03  0.10330059048E+04 -0.93226528501E+03  0.15209442347E+04  0.46999998093E+01 0.  1.
       -5    1    3    3    0  502 -0.61402729103E+03 -0.10330059048E+04  0.71867444796E+03  0.14002306116E+04  0.46999998093E+01 0. -1.
</event>
<event>
 5   0  0.1387133E-06  0.3491119E+04  0.7818609E-02  0.8115898E-01
        2   -1    0    0  501    0  0.00000000000E+00  0.00000000000E+00  0.19973797110E+04  0.19973797110E+04  0.25500000920E-02 0.  1.
       -2   -1    0    0    0  501  0.00000000000E+00  0.00000000000E+00 -0.15254872252E+04  0.15254872252E+04  0.25500000920E-02 0. -1.
    10030    2    1    2    0    0  0.00000000000E+00  0.00000000000E+00  0.47189248576E+03  0.35228669362E+04  0.34911185789E+04 0.  0.
        4    1    3    3  502    0 -0.11158113190E+04  0.12288907632E+04  0.78101416851E+03  0.18344460068E+04  0.12699999809E+01 0.  1.
       -4    1    3    3    0  502  0.11158113190E+04 -0.12288907632E+04 -0.30912168276E+03  0.16884209295E+04  0.12699999809E+01 0. -1.
</event>
<event>
 5   0  0.4557237E-07  0.3399638E+04  0.7818609E-02  0.8137995E-01
        1   -1    0    0  501    0  0.00000000000E+00  0.00000000000E+00  0.15212082909E+04  0.15212082909E+04  0.50400001928E-02 0.  1.
       -1   -1    0    0    0  501  0.00000000000E+00  0.00000000000E+00 -0.18994011686E+04  0.18994011686E+04  0.50400001928E-02 0. -1.
    10030    2    1    2    0    0  0.00000000000E+00  0.00000000000E+00 -0.37819287772E+03  0.34206094594E+04  0.33996381015E+04 0.  0.
        2    1    3    3  502    0  0.90863914001E+03  0.30708349835E+03  0.12229348668E+04  0.15541862984E+04  0.25500000920E-02 0.  1.
       -2    1    3    3    0  502 -0.90863914001E+03 -0.30708349835E+03 -0.16011277445E+04  0.18664231610E+04  0.25500000920E-02 0. -1.
</event>
<event>
 5   0  0.4700769E-07  0.3502765E+04  0.7818609E-02  0.8113135E-01
       -1   -1    0    0    0  501  0.00000000000E+00  0.00000000000E+00  0.12173613754E+04  0.12173613754E+04  0.50400001928E-02 0. -1.
        1   -1    0    0  501    0  0.00000000000E+00  0.00000000000E+00 -0.25196632878E+04  0.25196632878E+04  0.50400001928E-02 0.  1.
    10030    2    1    2    0    0  0.00000000000E+00  0.00000000000E+00 -0.13023019123E+04  0.37370246632E+04  0.35027650596E+04 0.  0.
        3    1    3    3  502    0  0.12316782045E+04 -0.11441083955E+04 -0.12704801802E+03  0.16858696358E+04  0.10100000352E+00 0. -1.
       -3    1    3    3    0  502 -0.12316782045E+04  0.11441083955E+04 -0.11752538943E+04  0.20511550274E+04  0.10100000352E+00 0.  1.
</event>
<event>
 5   0  0.4409125E-07  0.3454880E+04  0.7818609E-02  0.8124567E-01
       -1   -1    0    0    0  501  0.00000000000E+00  0.00000000000E+00  0.14785613135E+04  0.14785613135E+04  0.50400001928E-02 0.  1.
        1   -1    0    0  501    0  0.00000000000E+00  0.00000000000E+00 -0.20182106138E+04  0.20182106138E+04  0.50400001928E-02 0. -1.
    10030    2    1    2    0    0  0.00000000000E+00  0.00000000000E+00 -0.53964930034E+03  0.34967719273E+04  0.34548795267E+04 0.  0.
        5    1    3    3  502    0 -0.36964758125E+03 -0.10733778673E+03  0.14345976161E+04  0.14853461364E+04  0.46999998093E+01 0.  1.
       -5    1    3    3    0  502  0.36964758125E+03  0.10733778673E+03 -0.19742469165E+04  0.20114257908E+04  0.46999998093E+01 0. -1.
</event>
<event>
 5   0  0.1378620E-06  0.3437051E+04  0.7818609E-02  0.8128872E-01
       -2   -1    0    0    0  501  0.00000000000E+00  0.00000000000E+00  0.14185680257E+04  0.14185680257E+04  0.25500000920E-02 0.  1.
        2   -1    0    0  501    0  0.00000000000E+00  0.00000000000E+00 -0.20819095037E+04  0.20819095037E+04  0.25500000920E-02 0. -1.
    10030    2    1    2    0    0  0.00000000000E+00  0.00000000000E+00 -0.66334147807E+03  0.35004775294E+04  0.34370512096E+04 0.  0.
        2    1    3    3  502    0 -0.38719873020E+03 -0.13979981050E+04 -0.12700909669E+04  0.19280696623E+04  0.25500000920E-02 0. -1.
       -2    1    3    3    0  502  0.38719873020E+03  0.13979981050E+04  0.60674948883E+03  0.15724078671E+04  0.25500000920E-02 0.  1.
</event>
<event>
 5   0  0.4693374E-07  0.3488254E+04  0.7818609E-02  0.8116579E-01
        1   -1    0    0  501    0  0.00000000000E+00  0.00000000000E+00  0.21935446397E+04  0.21935446397E+04  0.50400001928E-02 0. -1.
       -1   -1    0    0    0  501  0.00000000000E+00  0.00000000000E+00 -0.13867872369E+04  0.13867872369E+04  0.50400001928E-02 0.  1.
    10030    2    1    2    0    0  0.00000000000E+00  0.00000000000E+00  0.80675740276E+03  0.35803318766E+04  0.34882544116E+04 0.  0.
        1    1    3    3  502    0  0.40493174866E+03 -0.55765806134E+03  0.20478655003E+04  0.21607187095E+04  0.50400001928E-02 0. -1.
       -1    1    3    3    0  502 -0.40493174866E+03  0.55765806134E+03 -0.12411080975E+04  0.14196131671E+04  0.50400001928E-02 0.  1.
</event>
<event>
 5   0  0.1348388E-06  0.2825219E+04  0.7818609E-02  0.8295481E-01
        2   -1    0    0  501    0  0.00000000000E+00  0.00000000000E+00  0.14333946037E+04  0.14333946037E+04  0.25500000920E-02 0.  1.
       -2   -1    0    0    0  501  0.00000000000E+00  0.00000000000E+00 -0.13921254908E+04  0.13921254908E+04  0.25500000920E-02 0. -1.
    10030    2    1    2    0    0  0.00000000000E+00  0.00000000000E+00  0.41269112889E+02  0.28255200944E+04  0.28252186932E+04 0.  0.
        5    1    3    3  502    0  0.86485525589E+02 -0.44336509654E+03 -0.13179366824E+04  0.13932090811E+04  0.46999998093E+01 0. -1.
       -5    1    3    3    0  502 -0.86485525589E+02  0.44336509654E+03  0.13592057953E+04  0.14323110133E+04  0.46999998093E+01 0.  1.
</event>
<event>
 5   0  0.4700769E-07  0.3430904E+04  0.7818609E-02  0.8130363E-01
        1   -1    0    0  501    0  0.00000000000E+00  0.00000000000E+00  0.22859507454E+04  0.22859507454E+04  0.50400001928E-02 0. -1.
       -1   -1    0    0    0  501  0.00000000000E+00  0.00000000000E+00 -0.12873308877E+04  0.12873308877E+04  0.50400001928E-02 0.  1.
    10030    2    1    2    0    0  0.00000000000E+00  0.00000000000E+00  0.99861985772E+03  0.35732816331E+04  0.34309036724E+04 0.  0.
        3    1    3    3  502    0 -0.15138976255E+04 -0.39192404002E+03  0.12337581642E+04  0.19918960042E+04  0.10100000352E+00 0. -1.
       -3    1    3    3    0  502  0.15138976255E+04  0.39192404002E+03 -0.23513830647E+03  0.15813856289E+04  0.10100000352E+00 0.  1.
</event>
<event>
 5   0  0.1378620E-06  0.3626810E+04  0.7818609E-02  0.8084378E-01
        2   -1    0    0  501    0  0.00000000000E+00  0.00000000000E+00  0.19558316671E+04  0.19558316671E+04  0.25500000920E-02 0. -1.
       -2   -1    0    0    0  501  0.00000000000E+00  0.00000000000E+00 -0.16813497708E+04  0.16813497708E+04  0.25500000920E-02 0.  1.
    10030    2    1    2    0    0  0.00000000000E+00  0.00000000000E+00  0.27448189632E+03  0.36371814380E+04  0.36268096864E+04 0.  0.
        2    1    3    3  502    0 -0.13955010891E+04 -0.88993716234E+03  0.88032258558E+03  0.18746677832E+04  0.25500000920E-02 0. -1.
       -2    1    3    3    0  502  0.13955010891E+04  0.88993716234E+03 -0.60584068926E+03  0.17625136548E+04  0.25500000920E-02 0.  1.
</event>
<event>
 5   0  0.1348388E-06  0.3433279E+04  0.7818609E-02  0.8129787E-01
       -2   -1    0    0    0  501  0.00000000000E+00  0.00000000000E+00  0.23044151945E+04  0.23044151945E+04  0.25500000920E-02 0. -1.
        2   -1    0    0  501    0  0.00000000000E+00  0.00000000000E+00 -0.12787846201E+04  0.12787846201E+04  0.25500000920E-02 0.  1.
    10030    2    1    2    0    0  0.00000000000E+00  0.00000000000E+00  0.10256305744E+04  0.35831998146E+04  0.34332787297E+04 0.  0.
        5    1    3    3  502    0 -0.73457859093E+03 -0.44876554485E+03  0.20628742535E+04  0.22352781698E+04  0.46999998093E+01 0. -1.
       -5    1    3    3    0  502  0.73457859093E+03  0.44876554485E+03 -0.10372436792E+04  0.13479216448E+04  0.46999998093E+01 0.  1.
</event>
<event>
 5   0  0.4693374E-07  0.2748434E+04  0.7818609E-02  0.8319459E-01
       -1   -1    0    0    0  501  0.00000000000E+00  0.00000000000E+00  0.96811458475E+03  0.96811458476E+03  0.50400001928E-02 0. -1.
        1   -1    0    0  501    0  0.00000000000E+00  0.00000000000E+00 -0.19506697771E+04  0.19506697771E+04  0.50400001928E-02 0.  1.
    10030    2    1    2    0    0  0.00000000000E+00  0.00000000000E+00 -0.98255519235E+03  0.29187843619E+04  0.27484336348E+04 0.  0.
        1    1    3    3  502    0  0.43748400053E+03  0.69585836155E+03  0.67828165129E+03  0.10656815230E+04  0.50400001928E-02 0. -1.
       -1    1    3    3    0  502 -0.43748400053E+03 -0.69585836155E+03 -0.16608368436E+04  0.18531028388E+04  0.50400001928E-02 0.  1.
</event>
<event>
 5   0  0.4591195E-07  0.3498582E+04  0.7818609E-02  0.8114126E-01
        1   -1    0    0  501    0  0.00000000000E+00  0.00000000000E+00  0.19369484045E+04  0.19369484045E+04  0.50400001928E-02 0.  1.
       -1   -1    0    0    0  501  0.00000000000E+00  0.00000000000E+00 -0.15798148587E+04  0.15798148587E+04  0.50400001928E-02 0. -1.
    10030    2    1    2    0    0  0.00000000000E+00  0.00000000000E+00  0.35713354579E+03  0.35167632632E+04  0.34985824958E+04 0.  0.
        4    1    3    3  502    0 -0.35829611992E+03 -0.33056134753E+03  0.18672885039E+04  0.19298743181E+04  0.12699999809E+01 0.  1.
       -4    1    3    3    0  502  0.35829611992E+03  0.33056134753E+03 -0.15101549581E+04  0.15868889452E+04  0.12699999809E+01 0. -1.
</event>
<event>
 5   0  0.1361560E-06  0.3327564E+04  0.7818609E-02  0.8155917E-01
       -2   -1    0    0    0  501  0.00000000000E+00  0.00000000000E+00  0.10190183885E+04  0.10190183885E+04  0.25500000920E-02 0.  1.
        2   -1    0    0  501    0  0.00000000000E+00  0.00000000000E+00 -0.27165071989E+04  0.27165071989E+04  0.25500000920E-02 0. -1.
    10030    2    1    2    0    0  0.00000000000E+00  0.00000000000E+00 -0.16974888105E+04  0.37355255874E+04  0.33275641470E+04 0.  0.
        3    1    3    3  502    0 -0.86085340685E+03  0.13977239771E+04 -0.11530289720E+04  0.20060350757E+04  0.10100000352E+00 0. -1.
       -3    1    3    3    0  502  0.86085340685E+03 -0.13977239771E+04 -0.54445983849E+03  0.17294905118E+04  0.10100000352E+00 0.  1.
</event>
<event>
 5   0  0.4409125E-07  0.3934090E+04  0.7818609E-02  0.8017976E-01
        1   -1    0    0  501    0  0.00000000000E+00  0.00000000000E+00  0.22419645169E+04  0.22419645169E+04  0.50400001928E-02 0.  1.
       -1   -1    0    0    0  501  0.00000000000E+00  0.00000000000E+00 -0.17258370148E+04  0.17258370148E+04  0.50400001928E-02 0. -1.
    10030    2    1    2    0    0  0.00000000000E+00  0.00000000000E+00  0.51612750207E+03  0.39678015317E+04  0.39340896529E+04 0.  0.
        5    1    3    3  502    0 -0.16332351716E+03 -0.17081198156E+04  0.12280196618E+04  0.21100716233E+04  0.46999998093E+01 0.  1.
       -5    1    3    3    0  502  0.16332351716E+03  0.17081198156E+04 -0.71189215972E+03  0.18577299084E+04  0.46999998093E+01 0. -1.
</event>
<event>
 5   0  0.1442864E-06  0.3503449E+04  0.7818609E-02  0.8112973E-01
       -2   -1    0    0    0  501  0.00000000000E+00  0.00000000000E+00  0.12070875384E+04  0.12070875384E+04  0.25500000920E-02 0.  1.
        2   -1    0    0  501    0  0.00000000000E+00  0.00000000000E+00 -0.25421011878E+04  0.25421011878E+04  0.25500000920E-02 0. -1.
    10030    2    1    2    0    0  0.00000000000E+00  0.00000000000E+00 -0.13350136494E+04  0.37491887263E+04  0.35034489666E+04 0.  0.
        1    1    3    3  502    0  0.45883491363E+03  0.11951411918E+03 -0.24721250859E+04  0.25171840503E+04  0.50400001928E-02 0. -1.
       -1    1    3    3    0  502 -0.45883491363E+03 -0.11951411918E+03  0.11371114365E+04  0.12320046760E+04  0.50400001928E-02 0.  1.
</event>
<event>
 5   0  0.4693374E-07  0.3441156E+04  0.7818609E-02  0.8127879E-01
       -1   -1    0    0    0  501  0.00000000000E+00  0.00000000000E+00  0.14248714437E+04  0.14248714437E+04  0.50400001928E-02 0. -1.
        1   -1    0    0  501    0  0.00000000000E+00  0.00000000000E+00 -0.20776526806E+04  0.20776526806E+04  0.50400001928E-02 0.  1.
    10030    2    1    2    0    0  0.00000000000E+00  0.00000000000E+00 -0.65278123693E+03  0.35025241244E+04  0.34411556051E+04 0.  0.
        1    1    3    3  502    0 -0.10649378742E+04  0.88186057755E+03  0.71589157101E+03  0.15570072240E+04  0.50400001928E-02 0. -1.
       -1    1    3    3    0  502  0.10649378742E+04 -0.88186057755E+03 -0.13686728079E+04  0.19455169003E+04  0.50400001928E-02 0.  1.
</event>
<event>
 5   0  0.1378620E-06  0.3458772E+04  0.7818609E-02  0.8123630E-01
        2   -1    0    0  501    0  0.00000000000E+00  0.00000000000E+00  0.23122618114E+04  0.23122618114E+04  0.25500000920E-02 0.  1.
       -2   -1    0    0    0  501  0.00000000000E+00  0.00000000000E+00 -0.12934420280E+04  0.12934420280E+04  0.25500000920E-02 0. -1.
    10030    2    1    2    0    0  0.00000000000E+00  0.00000000000E+00  0.10188197834E+04  0.36057038394E+04  0.34587723872E+04 0.  0.
        2    1    3    3  502    0 -0.16136513437E+04 -0.52082010830E+02  0.11555742897E+04  0.19854307175E+04  0.25500000920E-02 0. -1.
       -2    1    3    3    0  502  0.16136513437E+04  0.52082010830E+02 -0.13675450631E+03  0.16202731220E+04  0.25500000920E-02 0.  1.
</event>
<event>
 5   0  0.4700769E-07  0.3088633E+04  0.7818609E-02  0.8218864E-01
       -1   -1    0    0    0  501  0.00000000000E+00  0.00000000000E+00  0.15853520890E+04  0.15853520890E+04  0.50400001928E-02 0. -1.
        1   -1    0    0  501    0  0.00000000000E+00  0.00000000000E+00 -0.15043433027E+04  0.15043433027E+04  0.50400001928E-02 0.  1.
    10030    2    1    2    0    0  0.00000000000E+00  0.00000000000E+00  0.81008786261E+02  0.30896953917E+04  0.30886332236E+04 0.  0.
        3    1    3    3  502    0  0.43344939068E+03 -0.84228968697E+03  0.12605891523E+04  0.15768371229E+04  0.10100000352E+00 0. -1.
       -3    1    3    3    0  502 -0.43344939068E+03  0.84228968697E+03 -0.11795803661E+04  0.15128582687E+04  0.10100000352E+00 0.  1.
</event>
<event>
 5   0  0.1387133E-06  0.3289863E+04  0.7818609E-02  0.8165479E-01
       -2   -1    0    0    0  501  0.00000000000E+00  0.00000000000E+00  0.21980914463E+04  0.21980914463E+04  0.25500000920E-02 0.  1.
        2   -1    0    0  501    0  0.00000000000E+00  0.00000000000E+00 -0.12309771543E+04  0.12309771543E+04  0.25500000920E-02 0. -1.
    10030    2    1    2    0    0  0.00000000000E+00  0.00000000000E+00  0.96711429202E+03  0.34290686006E+04  0.32898634339E+04 0.  0.
        4    1    3    3  502    0  0.18191050731E+03 -0.14384540116E+03 -0.12138512950E+04  0.12358072307E+04  0.12699999809E+01 0. -1.
       -4    1    3    3    0  502 -0.18191050731E+03  0.14384540116E+03  0.21809655870E+04  0.21932613699E+04  0.12699999809E+01 0.  1.
</event>
<event>
 5   0  0.1442864E-06  0.3500720E+04  0.7818609E-02  0.8113619E-01
       -2   -1    0    0    0  501  0.00000000000E+00  0.00000000000E+00  0.12056819205E+04  0.12056819205E+04  0.25500000920E-02 0. -1.
        2   -1    0    0  501    0  0.00000000000E+00  0.00000000000E+00 -0.25411013316E+04  0.25411013316E+04  0.25500000920E-02 0.  1.
    10030    2    1    2    0    0  0.00000000000E+00  0.00000000000E+00 -0.13354194112E+04  0.37467832521E+04  0.35007198880E+04 0.  0.
        1    1    3    3  502    0 -0.83540774834E+03  0.10479875572E+04  0.53729348405E+03  0.14439073080E+04  0.50400001928E-02 0. -1.
       -1    1    3    3    0  502  0.83540774834E+03 -0.10479875572E+04 -0.18727128952E+04  0.23028759441E+04  0.50400001928E-02 0.  1.
</event>
<event>
 5   0  0.4700769E-07  0.3604359E+04  0.7818609E-02  0.8089494E-01
        1   -1    0    0  501    0  0.00000000000E+00  0.00000000000E+00  0.10506522804E+04  0.10506522804E+04  0.50400001928E-02 0.  1.
       -1   -1    0    0    0  501  0.00000000000E+00  0.00000000000E+00 -0.30912716362E+04  0.30912716362E+04  0.50400001928E-02 0. -1.
    10030    2    1    2    0    0  0.00000000000E+00  0.00000000000E+00 -0.20406193559E+04  0.41419239166E+04  0.36043593571E+04 0.  0.
        3    1    3    3  502    0  0.15746187383E+04  0.35856222328E+02 -0.13814170102E+02  0.15750875154E+04  0.10100000352E+00 0.  1.
       -3    1    3    3    0  502 -0.15746187383E+04 -0.35856222328E+02 -0.20268051858E+04  0.25668364012E+04  0.10100000352E+00 0. -1.
</event>
<event>
 5   0  0.4409125E-07  0.3502064E+04  0.7818609E-02  0.8113301E-01
       -1   -1    0    0    0  501  0.00000000000E+00  0.00000000000E+00  0.30500352734E+04  0.30500352734E+04  0.50400001928E-02 0. -1.
        1   -1    0    0  501    0  0.00000000000E+00  0.00000000000E+00 -0.10052712684E+04  0.10052712684E+04  0.50400001928E-02 0.  1.
    10030    2    1    2    0    0  0.00000000000E+00  0.00000000000E+00  0.20447640050E+04  0.40553065417E+04  0.35020638646E+04 0.  0.
        5    1    3    3  502    0 -0.14855214819E+03  0.59811218250E+03 -0.87552817632E+03  0.10706902452E+04  0.46999998093E+01 0.  1.
       -5    1    3    3    0  502  0.14855214819E+03 -0.59811218250E+03  0.29202921813E+04  0.29846162966E+04  0.46999998093E+01 0. -1.
</event>
<event>
 5   0  0.4700769E-07  0.3423875E+04  0.7818609E-02  0.8132071E-01
       -1   -1    0    0    0  501  0.00000000000E+00  0.00000000000E+00  0.19943823287E+04  0.19943823287E+04  0.50400001928E-02 0.  1.
        1   -1    0    0  501    0  0.00000000000E+00  0.00000000000E+00 -0.14694923254E+04  0.14694923254E+04  0.50400001928E-02 0. -1.
    10030    2    1    2    0    0  0.00000000000E+00  0.00000000000E+00  0.52489000331E+03  0.34638746542E+04  0.34238747209E+04 0.  0.
        3    1    3    3  502    0  0.21831078559E+03 -0.95418304726E+03 -0.11584576556E+04  0.15166242240E+04  0.10100000352E+00 0. -1.
       -3    1    3    3    0  502 -0.21831078559E+03  0.95418304726E+03  0.16833476589E+04  0.19472504302E+04  0.10100000352E+00 0.  1.
</event>
<event>
 5   0  0.4409125E-07  0.3520660E+04  0.7818609E-02  0.8108911E-01
        3   -1    0    0  501    0  0.00000000000E+00  0.00000000000E+00  0.24499656198E+04  0.24499656219E+04  0.10100000352E+00 0.  1.
       -3   -1    0    0    0  501  0.00000000000E+00  0.00000000000E+00 -0.12648186748E+04  0.12648186788E+04  0.10100000352E+00 0. -1.
    10030    2    1    2    0    0  0.00000000000E+00  0.00000000000E+00  0.11851469450E+04  0.37147843007E+04  0.35206603243E+04 0.  0.
        1    1    3    3  502    0 -0.60142718310E+03 -0.30085622888E+03 -0.11239436691E+04  0.13097627642E+04  0.50400001928E-02 0. -1.
       -1    1    3    3    0  502  0.60142718310E+03  0.30085622888E+03  0.23090906141E+04  0.24050215365E+04  0.50400001928E-02 0.  1.
</event>
<event>
 5   0  0.1378620E-06  0.3427328E+04  0.7818609E-02  0.8131232E-01
       -2   -1    0    0    0  501  0.00000000000E+00  0.00000000000E+00  0.12101436413E+04  0.12101436413E+04  0.25500000920E-02 0.  1.
        2   -1    0    0  501    0  0.00000000000E+00  0.00000000000E+00 -0.24266907216E+04  0.24266907216E+04  0.25500000920E-02 0. -1.
    10030    2    1    2    0    0  0.00000000000E+00  0.00000000000E+00 -0.12165470802E+04  0.36368343629E+04  0.34273280241E+04 0.  0.
        2    1    3    3  502    0 -0.29149311778E+03 -0.16858982430E+04 -0.50526634088E+03  0.17839605373E+04  0.25500000920E-02 0.  1.
       -2    1    3    3    0  502  0.29149311778E+03  0.16858982430E+04 -0.71128073935E+03  0.18528738256E+04  0.25500000920E-02 0. -1.
</event>
<event>
 5   0  0.4700769E-07  0.3420486E+04  0.7818609E-02  0.8132897E-01
       -1   -1    0    0    0  501  0.00000000000E+00  0.00000000000E+00  0.20565915207E+04  0.20565915207E+04  0.50400001928E-02 0.  1.
        1   -1    0    0  501    0  0.00000000000E+00  0.00000000000E+00 -0.14222226135E+04  0.14222226135E+04  0.50400001928E-02 0. -1.
    10030    2    1    2    0    0  0.00000000000E+00  0.00000000000E+00  0.63436890727E+03  0.34788141342E+04  0.34204859114E+04 0.  0.
        3    1    3    3  502    0 -0.51065585460E+03  0.55092953739E+03 -0.12454526616E+04  0.14544569775E+04  0.10100000352E+00 0. -1.
       -3    1    3    3    0  502  0.51065585460E+03 -0.55092953739E+03  0.18798215688E+04  0.20243571567E+04  0.10100000352E+00 0.  1.
</event>
<event>
 5   0  0.1442864E-06  0.3491341E+04  0.7818609E-02  0.8115845E-01
        2   -1    0    0  501    0  0.00000000000E+00  0.00000000000E+00  0.19199285897E+04  0.19199285897E+04  0.25500000920E-02 0.  1.
       -2   -1    0    0    0  501  0.00000000000E+00  0.00000000000E+00 -0.15872281397E+04  0.15872281397E+04  0.25500000920E-02 0. -1.
    10030    2    1    2    0    0  0.00000000000E+00  0.00000000000E+00  0.33270045003E+03  0.35071567294E+04  0.34913405355E+04 0.  0.
        1    1    3    3  502    0 -0.14775732810E+04  0.82816397505E+02 -0.76374015470E+03  0.16653469249E+04  0.50400001928E-02 0. -1.
       -1    1    3    3    0  502  0.14775732810E+04 -0.82816397505E+02  0.10964406047E+04  0.18418098045E+04  0.50400001928E-02 0.  1.
</event>
<event>
 5   0  0.1387133E-06  0.3429855E+04  0.7818609E-02  0.8130618E-01
        2   -1    0    0  501    0  0.00000000000E+00  0.00000000000E+00  0.12493285297E+04  0.12493285297E+04  0.25500000920E-02 0.  1.
       -2   -1    0    0    0  501  0.00000000000E+00  0.00000000000E+00 -0.23540456096E+04  0.23540456096E+04  0.25500000920E-02 0. -1.
    10030    2    1    2    0    0  0.00000000000E+00  0.00000000000E+00 -0.11047170799E+04  0.36033741393E+04  0.34298550059E+04 0.  0.
        4    1    3    3  502    0 -0.13014566122E+04 -0.30579432069E+03  0.57607343505E+03  0.14557340745E+04  0.12699999809E+01 0.  1.
       -4    1    3    3    0  502  0.13014566122E+04  0.30579432069E+03 -0.16807905149E+04  0.21476400648E+04  0.12699999809E+01 0. -1.
</event>
<event>
 5   0  0.4409125E-07  0.3463059E+04  0.7818609E-02  0.8122601E-01
        1   -1    0    0  501    0  0.00000000000E+00  0.00000000000E+00  0.19847118892E+04  0.19847118892E+04  0.50400001928E-02 0. -1.
       -1   -1    0    0    0  501  0.00000000000E+00  0.00000000000E+00 -0.15106450576E+04  0.15106450576E+04  0.50400001928E-02 0.  1.
    10030    2    1    2    0    0  0.00000000000E+00  0.00000000000E+00  0.47406683157E+03  0.34953569468E+04  0.34630594602E+04 0.  0.
        5    1    3    3  502    0 -0.53831786385E+03 -0.13880749274E+04  0.11293800303E+04  0.18687052923E+04  0.46999998093E+01 0. -1.
       -5    1    3    3    0  502  0.53831786385E+03  0.13880749274E+04 -0.65531319874E+03  0.16266516545E+04  0.46999998093E+01 0.  1.
</event>
<event>
 5   0  0.1361560E-06  0.3182847E+04  0.7818609E-02  0.8193362E-01
        2   -1    0    0  501    0  0.00000000000E+00  0.00000000000E+00  0.15788390001E+04  0.15788390001E+04  0.25500000920E-02 0. -1.
       -2   -1    0    0    0  501  0.00000000000E+00  0.00000000000E+00 -0.16041081359E+04  0.16041081359E+04  0.25500000920E-02 0.  1.
    10030    2    1    2    0    0  0.00000000000E+00  0.00000000000E+00 -0.25269135800E+02  0.31829471361E+04  0.31828468298E+04 0.  0.
        3    1    3    3  502    0  0.34826466461E+03  0.95178325985E+03  0.12143714279E+04  0.15817324760E+04  0.10100000352E+00 0. -1.
       -3    1    3    3    0  502 -0.34826466461E+03 -0.95178325985E+03 -0.12396405637E+04  0.16012146601E+04  0.10100000352E+00 0.  1.
</event>
<event>
 5   0  0.1361560E-06  0.3645584E+04  0.7818609E-02  0.8080129E-01
        2   -1    0    0  501    0  0.00000000000E+00  0.00000000000E+00  0.25644538756E+04  0.25644538756E+04  0.25500000920E-02 0. -1.
       -2   -1    0    0    0  501  0.00000000000E+00  0.00000000000E+00 -0.12956251328E+04  0.12956251328E+04  0.25500000920E-02 0.  1.
    10030    2    1    2    0    0  0.00000000000E+00  0.00000000000E+00  0.12688287428E+04  0.38600790084E+04  0.36455841196E+04 0.  0.
        3    1    3    3  502    0 -0.57458771724E+03 -0.92336631053E+03  0.21832920916E+04  0.24391639460E+04  0.10100000352E+00 0. -1.
       -3    1    3    3    0  502  0.57458771724E+03  0.92336631053E+03 -0.91446334874E+03  0.14209150624E+04  0.10100000352E+00 0.  1.
</event>
<event>
 5   0  0.4557237E-07  0.3443261E+04  0.7818609E-02  0.8127369E-01
        1   -1    0    0  501    0  0.00000000000E+00  0.00000000000E+00  0.16563454765E+04  0.16563454765E+04  0.50400001928E-02 0. -1.
       -1   -1    0    0    0  501  0.00000000000E+00  0.00000000000E+00 -0.17894890119E+04  0.17894890119E+04  0.50400001928E-02 0.  1.
    10030    2    1    2    0    0  0.00000000000E+00  0.00000000000E+00 -0.13314353542E+03  0.34458344884E+04  0.34432612623E+04 0.  0.
        2    1    3    3  502    0  0.15515827691E+04 -0.49398623012E+03  0.49293508353E+03  0.17012984693E+04  0.25500000920E-02 0. -1.
       -2    1    3    3    0  502 -0.15515827691E+04  0.49398623012E+03 -0.62607861894E+03  0.17445360191E+04  0.25500000920E-02 0.  1.
</event>
<event>
 5   0  0.4409125E-07  0.3470104E+04  0.7818609E-02  0.8120912E-01
       -1   -1    0    0    0  501  0.00000000000E+00  0.00000000000E+00  0.93126393393E+03  0.93126393395E+03  0.50400001928E-02 0. -1.
        1   -1    0    0  501    0  0.00000000000E+00  0.00000000000E+00 -0.32326013561E+04  0.32326013561E+04  0.50400001928E-02 0.  1.
    10030    2    1    2    0    0  0.00000000000E+00  0.00000000000E+00 -0.23013374222E+04  0.41638652901E+04  0.34701037770E+04 0.  0.
        5    1    3    3  502    0  0.16430354780E+04 -0.33700545671E+03 -0.61775501069E+03  0.17873952006E+04  0.46999998093E+01 0. -1.
       -5    1    3    3    0  502 -0.16430354780E+04  0.33700545671E+03 -0.16835824115E+04  0.23764700895E+04  0.46999998093E+01 0.  1.
</event>
<event>
 5   0  0.4693374E-07  0.3524601E+04  0.7818609E-02  0.8107985E-01
        1   -1    0    0  501    0  0.00000000000E+00  0.00000000000E+00  0.16092016830E+04  0.16092016830E+04  0.50400001928E-02 0.  1.
       -1   -1    0    0    0  501  0.00000000000E+00  0.00000000000E+00 -0.19299648216E+04  0.19299648216E+04  0.50400001928E-02 0. -1.
    10030    2    1    2    0    0  0.00000000000E+00  0.00000000000E+00 -0.32076313862E+03  0.35391665046E+04  0.35246007655E+04 0.  0.
        1    1    3    3  502    0  0.39910791013E+03 -0.82173854583E+03  0.13528836532E+04  0.16324324001E+04  0.50400001928E-02 0.  1.
       -1    1    3    3    0  502 -0.39910791013E+03  0.82173854583E+03 -0.16736467918E+04  0.19067341046E+04  0.50400001928E-02 0. -1.
</event>
<event>
 5   0  0.1348388E-06  0.3496382E+04  0.7818609E-02  0.8114648E-01
        2   -1    0    0  501    0  0.00000000000E+00  0.00000000000E+00  0.26902068022E+04  0.26902068022E+04  0.25500000920E-02 0. -1.
       -2   -1    0    0    0  501  0.00000000000E+00  0.00000000000E+00 -0.11360360273E+04  0.11360360273E+04  0.25500000920E-02 0.  1.
    10030    2    1    2    0    0  0.00000000000E+00  0.00000000000E+00  0.15541707749E+04  0.38262428294E+04  0.34963820432E+04 0.  0.
        5    1    3    3  502    0 -0.10481844352E+04 -0.44827980421E+02 -0.75321596134E+03  0.12915326293E+04  0.46999998093E+01 0.  1.
       -5    1    3    3    0  502  0.10481844352E+04  0.44827980421E+02  0.23073867363E+04  0.25347102001E+04  0.46999998093E+01 0. -1.
</event>
<event>
 5   0  0.1361560E-06  0.3271257E+04  0.7818609E-02  0.8170248E-01
       -2   -1    0    0    0  501  0.00000000000E+00  0.00000000000E+00  0.15427120942E+04  0.15427120942E+04  0.25500000920E-02 0.  1.
        2   -1    0    0  501    0  0.00000000000E+00  0.00000000000E+00 -0.17341409340E+04  0.17341409340E+04  0.25500000920E-02 0. -1.
    10030    2    1    2    0    0  0.00000000000E+00  0.00000000000E+00 -0.19142883986E+03  0.32768530282E+04  0.32712567566E+04 0.  0.
        3    1    3    3  502    0  0.64807413377E+03  0.14574888648E+04 -0.45828155410E+03  0.16596071424E+04  0.10100000352E+00 0. -1.
       -3    1    3    3    0  502 -0.64807413377E+03 -0.14574888648E+04  0.26685271424E+03  0.16172458858E+04  0.10100000352E+00 0.  1.
</event>
<event>
 5   0  0.1387133E-06  0.3445073E+04  0.7818609E-02  0.8126932E-01
       -2   -1    0    0    0  501  0.00000000000E+00  0.00000000000E+00  0.14259949643E+04  0.14259949643E+04  0.25500000920E-02 0. -1.
        2   -1    0    0  501    0  0.00000000000E+00  0.00000000000E+00 -0.20807454219E+04  0.20807454219E+04  0.25500000920E-02 0.  1.
    10030    2    1    2    0    0  0.00000000000E+00  0.00000000000E+00 -0.65475045762E+03  0.35067403862E+04  0.34450732902E+04 0.  0.
        4    1    3    3  502    0  0.59659755534E+03  0.12711281944E+04  0.68819901832E+03  0.15637503098E+04  0.12699999809E+01 0. -1.
       -4    1    3    3    0  502 -0.59659755534E+03 -0.12711281944E+04 -0.13429494759E+04  0.19429900765E+04  0.12699999809E+01 0.  1.
</event>
<event>
 5   0  0.1361560E-06  0.3561871E+04  0.7818609E-02  0.8099282E-01
        2   -1    0    0  501    0  0.00000000000E+00  0.00000000000E+00  0.25895238805E+04  0.25895238805E+04  0.25500000920E-02 0.  1.
       -2   -1    0    0    0  501  0.00000000000E+00  0.00000000000E+00 -0.12248315591E+04  0.12248315591E+04  0.25500000920E-02 0. -1.
    10030    2    1    2    0    0  0.00000000000E+00  0.00000000000E+00  0.13646923213E+04  0.38143554396E+04  0.35618706164E+04 0.  0.
        3    1    3    3  502    0  0.56318074054E+03 -0.14992274268E+04 -0.15189707391E+03  0.16087038743E+04  0.10100000352E+00 0. -1.
       -3    1    3    3    0  502 -0.56318074054E+03  0.14992274268E+04  0.15165893953E+04  0.22056515654E+04  0.10100000352E+00 0.  1.
</event>
<event>
 5   0  0.4409125E-07  0.3661868E+04  0.7818609E-02  0.8076465E-01
       -1   -1    0    0    0  501  0.00000000000E+00  0.00000000000E+00  0.24827626249E+04  0.24827626249E+04  0.50400001928E-02 0.  1.
        1   -1    0    0  501    0  0.00000000000E+00  0.00000000000E+00 -0.13502375525E+04  0.13502375525E+04  0.50400001928E-02 0. -1.
    10030    2    1    2    0    0  0.00000000000E+00  0.00000000000E+00  0.11325250724E+04  0.38330001774E+04  0.36618680097E+04 0.  0.
        5    1    3    3  502    0 -0.34005024425E+03  0.22698372065E+02 -0.13167375111E+04  0.13601357093E+04  0.46999998093E+01 0. -1.
       -5    1    3    3    0  502  0.34005024425E+03 -0.22698372065E+02  0.24492625835E+04  0.24728644681E+04  0.46999998093E+01 0.  1.
</event>
<event>
 5   0  0.4591195E-07  0.3519994E+04  0.7818609E-02  0.8109068E-01
       -1   -1    0    0    0  501  0.00000000000E+00  0.00000000000E+00  0.22487982271E+04  0.22487982271E+04  0.50400001928E-02 0. -1.
        1   -1    0    0  501    0  0.00000000000E+00  0.00000000000E+00 -0.13774418082E+04  0.13774418082E+04  0.50400001928E-02 0.  1.
    10030    2    1    2    0    0  0.00000000000E+00  0.00000000000E+00  0.87135641891E+03  0.36262400352E+04  0.35199935773E+04 0.  0.
        4    1    3    3  502    0  0.11058281875E+03 -0.95526111395E+03 -0.10828680426E+04  0.14482255233E+04  0.12699999809E+01 0.  1.
       -4    1    3    3    0  502 -0.11058281875E+03  0.95526111395E+03  0.19542244615E+04  0.21780145120E+04  0.12699999809E+01 0. -1.
</event>
<event>
 5   0  0.4409125E-07  0.3426630E+04  0.7818609E-02  0.8131401E-01
       -1   -1    0    0    0  501  0.00000000000E+00  0.00000000000E+00  0.11157507675E+04  0.11157507675E+04  0.50400001928E-02 0. -1.
        1   -1    0    0  501    0  0.00000000000E+00  0.00000000000E+00 -0.26309181919E+04  0.26309181919E+04  0.50400001928E-02 0.  1.
    10030    2    1    2    0    0  0.00000000000E+00  0.00000000000E+00 -0.15151674244E+04  0.37466689593E+04  0.34266304100E+04 0.  0.
        5    1    3    3  502    0 -0.13660450215E+04 -0.11864027594E+03  0.36562469225E+03  0.14191046548E+04  0.46999998093E+01 0. -1.
       -5    1    3    3    0  502  0.13660450215E+04  0.11864027594E+03 -0.18807921166E+04  0.23275643045E+04  0.46999998093E+01 0.  1.
</event>
<event>
 5   0  0.4591195E-07  0.3183285E+04  0.7818609E-02  0.8193246E-01
        1   -1    0    0  501    0  0.00000000000E+00  0.00000000000E+00  0.25081798948E+04  0.25081798948E+04  0.50400001928E-02 0.  1.
       -1   -1    0    0    0  501  0.00000000000E+00  0.00000000000E+00 -0.10100254057E+04  0.10100254057E+04  0.50400001928E-02 0. -1.
    10030    2    1    2    0    0  0.00000000000E+00  0.00000000000E+00  0.14981544891E+04  0.35182053005E+04  0.31832847285E+04 0.  0.
        4    1    3    3  502    0 -0.31473156959E+03 -0.56981811918E+03 -0.85617465903E+03  0.10755395434E+04  0.12699999809E+01 0. -1.
       -4    1    3    3    0  502  0.31473156959E+03  0.56981811918E+03  0.23543291481E+04  0.24426657570E+04  0.12699999809E+01 0.  1.
</event>
<event>
 5   0  0.1361560E-06  0.3472241E+04  0.7818609E-02  0.8120400E-01
       -2   -1    0    0    0  501  0.00000000000E+00  0.00000000000E+00  0.15625441827E+04  0.15625441827E+04  0.25500000920E-02 0.  1.
        2   -1    0    0  501    0  0.00000000000E+00  0.00000000000E+00 -0.19289791362E+04  0.19289791362E+04  0.25500000920E-02 0. -1.
    10030    2    1    2    0    0  0.00000000000E+00  0.00000000000E+00 -0.36643495346E+03  0.34915233189E+04  0.34722414247E+04 0.  0.
        3    1    3    3  502    0  0.82566164760E+03  0.42614923680E+03 -0.16579203306E+04  0.19005315470E+04  0.10100000352E+00 0. -1.
       -3    1    3    3    0  502 -0.82566164760E+03 -0.42614923680E+03  0.12914853772E+04  0.15909917718E+04  0.10100000352E+00 0.  1.
</event>
<event>
 5   0  0.4700769E-07  0.3596368E+04  0.7818609E-02  0.8091324E-01
       -1   -1    0    0    0  501  0.00000000000E+00  0.00000000000E+00  0.19908927163E+04  0.19908927163E+04  0.50400001928E-02 0. -1.
        1   -1    0    0  501    0  0.00000000000E+00  0.00000000000E+00 -0.16241287472E+04  0.16241287472E+04  0.50400001928E-02 0.  1.
    10030    2    1    2    0    0  0.00000000000E+00  0.00000000000E+00  0.36676396910E+03  0.36150214635E+04  0.35963682198E+04 0.  0.
        3    1    3    3  502    0  0.32643823942E+03 -0.42545738323E+03 -0.15418798089E+04  0.16324733580E+04  0.10100000352E+00 0.  1.
       -3    1    3    3    0  502 -0.32643823942E+03  0.42545738323E+03  0.19086437780E+04  0.19825481055E+04  0.10100000352E+00 0. -1.
</event>
<event>
 5   0  0.1348388E-06  0.3585346E+04  0.7818609E-02  0.8093857E-01
        2   -1    0    0  501    0  0.00000000000E+00  0.00000000000E+00  0.24446215920E+04  0.24446215920E+04  0.25500000920E-02 0. -1.
       -2   -1    0    0    0  501  0.00000000000E+00  0.00000000000E+00 -0.13145908689E+04  0.13145908689E+04  0.25500000920E-02 0.  1.
    10030    2    1    2    0    0  0.00000000000E+00  0.00000000000E+00  0.11300307232E+04  0.37592124609E+04  0.35853464116E+04 0.  0.
        5    1    3    3  502    0 -0.10052555311E+03 -0.11035669441E+04  0.20424947982E+04  0.23237410522E+04  0.46999998093E+01 0. -1.
       -5    1    3    3    0  502  0.10052555311E+03  0.11035669441E+04 -0.91246407506E+03  0.14354714087E+04  0.46999998093E+01 0.  1.
</event>
<event>
 5   0  0.1361560E-06  0.3503577E+04  0.7818609E-02  0.8112943E-01
       -2   -1    0    0    0  501  0.00000000000E+00  0.00000000000E+00  0.20233175878E+04  0.20233175878E+04  0.25500000920E-02 0.  1.
        2   -1    0    0  501    0  0.00000000000E+00  0.00000000000E+00 -0.15166985063E+04  0.15166985063E+04  0.25500000920E-02 0. -1.
    10030    2    1    2    0    0  0.00000000000E+00  0.00000000000E+00  0.50661908148E+03  0.35400160940E+04  0.35035768940E+04 0.  0.
        3    1    3    3  502    0  0.10500944296E+04  0.63940480465E+03  0.15141768864E+04  0.19504534008E+04  0.10100000352E+00 0.  1.
       -3    1    3    3    0  502 -0.10500944296E+04 -0.63940480465E+03 -0.10075578049E+04  0.15895626932E+04  0.10100000352E+00 0. -1.
</event>
<event>
 5   0  0.4700769E-07  0.2868170E+04  0.7818609E-02  0.8282411E-01
        1   -1    0    0  501    0  0.00000000000E+00  0.00000000000E+00  0.14717321997E+04  0.14717321997E+04  0.50400001928E-02 0. -1.
       -1   -1    0    0    0  501  0.00000000000E+00  0.00000000000E+00 -0.13974010361E+04  0.13974010361E+04  0.50400001928E-02 0.  1.
    10030    2    1    2    0    0  0.00000000000E+00  0.00000000000E+00  0.74331163607E+02  0.28691332357E+04  0.28681702185E+04 0.  0.
        3    1    3    3  502    0 -0.82659025623E+03  0.46455406162E+02 -0.11342060376E+04  0.14042196774E+04  0.10100000352E+00 0.  1.
       -3    1    3    3    0  502  0.82659025623E+03 -0.46455406162E+02  0.12085372012E+04  0.14649135583E+04  0.10100000352E+00 0. -1.
</event>
<event>
 5   0  0.1387133E-06  0.3507469E+04  0.7818609E-02  0.8112022E-01
        2   -1    0    0  501    0  0.00000000000E+00  0.00000000000E+00  0.25052902346E+04  0.25052902346E+04  0.25500000920E-02 0. -1.
       -2   -1    0    0    0  501  0.00000000000E+00  0.00000000000E+00 -0.12276364020E+04  0.12276364020E+04  0.25500000920E-02 0.  1.
    10030    2    1    2    0    0  0.00000000000E+00  0.00000000000E+00  0.12776538326E+04  0.37329266366E+04  0.35074694522E+04 0.  0.
        4    1    3    3  502    0 -0.15980902527E+04  0.47823981523E+03  0.12148941010E+04  0.20636315238E+04  0.12699999809E+01 0. -1.
       -4    1    3    3    0  502  0.15980902527E+04 -0.47823981523E+03  0.62759731616E+02  0.16692951127E+04  0.12699999809E+01 0.  1.
</event>
<event>
 5   0  0.4409125E-07  0.3488366E+04  0.7818609E-02  0.8116553E-01
       -4   -1    0    0    0  501  0.00000000000E+00  0.00000000000E+00  0.18582621120E+04  0.18582625459E+04  0.12699999809E+01 0.  1.
        4   -1    0    0  501    0  0.00000000000E+00  0.00000000000E+00 -0.16371061611E+04  0.16371066537E+04  0.12699999809E+01 0. -1.
    10030    2    1    2    0    0  0.00000000000E+00  0.00000000000E+00  0.22115595091E+03  0.34953691996E+04  0.34883657903E+04 0.  0.
        5    1    3    3  502    0 -0.15258517278E+04  0.43580631921E+03 -0.61475461758E+03  0.17017919887E+04  0.46999998093E+01 0. -1.
       -5    1    3    3    0  502  0.15258517278E+04 -0.43580631921E+03  0.83591056849E+03  0.17935772109E+04  0.46999998093E+01 0.  1.
</event>
<event>
 5   0  0.4557237E-07  0.3479777E+04  0.7818609E-02  0.8118599E-01
        1   -1    0    0  501    0  0.00000000000E+00  0.00000000000E+00  0.14017400848E+04  0.14017400848E+04  0.50400001928E-02 0. -1.
       -1   -1    0    0    0  501  0.00000000000E+00  0.00000000000E+00 -0.21596097213E+04  0.21596097213E+04  0.50400001928E-02 0.  1.
    10030    2    1    2    0    0  0.00000000000E+00  0.00000000000E+00 -0.75786963651E+03  0.35613498062E+04  0.34797767250E+04 0.  0.
        2    1    3    3  502    0  0.11660581328E+02 -0.78188374368E+03  0.12117632458E+04  0.14421679242E+04  0.25500000920E-02 0. -1.
       -2    1    3    3    0  502 -0.11660581328E+02  0.78188374368E+03 -0.19696328823E+04  0.21191818820E+04  0.25500000920E-02 0.  1.
</event>
<event>
 5   0  0.4591195E-07  0.3484393E+04  0.7818609E-02  0.8117499E-01
       -1   -1    0    0    0  501  0.00000000000E+00  0.00000000000E+00  0.12604475101E+04  0.12604475101E+04  0.50400001928E-02 0.  1.
        1   -1    0    0  501    0  0.00000000000E+00  0.00000000000E+00 -0.24080717307E+04  0.24080717307E+04  0.50400001928E-02 0. -1.
    10030    2    1    2    0    0  0.00000000000E+00  0.00000000000E+00 -0.11476242207E+04  0.36685192408E+04  0.34843926398E+04 0.  0.
        4    1    3    3  502    0 -0.10547553972E+04  0.13083530541E+04 -0.10573752770E+04  0.19855328633E+04  0.12699999809E+01 0. -1.
       -4    1    3    3    0  502  0.10547553972E+04 -0.13083530541E+04 -0.90248943654E+02  0.16829863775E+04  0.12699999809E+01 0.  1.
</event>
<event>
 5   0  0.4700769E-07  0.3599860E+04  0.7818609E-02  0.8090524E-01
       -1   -1    0    0    0  501  0.00000000000E+00  0.00000000000E+00  0.15470681650E+04  0.15470681650E+04  0.50400001928E-02 0.  1.
        1   -1    0    0  501    0  0.00000000000E+00  0.00000000000E+00 -0.20941205777E+04  0.20941205777E+04  0.50400001928E-02 0. -1.
    10030    2    1    2    0    0  0.00000000000E+00  0.00000000000E+00 -0.54705241272E+03  0.36411887427E+04  0.35998595969E+04 0.  0.
        3    1    3    3  502    0  0.15021496261E+04  0.16625452581E+03  0.71527227006E+03  0.16720372296E+04  0.10100000352E+00 0.  1.
       -3    1    3    3    0  502 -0.15021496261E+04 -0.16625452581E+03 -0.12623246828E+04  0.19691515131E+04  0.10100000352E+00 0. -1.
</event>
<event>
 5   0  0.4409125E-07  0.3459029E+04  0.7818609E-02  0.8123569E-01
        1   -1    0    0  501    0  0.00000000000E+00  0.00000000000E+00  0.23448041416E+04  0.23448041417E+04  0.50400001928E-02 0. -1.
       -1   -1    0    0    0  501  0.00000000000E+00  0.00000000000E+00 -0.12756805969E+04  0.12756805969E+04  0.50400001928E-02 0.  1.
    10030    2    1    2    0    0  0.00000000000E+00  0.00000000000E+00  0.10691235447E+04  0.36204847386E+04  0.34590294287E+04 0.  0.
        5    1    3    3  502    0  0.79371290579E+02  0.13874367585E+04 -0.54301618682E+03  0.14920352643E+04  0.46999998093E+01 0.  1.
       -5    1    3    3    0  502 -0.79371290579E+02 -0.13874367585E+04  0.16121397315E+04  0.21284494743E+04  0.46999998093E+01 0. -1.
</event>
<event>
 5   0  0.1361560E-06  0.2658808E+04  0.7818609E-02  0.8348495E-01
       -2   -1    0    0    0  501  0.00000000000E+00  0.00000000000E+00  0.11963769895E+04  0.11963769895E+04  0.25500000920E-02 0.  1.
        2   -1    0    0  501    0  0.00000000000E+00  0.00000000000E+00 -0.14772228377E+04  0.14772228377E+04  0.25500000920E-02 0. -1.
    10030    2    1    2    0    0  0.00000000000E+00  0.00000000000E+00 -0.28084584823E+03  0.26735998272E+04  0.26588083131E+04 0.  0.
        3    1    3    3  502    0 -0.50208180684E+02  0.12182377456E+04 -0.67317344066E+03  0.13927622043E+04  0.10100000352E+00 0. -1.
       -3    1    3    3    0  502  0.50208180684E+02 -0.12182377456E+04  0.39232759243E+03  0.12808376229E+04  0.10100000352E+00 0.  1.
</event>
<event>
 5   0  0.4693374E-07  0.3516717E+04  0.7818609E-02  0.8109840E-01
       -1   -1    0    0    0  501  0.00000000000E+00  0.00000000000E+00  0.13396580587E+04  0.13396580588E+04  0.50400001928E-02 0.  1.
        1   -1    0    0  501    0  0.00000000000E+00  0.00000000000E+00 -0.23079207011E+04  0.23079207011E+04  0.50400001928E-02 0. -1.
    10030    2    1    2    0    0  0.00000000000E+00  0.00000000000E+00 -0.96826264240E+03  0.36475787599E+04  0.35167169725E+04 0.  0.
        1    1    3    3  502    0 -0.10304561114E+04  0.13093008634E+04  0.98663345518E+02  0.16690844809E+04  0.50400001928E-02 0. -1.
       -1    1    3    3    0  502  0.10304561114E+04 -0.13093008634E+04 -0.10669259879E+04  0.19784942790E+04  0.50400001928E-02 0.  1.
</event>
<event>
 5   0  0.1442864E-06  0.3492337E+04  0.7818609E-02  0.8115608E-01
       -2   -1    0    0    0  501  0.00000000000E+00  0.00000000000E+00  0.19092033189E+04  0.19092033189E+04  0.25500000920E-02 0. -1.
        2   -1    0    0  501    0  0.00000000000E+00  0.00000000000E+00 -0.15970555521E+04  0.15970555521E+04  0.25500000920E-02 0.  1.
    10030    2    1    2    0    0  0.00000000000E+00  0.00000000000E+00  0.31214776677E+03  0.35062588711E+04  0.34923366164E+04 0.  0.
        1    1    3    3  502    0 -0.51827772314E+01 -0.65802093960E+03 -0.14678057453E+04  0.16085621294E+04  0.50400001928E-02 0.  1.
       -1    1    3    3    0  502  0.51827772314E+01  0.65802093960E+03  0.17799535121E+04  0.18976967417E+04  0.50400001928E-02 0. -1.
</event>
<event>
 5   0  0.4700769E-07  0.3438183E+04  0.7818609E-02  0.8128598E-01
        1   -1    0    0  501    0  0.00000000000E+00  0.00000000000E+00  0.19071522982E+04  0.19071522982E+04  0.50400001928E-02 0.  1.
       -1   -1    0    0    0  501  0.00000000000E+00  0.00000000000E+00 -0.15495748317E+04  0.15495748317E+04  0.50400001928E-02 0. -1.
    10030    2    1    2    0    0  0.00000000000E+00  0.00000000000E+00  0.35757746656E+03  0.34567271299E+04  0.34381827767E+04 0.  0.
        3    1    3    3  502    0 -0.91008050259E+03 -0.13231597359E+04  0.79551147659E+03  0.17921597941E+04  0.10100000352E+00 0. -1.
       -3    1    3    3    0  502  0.91008050259E+03  0.13231597359E+04 -0.43793401003E+03  0.16645673358E+04  0.10100000352E+00 0.  1.
</event>
<event>
 5   0  0.4557237E-07  0.2758841E+04  0.7818609E-02  0.8316162E-01
        1   -1    0    0  501    0  0.00000000000E+00  0.00000000000E+00  0.14981517887E+04  0.14981517887E+04  0.50400001928E-02 0.  1.
       -1   -1    0    0    0  501  0.00000000000E+00  0.00000000000E+00 -0.12700991483E+04  0.12700991483E+04  0.50400001928E-02 0. -1.
    10030    2    1    2    0    0  0.00000000000E+00  0.00000000000E+00  0.22805264044E+03  0.27682509370E+04  0.27588412863E+04 0.  0.
        2    1    3    3  502    0  0.20986302344E+03 -0.12475764046E+04  0.66573064295E+03  0.14295756933E+04  0.25500000920E-02 0.  1.
       -2    1    3    3    0  502 -0.20986302344E+03  0.12475764046E+04 -0.43767800252E+03  0.13386752436E+04  0.25500000920E-02 0. -1.
</event>
<event>
 5   0  0.4409125E-07  0.3144723E+04  0.7818609E-02  0.8203570E-01
        1   -1    0    0  501    0  0.00000000000E+00  0.00000000000E+00  0.20348636113E+04  0.20348636113E+04  0.50400001928E-02 0.  1.
       -1   -1    0    0    0  501  0.00000000000E+00  0.00000000000E+00 -0.12149811232E+04  0.12149811232E+04  0.50400001928E-02 0. -1.
    10030    2    1    2    0    0  0.00000000000E+00  0.00000000000E+00  0.81988248811E+03  0.32498447345E+04  0.31447231204E+04 0.  0.
        5    1    3    3  502    0  0.12441194043E+04  0.25886438919E+03  0.13668837542E+04  0.18663432566E+04  0.46999998093E+01 0. -1.
       -5    1    3    3    0  502 -0.12441194043E+04 -0.25886438919E+03 -0.54700126609E+03  0.13835014779E+04  0.46999998093E+01 0.  1.
</event>
<event>
 5   0  0.1348388E-06  0.3400341E+04  0.7818609E-02  0.8137823E-01
        2   -1    0    0  501    0  0.00000000000E+00  0.00000000000E+00  0.20297172734E+04  0.20297172734E+04  0.25500000920E-02 0. -1.
       -2   -1    0    0    0  501  0.00000000000E+00  0.00000000000E+00 -0.14241293483E+04  0.14241293483E+04  0.25500000920E-02 0.  1.
    10030    2    1    2    0    0  0.00000000000E+00  0.00000000000E+00  0.60558792515E+03  0.34538466217E+04  0.34003411228E+04 0.  0.
        5    1    3    3  502    0  0.78506769123E+02  0.40239481023E+03 -0.13731610110E+04  0.14330659957E+04  0.46999998093E+01 0.  1.
       -5    1    3    3    0  502 -0.78506769123E+02 -0.40239481023E+03  0.19787489361E+04  0.20207806260E+04  0.46999998093E+01 0. -1.
</event>
<event>
 5   0  0.1348388E-06  0.3525115E+04  0.7818609E-02  0.8107864E-01
        2   -1    0    0  501    0  0.00000000000E+00  0.00000000000E+00  0.21682499442E+04  0.21682499442E+04  0.25500000920E-02 0.  1.
       -2   -1    0    0    0  501  0.00000000000E+00  0.00000000000E+00 -0.14327727704E+04  0.14327727704E+04  0.25500000920E-02 0. -1.
    10030    2    1    2    0    0  0.00000000000E+00  0.00000000000E+00  0.73547717382E+03  0.36010227146E+04  0.35251153056E+04 0.  0.
        5    1    3    3  502    0 -0.17470483562E+03 -0.84455684798E+03  0.19379749668E+04  0.21212183082E+04  0.46999998093E+01 0.  1.
       -5    1    3    3    0  502  0.17470483562E+03  0.84455684798E+03 -0.12024977930E+04  0.14798044064E+04  0.46999998093E+01 0. -1.
</event>
<event>
 5   0  0.1348388E-06  0.3502837E+04  0.7818609E-02  0.8113118E-01
        2   -1    0    0  501    0  0.00000000000E+00  0.00000000000E+00  0.25973967082E+04  0.25973967082E+04  0.25500000920E-02 0. -1.
       -2   -1    0    0    0  501  0.00000000000E+00  0.00000000000E+00 -0.11809775972E+04  0.11809775972E+04  0.25500000920E-02 0.  1.
    10030    2    1    2    0    0  0.00000000000E+00  0.00000000000E+00  0.14164191109E+04  0.37783743054E+04  0.35028373205E+04 0.  0.
        5    1    3    3  502    0  0.31500038573E+03 -0.10956797775E+04 -0.72592535039E+03  0.13515654339E+04  0.46999998093E+01 0.  1.
       -5    1    3    3    0  502 -0.31500038573E+03  0.10956797775E+04  0.21423444613E+04  0.24268088715E+04  0.46999998093E+01 0. -1.
</event>
<event>
 5   0  0.4591195E-07  0.3464228E+04  0.7818609E-02  0.8122320E-01
        1   -1    0    0  501    0  0.00000000000E+00  0.00000000000E+00  0.21005444114E+04  0.21005444114E+04  0.50400001928E-02 0. -1.
       -1   -1    0    0    0  501  0.00000000000E+00  0.00000000000E+00 -0.14283055044E+04  0.14283055044E+04  0.50400001928E-02 0.  1.
    10030    2    1    2    0    0  0.00000000000E+00  0.00000000000E+00  0.67223890701E+03  0.35288499158E+04  0.34642281362E+04 0.  0.
        4    1    3    3  502    0 -0.10849738626E+04 -0.13269339996E+04  0.81873102917E+02  0.17159915326E+04  0.12699999809E+01 0. -1.
       -4    1    3    3    0  502  0.10849738626E+04  0.13269339996E+04  0.59036580410E+03  0.18128583832E+04  0.12699999809E+01 0.  1.
</event>
<event>
 5   0  0.1378620E-06  0.3548048E+04  0.7818609E-02  0.8102497E-01
       -2   -1    0    0    0  501  0.00000000000E+00  0.00000000000E+00  0.24005227593E+04  0.24005227593E+04  0.25500000920E-02 0.  1.
        2   -1    0    0  501    0  0.00000000000E+00  0.00000000000E+00 -0.13110317295E+04  0.13110317295E+04  0.25500000920E-02 0. -1.
    10030    2    1    2    0    0  0.00000000000E+00  0.00000000000E+00  0.10894910298E+04  0.37115544888E+04  0.35480481985E+04 0.  0.
        2    1    3    3  502    0 -0.17202175068E+04 -0.40746534855E+03  0.38963837992E+03  0.18102470406E+04  0.25500000920E-02 0.  1.
       -2    1    3    3    0  502  0.17202175068E+04  0.40746534855E+03  0.69985264987E+03  0.19013074482E+04  0.25500000920E-02 0. -1.
</event>
<event>
 5   0  0.1361560E-06  0.3389436E+04  0.7818609E-02  0.8140504E-01
       -2   -1    0    0    0  501  0.00000000000E+00  0.00000000000E+00  0.19794086519E+04  0.19794086519E+04  0.25500000920E-02 0.  1.
        2   -1    0    0  501    0  0.00000000000E+00  0.00000000000E+00 -0.14509729025E+04  0.14509729025E+04  0.25500000920E-02 0. -1.
    10030    2    1    2    0    0  0.00000000000E+00  0.00000000000E+00  0.52843574938E+03  0.34303815544E+04  0.33894355382E+04 0.  0.
        3    1    3    3  502    0  0.93803184785E+03 -0.14113860351E+04  0.27677823887E+03  0.17171256481E+04  0.10100000352E+00 0. -1.
       -3    1    3    3    0  502 -0.93803184785E+03  0.14113860351E+04  0.25165751050E+03  0.17132559063E+04  0.10100000352E+00 0.  1.
</event>
<event>
 5   0  0.4700769E-07  0.3398484E+04  0.7818609E-02  0.8138278E-01
       -1   -1    0    0    0  501  0.00000000000E+00  0.00000000000E+00  0.16535435930E+04  0.16535435930E+04  0.50400001928E-02 0. -1.
        1   -1    0    0  501    0  0.00000000000E+00  0.00000000000E+00 -0.17462036290E+04  0.17462036290E+04  0.50400001928E-02 0.  1.
    10030    2    1    2    0    0  0.00000000000E+00  0.00000000000E+00 -0.92660036033E+02  0.33997472221E+04  0.33984842639E+04 0.  0.
        3    1    3    3  502    0 -0.85189233101E+03  0.13139811338E+04 -0.70623935927E+03  0.17178594257E+04  0.10100000352E+00 0.  1.
       -3    1    3    3    0  502  0.85189233101E+03 -0.13139811338E+04  0.61357932323E+03  0.16818877964E+04  0.10100000352E+00 0. -1.
</event>
<event>
 5   0  0.1361560E-06  0.3579750E+04  0.7818609E-02  0.8095146E-01
        2   -1    0    0  501    0  0.00000000000E+00  0.00000000000E+00  0.18415310662E+04  0.18415310662E+04  0.25500000920E-02 0. -1.
       -2   -1    0    0    0  501  0.00000000000E+00  0.00000000000E+00 -0.17396680051E+04  0.17396680051E+04  0.25500000920E-02 0.  1.
    10030    2    1    2    0    0  0.00000000000E+00  0.00000000000E+00  0.10186306108E+03  0.35811990712E+04  0.35797500897E+04 0.  0.
        3    1    3    3  502    0 -0.95401090703E+03 -0.15122977599E+04 -0.29545673695E+02  0.17883104547E+04  0.10100000352E+00 0. -1.
       -3    1    3    3    0  502  0.95401090703E+03  0.15122977599E+04  0.13140873477E+03  0.17928886165E+04  0.10100000352E+00 0.  1.
</event>
<event>
 5   0  0.4693374E-07  0.3523104E+04  0.7818609E-02  0.8108336E-01
       -1   -1    0    0    0  501  0.00000000000E+00  0.00000000000E+00  0.17137697232E+04  0.17137697232E+04  0.50400001928E-02 0. -1.
        1   -1    0    0  501    0  0.00000000000E+00  0.00000000000E+00 -0.18106665407E+04  0.18106665407E+04  0.50400001928E-02 0.  1.
    10030    2    1    2    0    0  0.00000000000E+00  0.00000000000E+00 -0.96896817507E+02  0.35244362639E+04  0.35231040270E+04 0.  0.
        1    1    3    3  502    0  0.64143829732E+03 -0.12943151841E+03 -0.16845698095E+04  0.18071997815E+04  0.50400001928E-02 0.  1.
       -1    1    3    3    0  502 -0.64143829732E+03  0.12943151841E+03  0.15876729920E+04  0.17172364824E+04  0.50400001928E-02 0. -1.
</event>
<event>
 5   0  0.1348388E-06  0.3537312E+04  0.7818609E-02  0.8105004E-01
       -2   -1    0    0    0  501  0.00000000000E+00  0.00000000000E+00  0.16019087174E+04  0.16019087174E+04  0.25500000920E-02 0. -1.
        2   -1    0    0  501    0  0.00000000000E+00  0.00000000000E+00 -0.19527600891E+04  0.19527600891E+04  0.25500000920E-02 0.  1.
    10030    2    1    2    0    0  0.00000000000E+00  0.00000000000E+00 -0.35085137161E+03  0.35546688065E+04  0.35373116401E+04 0.  0.
        5    1    3    3  502    0  0.31651314664E+03 -0.40510626569E+03 -0.18760148650E+04  0.19451852154E+04  0.46999998093E+01 0.  1.
       -5    1    3    3    0  502 -0.31651314664E+03  0.40510626569E+03  0.15251634934E+04  0.16094835911E+04  0.46999998093E+01 0. -1.
</event>
<event>
 5   0  0.4700769E-07  0.3502436E+04  0.7818609E-02  0.8113213E-01
       -1   -1    0    0    0  501  0.00000000000E+00  0.00000000000E+00  0.13169872814E+04  0.13169872814E+04  0.50400001928E-02 0.  1.
        1   -1    0    0  501    0  0.00000000000E+00  0.00000000000E+00 -0.23286216060E+04  0.23286216060E+04  0.50400001928E-02 0. -1.
    10030    2    1    2    0    0  0.00000000000E+00  0.00000000000E+00 -0.10116343247E+04  0.36456088874E+04  0.35024363168E+04 0.  0.
        3    1    3    3  502    0  0.11019319602E+04  0.43653422468E+03 -0.18476816331E+04  0.21951636845E+04  0.10100000352E+00 0. -1.
       -3    1    3    3    0  502 -0.11019319602E+04 -0.43653422468E+03  0.83604730846E+03  0.14504452029E+04  0.10100000352E+00 0.  1.
</event>
<event>
 5   0  0.1378620E-06  0.3694618E+04  0.7818609E-02  0.8069156E-01
        2   -1    0    0  501    0  0.00000000000E+00  0.00000000000E+00  0.19515356557E+04  0.19515356557E+04  0.25500000920E-02 0.  1.
       -2   -1    0    0    0  501  0.00000000000E+00  0.00000000000E+00 -0.17486485745E+04  0.17486485745E+04  0.25500000920E-02 0. -1.
    10030    2    1    2    0    0  0.00000000000E+00  0.00000000000E+00  0.20288708117E+03  0.37001842303E+04  0.36946177299E+04 0.  0.
        2    1    3    3  502    0 -0.21992532298E+03 -0.13701567535E+04 -0.11197595874E+04  0.17831315740E+04  0.25500000920E-02 0. -1.
       -2    1    3    3    0  502  0.21992532298E+03  0.13701567535E+04  0.13226466686E+04  0.19170526562E+04  0.25500000920E-02 0.  1.
</event>
<event>
 5   0  0.4409125E-07  0.3493172E+04  0.7818609E-02  0.8115410E-01
       -1   -1    0    0    0  501  0.00000000000E+00  0.00000000000E+00  0.20532015147E+04  0.20532015147E+04  0.50400001928E-02 0. -1.
        1   -1    0    0  501    0  0.00000000000E+00  0.00000000000E+00 -0.14857588159E+04  0.14857588159E+04  0.50400001928E-02 0.  1.
    10030    2    1    2    0    0  0.00000000000E+00  0.00000000000E+00  0.56744269882E+03  0.35389603306E+04  0.34931717687E+04 0.  0.
        5    1    3    3  502    0 -0.54552389795E+03 -0.10506837395E+04 -0.10172480177E+04  0.15608806051E+04  0.46999998093E+01 0.  1.
       -5    1    3    3    0  502  0.54552389795E+03  0.10506837395E+04  0.15846907165E+04  0.19780797256E+04  0.46999998093E+01 0. -1.
</event>
<event>
 5   0  0.4557237E-07  0.3449645E+04  0.7818609E-02  0.8125828E-01
       -1   -1    0    0    0  501  0.00000000000E+00  0.00000000000E+00  0.18453688487E+04  0.18453688487E+04  0.50400001928E-02 0.  1.
        1   -1    0    0  501    0  0.00000000000E+00  0.00000000000E+00 -0.16121503354E+04  0.16121503354E+04  0.50400001928E-02 0. -1.
    10030    2    1    2    0    0  0.00000000000E+00  0.00000000000E+00  0.23321851328E+03  0.34575191841E+04  0.34496446242E+04 0.  0.
        2    1    3    3  502    0 -0.12720768346E+04 -0.29705585234E+02 -0.10505015684E+04  0.16500349814E+04  0.25500000920E-02 0. -1.
       -2    1    3    3    0  502  0.12720768346E+04  0.29705585234E+02  0.12837200816E+04  0.18074842026E+04  0.25500000920E-02 0.  1.
</event>
<event>
 5   0  0.4409125E-07  0.3653038E+04  0.7818609E-02  0.8078450E-01
       -3   -1    0    0    0  501  0.00000000000E+00  0.00000000000E+00  0.25327986013E+04  0.25327986033E+04  0.10100000352E+00 0. -1.
        3   -1    0    0  501    0  0.00000000000E+00  0.00000000000E+00 -0.13171875892E+04  0.13171875931E+04  0.10100000352E+00 0.  1.
    10030    2    1    2    0    0  0.00000000000E+00  0.00000000000E+00  0.12156110121E+04  0.38499861964E+04  0.36530375825E+04 0.  0.
        2    1    3    3  502    0  0.10393023496E+04  0.44112518275E+03  0.21209811354E+04  0.24027696055E+04  0.25500000920E-02 0. -1.
       -2    1    3    3    0  502 -0.10393023496E+04 -0.44112518275E+03 -0.90537012327E+03  0.14472165908E+04  0.25500000920E-02 0.  1.
</event>
<event>
 5   0  0.1348388E-06  0.3400306E+04  0.7818609E-02  0.8137831E-01
       -2   -1    0    0    0  501  0.00000000000E+00  0.00000000000E+00  0.24723759305E+04  0.24723759305E+04  0.25500000920E-02 0. -1.
        2   -1    0    0  501    0  0.00000000000E+00  0.00000000000E+00 -0.11691261766E+04  0.11691261766E+04  0.25500000920E-02 0.  1.
    10030    2    1    2    0    0  0.00000000000E+00  0.00000000000E+00  0.13032497539E+04  0.36415021071E+04  0.34003055267E+04 0.  0.
        5    1    3    3  502    0 -0.48766647081E+03 -0.14890724377E+04 -0.54982092998E+02  0.15678649278E+04  0.46999998093E+01 0. -1.
       -5    1    3    3    0  502  0.48766647081E+03  0.14890724377E+04  0.13582318469E+04  0.20736371793E+04  0.46999998093E+01 0.  1.
</event>
<event>
 5   0  0.4409125E-07  0.3462196E+04  0.7818609E-02  0.8122808E-01
       -1   -1    0    0    0  501  0.00000000000E+00  0.00000000000E+00  0.13516411564E+04  0.13516411564E+04  0.50400001928E-02 0.  1.
        1   -1    0    0  501    0  0.00000000000E+00  0.00000000000E+00 -0.22170826610E+04  0.22170826610E+04  0.50400001928E-02 0. -1.
    10030    2    1    2    0    0  0.00000000000E+00  0.00000000000E+00 -0.86544150457E+03  0.35687238174E+04  0.34621959342E+04 0.  0.
        5    1    3    3  502    0 -0.10978647093E+04  0.12854434892E+04 -0.81702782735E+03  0.18775591720E+04  0.46999998093E+01 0.  1.
       -5    1    3    3    0  502  0.10978647093E+04 -0.12854434892E+04 -0.48413677221E+02  0.16911646454E+04  0.46999998093E+01 0. -1.
</event>
<event>
 5   0  0.1442864E-06  0.3569005E+04  0.7818609E-02  0.8097629E-01
        2   -1    0    0  501    0  0.00000000000E+00  0.00000000000E+00  0.28809728741E+04  0.28809728741E+04  0.25500000920E-02 0. -1.
       -2   -1    0    0    0  501  0.00000000000E+00  0.00000000000E+00 -0.11053383189E+04  0.11053383189E+04  0.25500000920E-02 0.  1.
    10030    2    1    2    0    0  0.00000000000E+00  0.00000000000E+00  0.17756345552E+04  0.39863111931E+04  0.35690053032E+04 0.  0.
        1    1    3    3  502    0  0.33164749592E+02  0.17117892562E+04  0.32587262012E+03  0.17428469017E+04  0.50400001928E-02 0.  1.
       -1    1    3    3    0  502 -0.33164749592E+02 -0.17117892562E+04  0.14497619351E+04  0.22434642914E+04  0.50400001928E-02 0. -1.
</event>
<event>
 5   0  0.1348388E-06  0.3477497E+04  0.7818609E-02  0.8119144E-01
        2   -1    0    0  501    0  0.00000000000E+00  0.00000000000E+00  0.26263224320E+04  0.26263224320E+04  0.25500000920E-02 0. -1.
       -2   -1    0    0    0  501  0.00000000000E+00  0.00000000000E+00 -0.11511327584E+04  0.11511327584E+04  0.25500000920E-02 0.  1.
    10030    2    1    2    0    0  0.00000000000E+00  0.00000000000E+00  0.14751896736E+04  0.37774551904E+04  0.34774966775E+04 0.  0.
        5    1    3    3  502    0  0.16770434932E+04 -0.18913142055E+03  0.11919803478E+04  0.20661763748E+04  0.46999998093E+01 0. -1.
       -5    1    3    3    0  502 -0.16770434932E+04  0.18913142055E+03  0.28320932581E+03  0.17112788155E+04  0.46999998093E+01 0.  1.
</event>
<event>
 5   0  0.1348388E-06  0.3475790E+04  0.7818609E-02  0.8119551E-01
       -2   -1    0    0    0  501  0.00000000000E+00  0.00000000000E+00  0.15173186502E+04  0.15173186502E+04  0.25500000920E-02 0. -1.
        2   -1    0    0  501    0  0.00000000000E+00  0.00000000000E+00 -0.19905373065E+04  0.19905373065E+04  0.25500000920E-02 0.  1.
    10030    2    1    2    0    0  0.00000000000E+00  0.00000000000E+00 -0.47321865633E+03  0.35078559567E+04  0.34757902002E+04 0.  0.
        5    1    3    3  502    0 -0.42671298362E+03  0.16836067452E+04 -0.17570655546E+03  0.17457120400E+04  0.46999998093E+01 0.  1.
       -5    1    3    3    0  502  0.42671298362E+03 -0.16836067452E+04 -0.29751210088E+03  0.17621439167E+04  0.46999998093E+01 0. -1.
</event>
<event>
 5   0  0.4409125E-07  0.3552257E+04  0.7818609E-02  0.8101516E-01
       -1   -1    0    0    0  501  0.00000000000E+00  0.00000000000E+00  0.20406742755E+04  0.20406742755E+04  0.50400001928E-02 0. -1.
        1   -1    0    0  501    0  0.00000000000E+00  0.00000000000E+00 -0.15458771673E+04  0.15458771673E+04  0.50400001928E-02 0.  1.
    10030    2    1    2    0    0  0.00000000000E+00  0.00000000000E+00  0.49479710824E+03  0.35865514429E+04  0.35522566171E+04 0.  0.
        5    1    3    3  502    0 -0.13291535088E+04  0.11266265284E+04 -0.10041718577E+03  0.17452914042E+04  0.46999998093E+01 0. -1.
       -5    1    3    3    0  502  0.13291535088E+04 -0.11266265284E+04  0.59521429402E+03  0.18412600387E+04  0.46999998093E+01 0.  1.
</event>
<event>
 5   0  0.4409125E-07  0.3535938E+04  0.7818609E-02  0.8105326E-01
        1   -1    0    0  501    0  0.00000000000E+00  0.00000000000E+00  0.18429058947E+04  0.18429058947E+04  0.50400001928E-02 0.  1.
       -1   -1    0    0    0  501  0.00000000000E+00  0.00000000000E+00 -0.16960788296E+04  0.16960788296E+04  0.50400001928E-02 0. -1.
    10030    2    1    2    0    0  0.00000000000E+00  0.00000000000E+00  0.14682706510E+03  0.35389847242E+04  0.35359375972E+04 0.  0.
        5    1    3    3  502    0  0.17594779262E+04  0.32341198338E+02  0.24351014885E+03  0.17765494106E+04  0.46999998093E+01 0.  1.
       -5    1    3    3    0  502 -0.17594779262E+04 -0.32341198338E+02 -0.96683083746E+02  0.17624353136E+04  0.46999998093E+01 0. -1.
</event>
<event>
 5   0  0.1348388E-06  0.3545747E+04  0.7818609E-02  0.8103033E-01
        2   -1    0    0  501    0  0.00000000000E+00  0.00000000000E+00  0.19227655996E+04  0.19227655996E+04  0.25500000920E-02 0. -1.
       -2   -1    0    0    0  501  0.00000000000E+00  0.00000000000E+00 -0.16346667594E+04  0.16346667594E+04  0.25500000920E-02 0.  1.
    10030    2    1    2    0    0  0.00000000000E+00  0.00000000000E+00  0.28809884014E+03  0.35574323590E+04  0.35457473186E+04 0.  0.
        5    1    3    3  502    0  0.66978140152E+02 -0.85785702984E+02 -0.16313056296E+04  0.16349389607E+04  0.46999998093E+01 0.  1.
       -5    1    3    3    0  502 -0.66978140152E+02  0.85785702984E+02  0.19194044697E+04  0.19224933983E+04  0.46999998093E+01 0. -1.
</event>
<event>
 5   0  0.4591195E-07  0.3632372E+04  0.7818609E-02  0.8083116E-01
       -1   -1    0    0    0  501  0.00000000000E+00  0.00000000000E+00  0.15952452220E+04  0.15952452221E+04  0.50400001928E-02 0. -1.
        1   -1    0    0  501    0  0.00000000000E+00  0.00000000000E+00 -0.20677273493E+04  0.20677273493E+04  0.50400001928E-02 0.  1.
    10030    2    1    2    0    0  0.00000000000E+00  0.00000000000E+00 -0.47248212726E+03  0.36629725714E+04  0.36323723237E+04 0.  0.
        4    1    3    3  502    0  0.10311361983E+04 -0.87842401071E+03 -0.14562511039E+04  0.19888538138E+04  0.12699999809E+01 0.  1.
       -4    1    3    3    0  502 -0.10311361983E+04  0.87842401071E+03  0.98376897669E+03  0.16741187576E+04  0.12699999809E+01 0. -1.
</event>
<event>
 5   0  0.1442864E-06  0.3520548E+04  0.7818609E-02  0.8108938E-01
        2   -1    0    0  501    0  0.00000000000E+00  0.00000000000E+00  0.16487155806E+04  0.16487155806E+04  0.25500000920E-02 0. -1.
       -2   -1    0    0    0  501  0.00000000000E+00  0.00000000000E+00 -0.18793808919E+04  0.18793808919E+04  0.25500000920E-02 0.  1.
    10030    2    1    2    0    0  0.00000000000E+00  0.00000000000E+00 -0.23066531131E+03  0.35280964725E+04  0.35205480019E+04 0.  0.
        1    1    3    3  502    0  0.13443341597E+04 -0.32642126712E+03  0.97547687963E+03  0.16927316147E+04  0.50400001928E-02 0. -1.
       -1    1    3    3    0  502 -0.13443341597E+04  0.32642126712E+03 -0.12061421909E+04  0.18353648578E+04  0.50400001928E-02 0.  1.
</event>
<event>
 5   0  0.4409125E-07  0.3497883E+04  0.7818609E-02  0.8114292E-01
       -1   -1    0    0    0  501  0.00000000000E+00  0.00000000000E+00  0.12602905476E+04  0.12602905476E+04  0.50400001928E-02 0.  1.
        1   -1    0    0  501    0  0.00000000000E+00  0.00000000000E+00 -0.24270559385E+04  0.24270559385E+04  0.50400001928E-02 0. -1.
    10030    2    1    2    0    0  0.00000000000E+00  0.00000000000E+00 -0.11667653909E+04  0.36873464862E+04  0.34978825926E+04 0.  0.
        5    1    3    3  502    0 -0.13114735641E+04 -0.88042441667E+03 -0.13748239398E+04  0.20941043475E+04  0.46999998093E+01 0. -1.
       -5    1    3    3    0  502  0.13114735641E+04  0.88042441667E+03  0.20805854886E+03  0.15932421387E+04  0.46999998093E+01 0.  1.
</event>
<event>
 5   0  0.4693374E-07  0.3427032E+04  0.7818609E-02  0.8131304E-01
        1   -1    0    0  501    0  0.00000000000E+00  0.00000000000E+00  0.88841157479E+03  0.88841157481E+03  0.50400001928E-02 0.  1.
       -1   -1    0    0    0  501  0.00000000000E+00  0.00000000000E+00 -0.33049281117E+04  0.33049281117E+04  0.50400001928E-02 0. -1.
    10030    2    1    2    0    0  0.00000000000E+00  0.00000000000E+00 -0.24165165369E+04  0.41933396865E+04  0.34270315950E+04 0.  0.
        1    1    3    3  502    0  0.69318609542E+03 -0.11866290493E+04 -0.24606132147E+04  0.28183706030E+04  0.50400001928E-02 0. -1.
       -1    1    3    3    0  502 -0.69318609542E+03  0.11866290493E+04  0.44096677830E+02  0.13749690835E+04  0.50400001928E-02 0.  1.
</event>
<event>
 5   0  0.4693374E-07  0.3585047E+04  0.7818609E-02  0.8093925E-01
       -1   -1    0    0    0  501  0.00000000000E+00  0.00000000000E+00  0.18464260324E+04  0.18464260324E+04  0.50400001928E-02 0. -1.
        1   -1    0    0  501    0  0.00000000000E+00  0.00000000000E+00 -0.17401947969E+04  0.17401947969E+04  0.50400001928E-02 0.  1.
    10030    2    1    2    0    0  0.00000000000E+00  0.00000000000E+00  0.10623123546E+03  0.35866208293E+04  0.35850472657E+04 0.  0.
        1    1    3    3  502    0  0.15454177609E+03 -0.12839940011E+04  0.12948764417E+04  0.18300898214E+04  0.50400001928E-02 0. -1.
       -1    1    3    3    0  502 -0.15454177609E+03  0.12839940011E+04 -0.11886452062E+04  0.17565310078E+04  0.50400001928E-02 0.  1.
</event>
<event>
 5   0  0.4591195E-07  0.3465216E+04  0.7818609E-02  0.8122083E-01
       -1   -1    0    0    0  501  0.00000000000E+00  0.00000000000E+00  0.26460791870E+04  0.26460791870E+04  0.50400001928E-02 0.  1.
        1   -1    0    0  501    0  0.00000000000E+00  0.00000000000E+00 -0.11344827808E+04  0.11344827808E+04  0.50400001928E-02 0. -1.
    10030    2    1    2    0    0  0.00000000000E+00  0.00000000000E+00  0.15115964063E+04  0.37805619678E+04  0.34652164574E+04 0.  0.
        4    1    3    3  502    0 -0.14322413551E+04 -0.43147467695E+03 -0.19809295014E+03  0.15088830723E+04  0.12699999809E+01 0. -1.
       -4    1    3    3    0  502  0.14322413551E+04  0.43147467695E+03  0.17096893564E+04  0.22716788955E+04  0.12699999809E+01 0.  1.
</event>
<event>
 5   0  0.1387133E-06  0.3529023E+04  0.7818609E-02  0.8106946E-01
       -2   -1    0    0    0  501  0.00000000000E+00  0.00000000000E+00  0.15414739354E+04  0.15414739354E+04  0.25500000920E-02 0. -1.
        2   -1    0    0  501    0  0.00000000000E+00  0.00000000000E+00 -0.20198210024E+04  0.20198210024E+04  0.25500000920E-02 0.  1.
    10030    2    1    2    0    0  0.00000000000E+00  0.00000000000E+00 -0.47834706704E+03  0.35612949377E+04  0.35290233376E+04 0.  0.
        4    1    3    3  502    0 -0.14938052998E+04  0.39081699100E+03  0.62263102764E+03  0.16648913489E+04  0.12699999809E+01 0. -1.
       -4    1    3    3    0  502  0.14938052998E+04 -0.39081699100E+03 -0.11009780947E+04  0.18964035889E+04  0.12699999809E+01 0.  1.
</event>
<event>
 5   0  0.1361560E-06  0.2803709E+04  0.7818609E-02  0.8302118E-01
        2   -1    0    0  501    0  0.00000000000E+00  0.00000000000E+00  0.15552452950E+04  0.15552452950E+04  0.25500000920E-02 0. -1.
       -2   -1    0    0    0  501  0.00000000000E+00  0.00000000000E+00 -0.12635926596E+04  0.12635926596E+04  0.25500000920E-02 0.  1.
    10030    2    1    2    0    0  0.00000000000E+00  0.00000000000E+00  0.29165263533E+03  0.28188379546E+04  0.28037093563E+04 0.  0.
        3    1    3    3  502    0 -0.10741364445E+04 -0.87969744394E+03 -0.49023028124E+02  0.13892587815E+04  0.10100000352E+00 0. -1.
       -3    1    3    3    0  502  0.10741364445E+04  0.87969744394E+03  0.34067566346E+03  0.14295791731E+04  0.10100000352E+00 0.  1.
</event>
<event>
 5   0  0.4693374E-07  0.3550839E+04  0.7818609E-02  0.8101846E-01
       -1   -1    0    0    0  501  0.00000000000E+00  0.00000000000E+00  0.11927640633E+04  0.11927640633E+04  0.50400001928E-02 0. -1.
        1   -1    0    0  501    0  0.00000000000E+00  0.00000000000E+00 -0.26426968286E+04  0.26426968286E+04  0.50400001928E-02 0.  1.
    10030    2    1    2    0    0  0.00000000000E+00  0.00000000000E+00 -0.14499327654E+04  0.38354608919E+04  0.35508386656E+04 0.  0.
        1    1    3    3  502    0 -0.16197627030E+04  0.68455178424E+03 -0.98926597867E+03  0.20176445514E+04  0.50400001928E-02 0.  1.
       -1    1    3    3    0  502  0.16197627030E+04 -0.68455178424E+03 -0.46066678671E+03  0.18178163405E+04  0.50400001928E-02 0. -1.
</event>
<event>
 5   0  0.1348388E-06  0.3516840E+04  0.7818609E-02  0.8109811E-01
       -2   -1    0    0    0  501  0.00000000000E+00  0.00000000000E+00  0.26997730237E+04  0.26997730237E+04  0.25500000920E-02 0. -1.
        2   -1    0    0  501    0  0.00000000000E+00  0.00000000000E+00 -0.11452967641E+04  0.11452967641E+04  0.25500000920E-02 0.  1.
    10030    2    1    2    0    0  0.00000000000E+00  0.00000000000E+00  0.15544762595E+04  0.38450697878E+04  0.35168402340E+04 0.  0.
        5    1    3    3  502    0  0.14997026902E+02 -0.17878421587E+03  0.26897329730E+04  0.26957140543E+04  0.46999998093E+01 0. -1.
       -5    1    3    3    0  502 -0.14997026902E+02  0.17878421587E+03 -0.11352567135E+04  0.11493557335E+04  0.46999998093E+01 0.  1.
</event>
<event>
 5   0  0.1361560E-06  0.3378980E+04  0.7818609E-02  0.8143085E-01
       -2   -1    0    0    0  501  0.00000000000E+00  0.00000000000E+00  0.15010815468E+04  0.15010815468E+04  0.25500000920E-02 0. -1.
        2   -1    0    0  501    0  0.00000000000E+00  0.00000000000E+00 -0.19015464798E+04  0.19015464798E+04  0.25500000920E-02 0.  1.
    10030    2    1    2    0    0  0.00000000000E+00  0.00000000000E+00 -0.40046493294E+03  0.34026280266E+04  0.33789799237E+04 0.  0.
        3    1    3    3  502    0 -0.83975879330E+03 -0.12021437902E+04  0.64470584168E+03  0.16018708299E+04  0.10100000352E+00 0. -1.
       -3    1    3    3    0  502  0.83975879330E+03  0.12021437902E+04 -0.10451707746E+04  0.18007571967E+04  0.10100000352E+00 0.  1.
</event>
<event>
 5   0  0.1387133E-06  0.3559703E+04  0.7818609E-02  0.8099785E-01
        2   -1    0    0  501    0  0.00000000000E+00  0.00000000000E+00  0.23866680194E+04  0.23866680194E+04  0.25500000920E-02 0.  1.
       -2   -1    0    0    0  501  0.00000000000E+00  0.00000000000E+00 -0.13273195166E+04  0.13273195166E+04  0.25500000920E-02 0. -1.
    10030    2    1    2    0    0  0.00000000000E+00  0.00000000000E+00  0.10593485027E+04  0.37139875360E+04  0.35597028201E+04 0.  0.
        4    1    3    3  502    0  0.16728325020E+04  0.81543238741E+02 -0.98805355683E+02  0.16777312034E+04  0.12699999809E+01 0. -1.
       -4    1    3    3    0  502 -0.16728325020E+04 -0.81543238741E+02  0.11581538584E+04  0.20362563326E+04  0.12699999809E+01 0.  1.
</event>
<event>
 5   0  0.1378620E-06  0.3502325E+04  0.7818609E-02  0.8113239E-01
       -2   -1    0    0    0  501  0.00000000000E+00  0.00000000000E+00  0.16547473211E+04  0.16547473211E+04  0.25500000920E-02 0.  1.
        2   -1    0    0  501    0  0.00000000000E+00  0.00000000000E+00 -0.18531959120E+04  0.18531959120E+04  0.25500000920E-02 0. -1.
    10030    2    1    2    0    0  0.00000000000E+00  0.00000000000E+00 -0.19844859096E+03  0.35079432331E+04  0.35023254965E+04 0.  0.
        2    1    3    3  502    0  0.28133485542E+03  0.14032911636E+04  0.91145101091E+03  0.16967964922E+04  0.25500000920E-02 0.  1.
       -2    1    3    3    0  502 -0.28133485542E+03 -0.14032911636E+04 -0.11098996019E+04  0.18111467409E+04  0.25500000920E-02 0. -1.
</event>
<event>
 5   0  0.1378620E-06  0.3421764E+04  0.7818609E-02  0.8132585E-01
        2   -1    0    0  501    0  0.00000000000E+00  0.00000000000E+00  0.22150184315E+04  0.22150184315E+04  0.25500000920E-02 0. -1.
       -2   -1    0    0    0  501  0.00000000000E+00  0.00000000000E+00 -0.13214869480E+04  0.13214869480E+04  0.25500000920E-02 0.  1.
    10030    2    1    2    0    0  0.00000000000E+00  0.00000000000E+00  0.89353148348E+03  0.35365053794E+04  0.34217644260E+04 0.  0.
        2    1    3    3  502    0  0.69084486284E+03 -0.15607265334E+04  0.56898512302E+03  0.17991325707E+04  0.25500000920E-02 0. -1.
       -2    1    3    3    0  502 -0.69084486284E+03  0.15607265334E+04  0.32454636046E+03  0.17373728088E+04  0.25500000920E-02 0.  1.
</event>
<event>
 5   0  0.1378620E-06  0.3500291E+04  0.7818609E-02  0.8113721E-01
        2   -1    0    0  501    0  0.00000000000E+00  0.00000000000E+00  0.24411235131E+04  0.24411235131E+04  0.25500000920E-02 0.  1.
       -2   -1    0    0    0  501  0.00000000000E+00  0.00000000000E+00 -0.12547539642E+04  0.12547539642E+04  0.25500000920E-02 0. -1.
    10030    2    1    2    0    0  0.00000000000E+00  0.00000000000E+00  0.11863695489E+04  0.36958774772E+04  0.35002910765E+04 0.  0.
        2    1    3    3  502    0 -0.11584061184E+04 -0.24121474973E+03  0.19547833796E+04  0.22850092673E+04  0.25500000920E-02 0.  1.
       -2    1    3    3    0  502  0.11584061184E+04  0.24121474973E+03 -0.76841383069E+03  0.14108682099E+04  0.25500000920E-02 0. -1.
</event>
<event>
 5   0  0.1361560E-06  0.3488261E+04  0.7818609E-02  0.8116578E-01
       -2   -1    0    0    0  501  0.00000000000E+00  0.00000000000E+00  0.19829082963E+04  0.19829082963E+04  0.25500000920E-02 0.  1.
        2   -1    0    0  501    0  0.00000000000E+00  0.00000000000E+00 -0.15341055410E+04  0.15341055410E+04  0.25500000920E-02 0. -1.
    10030    2    1    2    0    0  0.00000000000E+00  0.00000000000E+00  0.44880275528E+03  0.35170138372E+04  0.34882606580E+04 0.  0.
        3    1    3    3  502    0 -0.14796607069E+04 -0.52030525401E+03 -0.54469511062E+03  0.16603632550E+04  0.10100000352E+00 0.  1.
       -3    1    3    3    0  502  0.14796607069E+04  0.52030525401E+03  0.99349786591E+03  0.18566505822E+04  0.10100000352E+00 0. -1.
</event>
<event>
 5   0  0.1387133E-06  0.3522287E+04  0.7818609E-02  0.8108528E-01
       -2   -1    0    0    0  501  0.00000000000E+00  0.00000000000E+00  0.14938202335E+04  0.14938202335E+04  0.25500000920E-02 0. -1.
        2   -1    0    0  501    0  0.00000000000E+00  0.00000000000E+00 -0.20763054591E+04  0.20763054591E+04  0.25500000920E-02 0.  1.
    10030    2    1    2    0    0  0.00000000000E+00  0.00000000000E+00 -0.58248522557E+03  0.35701256927E+04  0.35222873851E+04 0.  0.
        4    1    3    3  502    0  0.13868280296E+04 -0.10348130484E+04 -0.62356055423E+03  0.18392823074E+04  0.12699999809E+01 0.  1.
       -4    1    3    3    0  502 -0.13868280296E+04  0.10348130484E+04  0.41075328657E+02  0.17308433852E+04  0.12699999809E+01 0. -1.
</event>
<event>
 5   0  0.1442864E-06  0.3580399E+04  0.7818609E-02  0.8094996E-01
       -2   -1    0    0    0  501  0.00000000000E+00  0.00000000000E+00  0.14729081697E+04  0.14729081697E+04  0.25500000920E-02 0.  1.
        2   -1    0    0  501    0  0.00000000000E+00  0.00000000000E+00 -0.21758410806E+04  0.21758410806E+04  0.25500000920E-02 0. -1.
    10030    2    1    2    0    0  0.00000000000E+00  0.00000000000E+00 -0.70293291092E+03  0.36487492502E+04  0.35803989183E+04 0.  0.
        1    1    3    3  502    0  0.53393144397E+03 -0.16649184622E+04  0.40290977234E+02  0.17489024088E+04  0.50400001928E-02 0.  1.
       -1    1    3    3    0  502 -0.53393144397E+03  0.16649184622E+04 -0.74322388815E+03  0.18998468414E+04  0.50400001928E-02 0. -1.
</event>
<event>
 5   0  0.4693374E-07  0.3428406E+04  0.7818609E-02  0.8130970E-01
       -1   -1    0    0    0  501  0.00000000000E+00  0.00000000000E+00  0.10383824724E+04  0.10383824724E+04  0.50400001928E-02 0. -1.
        1   -1    0    0  501    0  0.00000000000E+00  0.00000000000E+00 -0.28298737581E+04  0.28298737581E+04  0.50400001928E-02 0.  1.
    10030    2    1    2    0    0  0.00000000000E+00  0.00000000000E+00 -0.17914912857E+04  0.38682562305E+04  0.34284056409E+04 0.  0.
        1    1    3    3  502    0 -0.69927558306E+03 -0.51990716292E+03  0.76985825443E+03  0.11627431062E+04  0.50400001928E-02 0. -1.
       -1    1    3    3    0  502  0.69927558306E+03  0.51990716292E+03 -0.25613495401E+04  0.27055131243E+04  0.50400001928E-02 0.  1.
</event>
<event>
 5   0  0.4700769E-07  0.3475578E+04  0.7818609E-02  0.8119602E-01
        1   -1    0    0  501    0  0.00000000000E+00  0.00000000000E+00  0.16080940767E+04  0.16080940767E+04  0.50400001928E-02 0. -1.
       -1   -1    0    0    0  501  0.00000000000E+00  0.00000000000E+00 -0.18779443930E+04  0.18779443931E+04  0.50400001928E-02 0.  1.
    10030    2    1    2    0    0  0.00000000000E+00  0.00000000000E+00 -0.26985031637E+03  0.34860384697E+04  0.34755783719E+04 0.  0.
        3    1    3    3  502    0  0.28320191897E+03 -0.58680955053E+02 -0.18536354355E+04  0.18760626640E+04  0.10100000352E+00 0.  1.
       -3    1    3    3    0  502 -0.28320191897E+03  0.58680955053E+02  0.15837851191E+04  0.16099758057E+04  0.10100000352E+00 0. -1.
</event>
<event>
 5   0  0.4693374E-07  0.3527178E+04  0.7818609E-02  0.8107379E-01
        1   -1    0    0  501    0  0.00000000000E+00  0.00000000000E+00  0.21372907177E+04  0.21372907177E+04  0.50400001928E-02 0. -1.
       -1   -1    0    0    0  501  0.00000000000E+00  0.00000000000E+00 -0.14552283430E+04  0.14552283431E+04  0.50400001928E-02 0.  1.
    10030    2    1    2    0    0  0.00000000000E+00  0.00000000000E+00  0.68206237468E+03  0.35925190608E+04  0.35271779257E+04 0.  0.
        1    1    3    3  502    0 -0.63914333657E+03 -0.15729547279E+04  0.82689565832E+03  0.18885039609E+04  0.50400001928E-02 0. -1.
       -1    1    3    3    0  502  0.63914333657E+03  0.15729547279E+04 -0.14483328364E+03  0.17040150999E+04  0.50400001928E-02 0.  1.
</event>
<event>
 5   0  0.1387133E-06  0.3564542E+04  0.7818609E-02  0.8098662E-01
        2   -1    0    0  501    0  0.00000000000E+00  0.00000000000E+00  0.16174997443E+04  0.16174997443E+04  0.25500000920E-02 0.  1.
       -2   -1    0    0    0  501  0.00000000000E+00  0.00000000000E+00 -0.19638267917E+04  0.19638267917E+04  0.25500000920E-02 0. -1.
    10030    2    1    2    0    0  0.00000000000E+00  0.00000000000E+00 -0.34632704739E+03  0.35813265360E+04  0.35645416723E+04 0.  0.
        4    1    3    3  502    0  0.13707627755E+04 -0.64879139957E+03  0.76749662736E+03  0.16996980769E+04  0.12699999809E+01 0.  1.
       -4    1    3    3    0  502 -0.13707627755E+04  0.64879139957E+03 -0.11138236747E+04  0.18816284591E+04  0.12699999809E+01 0. -1.
</event>
<event>
 5   0  0.1378620E-06  0.3476721E+04  0.7818609E-02  0.8119329E-01
        2   -1    0    0  501    0  0.00000000000E+00  0.00000000000E+00  0.15858196794E+04  0.15858196794E+04  0.25500000920E-02 0. -1.
       -2   -1    0    0    0  501  0.00000000000E+00  0.00000000000E+00 -0.19055748340E+04  0.19055748340E+04  0.25500000920E-02 0.  1.
    10030    2    1    2    0    0  0.00000000000E+00  0.00000000000E+00 -0.31975515462E+03  0.34913945134E+04  0.34767214857E+04 0.  0.
        2    1    3    3  502    0 -0.73535442533E+03 -0.15128420652E+04 -0.60043264125E+03  0.17860449608E+04  0.25500000920E-02 0.  1.
       -2    1    3    3    0  502  0.73535442533E+03  0.15128420652E+04  0.28067748663E+03  0.17053495526E+04  0.25500000920E-02 0. -1.
</event>
<event>
 5   0  0.1378620E-06  0.2886592E+04  0.7818609E-02  0.8276878E-01
       -2   -1    0    0    0  501  0.00000000000E+00  0.00000000000E+00  0.22021872229E+04  0.22021872229E+04  0.25500000920E-02 0.  1.
        2   -1    0    0  501    0  0.00000000000E+00  0.00000000000E+00 -0.94592486057E+03  0.94592486058E+03  0.25500000920E-02 0. -1.
    10030    2    1    2    0    0  0.00000000000E+00  0.00000000000E+00  0.12562623623E+04  0.31481120834E+04  0.28865922066E+04 0.  0.
        2    1    3    3  502    0  0.76654423440E+03  0.20732014453E+03 -0.68626895818E+03  0.10495412277E+04  0.25500000920E-02 0. -1.
       -2    1    3    3    0  502 -0.76654423440E+03 -0.20732014453E+03  0.19425313205E+04  0.20985708558E+04  0.25500000920E-02 0.  1.
</event>
<event>
 5   0  0.1442864E-06  0.3541792E+04  0.7818609E-02  0.8103957E-01
        2   -1    0    0  501    0  0.00000000000E+00  0.00000000000E+00  0.19655609986E+04  0.19655609986E+04  0.25500000920E-02 0. -1.
       -2   -1    0    0    0  501  0.00000000000E+00  0.00000000000E+00 -0.15955101393E+04  0.15955101393E+04  0.25500000920E-02 0.  1.
    10030    2    1    2    0    0  0.00000000000E+00  0.00000000000E+00  0.37005085935E+03  0.35610711379E+04  0.35417919208E+04 0.  0.
        1    1    3    3  502    0 -0.59675776710E+03 -0.13634074204E+04 -0.77992410970E+03  0.16802622544E+04  0.50400001928E-02 0.  1.
       -1    1    3    3    0  502  0.59675776710E+03  0.13634074204E+04  0.11499749691E+04  0.18808088835E+04  0.50400001928E-02 0. -1.
</event>
<event>
 5   0  0.1348388E-06  0.3490942E+04  0.7818609E-02  0.8115940E-01
       -2   -1    0    0    0  501  0.00000000000E+00  0.00000000000E+00  0.22598291543E+04  0.22598291543E+04  0.25500000920E-02 0. -1.
        2   -1    0    0  501    0  0.00000000000E+00  0.00000000000E+00 -0.13481854259E+04  0.13481854259E+04  0.25500000920E-02 0.  1.
    10030    2    1    2    0    0  0.00000000000E+00  0.00000000000E+00  0.91164372844E+03  0.36080145802E+04  0.34909418390E+04 0.  0.
        5    1    3    3  502    0 -0.13393114656E+04 -0.88805141056E+03  0.11600356045E+04  0.19819422805E+04  0.46999998093E+01 0. -1.
       -5    1    3    3    0  502  0.13393114656E+04  0.88805141056E+03 -0.24839187609E+03  0.16260722996E+04  0.46999998093E+01 0.  1.
</event>
<event>
 5   0  0.4557237E-07  0.3321000E+04  0.7818609E-02  0.8157572E-01
        1   -1    0    0  501    0  0.00000000000E+00  0.00000000000E+00  0.20027368738E+04  0.20027368738E+04  0.50400001928E-02 0. -1.
       -1   -1    0    0    0  501  0.00000000000E+00  0.00000000000E+00 -0.13767464360E+04  0.13767464360E+04  0.50400001928E-02 0.  1.
    10030    2    1    2    0    0  0.00000000000E+00  0.00000000000E+00  0.62599043781E+03  0.33794833099E+04  0.33210003634E+04 0.  0.
        2    1    3    3  502    0 -0.80499311597E+03  0.40748994586E+03  0.17315300650E+04  0.19525005349E+04  0.25500000920E-02 0. -1.
       -2    1    3    3    0  502  0.80499311597E+03 -0.40748994586E+03 -0.11055396272E+04  0.14269827750E+04  0.25500000920E-02 0.  1.
</event>
<event>
 5   0  0.4700769E-07  0.3490258E+04  0.7818609E-02  0.8116103E-01
       -1   -1    0    0    0  501  0.00000000000E+00  0.00000000000E+00  0.12084773139E+04  0.12084773140E+04  0.50400001928E-02 0. -1.
        1   -1    0    0  501    0  0.00000000000E+00  0.00000000000E+00 -0.25200931097E+04  0.25200931097E+04  0.50400001928E-02 0.  1.
    10030    2    1    2    0    0  0.00000000000E+00  0.00000000000E+00 -0.13116157957E+04  0.37285704236E+04  0.34902580719E+04 0.  0.
        3    1    3    3  502    0 -0.73102087931E+03 -0.49755872142E+03  0.95141790170E+03  0.12989042463E+04  0.10100000352E+00 0. -1.
       -3    1    3    3    0  502  0.73102087931E+03  0.49755872142E+03 -0.22630336974E+04  0.24296661773E+04  0.10100000352E+00 0.  1.
</event>
<event>
 5   0  0.4693374E-07  0.3438098E+04  0.7818609E-02  0.8128619E-01
        1   -1    0    0  501    0  0.00000000000E+00  0.00000000000E+00  0.21989626377E+04  0.21989626377E+04  0.50400001928E-02 0. -1.
       -1   -1    0    0    0  501  0.00000000000E+00  0.00000000000E+00 -0.13438745781E+04  0.13438745781E+04  0.50400001928E-02 0.  1.
    10030    2    1    2    0    0  0.00000000000E+00  0.00000000000E+00  0.85508805961E+03  0.35428372158E+04  0.34380983040E+04 0.  0.
        1    1    3    3  502    0 -0.64672608113E+03 -0.78667962247E+03  0.18546571605E+04  0.21158621495E+04  0.50400001928E-02 0. -1.
       -1    1    3    3    0  502  0.64672608113E+03  0.78667962247E+03 -0.99956910090E+03  0.14269750663E+04  0.50400001928E-02 0.  1.
</event>
<event>
 5   0  0.4557237E-07  0.3510951E+04  0.7818609E-02  0.8111200E-01
       -1   -1    0    0    0  501  0.00000000000E+00  0.00000000000E+00  0.17096828968E+04  0.17096828968E+04  0.50400001928E-02 0.  1.
        1   -1    0    0  501    0  0.00000000000E+00  0.00000000000E+00 -0.18024946152E+04  0.18024946152E+04  0.50400001928E-02 0. -1.
    10030    2    1    2    0    0  0.00000000000E+00  0.00000000000E+00 -0.92811718363E+02  0.35121775120E+04  0.35109509909E+04 0.  0.
        2    1    3    3  502    0 -0.15755619515E+04  0.59473491403E+03 -0.54214848698E+03  0.17691890976E+04  0.25500000920E-02 0. -1.
       -2    1    3    3    0  502  0.15755619515E+04 -0.59473491403E+03  0.44933676862E+03  0.17429884144E+04  0.25500000920E-02 0.  1.
</event>
<event>
 5   0  0.1361560E-06  0.3466758E+04  0.7818609E-02  0.8121713E-01
        2   -1    0    0  501    0  0.00000000000E+00  0.00000000000E+00  0.16229315155E+04  0.16229315155E+04  0.25500000920E-02 0.  1.
       -2   -1    0    0    0  501  0.00000000000E+00  0.00000000000E+00 -0.18513430178E+04  0.18513430178E+04  0.25500000920E-02 0. -1.
    10030    2    1    2    0    0  0.00000000000E+00  0.00000000000E+00 -0.22841150234E+03  0.34742745333E+04  0.34667580992E+04 0.  0.
        3    1    3    3  502    0  0.12518055567E+04  0.62256174949E+03 -0.11411238040E+04  0.18046506116E+04  0.10100000352E+00 0. -1.
       -3    1    3    3    0  502 -0.12518055567E+04 -0.62256174949E+03  0.91271230171E+03  0.16696239216E+04  0.10100000352E+00 0.  1.
</event>
<event>
 5   0  0.4557237E-07  0.3463190E+04  0.7818609E-02  0.8122569E-01
       -1   -1    0    0    0  501  0.00000000000E+00  0.00000000000E+00  0.26207464431E+04  0.26207464431E+04  0.50400001928E-02 0. -1.
        1   -1    0    0  501    0  0.00000000000E+00  0.00000000000E+00 -0.11441095926E+04  0.11441095926E+04  0.50400001928E-02 0.  1.
    10030    2    1    2    0    0  0.00000000000E+00  0.00000000000E+00  0.14766368505E+04  0.37648560357E+04  0.34631899430E+04 0.  0.
        2    1    3    3  502    0  0.79467926695E+03 -0.14855538175E+04  0.11732097262E+04  0.20529993531E+04  0.25500000920E-02 0. -1.
       -2    1    3    3    0  502 -0.79467926695E+03  0.14855538175E+04  0.30342712436E+03  0.17118566826E+04  0.25500000920E-02 0.  1.
</event>
<event>
 5   0  0.1348388E-06  0.3570472E+04  0.7818609E-02  0.8097289E-01
       -2   -1    0    0    0  501  0.00000000000E+00  0.00000000000E+00  0.98350832761E+03  0.98350832761E+03  0.25500000920E-02 0.  1.
        2   -1    0    0  501    0  0.00000000000E+00  0.00000000000E+00 -0.32405098921E+04  0.32405098921E+04  0.25500000920E-02 0. -1.
    10030    2    1    2    0    0  0.00000000000E+00  0.00000000000E+00 -0.22570015645E+04  0.42240182197E+04  0.35704724979E+04 0.  0.
        5    1    3    3  502    0 -0.25792314136E+03 -0.27469624455E+03  0.93592038364E+03  0.10089357899E+04  0.46999998093E+01 0.  1.
       -5    1    3    3    0  502  0.25792314136E+03  0.27469624455E+03 -0.31929219482E+04  0.32150824299E+04  0.46999998093E+01 0. -1.
</event>
<event>
 5   0  0.1442864E-06  0.3569211E+04  0.7818609E-02  0.8097581E-01
        2   -1    0    0  501    0  0.00000000000E+00  0.00000000000E+00  0.23365206905E+04  0.23365206905E+04  0.25500000920E-02 0. -1.
       -2   -1    0    0    0  501  0.00000000000E+00  0.00000000000E+00 -0.13630591873E+04  0.13630591873E+04  0.25500000920E-02 0.  1.
    10030    2    1    2    0    0  0.00000000000E+00  0.00000000000E+00  0.97346150328E+03  0.36995798778E+04  0.35692105533E+04 0.  0.
        1    1    3    3  502    0  0.14514515728E+04  0.40730526897E+03 -0.50325029339E+03  0.15892986215E+04  0.50400001928E-02 0.  1.
       -1    1    3    3    0  502 -0.14514515728E+04 -0.40730526897E+03  0.14767117967E+04  0.21102812563E+04  0.50400001928E-02 0. -1.
</event>
<event>
 5   0  0.4409125E-07  0.3592598E+04  0.7818609E-02  0.8092189E-01
        1   -1    0    0  501    0  0.00000000000E+00  0.00000000000E+00  0.10950326666E+04  0.10950326667E+04  0.50400001928E-02 0. -1.
       -1   -1    0    0    0  501  0.00000000000E+00  0.00000000000E+00 -0.29466616514E+04  0.29466616514E+04  0.50400001928E-02 0.  1.
    10030    2    1    2    0    0  0.00000000000E+00  0.00000000000E+00 -0.18516289847E+04  0.40416943180E+04  0.35925983721E+04 0.  0.
        5    1    3    3  502    0 -0.17582882739E+04  0.22938598647E+03 -0.60273385506E+03  0.18728336218E+04  0.46999998093E+01 0. -1.
       -5    1    3    3    0  502  0.17582882739E+04 -0.22938598647E+03 -0.12488951297E+04  0.21688606963E+04  0.46999998093E+01 0.  1.
</event>
<event>
 5   0  0.4700769E-07  0.3511823E+04  0.7818609E-02  0.8110994E-01
        1   -1    0    0  501    0  0.00000000000E+00  0.00000000000E+00  0.20927859124E+04  0.20927859124E+04  0.50400001928E-02 0.  1.
       -1   -1    0    0    0  501  0.00000000000E+00  0.00000000000E+00 -0.14732634069E+04  0.14732634069E+04  0.50400001928E-02 0. -1.
    10030    2    1    2    0    0  0.00000000000E+00  0.00000000000E+00  0.61952250547E+03  0.35660493193E+04  0.35118228334E+04 0.  0.
        3    1    3    3  502    0 -0.75480688009E+03  0.87213971817E+02 -0.12976808219E+04  0.15037670128E+04  0.10100000352E+00 0. -1.
       -3    1    3    3    0  502  0.75480688009E+03 -0.87213971817E+02  0.19172033274E+04  0.20622823065E+04  0.10100000352E+00 0.  1.
</event>
<event>
 5   0  0.4693374E-07  0.3483313E+04  0.7818609E-02  0.8117756E-01
       -1   -1    0    0    0  501  0.00000000000E+00  0.00000000000E+00  0.17902316425E+04  0.17902316425E+04  0.50400001928E-02 0.  1.
        1   -1    0    0  501    0  0.00000000000E+00  0.00000000000E+00 -0.16943994788E+04  0.16943994788E+04  0.50400001928E-02 0. -1.
    10030    2    1    2    0    0  0.00000000000E+00  0.00000000000E+00  0.95832163617E+02  0.34846311213E+04  0.34833131137E+04 0.  0.
        1    1    3    3  502    0  0.67977242141E+02 -0.73293093880E+03 -0.15311484363E+04  0.16988891078E+04  0.50400001928E-02 0. -1.
       -1    1    3    3    0  502 -0.67977242141E+02  0.73293093880E+03  0.16269805999E+04  0.17857420136E+04  0.50400001928E-02 0.  1.
</event>
<event>
 5   0  0.4409125E-07  0.3518422E+04  0.7818609E-02  0.8109438E-01
        1   -1    0    0  501    0  0.00000000000E+00  0.00000000000E+00  0.14791925489E+04  0.14791925489E+04  0.50400001928E-02 0. -1.
       -1   -1    0    0    0  501  0.00000000000E+00  0.00000000000E+00 -0.20922382654E+04  0.20922382654E+04  0.50400001928E-02 0.  1.
    10030    2    1    2    0    0  0.00000000000E+00  0.00000000000E+00 -0.61304571653E+03  0.35714308143E+04  0.35184219489E+04 0.  0.
        5    1    3    3  502    0 -0.64553058247E+03  0.16161229497E+04 -0.56776790238E+03  0.18305588225E+04  0.46999998093E+01 0.  1.
       -5    1    3    3    0  502  0.64553058247E+03 -0.16161229497E+04 -0.45277814149E+02  0.17408719918E+04  0.46999998093E+01 0. -1.
</event>
<event>
 5   0  0.1378620E-06  0.3324107E+04  0.7818609E-02  0.8156788E-01
        2   -1    0    0  501    0  0.00000000000E+00  0.00000000000E+00  0.16351845395E+04  0.16351845395E+04  0.25500000920E-02 0.  1.
       -2   -1    0    0    0  501  0.00000000000E+00  0.00000000000E+00 -0.16893634845E+04  0.16893634845E+04  0.25500000920E-02 0. -1.
    10030    2    1    2    0    0  0.00000000000E+00  0.00000000000E+00 -0.54178944995E+02  0.33245480240E+04  0.33241065274E+04 0.  0.
        2    1    3    3  502    0  0.10978780395E+04 -0.28796156728E+03 -0.12414018747E+04  0.16820632177E+04  0.25500000920E-02 0. -1.
       -2    1    3    3    0  502 -0.10978780395E+04  0.28796156728E+03  0.11872229298E+04  0.16424848063E+04  0.25500000920E-02 0.  1.
</event>
<event>
 5   0  0.4557237E-07  0.3532084E+04  0.7818609E-02  0.8106228E-01
        1   -1    0    0  501    0  0.00000000000E+00  0.00000000000E+00  0.24797430724E+04  0.24797430725E+04  0.50400001928E-02 0.  1.
       -1   -1    0    0    0  501  0.00000000000E+00  0.00000000000E+00 -0.12577532731E+04  0.12577532731E+04  0.50400001928E-02 0. -1.
    10030    2    1    2    0    0  0.00000000000E+00  0.00000000000E+00  0.12219897993E+04  0.37374963456E+04  0.35320843511E+04 0.  0.
        2    1    3    3  502    0  0.12903761314E+04 -0.11499110584E+04  0.99477010891E+03  0.19942250556E+04  0.25500000920E-02 0.  1.
       -2    1    3    3    0  502 -0.12903761314E+04  0.11499110584E+04  0.22721969041E+03  0.17432712900E+04  0.25500000920E-02 0. -1.
</event>
<event>
 5   0  0.1348388E-06  0.3439009E+04  0.7818609E-02  0.8128398E-01
       -2   -1    0    0    0  501  0.00000000000E+00  0.00000000000E+00  0.14870680989E+04  0.14870680989E+04  0.25500000920E-02 0. -1.
        2   -1    0    0  501    0  0.00000000000E+00  0.00000000000E+00 -0.19882716473E+04  0.19882716473E+04  0.25500000920E-02 0.  1.
    10030    2    1    2    0    0  0.00000000000E+00  0.00000000000E+00 -0.50120354842E+03  0.34753397463E+04  0.34390087751E+04 0.  0.
        5    1    3    3  502    0 -0.56473913453E+03  0.14916072135E+04  0.39872093233E+03  0.16440264114E+04  0.46999998093E+01 0. -1.
       -5    1    3    3    0  502  0.56473913453E+03 -0.14916072135E+04 -0.89992448075E+03  0.18313133349E+04  0.46999998093E+01 0.  1.
</event>
<event>
 5   0  0.4693374E-07  0.3483419E+04  0.7818609E-02  0.8117731E-01
        1   -1    0    0  501    0  0.00000000000E+00  0.00000000000E+00  0.29531500424E+04  0.29531500424E+04  0.50400001928E-02 0. -1.
       -1   -1    0    0    0  501  0.00000000000E+00  0.00000000000E+00 -0.10272261079E+04  0.10272261079E+04  0.50400001928E-02 0.  1.
    10030    2    1    2    0    0  0.00000000000E+00  0.00000000000E+00  0.19259239345E+04  0.39803761503E+04  0.34834194833E+04 0.  0.
        1    1    3    3  502    0  0.13481466462E+04  0.58924908978E+03  0.20280560722E+04  0.25055389244E+04  0.50400001928E-02 0. -1.
       -1    1    3    3    0  502 -0.13481466462E+04 -0.58924908978E+03 -0.10213213772E+03  0.14748372260E+04  0.50400001928E-02 0.  1.
</event>
<event>
 5   0  0.1361560E-06  0.3548958E+04  0.7818609E-02  0.8102284E-01
        2   -1    0    0  501    0  0.00000000000E+00  0.00000000000E+00  0.27013945267E+04  0.27013945267E+04  0.25500000920E-02 0. -1.
       -2   -1    0    0    0  501  0.00000000000E+00  0.00000000000E+00 -0.11656115232E+04  0.11656115232E+04  0.25500000920E-02 0.  1.
    10030    2    1    2    0    0  0.00000000000E+00  0.00000000000E+00  0.15357830035E+04  0.38670060500E+04  0.35489584890E+04 0.  0.
        3    1    3    3  502    0 -0.97252431479E+03 -0.11067301930E+04  0.18455230415E+04  0.23614848232E+04  0.10100000352E+00 0. -1.
       -3    1    3    3    0  502  0.97252431479E+03  0.11067301930E+04 -0.30974003803E+03  0.15055212268E+04  0.10100000352E+00 0.  1.
</event>
<event>
 5   0  0.1348388E-06  0.3500032E+04  0.7818609E-02  0.8113782E-01
       -2   -1    0    0    0  501  0.00000000000E+00  0.00000000000E+00  0.21000507557E+04  0.21000507557E+04  0.25500000920E-02 0.  1.
        2   -1    0    0  501    0  0.00000000000E+00  0.00000000000E+00 -0.14583251183E+04  0.14583251183E+04  0.25500000920E-02 0. -1.
    10030    2    1    2    0    0  0.00000000000E+00  0.00000000000E+00  0.64172563740E+03  0.35583758740E+04  0.35000324380E+04 0.  0.
        5    1    3    3  502    0 -0.16137514136E+04 -0.67671262225E+03  0.34122360989E+03  0.17828598486E+04  0.46999998093E+01 0. -1.
       -5    1    3    3    0  502  0.16137514136E+04  0.67671262225E+03  0.30050202751E+03  0.17755160254E+04  0.46999998093E+01 0.  1.
</event>
<event>
 5   0  0.1348388E-06  0.3487929E+04  0.7818609E-02  0.8116657E-01
       -2   -1    0    0    0  501  0.00000000000E+00  0.00000000000E+00  0.16754784744E+04  0.16754784744E+04  0.25500000920E-02 0.  1.
        2   -1    0    0  501    0  0.00000000000E+00  0.00000000000E+00 -0.18152501635E+04  0.18152501635E+04  0.25500000920E-02 0. -1.
    10030    2    1    2    0    0  0.00000000000E+00  0.00000000000E+00 -0.13977168904E+03  0.34907286379E+04  0.34879292278E+04 0.  0.
        5    1    3    3  502    0 -0.60008630434E+02  0.12759896136E+04  0.11183496605E+04  0.16977863773E+04  0.46999998093E+01 0.  1.
       -5    1    3    3    0  502  0.60008630434E+02 -0.12759896136E+04 -0.12581213495E+04  0.17929422606E+04  0.46999998093E+01 0. -1.
</event>
<event>
 5   0  0.1361560E-06  0.3474414E+04  0.7818609E-02  0.8119880E-01
        2   -1    0    0  501    0  0.00000000000E+00  0.00000000000E+00  0.14614237917E+04  0.14614237917E+04  0.25500000920E-02 0. -1.
       -2   -1    0    0    0  501  0.00000000000E+00  0.00000000000E+00 -0.20650326799E+04  0.20650326799E+04  0.25500000920E-02 0.  1.
    10030    2    1    2    0    0  0.00000000000E+00  0.00000000000E+00 -0.60360888813E+03  0.35264564716E+04  0.34744138436E+04 0.  0.
        3    1    3    3  502    0  0.69454749031E+03  0.83945126726E+03 -0.16751473931E+04  0.19982976368E+04  0.10100000352E+00 0.  1.
       -3    1    3    3    0  502 -0.69454749031E+03 -0.83945126726E+03  0.10715385050E+04  0.15281588348E+04  0.10100000352E+00 0. -1.
</event>
<event>
 5   0  0.4693374E-07  0.2505361E+04  0.7818609E-02  0.8401078E-01
       -1   -1    0    0    0  501  0.00000000000E+00  0.00000000000E+00  0.13553022108E+04  0.13553022108E+04  0.50400001928E-02 0.  1.
        1   -1    0    0  501    0  0.00000000000E+00  0.00000000000E+00 -0.11578289103E+04  0.11578289103E+04  0.50400001928E-02 0. -1.
    10030    2    1    2    0    0  0.00000000000E+00  0.00000000000E+00  0.19747330050E+03  0.25131311211E+04  0.25053607180E+04 0.  0.
        1    1    3    3  502    0  0.84707541352E+03  0.82159777234E+03 -0.32286254249E+03  0.12234377291E+04  0.50400001928E-02 0. -1.
       -1    1    3    3    0  502 -0.84707541352E+03 -0.82159777234E+03  0.52033584299E+03  0.12896933919E+04  0.50400001928E-02 0.  1.
</event>
<event>
 5   0  0.4591195E-07  0.3404801E+04  0.7818609E-02  0.8136729E-01
       -1   -1    0    0    0  501  0.00000000000E+00  0.00000000000E+00  0.14852560909E+04  0.14852560909E+04  0.50400001928E-02 0. -1.
        1   -1    0    0  501    0  0.00000000000E+00  0.00000000000E+00 -0.19512909474E+04  0.19512909474E+04  0.50400001928E-02 0.  1.
    10030    2    1    2    0    0  0.00000000000E+00  0.00000000000E+00 -0.46603485653E+03  0.34365470383E+04  0.34048005902E+04 0.  0.
        4    1    3    3  502    0  0.76163930725E+03  0.35331788747E+03 -0.17277841198E+04  0.19209808800E+04  0.12699999809E+01 0.  1.
       -4    1    3    3    0  502 -0.76163930725E+03 -0.35331788747E+03  0.12617492632E+04  0.15155661583E+04  0.12699999809E+01 0. -1.
</event>
<event>
 5   0  0.4409125E-07  0.3408601E+04  0.7818609E-02  0.8135799E-01
       -1   -1    0    0    0  501  0.00000000000E+00  0.00000000000E+00  0.16653286787E+04  0.16653286787E+04  0.50400001928E-02 0.  1.
        1   -1    0    0  501    0  0.00000000000E+00  0.00000000000E+00 -0.17441844617E+04  0.17441844617E+04  0.50400001928E-02 0. -1.
    10030    2    1    2    0    0  0.00000000000E+00  0.00000000000E+00 -0.78855782959E+02  0.34095131404E+04  0.34086011237E+04 0.  0.
        5    1    3    3  502    0 -0.54950268484E+03  0.14868182415E+04  0.58686792398E+03  0.16902714972E+04  0.46999998093E+01 0.  1.
       -5    1    3    3    0  502  0.54950268484E+03 -0.14868182415E+04 -0.66572370694E+03  0.17192416433E+04  0.46999998093E+01 0. -1.
</event>
<event>
 5   0  0.1378620E-06  0.3511386E+04  0.7818609E-02  0.8111097E-01
        2   -1    0    0  501    0  0.00000000000E+00  0.00000000000E+00  0.18000691270E+04  0.18000691270E+04  0.25500000920E-02 0.  1.
       -2   -1    0    0    0  501  0.00000000000E+00  0.00000000000E+00 -0.17124110047E+04  0.17124110047E+04  0.25500000920E-02 0. -1.
    10030    2    1    2    0    0  0.00000000000E+00  0.00000000000E+00  0.87658122299E+02  0.35124801317E+04  0.35113861550E+04 0.  0.
        2    1    3    3  502    0 -0.14686877268E+04 -0.94766494621E+03  0.20924591372E+03  0.17603682403E+04  0.25500000920E-02 0.  1.
       -2    1    3    3    0  502  0.14686877268E+04  0.94766494621E+03 -0.12158779142E+03  0.17521118914E+04  0.25500000920E-02 0. -1.
</event>
<event>
 5   0  0.4700769E-07  0.3516704E+04  0.7818609E-02  0.8109843E-01
        1   -1    0    0  501    0  0.00000000000E+00  0.00000000000E+00  0.22119372107E+04  0.22119372108E+04  0.50400001928E-02 0.  1.
       -1   -1    0    0    0  501  0.00000000000E+00  0.00000000000E+00 -0.13977804008E+04  0.13977804008E+04  0.50400001928E-02 0. -1.
    10030    2    1    2    0    0  0.00000000000E+00  0.00000000000E+00  0.81415680995E+03  0.36097176116E+04  0.35167044124E+04 0.  0.
        3    1    3    3  502    0  0.10708740262E+04  0.11832905621E+04 -0.35058747014E+03  0.16339704155E+04  0.10100000352E+00 0. -1.
       -3    1    3    3    0  502 -0.10708740262E+04 -0.11832905621E+04  0.11647442801E+04  0.19757471960E+04  0.10100000352E+00 0.  1.
</event>
<event>
 5   0  0.4591195E-07  0.3522136E+04  0.7818609E-02  0.8108564E-01
       -1   -1    0    0    0  501  0.00000000000E+00  0.00000000000E+00  0.11010920735E+04  0.11010920735E+04  0.50400001928E-02 0.  1.
        1   -1    0    0  501    0  0.00000000000E+00  0.00000000000E+00 -0.28166216292E+04  0.28166216292E+04  0.50400001928E-02 0. -1.
    10030    2    1    2    0    0  0.00000000000E+00  0.00000000000E+00 -0.17155295557E+04  0.39177137027E+04  0.35221355737E+04 0.  0.
        4    1    3    3  502    0 -0.12724710132E+03  0.17551164219E+04 -0.78124403397E+03  0.19253491456E+04  0.12699999809E+01 0.  1.
       -4    1    3    3    0  502  0.12724710132E+03 -0.17551164219E+04 -0.93428552171E+03  0.19923645570E+04  0.12699999809E+01 0. -1.
</event>
<event>
 5   0  0.1387133E-06  0.2553673E+04  0.7818609E-02  0.8384110E-01
       -2   -1    0    0    0  501  0.00000000000E+00  0.00000000000E+00  0.10055967274E+04  0.10055967274E+04  0.25500000920E-02 0.  1.
        2   -1    0    0  501    0  0.00000000000E+00  0.00000000000E+00 -0.16212384339E+04  0.16212384339E+04  0.25500000920E-02 0. -1.
    10030    2    1    2    0    0  0.00000000000E+00  0.00000000000E+00 -0.61564170645E+03  0.26268351613E+04  0.25536734823E+04 0.  0.
        4    1    3    3  502    0 -0.31871940768E+03  0.38491715311E+02  0.96340308640E+03  0.10154854961E+04  0.12699999809E+01 0.  1.
       -4    1    3    3    0  502  0.31871940768E+03 -0.38491715311E+02 -0.15790447929E+04  0.16113496653E+04  0.12699999809E+01 0. -1.
</event>
<event>
 5   0  0.4591195E-07  0.2801694E+04  0.7818609E-02  0.8302743E-01
        1   -1    0    0  501    0  0.00000000000E+00  0.00000000000E+00  0.25858837163E+04  0.25858837163E+04  0.50400001928E-02 0.  1.
       -1   -1    0    0    0  501  0.00000000000E+00  0.00000000000E+00 -0.75887884647E+03  0.75887884649E+03  0.50400001928E-02 0. -1.
    10030    2    1    2    0    0  0.00000000000E+00  0.00000000000E+00  0.18270048698E+04  0.33447625628E+04  0.28016940959E+04 0.  0.
        4    1    3    3  502    0 -0.80379294376E+03 -0.81262114125E+03  0.18803875099E+04  0.22005215327E+04  0.12699999809E+01 0.  1.
       -4    1    3    3    0  502  0.80379294376E+03  0.81262114125E+03 -0.53382640108E+02  0.11442410300E+04  0.12699999809E+01 0. -1.
</event>
<event>
 5   0  0.4591195E-07  0.3504388E+04  0.7818609E-02  0.8112751E-01
       -1   -1    0    0    0  501  0.00000000000E+00  0.00000000000E+00  0.17128056011E+04  0.17128056011E+04  0.50400001928E-02 0. -1.
        1   -1    0    0  501    0  0.00000000000E+00  0.00000000000E+00 -0.17924880703E+04  0.17924880703E+04  0.50400001928E-02 0.  1.
    10030    2    1    2    0    0  0.00000000000E+00  0.00000000000E+00 -0.79682469212E+02  0.35052936714E+04  0.35043878819E+04 0.  0.
        4    1    3    3  502    0  0.21892194485E+03  0.18380000339E+03 -0.17690080320E+04  0.17919543212E+04  0.12699999809E+01 0.  1.
       -4    1    3    3    0  502 -0.21892194485E+03 -0.18380000339E+03  0.16893255627E+04  0.17133393502E+04  0.12699999809E+01 0. -1.
</event>
<event>
 5   0  0.4693374E-07  0.3633400E+04  0.7818609E-02  0.8082883E-01
       -1   -1    0    0    0  501  0.00000000000E+00  0.00000000000E+00  0.14720708272E+04  0.14720708272E+04  0.50400001928E-02 0.  1.
        1   -1    0    0  501    0  0.00000000000E+00  0.00000000000E+00 -0.22420114903E+04  0.22420114903E+04  0.50400001928E-02 0. -1.
    10030    2    1    2    0    0  0.00000000000E+00  0.00000000000E+00 -0.76994066310E+03  0.37140823176E+04  0.36334004509E+04 0.  0.
        1    1    3    3  502    0  0.30817420595E+03  0.12502346907E+04  0.92502577308E+03  0.15854749459E+04  0.50400001928E-02 0.  1.
       -1    1    3    3    0  502 -0.30817420595E+03 -0.12502346907E+04 -0.16949664362E+04  0.21286073717E+04  0.50400001928E-02 0. -1.
</event>
<event>
 5   0  0.1442864E-06  0.3515197E+04  0.7818609E-02  0.8110198E-01
        2   -1    0    0  501    0  0.00000000000E+00  0.00000000000E+00  0.16531077812E+04  0.16531077812E+04  0.25500000920E-02 0. -1.
       -2   -1    0    0    0  501  0.00000000000E+00  0.00000000000E+00 -0.18686938353E+04  0.18686938353E+04  0.25500000920E-02 0.  1.
    10030    2    1    2    0    0  0.00000000000E+00  0.00000000000E+00 -0.21558605412E+03  0.35218016165E+04  0.35151969048E+04 0.  0.
        1    1    3    3  502    0  0.15772466556E+04 -0.25143019453E+03 -0.84281181660E+03  0.18058947681E+04  0.50400001928E-02 0. -1.
       -1    1    3    3    0  502 -0.15772466556E+04  0.25143019453E+03  0.62722576248E+03  0.17159068484E+04  0.50400001928E-02 0.  1.
</event>
<event>
 5   0  0.4700769E-07  0.3543495E+04  0.7818609E-02  0.8103559E-01
        1   -1    0    0  501    0  0.00000000000E+00  0.00000000000E+00  0.13225566399E+04  0.13225566399E+04  0.50400001928E-02 0. -1.
       -1   -1    0    0    0  501  0.00000000000E+00  0.00000000000E+00 -0.23735009101E+04  0.23735009102E+04  0.50400001928E-02 0.  1.
    10030    2    1    2    0    0  0.00000000000E+00  0.00000000000E+00 -0.10509442703E+04  0.36960575500E+04  0.35434951042E+04 0.  0.
        3    1    3    3  502    0  0.70567576306E+03 -0.78507542633E+03  0.95873490304E+03  0.14260064278E+04  0.10100000352E+00 0. -1.
       -3    1    3    3    0  502 -0.70567576306E+03  0.78507542633E+03 -0.20096791733E+04  0.22700511222E+04  0.10100000352E+00 0.  1.
</event>
<event>
 5   0  0.1378620E-06  0.3498384E+04  0.7818609E-02  0.8114173E-01
        2   -1    0    0  501    0  0.00000000000E+00  0.00000000000E+00  0.11357549964E+04  0.11357549964E+04  0.25500000920E-02 0. -1.
       -2   -1    0    0    0  501  0.00000000000E+00  0.00000000000E+00 -0.26939552823E+04  0.26939552823E+04  0.25500000920E-02 0.  1.
    10030    2    1    2    0    0  0.00000000000E+00  0.00000000000E+00 -0.15582002858E+04  0.38297102787E+04  0.34983842968E+04 0.  0.
        2    1    3    3  502    0 -0.23352018732E+03  0.57757399853E+03 -0.25683872813E+04  0.26428652309E+04  0.25500000920E-02 0.  1.
       -2    1    3    3    0  502  0.23352018732E+03 -0.57757399853E+03  0.10101869955E+04  0.11868450478E+04  0.25500000920E-02 0. -1.
</event>
<event>
 5   0  0.1361560E-06  0.3740172E+04  0.7818609E-02  0.8059117E-01
       -2   -1    0    0    0  501  0.00000000000E+00  0.00000000000E+00  0.16547399611E+04  0.16547399611E+04  0.25500000920E-02 0. -1.
        2   -1    0    0  501    0  0.00000000000E+00  0.00000000000E+00 -0.21134565646E+04  0.21134565646E+04  0.25500000920E-02 0.  1.
    10030    2    1    2    0    0  0.00000000000E+00  0.00000000000E+00 -0.45871660342E+03  0.37681965257E+04  0.37401716718E+04 0.  0.
        3    1    3    3  502    0  0.62045516308E+02  0.13862939689E+04 -0.14923705087E+04  0.20378494448E+04  0.10100000352E+00 0.  1.
       -3    1    3    3    0  502 -0.62045516308E+02 -0.13862939689E+04  0.10336539052E+04  0.17303470809E+04  0.10100000352E+00 0. -1.
</event>
<event>
 5   0  0.4409125E-07  0.3498360E+04  0.7818609E-02  0.8114179E-01
        1   -1    0    0  501    0  0.00000000000E+00  0.00000000000E+00  0.27496677870E+04  0.27496677870E+04  0.50400001928E-02 0. -1.
       -1   -1    0    0    0  501  0.00000000000E+00  0.00000000000E+00 -0.11127275396E+04  0.11127275396E+04  0.50400001928E-02 0.  1.
    10030    2    1    2    0    0  0.00000000000E+00  0.00000000000E+00  0.16369402474E+04  0.38623953267E+04  0.34983602282E+04 0.  0.
        5    1    3    3  502    0  0.12850016135E+04 -0.10137262284E+04  0.13722115081E+03  0.16424742759E+04  0.46999998093E+01 0.  1.
       -5    1    3    3    0  502 -0.12850016135E+04  0.10137262284E+04  0.14997190966E+04  0.22199210508E+04  0.46999998093E+01 0. -1.
</event>
<event>
 5   0  0.1387133E-06  0.3415384E+04  0.7818609E-02  0.8134141E-01
       -2   -1    0    0    0  501  0.00000000000E+00  0.00000000000E+00  0.19759537078E+04  0.19759537078E+04  0.25500000920E-02 0.  1.
        2   -1    0    0  501    0  0.00000000000E+00  0.00000000000E+00 -0.14758505014E+04  0.14758505014E+04  0.25500000920E-02 0. -1.
    10030    2    1    2    0    0  0.00000000000E+00  0.00000000000E+00  0.50010320638E+03  0.34518042092E+04  0.34153841778E+04 0.  0.
        4    1    3    3  502    0 -0.10377863621E+04  0.31385120843E+03  0.15834793792E+04  0.19190913662E+04  0.12699999809E+01 0. -1.
       -4    1    3    3    0  502  0.10377863621E+04 -0.31385120843E+03 -0.10833761729E+04  0.15327128430E+04  0.12699999809E+01 0.  1.
</event>
<event>
 5   0  0.1387133E-06  0.3651252E+04  0.7818609E-02  0.8078852E-01
       -2   -1    0    0    0  501  0.00000000000E+00  0.00000000000E+00  0.15819339396E+04  0.15819339396E+04  0.25500000920E-02 0. -1.
        2   -1    0    0  501    0  0.00000000000E+00  0.00000000000E+00 -0.21068576156E+04  0.21068576156E+04  0.25500000920E-02 0.  1.
    10030    2    1    2    0    0  0.00000000000E+00  0.00000000000E+00 -0.52492367597E+03  0.36887915552E+04  0.36512516035E+04 0.  0.
        4    1    3    3  502    0  0.17966299708E+04  0.29953980746E+03 -0.13747811837E+03  0.18266103016E+04  0.12699999809E+01 0.  1.
       -4    1    3    3    0  502 -0.17966299708E+04 -0.29953980746E+03 -0.38744555760E+03  0.18621812535E+04  0.12699999809E+01 0. -1.
</event>
<event>
 5   0  0.1378620E-06  0.3453864E+04  0.7818609E-02  0.8124811E-01
        2   -1    0    0  501    0  0.00000000000E+00  0.00000000000E+00  0.28013683608E+04  0.28013683608E+04  0.25500000920E-02 0.  1.
       -2   -1    0    0    0  501  0.00000000000E+00  0.00000000000E+00 -0.10645850287E+04  0.10645850287E+04  0.25500000920E-02 0. -1.
    10030    2    1    2    0    0  0.00000000000E+00  0.00000000000E+00  0.17367833320E+04  0.38659533895E+04  0.34538643961E+04 0.  0.
        2    1    3    3  502    0 -0.40408498571E+02  0.15685447909E+04  0.60988526041E+02  0.15702500463E+04  0.25500000920E-02 0.  1.
       -2    1    3    3    0  502  0.40408498571E+02 -0.15685447909E+04  0.16757948060E+04  0.22957033431E+04  0.25500000920E-02 0. -1.
</event>
<event>
 5   0  0.4409125E-07  0.3395155E+04  0.7818609E-02  0.8139096E-01
        1   -1    0    0  501    0  0.00000000000E+00  0.00000000000E+00  0.16623874628E+04  0.16623874628E+04  0.50400001928E-02 0. -1.
       -1   -1    0    0    0  501  0.00000000000E+00  0.00000000000E+00 -0.17335125998E+04  0.17335125998E+04  0.50400001928E-02 0.  1.
    10030    2    1    2    0    0  0.00000000000E+00  0.00000000000E+00 -0.71125136971E+02  0.33959000626E+04  0.33951551437E+04 0.  0.
        5    1    3    3  502    0 -0.15197046160E+04  0.15061659472E+03 -0.77704839067E+03  0.17134800174E+04  0.46999998093E+01 0.  1.
       -5    1    3    3    0  502  0.15197046160E+04 -0.15061659472E+03  0.70592325369E+03  0.16824200452E+04  0.46999998093E+01 0. -1.
</event>
<event>
 5   0  0.1361560E-06  0.3305539E+04  0.7818609E-02  0.8161487E-01
        2   -1    0    0  501    0  0.00000000000E+00  0.00000000000E+00  0.14546843681E+04  0.14546843681E+04  0.25500000920E-02 0. -1.
       -2   -1    0    0    0  501  0.00000000000E+00  0.00000000000E+00 -0.18778283517E+04  0.18778283517E+04  0.25500000920E-02 0.  1.
    10030    2    1    2    0    0  0.00000000000E+00  0.00000000000E+00 -0.42314398353E+03  0.33325127198E+04  0.33055393201E+04 0.  0.
        3    1    3    3  502    0 -0.14946609245E+04 -0.69965638642E+03 -0.12074129843E+03  0.16547231822E+04  0.10100000352E+00 0. -1.
       -3    1    3    3    0  502  0.14946609245E+04  0.69965638642E+03 -0.30240268509E+03  0.16777895376E+04  0.10100000352E+00 0.  1.
</event>
<event>
 5   0  0.4700769E-07  0.3510153E+04  0.7818609E-02  0.8111388E-01
        1   -1    0    0  501    0  0.00000000000E+00  0.00000000000E+00  0.97112628805E+03  0.97112628807E+03  0.50400001928E-02 0.  1.
       -1   -1    0    0    0  501  0.00000000000E+00  0.00000000000E+00 -0.31718775376E+04  0.31718775376E+04  0.50400001928E-02 0. -1.
    10030    2    1    2    0    0  0.00000000000E+00  0.00000000000E+00 -0.22007512495E+04  0.41430038256E+04  0.35101530789E+04 0.  0.
        3    1    3    3  502    0  0.44855343561E+03 -0.14876638917E+04 -0.13719006678E+03  0.15598606232E+04  0.10100000352E+00 0.  1.
       -3    1    3    3    0  502 -0.44855343561E+03  0.14876638917E+04 -0.20635611827E+04  0.25831432024E+04  0.10100000352E+00 0. -1.
</event>
<event>
 5   0  0.1387133E-06  0.3750989E+04  0.7818609E-02  0.8056755E-01
        2   -1    0    0  501    0  0.00000000000E+00  0.00000000000E+00  0.11087364145E+04  0.11087364145E+04  0.25500000920E-02 0.  1.
       -2   -1    0    0    0  501  0.00000000000E+00  0.00000000000E+00 -0.31725118765E+04  0.31725118765E+04  0.25500000920E-02 0. -1.
    10030    2    1    2    0    0  0.00000000000E+00  0.00000000000E+00 -0.20637754620E+04  0.42812482910E+04  0.37509889059E+04 0.  0.
        4    1    3    3  502    0 -0.21394351431E+03 -0.30081001830E+03  0.10668651617E+04  0.11289204492E+04  0.12699999809E+01 0.  1.
       -4    1    3    3    0  502  0.21394351431E+03  0.30081001830E+03 -0.31306406238E+04  0.31523278419E+04  0.12699999809E+01 0. -1.
</event>
<event>
 5   0  0.4591195E-07  0.3552349E+04  0.7818609E-02  0.8101495E-01
       -1   -1    0    0    0  501  0.00000000000E+00  0.00000000000E+00  0.17012048939E+04  0.17012048939E+04  0.50400001928E-02 0. -1.
        1   -1    0    0  501    0  0.00000000000E+00  0.00000000000E+00 -0.18544483370E+04  0.18544483370E+04  0.50400001928E-02 0.  1.
    10030    2    1    2    0    0  0.00000000000E+00  0.00000000000E+00 -0.15324344318E+03  0.35556532309E+04  0.35523494121E+04 0.  0.
        4    1    3    3  502    0  0.76030987487E+03  0.14894696732E+03 -0.16764006165E+04  0.18467747412E+04  0.12699999809E+01 0.  1.
       -4    1    3    3    0  502 -0.76030987487E+03 -0.14894696732E+03  0.15231571733E+04  0.17088784897E+04  0.12699999809E+01 0. -1.
</event>
<event>
 5   0  0.4700769E-07  0.3452408E+04  0.7818609E-02  0.8125162E-01
        1   -1    0    0  501    0  0.00000000000E+00  0.00000000000E+00  0.17362365060E+04  0.17362365060E+04  0.50400001928E-02 0.  1.
       -1   -1    0    0    0  501  0.00000000000E+00  0.00000000000E+00 -0.17162292680E+04  0.17162292680E+04  0.50400001928E-02 0. -1.
    10030    2    1    2    0    0  0.00000000000E+00  0.00000000000E+00  0.20007238054E+02  0.34524657740E+04  0.34524078019E+04 0.  0.
        3    1    3    3  502    0  0.10910947814E+04 -0.12452228663E+04 -0.47858629654E+03  0.17234014803E+04  0.10100000352E+00 0. -1.
       -3    1    3    3    0  502 -0.10910947814E+04  0.12452228663E+04  0.49859353460E+03  0.17290642937E+04  0.10100000352E+00 0.  1.
</event>
<event>
 5   0  0.1378620E-06  0.3345581E+04  0.7818609E-02  0.8151393E-01
       -2   -1    0    0    0  501  0.00000000000E+00  0.00000000000E+00  0.17914579916E+04  0.17914579916E+04  0.25500000920E-02 0.  1.
        2   -1    0    0  501    0  0.00000000000E+00  0.00000000000E+00 -0.15619834600E+04  0.15619834600E+04  0.25500000920E-02 0. -1.
    10030    2    1    2    0    0  0.00000000000E+00  0.00000000000E+00  0.22947453157E+03  0.33534414516E+04  0.33455808179E+04 0.  0.
        2    1    3    3  502    0 -0.12862529689E+04 -0.36411898782E+03 -0.89320902959E+03  0.16077474017E+04  0.25500000920E-02 0. -1.
       -2    1    3    3    0  502  0.12862529689E+04  0.36411898782E+03  0.11226835612E+04  0.17456940499E+04  0.25500000920E-02 0.  1.
</event>
<event>
 5   0  0.4700769E-07  0.3525263E+04  0.7818609E-02  0.8107829E-01
       -1   -1    0    0    0  501  0.00000000000E+00  0.00000000000E+00  0.30438928450E+04  0.30438928450E+04  0.50400001928E-02 0. -1.
        1   -1    0    0  501    0  0.00000000000E+00  0.00000000000E+00 -0.10206897010E+04  0.10206897010E+04  0.50400001928E-02 0.  1.
    10030    2    1    2    0    0  0.00000000000E+00  0.00000000000E+00  0.20232031440E+04  0.40645825460E+04  0.35252631550E+04 0.  0.
        3    1    3    3  502    0 -0.87584188123E+03 -0.15503355352E+03  0.27661642945E+04  0.29056495518E+04  0.10100000352E+00 0. -1.
       -3    1    3    3    0  502  0.87584188123E+03  0.15503355352E+03 -0.74296115056E+03  0.11589329942E+04  0.10100000352E+00 0.  1.
</event>
<event>
 5   0  0.1387133E-06  0.3124974E+04  0.7818609E-02  0.8208917E-01
        2   -1    0    0  501    0  0.00000000000E+00  0.00000000000E+00  0.23445910768E+04  0.23445910768E+04  0.25500000920E-02 0.  1.
       -2   -1    0    0    0  501  0.00000000000E+00  0.00000000000E+00 -0.10412755055E+04  0.10412755055E+04  0.25500000920E-02 0. -1.
    10030    2    1    2    0    0  0.00000000000E+00  0.00000000000E+00  0.13033155713E+04  0.33858665823E+04  0.31249737655E+04 0.  0.
        4    1    3    3  502    0  0.59069783407E+03 -0.66796844918E+03 -0.73852656965E+03  0.11578121122E+04  0.12699999809E+01 0. -1.
       -4    1    3    3    0  502 -0.59069783407E+03  0.66796844918E+03  0.20418421409E+04  0.22280544701E+04  0.12699999809E+01 0.  1.
</event>
<event>
 5   0  0.1442864E-06  0.3512430E+04  0.7818609E-02  0.8110851E-01
        2   -1    0    0  501    0  0.00000000000E+00  0.00000000000E+00  0.18897340878E+04  0.18897340878E+04  0.25500000920E-02 0. -1.
       -2   -1    0    0    0  501  0.00000000000E+00  0.00000000000E+00 -0.16321295410E+04  0.16321295410E+04  0.25500000920E-02 0.  1.
    10030    2    1    2    0    0  0.00000000000E+00  0.00000000000E+00  0.25760454682E+03  0.35218636288E+04  0.35124298309E+04 0.  0.
        1    1    3    3  502    0 -0.10064032023E+04 -0.49588885232E+03 -0.12259512153E+04  0.16618392045E+04  0.50400001928E-02 0.  1.
       -1    1    3    3    0  502  0.10064032023E+04  0.49588885232E+03  0.14835557621E+04  0.18600244242E+04  0.50400001928E-02 0. -1.
</event>
<event>
 5   0  0.1361560E-06  0.3541272E+04  0.7818609E-02  0.8104078E-01
        2   -1    0    0  501    0  0.00000000000E+00  0.00000000000E+00  0.26290400682E+04  0.26290400682E+04  0.25500000920E-02 0. -1.
       -2   -1    0    0    0  501  0.00000000000E+00  0.00000000000E+00 -0.11925083703E+04  0.11925083703E+04  0.25500000920E-02 0.  1.
    10030    2    1    2    0    0  0.00000000000E+00  0.00000000000E+00  0.14365316979E+04  0.38215484384E+04  0.35412722500E+04 0.  0.
        3    1    3    3  502    0 -0.77835715733E+03 -0.97879848147E+03 -0.63444477658E+03  0.14022861749E+04  0.10100000352E+00 0.  1.
       -3    1    3    3    0  502  0.77835715733E+03  0.97879848147E+03  0.20709764745E+04  0.24192622635E+04  0.10100000352E+00 0. -1.
</event>
<event>
 5   0  0.1361560E-06  0.3504542E+04  0.7818609E-02  0.8112714E-01
        2   -1    0    0  501    0  0.00000000000E+00  0.00000000000E+00  0.26417037482E+04  0.26417037482E+04  0.25500000920E-02 0.  1.
       -2   -1    0    0    0  501  0.00000000000E+00  0.00000000000E+00 -0.11623008575E+04  0.11623008575E+04  0.25500000920E-02 0. -1.
    10030    2    1    2    0    0  0.00000000000E+00  0.00000000000E+00  0.14794028907E+04  0.38040046057E+04  0.35045424990E+04 0.  0.
        3    1    3    3  502    0  0.13351719089E+04 -0.55734765366E+03  0.18126694835E+04  0.23192867653E+04  0.10100000352E+00 0.  1.
       -3    1    3    3    0  502 -0.13351719089E+04  0.55734765366E+03 -0.33326659281E+03  0.14847178404E+04  0.10100000352E+00 0. -1.
</event>
<event>
 5   0  0.1348388E-06  0.3499476E+04  0.7818609E-02  0.8113914E-01
       -2   -1    0    0    0  501  0.00000000000E+00  0.00000000000E+00  0.15995144457E+04  0.15995144457E+04  0.25500000920E-02 0.  1.
        2   -1    0    0  501    0  0.00000000000E+00  0.00000000000E+00 -0.19140705356E+04  0.19140705356E+04  0.25500000920E-02 0. -1.
    10030    2    1    2    0    0  0.00000000000E+00  0.00000000000E+00 -0.31455608985E+03  0.35135849813E+04  0.34994762304E+04 0.  0.
        5    1    3    3  502    0 -0.13172165531E+04  0.10939036753E+04  0.20455898407E+03  0.17243987840E+04  0.46999998093E+01 0.  1.
       -5    1    3    3    0  502  0.13172165531E+04 -0.10939036753E+04 -0.51911507392E+03  0.17891861972E+04  0.46999998093E+01 0. -1.
</event>
<event>
 5   0  0.4700769E-07  0.3451003E+04  0.7818609E-02  0.8125501E-01
       -1   -1    0    0    0  501  0.00000000000E+00  0.00000000000E+00  0.13611022069E+04  0.13611022070E+04  0.50400001928E-02 0.  1.
        1   -1    0    0  501    0  0.00000000000E+00  0.00000000000E+00 -0.21874589848E+04  0.21874589848E+04  0.50400001928E-02 0. -1.
    10030    2    1    2    0    0  0.00000000000E+00  0.00000000000E+00 -0.82635677789E+03  0.35485611918E+04  0.34510028988E+04 0.  0.
        3    1    3    3  502    0  0.10217103053E+04 -0.89872317028E+03  0.67783447919E+03  0.15202154045E+04  0.10100000352E+00 0.  1.
       -3    1    3    3    0  502 -0.10217103053E+04  0.89872317028E+03 -0.15041912571E+04  0.20283457873E+04  0.10100000352E+00 0. -1.
</event>
<event>
 5   0  0.4591195E-07  0.3573767E+04  0.7818609E-02  0.8096527E-01
        1   -1    0    0  501    0  0.00000000000E+00  0.00000000000E+00  0.28670638868E+04  0.28670638868E+04  0.50400001928E-02 0. -1.
       -1   -1    0    0    0  501  0.00000000000E+00  0.00000000000E+00 -0.11136665337E+04  0.11136665337E+04  0.50400001928E-02 0.  1.
    10030    2    1    2    0    0  0.00000000000E+00  0.00000000000E+00  0.17533973531E+04  0.39807304204E+04  0.35737672563E+04 0.  0.
        4    1    3    3  502    0  0.95294357293E+03 -0.11431691879E+04  0.19782610469E+04  0.24755717780E+04  0.12699999809E+01 0. -1.
       -4    1    3    3    0  502 -0.95294357293E+03  0.11431691879E+04 -0.22486369376E+03  0.15051586425E+04  0.12699999809E+01 0.  1.
</event>
<event>
 5   0  0.1387133E-06  0.3434023E+04  0.7818609E-02  0.8129606E-01
        2   -1    0    0  501    0  0.00000000000E+00  0.00000000000E+00  0.16987481495E+04  0.16987481495E+04  0.25500000920E-02 0. -1.
       -2   -1    0    0    0  501  0.00000000000E+00  0.00000000000E+00 -0.17354712671E+04  0.17354712671E+04  0.25500000920E-02 0.  1.
    10030    2    1    2    0    0  0.00000000000E+00  0.00000000000E+00 -0.36723117604E+02  0.34342194165E+04  0.34340230654E+04 0.  0.
        4    1    3    3  502    0  0.59811889201E+02  0.16896823168E+04 -0.31758293941E+03  0.17203093704E+04  0.12699999809E+01 0.  1.
       -4    1    3    3    0  502 -0.59811889201E+02 -0.16896823168E+04  0.28085982181E+03  0.17139100461E+04  0.12699999809E+01 0. -1.
</event>
<event>
 5   0  0.4700769E-07  0.3496416E+04  0.7818609E-02  0.8114640E-01
        1   -1    0    0  501    0  0.00000000000E+00  0.00000000000E+00  0.28733878360E+04  0.28733878360E+04  0.50400001928E-02 0. -1.
       -1   -1    0    0    0  501  0.00000000000E+00  0.00000000000E+00 -0.10636332510E+04  0.10636332510E+04  0.50400001928E-02 0.  1.
    10030    2    1    2    0    0  0.00000000000E+00  0.00000000000E+00  0.18097545850E+04  0.39370210870E+04  0.34964157907E+04 0.  0.
        3    1    3    3  502    0 -0.11155639556E+03  0.10557029576E+04  0.24688961746E+04  0.26874526778E+04  0.10100000352E+00 0. -1.
       -3    1    3    3    0  502  0.11155639556E+03 -0.10557029576E+04 -0.65914158957E+03  0.12495684093E+04  0.10100000352E+00 0.  1.
</event>
<event>
 5   0  0.4591195E-07  0.3516612E+04  0.7818609E-02  0.8109864E-01
        1   -1    0    0  501    0  0.00000000000E+00  0.00000000000E+00  0.27149283489E+04  0.27149283489E+04  0.50400001928E-02 0.  1.
       -1   -1    0    0    0  501  0.00000000000E+00  0.00000000000E+00 -0.11387557277E+04  0.11387557277E+04  0.50400001928E-02 0. -1.
    10030    2    1    2    0    0  0.00000000000E+00  0.00000000000E+00  0.15761726212E+04  0.38536840766E+04  0.35166121240E+04 0.  0.
        4    1    3    3  502    0  0.17536812313E+04 -0.72393150121E+02  0.67315263295E+03  0.18798336919E+04  0.12699999809E+01 0.  1.
       -4    1    3    3    0  502 -0.17536812313E+04  0.72393150121E+02  0.90301998822E+03  0.19738503847E+04  0.12699999809E+01 0. -1.
</event>
<event>
 5   0  0.4409125E-07  0.3606707E+04  0.7818609E-02  0.8088957E-01
       -1   -1    0    0    0  501  0.00000000000E+00  0.00000000000E+00  0.29387144930E+04  0.29387144930E+04  0.50400001928E-02 0. -1.
        1   -1    0    0  501    0  0.00000000000E+00  0.00000000000E+00 -0.11066345680E+04  0.11066345681E+04  0.50400001928E-02 0.  1.
    10030    2    1    2    0    0  0.00000000000E+00  0.00000000000E+00  0.18320799250E+04  0.40453490611E+04  0.36067065551E+04 0.  0.
        5    1    3    3  502    0  0.13638474782E+04 -0.11635599213E+04  0.69708197737E+03  0.19235116344E+04  0.46999998093E+01 0.  1.
       -5    1    3    3    0  502 -0.13638474782E+04  0.11635599213E+04  0.11349979476E+04  0.21218374267E+04  0.46999998093E+01 0. -1.
</event>
<event>
 5   0  0.4700769E-07  0.2698423E+04  0.7818609E-02  0.8335517E-01
        1   -1    0    0  501    0  0.00000000000E+00  0.00000000000E+00  0.20465526306E+04  0.20465526306E+04  0.50400001928E-02 0.  1.
       -1   -1    0    0    0  501  0.00000000000E+00  0.00000000000E+00 -0.88948227161E+03  0.88948227162E+03  0.50400001928E-02 0. -1.
    10030    2    1    2    0    0  0.00000000000E+00  0.00000000000E+00  0.11570703590E+04  0.29360349022E+04  0.26984234529E+04 0.  0.
        3    1    3    3  502    0  0.56543304679E+02 -0.19042707793E+03  0.20305545872E+04  0.20402479161E+04  0.10100000352E+00 0.  1.
       -3    1    3    3    0  502 -0.56543304679E+02  0.19042707793E+03 -0.87348422823E+03  0.89578698611E+03  0.10100000352E+00 0. -1.
</event>
<event>
 5   0  0.4409125E-07  0.3515561E+04  0.7818609E-02  0.8110112E-01
       -1   -1    0    0    0  501  0.00000000000E+00  0.00000000000E+00  0.12697261125E+04  0.12697261125E+04  0.50400001928E-02 0.  1.
        1   -1    0    0  501    0  0.00000000000E+00  0.00000000000E+00 -0.24334324117E+04  0.24334324117E+04  0.50400001928E-02 0. -1.
    10030    2    1    2    0    0  0.00000000000E+00  0.00000000000E+00 -0.11637062993E+04  0.37031585242E+04  0.35155612219E+04 0.  0.
        5    1    3    3  502    0 -0.81684727133E+03 -0.40558287987E+03 -0.21647143841E+04  0.23489885891E+04  0.46999998093E+01 0. -1.
       -5    1    3    3    0  502  0.81684727133E+03  0.40558287987E+03  0.10010080849E+04  0.13541699351E+04  0.46999998093E+01 0.  1.
</event>
<event>
 5   0  0.4557237E-07  0.3381642E+04  0.7818609E-02  0.8142427E-01
        1   -1    0    0  501    0  0.00000000000E+00  0.00000000000E+00  0.21672776065E+04  0.21672776065E+04  0.50400001928E-02 0.  1.
       -1   -1    0    0    0  501  0.00000000000E+00  0.00000000000E+00 -0.13191089490E+04  0.13191089490E+04  0.50400001928E-02 0. -1.
    10030    2    1    2    0    0  0.00000000000E+00  0.00000000000E+00  0.84816865750E+03  0.34863865554E+04  0.33816417821E+04 0.  0.
        2    1    3    3  502    0 -0.91678682567E+03  0.77924058497E+03 -0.80063414309E+03  0.14452435795E+04  0.25500000920E-02 0. -1.
       -2    1    3    3    0  502  0.91678682567E+03 -0.77924058497E+03  0.16488028006E+04  0.20411429759E+04  0.25500000920E-02 0.  1.
</event>
<event>
 5   0  0.4557237E-07  0.3551470E+04  0.7818609E-02  0.8101700E-01
       -1   -1    0    0    0  501  0.00000000000E+00  0.00000000000E+00  0.19346335425E+04  0.19346335425E+04  0.50400001928E-02 0. -1.
        1   -1    0    0  501    0  0.00000000000E+00  0.00000000000E+00 -0.16298869640E+04  0.16298869641E+04  0.50400001928E-02 0.  1.
    10030    2    1    2    0    0  0.00000000000E+00  0.00000000000E+00  0.30474657849E+03  0.35645205066E+04  0.35514695500E+04 0.  0.
        2    1    3    3  502    0 -0.26387809234E+03  0.64430231995E+02 -0.16089118768E+04  0.16316802168E+04  0.25500000920E-02 0.  1.
       -2    1    3    3    0  502  0.26387809234E+03 -0.64430231995E+02  0.19136584553E+04  0.19328402898E+04  0.25500000920E-02 0. -1.
</event>
<event>
 5   0  0.1348388E-06  0.3725948E+04  0.7818609E-02  0.8062236E-01
       -2   -1    0    0    0  501  0.00000000000E+00  0.00000000000E+00  0.21705914256E+04  0.21705914256E+04  0.25500000920E-02 0.  1.
        2   -1    0    0  501    0  0.00000000000E+00  0.00000000000E+00 -0.15989524251E+04  0.15989524251E+04  0.25500000920E-02 0. -1.
    10030    2    1    2    0    0  0.00000000000E+00  0.00000000000E+00  0.57163900053E+03  0.37695438507E+04  0.37259481606E+04 0.  0.
        5    1    3    3  502    0  0.53726570205E+03  0.97787643939E+03 -0.12235324864E+04  0.16558836314E+04  0.46999998093E+01 0. -1.
       -5    1    3    3    0  502 -0.53726570205E+03 -0.97787643939E+03  0.17951714869E+04  0.21136602193E+04  0.46999998093E+01 0.  1.
</event>
<event>
 5   0  0.4700769E-07  0.3547949E+04  0.7818609E-02  0.8102520E-01
        1   -1    0    0  501    0  0.00000000000E+00  0.00000000000E+00  0.20871848304E+04  0.20871848304E+04  0.50400001928E-02 0. -1.
       -1   -1    0    0    0  501  0.00000000000E+00  0.00000000000E+00 -0.15077658859E+04  0.15077658859E+04  0.50400001928E-02 0.  1.
    10030    2    1    2    0    0  0.00000000000E+00  0.00000000000E+00  0.57941894447E+03  0.35949507163E+04  0.35479493146E+04 0.  0.
        3    1    3    3  502    0 -0.82508330720E+02  0.46368268465E+03  0.20226816706E+04  0.20767884840E+04  0.10100000352E+00 0. -1.
       -3    1    3    3    0  502  0.82508330720E+02 -0.46368268465E+03 -0.14432627261E+04  0.15181622322E+04  0.10100000352E+00 0.  1.
</event>
<event>
 5   0  0.1348388E-06  0.3451479E+04  0.7818609E-02  0.8125386E-01
       -2   -1    0    0    0  501  0.00000000000E+00  0.00000000000E+00  0.11511639634E+04  0.11511639634E+04  0.25500000920E-02 0.  1.
        2   -1    0    0  501    0  0.00000000000E+00  0.00000000000E+00 -0.25870998475E+04  0.25870998475E+04  0.25500000920E-02 0. -1.
    10030    2    1    2    0    0  0.00000000000E+00  0.00000000000E+00 -0.14359358841E+04  0.37382638109E+04  0.34514785899E+04 0.  0.
        5    1    3    3  502    0  0.75102725918E+03 -0.15527865425E+04 -0.77695446313E+03  0.18917897131E+04  0.46999998093E+01 0.  1.
       -5    1    3    3    0  502 -0.75102725918E+03  0.15527865425E+04 -0.65898142102E+03  0.18464740978E+04  0.46999998093E+01 0. -1.
</event>
<event>
 5   0  0.4700769E-07  0.3603816E+04  0.7818609E-02  0.8089618E-01
       -1   -1    0    0    0  501  0.00000000000E+00  0.00000000000E+00  0.21564799016E+04  0.21564799016E+04  0.50400001928E-02 0. -1.
        1   -1    0    0  501    0  0.00000000000E+00  0.00000000000E+00 -0.15056350474E+04  0.15056350474E+04  0.50400001928E-02 0.  1.
    10030    2    1    2    0    0  0.00000000000E+00  0.00000000000E+00  0.65084485414E+03  0.36621149490E+04  0.36038155996E+04 0.  0.
        3    1    3    3  502    0 -0.17179186671E+04 -0.32293552821E+03  0.76992274569E+03  0.19100557444E+04  0.10100000352E+00 0.  1.
       -3    1    3    3    0  502  0.17179186671E+04  0.32293552821E+03 -0.11907789154E+03  0.17520592046E+04  0.10100000352E+00 0. -1.
</event>
<event>
 5   0  0.1387133E-06  0.3441697E+04  0.7818609E-02  0.8127748E-01
        2   -1    0    0  501    0  0.00000000000E+00  0.00000000000E+00  0.28670637719E+04  0.28670637719E+04  0.25500000920E-02 0.  1.
       -2   -1    0    0    0  501  0.00000000000E+00  0.00000000000E+00 -0.10328754965E+04  0.10328754965E+04  0.25500000920E-02 0. -1.
    10030    2    1    2    0    0  0.00000000000E+00  0.00000000000E+00  0.18341882754E+04  0.38999392683E+04  0.34416972074E+04 0.  0.
        4    1    3    3  502    0 -0.14554551210E+04 -0.87707561289E+03  0.60945630675E+03  0.18052838676E+04  0.12699999809E+01 0.  1.
       -4    1    3    3    0  502  0.14554551210E+04  0.87707561289E+03  0.12247319686E+04  0.20946554007E+04  0.12699999809E+01 0. -1.
</event>
<event>
 5   0  0.4591195E-07  0.3473846E+04  0.7818609E-02  0.8120016E-01
       -1   -1    0    0    0  501  0.00000000000E+00  0.00000000000E+00  0.18745892072E+04  0.18745892072E+04  0.50400001928E-02 0.  1.
        1   -1    0    0  501    0  0.00000000000E+00  0.00000000000E+00 -0.16093667045E+04  0.16093667045E+04  0.50400001928E-02 0. -1.
    10030    2    1    2    0    0  0.00000000000E+00  0.00000000000E+00  0.26522250266E+03  0.34839559117E+04  0.34738459694E+04 0.  0.
        4    1    3    3  502    0  0.75544018821E+03 -0.15534234873E+04  0.31503463372E+03  0.17558652688E+04  0.12699999809E+01 0.  1.
       -4    1    3    3    0  502 -0.75544018821E+03  0.15534234873E+04 -0.49812131063E+02  0.17280906429E+04  0.12699999809E+01 0. -1.
</event>
<event>
 5   0  0.1387133E-06  0.3491357E+04  0.7818609E-02  0.8115841E-01
       -2   -1    0    0    0  501  0.00000000000E+00  0.00000000000E+00  0.14769031093E+04  0.14769031093E+04  0.25500000920E-02 0.  1.
        2   -1    0    0  501    0  0.00000000000E+00  0.00000000000E+00 -0.20633668697E+04  0.20633668697E+04  0.25500000920E-02 0. -1.
    10030    2    1    2    0    0  0.00000000000E+00  0.00000000000E+00 -0.58646376038E+03  0.35402699790E+04  0.34913567251E+04 0.  0.
        4    1    3    3  502    0 -0.10727878339E+04 -0.50997631648E+03  0.10039247912E+04  0.15552543776E+04  0.12699999809E+01 0.  1.
       -4    1    3    3    0  502  0.10727878339E+04  0.50997631648E+03 -0.15903885516E+04  0.19850156014E+04  0.12699999809E+01 0. -1.
</event>
<event>
 5   0  0.1378620E-06  0.3448517E+04  0.7818609E-02  0.8126100E-01
       -2   -1    0    0    0  501  0.00000000000E+00  0.00000000000E+00  0.12921830694E+04  0.12921830694E+04  0.25500000920E-02 0.  1.
        2   -1    0    0  501    0  0.00000000000E+00  0.00000000000E+00 -0.23008091246E+04  0.23008091246E+04  0.25500000920E-02 0. -1.
    10030    2    1    2    0    0  0.00000000000E+00  0.00000000000E+00 -0.10086260552E+04  0.35929921940E+04  0.34485165487E+04 0.  0.
        2    1    3    3  502    0 -0.27470586867E+03 -0.10316098683E+04  0.90643912164E+03  0.14004692485E+04  0.25500000920E-02 0.  1.
       -2    1    3    3    0  502  0.27470586867E+03  0.10316098683E+04 -0.19150651768E+04  0.21925229455E+04  0.25500000920E-02 0. -1.
</event>
<event>
 5   0  0.4693374E-07  0.3442610E+04  0.7818609E-02  0.8127527E-01
       -1   -1    0    0    0  501  0.00000000000E+00  0.00000000000E+00  0.15292148864E+04  0.15292148864E+04  0.50400001928E-02 0. -1.
        1   -1    0    0  501    0  0.00000000000E+00  0.00000000000E+00 -0.19375243840E+04  0.19375243840E+04  0.50400001928E-02 0.  1.
    10030    2    1    2    0    0  0.00000000000E+00  0.00000000000E+00 -0.40830949759E+03  0.34667392704E+04  0.34426101323E+04 0.  0.
        1    1    3    3  502    0  0.70486630347E+02 -0.71708704631E+03 -0.17783481070E+04  0.19187767423E+04  0.50400001928E-02 0.  1.
       -1    1    3    3    0  502 -0.70486630347E+02  0.71708704631E+03  0.13700386094E+04  0.15479625281E+04  0.50400001928E-02 0. -1.
</event>
<event>
 5   0  0.4693374E-07  0.2710114E+04  0.7818609E-02  0.8331731E-01
       -1   -1    0    0    0  501  0.00000000000E+00  0.00000000000E+00  0.92636720350E+03  0.92636720351E+03  0.50400001928E-02 0.  1.
        1   -1    0    0  501    0  0.00000000000E+00  0.00000000000E+00 -0.19821291128E+04  0.19821291128E+04  0.50400001928E-02 0. -1.
    10030    2    1    2    0    0  0.00000000000E+00  0.00000000000E+00 -0.10557619093E+04  0.29084963163E+04  0.27101139483E+04 0.  0.
        1    1    3    3  502    0  0.12787889861E+04  0.17931128298E+03 -0.96871126932E+03  0.16142661895E+04  0.50400001928E-02 0. -1.
       -1    1    3    3    0  502 -0.12787889861E+04 -0.17931128298E+03 -0.87050639968E+02  0.12942301268E+04  0.50400001928E-02 0.  1.
</event>
<event>
 5   0  0.1348388E-06  0.3481679E+04  0.7818609E-02  0.8118145E-01
       -2   -1    0    0    0  501  0.00000000000E+00  0.00000000000E+00  0.13880109309E+04  0.13880109309E+04  0.25500000920E-02 0. -1.
        2   -1    0    0  501    0  0.00000000000E+00  0.00000000000E+00 -0.21833567400E+04  0.21833567400E+04  0.25500000920E-02 0.  1.
    10030    2    1    2    0    0  0.00000000000E+00  0.00000000000E+00 -0.79534580910E+03  0.35713676709E+04  0.34816794920E+04 0.  0.
        5    1    3    3  502    0  0.63417039631E+03  0.38690936037E+03  0.12172493645E+04  0.14260396383E+04  0.46999998093E+01 0. -1.
       -5    1    3    3    0  502 -0.63417039631E+03 -0.38690936037E+03 -0.20125951736E+04  0.21453280326E+04  0.46999998093E+01 0.  1.
</event>
<event>
 5   0  0.1361560E-06  0.3434237E+04  0.7818609E-02  0.8129554E-01
        2   -1    0    0  501    0  0.00000000000E+00  0.00000000000E+00  0.13186800433E+04  0.13186800433E+04  0.25500000920E-02 0. -1.
       -2   -1    0    0    0  501  0.00000000000E+00  0.00000000000E+00 -0.22359452395E+04  0.22359452395E+04  0.25500000920E-02 0.  1.
    10030    2    1    2    0    0  0.00000000000E+00  0.00000000000E+00 -0.91726519624E+03  0.35546252828E+04  0.34342372459E+04 0.  0.
        3    1    3    3  502    0  0.10257009163E+04  0.28968245602E+03  0.93486011754E+03  0.14177241426E+04  0.10100000352E+00 0. -1.
       -3    1    3    3    0  502 -0.10257009163E+04 -0.28968245602E+03 -0.18521253138E+04  0.21369011402E+04  0.10100000352E+00 0.  1.
</event>
<event>
 5   0  0.1348388E-06  0.3577802E+04  0.7818609E-02  0.8095595E-01
       -2   -1    0    0    0  501  0.00000000000E+00  0.00000000000E+00  0.15576066140E+04  0.15576066140E+04  0.25500000920E-02 0. -1.
        2   -1    0    0  501    0  0.00000000000E+00  0.00000000000E+00 -0.20545410334E+04  0.20545410334E+04  0.25500000920E-02 0.  1.
    10030    2    1    2    0    0  0.00000000000E+00  0.00000000000E+00 -0.49693441942E+03  0.36121476474E+04  0.35778019522E+04 0.  0.
        5    1    3    3  502    0 -0.16164133663E+04  0.43218949394E+03  0.39051023025E+03  0.17181677041E+04  0.46999998093E+01 0. -1.
       -5    1    3    3    0  502  0.16164133663E+04 -0.43218949394E+03 -0.88744464967E+03  0.18939799433E+04  0.46999998093E+01 0.  1.
</event>
<event>
 5   0  0.4557237E-07  0.3662550E+04  0.7818609E-02  0.8076312E-01
       -1   -1    0    0    0  501  0.00000000000E+00  0.00000000000E+00  0.16535049164E+04  0.16535049164E+04  0.50400001928E-02 0. -1.
        1   -1    0    0  501    0  0.00000000000E+00  0.00000000000E+00 -0.20281575334E+04  0.20281575335E+04  0.50400001928E-02 0.  1.
    10030    2    1    2    0    0  0.00000000000E+00  0.00000000000E+00 -0.37465261708E+03  0.36816624498E+04  0.36625501786E+04 0.  0.
        2    1    3    3  502    0 -0.15247825229E+04  0.10141964559E+04 -0.19084593308E+03  0.18411893883E+04  0.25500000920E-02 0.  1.
       -2    1    3    3    0  502  0.15247825229E+04 -0.10141964559E+04 -0.18380668400E+03  0.18404730616E+04  0.25500000920E-02 0. -1.
</event>
<event>
 5   0  0.1387133E-06  0.3597129E+04  0.7818609E-02  0.8091150E-01
        2   -1    0    0  501    0  0.00000000000E+00  0.00000000000E+00  0.13879175955E+04  0.13879175955E+04  0.25500000920E-02 0. -1.
       -2   -1    0    0    0  501  0.00000000000E+00  0.00000000000E+00 -0.23307111364E+04  0.23307111364E+04  0.25500000920E-02 0.  1.
    10030    2    1    2    0    0  0.00000000000E+00  0.00000000000E+00 -0.94279354087E+03  0.37186287319E+04  0.35971294090E+04 0.  0.
        4    1    3    3  502    0 -0.15083384390E+04 -0.48412062993E+03 -0.13518540235E+04  0.20825389659E+04  0.12699999809E+01 0.  1.
       -4    1    3    3    0  502  0.15083384390E+04  0.48412062993E+03  0.40906048263E+03  0.16360897659E+04  0.12699999809E+01 0. -1.
</event>
<event>
 5   0  0.4700769E-07  0.3481309E+04  0.7818609E-02  0.8118234E-01
       -1   -1    0    0    0  501  0.00000000000E+00  0.00000000000E+00  0.24395077097E+04  0.24395077097E+04  0.50400001928E-02 0. -1.
        1   -1    0    0  501    0  0.00000000000E+00  0.00000000000E+00 -0.12420039555E+04  0.12420039555E+04  0.50400001928E-02 0.  1.
    10030    2    1    2    0    0  0.00000000000E+00  0.00000000000E+00  0.11975037542E+04  0.36815116652E+04  0.34813090784E+04 0.  0.
        3    1    3    3  502    0  0.47375887431E+03 -0.15605912292E+04 -0.44492653767E+02  0.16315244595E+04  0.10100000352E+00 0.  1.
       -3    1    3    3    0  502 -0.47375887431E+03  0.15605912292E+04  0.12419964080E+04  0.20499872056E+04  0.10100000352E+00 0. -1.
</event>
<event>
 5   0  0.1361560E-06  0.3328933E+04  0.7818609E-02  0.8155572E-01
        2   -1    0    0  501    0  0.00000000000E+00  0.00000000000E+00  0.14290584727E+04  0.14290584727E+04  0.25500000920E-02 0.  1.
       -2   -1    0    0    0  501  0.00000000000E+00  0.00000000000E+00 -0.19386535464E+04  0.19386535464E+04  0.25500000920E-02 0. -1.
    10030    2    1    2    0    0  0.00000000000E+00  0.00000000000E+00 -0.50959507369E+03  0.33677120191E+04  0.33289333284E+04 0.  0.
        3    1    3    3  502    0  0.16198026534E+03 -0.16457386531E+04 -0.63502376919E+02  0.16549096298E+04  0.10100000352E+00 0. -1.
       -3    1    3    3    0  502 -0.16198026534E+03  0.16457386531E+04 -0.44609269678E+03  0.17128023894E+04  0.10100000352E+00 0.  1.
</event>
<event>
 5   0  0.4693374E-07  0.2504553E+04  0.7818609E-02  0.8401365E-01
        1   -1    0    0  501    0  0.00000000000E+00  0.00000000000E+00  0.14674227138E+04  0.14674227139E+04  0.50400001928E-02 0.  1.
       -1   -1    0    0    0  501  0.00000000000E+00  0.00000000000E+00 -0.10686741063E+04  0.10686741063E+04  0.50400001928E-02 0. -1.
    10030    2    1    2    0    0  0.00000000000E+00  0.00000000000E+00  0.39874860758E+03  0.25360968201E+04  0.25045531795E+04 0.  0.
        1    1    3    3  502    0 -0.52558126265E+03  0.52835752394E+02  0.13490902695E+04  0.14488173921E+04  0.50400001928E-02 0.  1.
       -1    1    3    3    0  502  0.52558126265E+03 -0.52835752394E+02 -0.95034166188E+03  0.10872794281E+04  0.50400001928E-02 0. -1.
</event>
<event>
 5   0  0.1348388E-06  0.3530487E+04  0.7818609E-02  0.8106603E-01
       -2   -1    0    0    0  501  0.00000000000E+00  0.00000000000E+00  0.10175464246E+04  0.10175464246E+04  0.25500000920E-02 0. -1.
        2   -1    0    0  501    0  0.00000000000E+00  0.00000000000E+00 -0.30623516068E+04  0.30623516068E+04  0.25500000920E-02 0.  1.
    10030    2    1    2    0    0  0.00000000000E+00  0.00000000000E+00 -0.20448051822E+04  0.40798980315E+04  0.35304871780E+04 0.  0.
        5    1    3    3  502    0  0.11852085077E+04 -0.10062320260E+04 -0.19884618748E+04  0.25241285257E+04  0.46999998093E+01 0.  1.
       -5    1    3    3    0  502 -0.11852085077E+04  0.10062320260E+04 -0.56343307422E+02  0.15557695058E+04  0.46999998093E+01 0. -1.
</event>
<event>
 5   0  0.4591195E-07  0.3492752E+04  0.7818609E-02  0.8115510E-01
        1   -1    0    0  501    0  0.00000000000E+00  0.00000000000E+00  0.18627345375E+04  0.18627345375E+04  0.50400001928E-02 0.  1.
       -1   -1    0    0    0  501  0.00000000000E+00  0.00000000000E+00 -0.16372859643E+04  0.16372859643E+04  0.50400001928E-02 0. -1.
    10030    2    1    2    0    0  0.00000000000E+00  0.00000000000E+00  0.22544857315E+03  0.35000205018E+04  0.34927519886E+04 0.  0.
        4    1    3    3  502    0  0.50928035814E+03  0.14065589740E+04  0.10157393450E+04  0.18081766120E+04  0.12699999809E+01 0.  1.
       -4    1    3    3    0  502 -0.50928035814E+03 -0.14065589740E+04 -0.79029077180E+03  0.16918438898E+04  0.12699999809E+01 0. -1.
</event>
<event>
 5   0  0.1378620E-06  0.3414727E+04  0.7818609E-02  0.8134301E-01
        2   -1    0    0  501    0  0.00000000000E+00  0.00000000000E+00  0.17259562355E+04  0.17259562355E+04  0.25500000920E-02 0. -1.
       -2   -1    0    0    0  501  0.00000000000E+00  0.00000000000E+00 -0.16889709941E+04  0.16889709941E+04  0.25500000920E-02 0.  1.
    10030    2    1    2    0    0  0.00000000000E+00  0.00000000000E+00  0.36985241476E+02  0.34149272296E+04  0.34147269401E+04 0.  0.
        2    1    3    3  502    0 -0.91845015086E+03 -0.36105953951E+03  0.14118350311E+04  0.17225541576E+04  0.25500000920E-02 0. -1.
       -2    1    3    3    0  502  0.91845015086E+03  0.36105953951E+03 -0.13748497897E+04  0.16923730720E+04  0.25500000920E-02 0.  1.
</event>
<event>
 5   0  0.1361560E-06  0.2994080E+04  0.7818609E-02  0.8245423E-01
       -2   -1    0    0    0  501  0.00000000000E+00  0.00000000000E+00  0.14984396770E+04  0.14984396770E+04  0.25500000920E-02 0. -1.
        2   -1    0    0  501    0  0.00000000000E+00  0.00000000000E+00 -0.14956413137E+04  0.14956413137E+04  0.25500000920E-02 0.  1.
    10030    2    1    2    0    0  0.00000000000E+00  0.00000000000E+00  0.27983633045E+01  0.29940809907E+04  0.29940796830E+04 0.  0.
        3    1    3    3  502    0 -0.38130854291E+03 -0.97334106525E+03  0.10730055673E+04  0.14980420528E+04  0.10100000352E+00 0. -1.
       -3    1    3    3    0  502  0.38130854291E+03  0.97334106525E+03 -0.10702072040E+04  0.14960389380E+04  0.10100000352E+00 0.  1.
</event>
<event>
 5   0  0.4409125E-07  0.3457979E+04  0.7818609E-02  0.8123821E-01
        1   -1    0    0  501    0  0.00000000000E+00  0.00000000000E+00  0.27848777754E+04  0.27848777754E+04  0.50400001928E-02 0. -1.
       -1   -1    0    0    0  501  0.00000000000E+00  0.00000000000E+00 -0.10734419658E+04  0.10734419658E+04  0.50400001928E-02 0.  1.
    10030    2    1    2    0    0  0.00000000000E+00  0.00000000000E+00  0.17114358096E+04  0.38583197412E+04  0.34579789900E+04 0.  0.
        5    1    3    3  502    0  0.60773961998E+03 -0.67242349658E+03 -0.78711601947E+03  0.12004476342E+04  0.46999998093E+01 0.  1.
       -5    1    3    3    0  502 -0.60773961998E+03  0.67242349658E+03  0.24985518291E+04  0.26578721070E+04  0.46999998093E+01 0. -1.
</event>
<event>
 5   0  0.4557237E-07  0.3483673E+04  0.7818609E-02  0.8117670E-01
        1   -1    0    0  501    0  0.00000000000E+00  0.00000000000E+00  0.17968262067E+04  0.17968262067E+04  0.50400001928E-02 0.  1.
       -1   -1    0    0    0  501  0.00000000000E+00  0.00000000000E+00 -0.16885292551E+04  0.16885292551E+04  0.50400001928E-02 0. -1.
    10030    2    1    2    0    0  0.00000000000E+00  0.00000000000E+00  0.10829695161E+03  0.34853554619E+04  0.34836725543E+04 0.  0.
        2    1    3    3  502    0 -0.12697349777E+04 -0.76404655444E+03 -0.86171691268E+03  0.17142199651E+04  0.25500000920E-02 0. -1.
       -2    1    3    3    0  502  0.12697349777E+04  0.76404655444E+03  0.97001386429E+03  0.17711354968E+04  0.25500000920E-02 0.  1.
</event>
<event>
 5   0  0.1387133E-06  0.3466559E+04  0.7818609E-02  0.8121761E-01
        2   -1    0    0  501    0  0.00000000000E+00  0.00000000000E+00  0.22560440332E+04  0.22560440332E+04  0.25500000920E-02 0.  1.
       -2   -1    0    0    0  501  0.00000000000E+00  0.00000000000E+00 -0.13316489338E+04  0.13316489338E+04  0.25500000920E-02 0. -1.
    10030    2    1    2    0    0  0.00000000000E+00  0.00000000000E+00  0.92439509945E+03  0.35876929671E+04  0.34665594652E+04 0.  0.
        4    1    3    3  502    0 -0.13431395542E+04 -0.10018593163E+04  0.92098351243E+03  0.19120560125E+04  0.12699999809E+01 0.  1.
       -4    1    3    3    0  502  0.13431395542E+04  0.10018593163E+04  0.34115870118E+01  0.16756369546E+04  0.12699999809E+01 0. -1.
</event>
<event>
 5   0  0.1378620E-06  0.3465206E+04  0.7818609E-02  0.8122085E-01
        2   -1    0    0  501    0  0.00000000000E+00  0.00000000000E+00  0.21003916307E+04  0.21003916307E+04  0.25500000920E-02 0.  1.
       -2   -1    0    0    0  501  0.00000000000E+00  0.00000000000E+00 -0.14292160145E+04  0.14292160145E+04  0.25500000920E-02 0. -1.
    10030    2    1    2    0    0  0.00000000000E+00  0.00000000000E+00  0.67117561619E+03  0.35296076451E+04  0.34652061152E+04 0.  0.
        2    1    3    3  502    0  0.74919345220E+03 -0.57531183723E+03  0.18150416267E+04  0.20461306521E+04  0.25500000920E-02 0.  1.
       -2    1    3    3    0  502 -0.74919345220E+03  0.57531183723E+03 -0.11438660105E+04  0.14834769930E+04  0.25500000920E-02 0. -1.
</event>
<event>
 5   0  0.4557237E-07  0.3385793E+04  0.7818609E-02  0.8141402E-01
       -1   -1    0    0    0  501  0.00000000000E+00  0.00000000000E+00  0.18802572551E+04  0.18802572551E+04  0.50400001928E-02 0.  1.
        1   -1    0    0  501    0  0.00000000000E+00  0.00000000000E+00 -0.15242055180E+04  0.15242055181E+04  0.50400001928E-02 0. -1.
    10030    2    1    2    0    0  0.00000000000E+00  0.00000000000E+00  0.35605173703E+03  0.34044627731E+04  0.33857929550E+04 0.  0.
        2    1    3    3  502    0  0.10654956630E+04 -0.63766241190E+03 -0.97897280646E+03  0.15812280402E+04  0.25500000920E-02 0. -1.
       -2    1    3    3    0  502 -0.10654956630E+04  0.63766241190E+03  0.13350245435E+04  0.18232347329E+04  0.25500000920E-02 0.  1.
</event>
<event>
 5   0  0.1378620E-06  0.2554645E+04  0.7818609E-02  0.8383773E-01
        2   -1    0    0  501    0  0.00000000000E+00  0.00000000000E+00  0.16175293577E+04  0.16175293577E+04  0.25500000920E-02 0. -1.
       -2   -1    0    0    0  501  0.00000000000E+00  0.00000000000E+00 -0.10086694237E+04  0.10086694237E+04  0.25500000920E-02 0.  1.
    10030    2    1    2    0    0  0.00000000000E+00  0.00000000000E+00  0.60885993403E+03  0.26261987814E+04  0.25546447151E+04 0.  0.
        2    1    3    3  502    0 -0.75343562258E+03 -0.90003980790E+03 -0.21348226247E+03  0.11930262233E+04  0.25500000920E-02 0.  1.
       -2    1    3    3    0  502  0.75343562258E+03  0.90003980790E+03  0.82234219650E+03  0.14331725581E+04  0.25500000920E-02 0. -1.
</event>
<event>
 5   0  0.1348388E-06  0.3480489E+04  0.7818609E-02  0.8118429E-01
       -2   -1    0    0    0  501  0.00000000000E+00  0.00000000000E+00  0.14994498396E+04  0.14994498396E+04  0.25500000920E-02 0. -1.
        2   -1    0    0  501    0  0.00000000000E+00  0.00000000000E+00 -0.20197081387E+04  0.20197081387E+04  0.25500000920E-02 0.  1.
    10030    2    1    2    0    0  0.00000000000E+00  0.00000000000E+00 -0.52025829908E+03  0.35191579783E+04  0.34804890718E+04 0.  0.
        5    1    3    3  502    0  0.89026044886E+03 -0.11872239241E+04  0.65901653380E+03  0.16236961522E+04  0.46999998093E+01 0. -1.
       -5    1    3    3    0  502 -0.89026044886E+03  0.11872239241E+04 -0.11792748329E+04  0.18954618261E+04  0.46999998093E+01 0.  1.
</event>
<event>
 5   0  0.1387133E-06  0.3911660E+04  0.7818609E-02  0.8022609E-01
        2   -1    0    0  501    0  0.00000000000E+00  0.00000000000E+00  0.20104190994E+04  0.20104190994E+04  0.25500000920E-02 0.  1.
       -2   -1    0    0    0  501  0.00000000000E+00  0.00000000000E+00 -0.19027229679E+04  0.19027229679E+04  0.25500000920E-02 0. -1.
    10030    2    1    2    0    0  0.00000000000E+00  0.00000000000E+00  0.10769613147E+03  0.39131420673E+04  0.39116597989E+04 0.  0.
        4    1    3    3  502    0 -0.12584921896E+04 -0.10859893445E+04  0.10848178122E+04  0.19849450235E+04  0.12699999809E+01 0.  1.
       -4    1    3    3    0  502  0.12584921896E+04  0.10859893445E+04 -0.97712168076E+03  0.19281970438E+04  0.12699999809E+01 0. -1.
</event>
<event>
 5   0  0.1378620E-06  0.3442430E+04  0.7818609E-02  0.8127570E-01
       -2   -1    0    0    0  501  0.00000000000E+00  0.00000000000E+00  0.15071656310E+04  0.15071656310E+04  0.25500000920E-02 0. -1.
        2   -1    0    0  501    0  0.00000000000E+00  0.00000000000E+00 -0.19656642041E+04  0.19656642041E+04  0.25500000920E-02 0.  1.
    10030    2    1    2    0    0  0.00000000000E+00  0.00000000000E+00 -0.45849857304E+03  0.34728298351E+04  0.34424302639E+04 0.  0.
        2    1    3    3  502    0  0.11734172846E+04  0.55792683059E+03 -0.13681076370E+04  0.18867721056E+04  0.25500000920E-02 0.  1.
       -2    1    3    3    0  502 -0.11734172846E+04 -0.55792683059E+03  0.90960906400E+03  0.15860577295E+04  0.25500000920E-02 0. -1.
</event>
<event>
 5   0  0.1348388E-06  0.3445844E+04  0.7818609E-02  0.8126746E-01
        2   -1    0    0  501    0  0.00000000000E+00  0.00000000000E+00  0.29523620324E+04  0.29523620324E+04  0.25500000920E-02 0. -1.
       -2   -1    0    0    0  501  0.00000000000E+00  0.00000000000E+00 -0.10054525835E+04  0.10054525835E+04  0.25500000920E-02 0.  1.
    10030    2    1    2    0    0  0.00000000000E+00  0.00000000000E+00  0.19469094489E+04  0.39578146159E+04  0.34458438925E+04 0.  0.
        5    1    3    3  502    0  0.88249710676E+03 -0.12166482796E+04  0.60535879156E+01  0.15030279158E+04  0.46999998093E+01 0.  1.
       -5    1    3    3    0  502 -0.88249710676E+03  0.12166482796E+04  0.19408558610E+04  0.24547867001E+04  0.46999998093E+01 0. -1.
</event>
<event>
 5   0  0.4693374E-07  0.2655989E+04  0.7818609E-02  0.8349428E-01
       -1   -1    0    0    0  501  0.00000000000E+00  0.00000000000E+00  0.89694831352E+03  0.89694831353E+03  0.50400001928E-02 0. -1.
        1   -1    0    0  501    0  0.00000000000E+00  0.00000000000E+00 -0.19661891453E+04  0.19661891453E+04  0.50400001928E-02 0.  1.
    10030    2    1    2    0    0  0.00000000000E+00  0.00000000000E+00 -0.10692408317E+04  0.28631374588E+04  0.26559894864E+04 0.  0.
        1    1    3    3  502    0  0.90407851586E+01  0.10830033764E+04  0.29381684331E+03  0.11221882135E+04  0.50400001928E-02 0. -1.
       -1    1    3    3    0  502 -0.90407851586E+01 -0.10830033764E+04 -0.13630576750E+04  0.17409492453E+04  0.50400001928E-02 0.  1.
</event>
<event>
 5   0  0.1361560E-06  0.3526262E+04  0.7818609E-02  0.8107594E-01
       -2   -1    0    0    0  501  0.00000000000E+00  0.00000000000E+00  0.13088846565E+04  0.13088846565E+04  0.25500000920E-02 0.  1.
        2   -1    0    0  501    0  0.00000000000E+00  0.00000000000E+00 -0.23750233111E+04  0.23750233111E+04  0.25500000920E-02 0. -1.
    10030    2    1    2    0    0  0.00000000000E+00  0.00000000000E+00 -0.10661386547E+04  0.36839079676E+04  0.35262623672E+04 0.  0.
        3    1    3    3  502    0 -0.86133817256E+03  0.64580323894E+03 -0.19917972325E+04  0.22641160519E+04  0.10100000352E+00 0. -1.
       -3    1    3    3    0  502  0.86133817256E+03 -0.64580323894E+03  0.92565857782E+03  0.14197919157E+04  0.10100000352E+00 0.  1.
</event>
<event>
 5   0  0.4693374E-07  0.3477195E+04  0.7818609E-02  0.8119216E-01
        1   -1    0    0  501    0  0.00000000000E+00  0.00000000000E+00  0.27387237001E+04  0.27387237001E+04  0.50400001928E-02 0. -1.
       -1   -1    0    0    0  501  0.00000000000E+00  0.00000000000E+00 -0.11036967415E+04  0.11036967415E+04  0.50400001928E-02 0.  1.
    10030    2    1    2    0    0  0.00000000000E+00  0.00000000000E+00  0.16350269586E+04  0.38424204417E+04  0.34771945150E+04 0.  0.
        1    1    3    3  502    0 -0.25901021866E+02  0.16257633182E+04  0.14977547132E+04  0.22106665082E+04  0.50400001928E-02 0. -1.
       -1    1    3    3    0  502  0.25901021866E+02 -0.16257633182E+04  0.13727224546E+03  0.16317539334E+04  0.50400001928E-02 0.  1.
</event>
<event>
 5   0  0.1378620E-06  0.3404638E+04  0.7818609E-02  0.8136769E-01
       -2   -1    0    0    0  501  0.00000000000E+00  0.00000000000E+00  0.20375874952E+04  0.20375874952E+04  0.25500000920E-02 0. -1.
        2   -1    0    0  501    0  0.00000000000E+00  0.00000000000E+00 -0.14222160000E+04  0.14222160000E+04  0.25500000920E-02 0.  1.
    10030    2    1    2    0    0  0.00000000000E+00  0.00000000000E+00  0.61537149513E+03  0.34598034952E+04  0.34046377411E+04 0.  0.
        2    1    3    3  502    0 -0.21750632174E+03  0.14781945357E+04  0.11366991530E+04  0.18773526706E+04  0.25500000920E-02 0. -1.
       -2    1    3    3    0  502  0.21750632174E+03 -0.14781945357E+04 -0.52132765791E+03  0.15824508246E+04  0.25500000920E-02 0.  1.
</event>
<event>
 5   0  0.1348388E-06  0.3541082E+04  0.7818609E-02  0.8104122E-01
        2   -1    0    0  501    0  0.00000000000E+00  0.00000000000E+00  0.21752367700E+04  0.21752367700E+04  0.25500000920E-02 0.  1.
       -2   -1    0    0    0  501  0.00000000000E+00  0.00000000000E+00 -0.14411376611E+04  0.14411376611E+04  0.25500000920E-02 0. -1.
    10030    2    1    2    0    0  0.00000000000E+00  0.00000000000E+00  0.73409910890E+03  0.36163744312E+04  0.35410821121E+04 0.  0.
        5    1    3    3  502    0 -0.11787766783E+04  0.13161712750E+04  0.25073201804E+03  0.17845755566E+04  0.46999998093E+01 0.  1.
       -5    1    3    3    0  502  0.11787766783E+04 -0.13161712750E+04  0.48336709085E+03  0.18317988746E+04  0.46999998093E+01 0. -1.
</event>
<event>
 5   0  0.4700769E-07  0.3461747E+04  0.7818609E-02  0.8122916E-01
       -1   -1    0    0    0  501  0.00000000000E+00  0.00000000000E+00  0.15759145589E+04  0.15759145589E+04  0.50400001928E-02 0. -1.
        1   -1    0    0  501    0  0.00000000000E+00  0.00000000000E+00 -0.19010691176E+04  0.19010691176E+04  0.50400001928E-02 0.  1.
    10030    2    1    2    0    0  0.00000000000E+00  0.00000000000E+00 -0.32515455870E+03  0.34769836765E+04  0.34617466689E+04 0.  0.
        3    1    3    3  502    0  0.12859324165E+04  0.15903972377E+03 -0.13152376369E+04  0.18462843403E+04  0.10100000352E+00 0.  1.
       -3    1    3    3    0  502 -0.12859324165E+04 -0.15903972377E+03  0.99008307816E+03  0.16306993363E+04  0.10100000352E+00 0. -1.
</event>
<event>
 5   0  0.4693374E-07  0.3491232E+04  0.7818609E-02  0.8115871E-01
       -1   -1    0    0    0  501  0.00000000000E+00  0.00000000000E+00  0.12464767822E+04  0.12464767822E+04  0.50400001928E-02 0.  1.
        1   -1    0    0  501    0  0.00000000000E+00  0.00000000000E+00 -0.24446306128E+04  0.24446306128E+04  0.50400001928E-02 0. -1.
    10030    2    1    2    0    0  0.00000000000E+00  0.00000000000E+00 -0.11981538305E+04  0.36911073950E+04  0.34912320461E+04 0.  0.
        1    1    3    3  502    0 -0.10533134669E+04 -0.69195729419E+03  0.67792308824E+03  0.14310324490E+04  0.50400001928E-02 0.  1.
       -1    1    3    3    0  502  0.10533134669E+04  0.69195729419E+03 -0.18760769188E+04  0.22600749460E+04  0.50400001928E-02 0. -1.
</event>
<event>
 5   0  0.4409125E-07  0.3265671E+04  0.7818609E-02  0.8171686E-01
       -1   -1    0    0    0  501  0.00000000000E+00  0.00000000000E+00  0.11439949276E+04  0.11439949276E+04  0.50400001928E-02 0.  1.
        1   -1    0    0  501    0  0.00000000000E+00  0.00000000000E+00 -0.23305627034E+04  0.23305627034E+04  0.50400001928E-02 0. -1.
    10030    2    1    2    0    0  0.00000000000E+00  0.00000000000E+00 -0.11865677758E+04  0.34745576311E+04  0.32656710865E+04 0.  0.
        5    1    3    3  502    0 -0.81744319655E+03  0.12735537924E+04  0.59106902022E+02  0.15144861695E+04  0.46999998093E+01 0.  1.
       -5    1    3    3    0  502  0.81744319655E+03 -0.12735537924E+04 -0.12456746778E+04  0.19600714616E+04  0.46999998093E+01 0. -1.
</event>
<event>
 5   0  0.4700769E-07  0.3403873E+04  0.7818609E-02  0.8136956E-01
        1   -1    0    0  501    0  0.00000000000E+00  0.00000000000E+00  0.22505147093E+04  0.22505147093E+04  0.50400001928E-02 0.  1.
       -1   -1    0    0    0  501  0.00000000000E+00  0.00000000000E+00 -0.12870780524E+04  0.12870780524E+04  0.50400001928E-02 0. -1.
    10030    2    1    2    0    0  0.00000000000E+00  0.00000000000E+00  0.96343665687E+03  0.35375927617E+04  0.34038731404E+04 0.  0.
        3    1    3    3  502    0 -0.11935704118E+04  0.83242551590E+03 -0.43559115955E+03  0.15189740735E+04  0.10100000352E+00 0. -1.
       -3    1    3    3    0  502  0.11935704118E+04 -0.83242551590E+03  0.13990278164E+04  0.20186186883E+04  0.10100000352E+00 0.  1.
</event>
<event>
 5   0  0.1348388E-06  0.2826794E+04  0.7818609E-02  0.8294998E-01
       -2   -1    0    0    0  501  0.00000000000E+00  0.00000000000E+00  0.14084925774E+04  0.14084925774E+04  0.25500000920E-02 0. -1.
        2   -1    0    0  501    0  0.00000000000E+00  0.00000000000E+00 -0.14183189158E+04  0.14183189158E+04  0.25500000920E-02 0.  1.
    10030    2    1    2    0    0  0.00000000000E+00  0.00000000000E+00 -0.98263384459E+01  0.28268114932E+04  0.28267944144E+04 0.  0.
        5    1    3    3  502    0 -0.15301036992E+03 -0.68014519108E+03 -0.12344163971E+04  0.14176796484E+04  0.46999998093E+01 0.  1.
       -5    1    3    3    0  502  0.15301036992E+03  0.68014519108E+03  0.12245900586E+04  0.14091318448E+04  0.46999998093E+01 0. -1.
</event>
<event>
 5   0  0.1348388E-06  0.3515028E+04  0.7818609E-02  0.8110238E-01
       -2   -1    0    0    0  501  0.00000000000E+00  0.00000000000E+00  0.16383729383E+04  0.16383729383E+04  0.25500000920E-02 0.  1.
        2   -1    0    0  501    0  0.00000000000E+00  0.00000000000E+00 -0.18853192703E+04  0.18853192703E+04  0.25500000920E-02 0. -1.
    10030    2    1    2    0    0  0.00000000000E+00  0.00000000000E+00 -0.24694633203E+03  0.35236922086E+04  0.35150283484E+04 0.  0.
        5    1    3    3  502    0  0.62887346284E+03  0.12095049231E+04  0.98851743909E+03  0.16839159149E+04  0.46999998093E+01 0.  1.
       -5    1    3    3    0  502 -0.62887346284E+03 -0.12095049231E+04 -0.12354637711E+04  0.18397762937E+04  0.46999998093E+01 0. -1.
</event>
<event>
 5   0  0.4693374E-07  0.3511933E+04  0.7818609E-02  0.8110968E-01
        1   -1    0    0  501    0  0.00000000000E+00  0.00000000000E+00  0.25525942003E+04  0.25525942003E+04  0.50400001928E-02 0. -1.
       -1   -1    0    0    0  501  0.00000000000E+00  0.00000000000E+00 -0.12079547501E+04  0.12079547501E+04  0.50400001928E-02 0.  1.
    10030    2    1    2    0    0  0.00000000000E+00  0.00000000000E+00  0.13446394502E+04  0.37605489504E+04  0.35119329659E+04 0.  0.
        1    1    3    3  502    0  0.17192865042E+04  0.30722574490E+03  0.86708773565E+03  0.19499166349E+04  0.50400001928E-02 0.  1.
       -1    1    3    3    0  502 -0.17192865042E+04 -0.30722574490E+03  0.47755171456E+03  0.18106323155E+04  0.50400001928E-02 0. -1.
</event>
<event>
 5   0  0.4409125E-07  0.3571854E+04  0.7818609E-02  0.8096969E-01
       -1   -1    0    0    0  501  0.00000000000E+00  0.00000000000E+00  0.11883725623E+04  0.11883725623E+04  0.50400001928E-02 0.  1.
        1   -1    0    0  501    0  0.00000000000E+00  0.00000000000E+00 -0.26839529862E+04  0.26839529862E+04  0.50400001928E-02 0. -1.
    10030    2    1    2    0    0  0.00000000000E+00  0.00000000000E+00 -0.14955804239E+04  0.38723255485E+04  0.35718544692E+04 0.  0.
        5    1    3    3  502    0 -0.12069157343E+04 -0.13023090683E+04 -0.95592890081E+03  0.20165506819E+04  0.46999998093E+01 0. -1.
       -5    1    3    3    0  502  0.12069157343E+04  0.13023090683E+04 -0.53965152308E+03  0.18557748666E+04  0.46999998093E+01 0.  1.
</event>
<event>
 5   0  0.1361560E-06  0.2778228E+04  0.7818609E-02  0.8310060E-01
       -2   -1    0    0    0  501  0.00000000000E+00  0.00000000000E+00  0.11311836614E+04  0.11311836614E+04  0.25500000920E-02 0. -1.
        2   -1    0    0  501    0  0.00000000000E+00  0.00000000000E+00 -0.17058570563E+04  0.17058570563E+04  0.25500000920E-02 0.  1.
    10030    2    1    2    0    0  0.00000000000E+00  0.00000000000E+00 -0.57467339490E+03  0.28370407178E+04  0.27782279466E+04 0.  0.
        3    1    3    3  502    0 -0.12786427663E+04 -0.44372675531E+03  0.32040981082E+02  0.13538269431E+04  0.10100000352E+00 0. -1.
       -3    1    3    3    0  502  0.12786427663E+04  0.44372675531E+03 -0.60671437598E+03  0.14832137747E+04  0.10100000352E+00 0.  1.
</event>
<event>
 5   0  0.1348388E-06  0.3503109E+04  0.7818609E-02  0.8113053E-01
        2   -1    0    0  501    0  0.00000000000E+00  0.00000000000E+00  0.18276074514E+04  0.18276074514E+04  0.25500000920E-02 0. -1.
       -2   -1    0    0    0  501  0.00000000000E+00  0.00000000000E+00 -0.16786666492E+04  0.16786666492E+04  0.25500000920E-02 0.  1.
    10030    2    1    2    0    0  0.00000000000E+00  0.00000000000E+00  0.14894080227E+03  0.35062741006E+04  0.35031092912E+04 0.  0.
        5    1    3    3  502    0 -0.87466637408E+03 -0.77758352628E+02 -0.14424296896E+04  0.16887016097E+04  0.46999998093E+01 0.  1.
       -5    1    3    3    0  502  0.87466637408E+03  0.77758352628E+02  0.15913704918E+04  0.18175724909E+04  0.46999998093E+01 0. -1.
</event>
<event>
 5   0  0.1387133E-06  0.2883056E+04  0.7818609E-02  0.8277937E-01
        2   -1    0    0  501    0  0.00000000000E+00  0.00000000000E+00  0.23265042241E+04  0.23265042241E+04  0.25500000920E-02 0. -1.
       -2   -1    0    0    0  501  0.00000000000E+00  0.00000000000E+00 -0.89318684332E+03  0.89318684332E+03  0.25500000920E-02 0.  1.
    10030    2    1    2    0    0  0.00000000000E+00  0.00000000000E+00  0.14333173808E+04  0.32196910674E+04  0.28830559924E+04 0.  0.
        4    1    3    3  502    0  0.35128870507E+03  0.10016520039E+04 -0.37256677842E+03  0.11249524917E+04  0.12699999809E+01 0.  1.
       -4    1    3    3    0  502 -0.35128870507E+03 -0.10016520039E+04  0.18058841592E+04  0.20947385757E+04  0.12699999809E+01 0. -1.
</event>
<event>
 5   0  0.4700769E-07  0.3518828E+04  0.7818609E-02  0.8109342E-01
       -1   -1    0    0    0  501  0.00000000000E+00  0.00000000000E+00  0.15170683695E+04  0.15170683695E+04  0.50400001928E-02 0. -1.
        1   -1    0    0  501    0  0.00000000000E+00  0.00000000000E+00 -0.20404732533E+04  0.20404732533E+04  0.50400001928E-02 0.  1.
    10030    2    1    2    0    0  0.00000000000E+00  0.00000000000E+00 -0.52340488375E+03  0.35575416228E+04  0.35188278909E+04 0.  0.
        3    1    3    3  502    0 -0.63794646053E+03  0.10237922775E+04  0.10331739562E+04  0.15882615490E+04  0.10100000352E+00 0. -1.
       -3    1    3    3    0  502  0.63794646053E+03 -0.10237922775E+04 -0.15565788399E+04  0.19692800738E+04  0.10100000352E+00 0.  1.
</event>
<event>
 5   0  0.4591195E-07  0.3248885E+04  0.7818609E-02  0.8176025E-01
        1   -1    0    0  501    0  0.00000000000E+00  0.00000000000E+00  0.11613262435E+04  0.11613262435E+04  0.50400001928E-02 0.  1.
       -1   -1    0    0    0  501  0.00000000000E+00  0.00000000000E+00 -0.22722416200E+04  0.22722416200E+04  0.50400001928E-02 0. -1.
    10030    2    1    2    0    0  0.00000000000E+00  0.00000000000E+00 -0.11109153765E+04  0.34335678636E+04  0.32488852396E+04 0.  0.
        4    1    3    3  502    0  0.64755492179E+03 -0.68407879539E+03  0.84322417510E+03  0.12642467312E+04  0.12699999809E+01 0.  1.
       -4    1    3    3    0  502 -0.64755492179E+03  0.68407879539E+03 -0.19541395516E+04  0.21693211323E+04  0.12699999809E+01 0. -1.
</event>
<event>
 5   0  0.4591195E-07  0.2514623E+04  0.7818609E-02  0.8397795E-01
        1   -1    0    0  501    0  0.00000000000E+00  0.00000000000E+00  0.19611490388E+04  0.19611490388E+04  0.50400001928E-02 0. -1.
       -1   -1    0    0    0  501  0.00000000000E+00  0.00000000000E+00 -0.80607426779E+03  0.80607426781E+03  0.50400001928E-02 0.  1.
    10030    2    1    2    0    0  0.00000000000E+00  0.00000000000E+00  0.11550747710E+04  0.27672233066E+04  0.25146226560E+04 0.  0.
        4    1    3    3  502    0  0.16693064670E+03  0.90563485741E+03  0.15195595005E+04  0.17768238585E+04  0.12699999809E+01 0.  1.
       -4    1    3    3    0  502 -0.16693064670E+03 -0.90563485741E+03 -0.36448472951E+03  0.99039944806E+03  0.12699999809E+01 0. -1.
</event>
<event>
 5   0  0.4591195E-07  0.3506957E+04  0.7818609E-02  0.8112143E-01
       -1   -1    0    0    0  501  0.00000000000E+00  0.00000000000E+00  0.28603939465E+04  0.28603939465E+04  0.50400001928E-02 0. -1.
        1   -1    0    0  501    0  0.00000000000E+00  0.00000000000E+00 -0.10749171324E+04  0.10749171325E+04  0.50400001928E-02 0.  1.
    10030    2    1    2    0    0  0.00000000000E+00  0.00000000000E+00  0.17854768140E+04  0.39353110789E+04  0.35069567768E+04 0.  0.
        4    1    3    3  502    0  0.11744915733E+04  0.96928728769E+03  0.18682532158E+04  0.24102530973E+04  0.12699999809E+01 0. -1.
       -4    1    3    3    0  502 -0.11744915733E+04 -0.96928728769E+03 -0.82776401735E+02  0.15250579817E+04  0.12699999809E+01 0.  1.
</event>
<event>
 5   0  0.4693374E-07  0.3507122E+04  0.7818609E-02  0.8112104E-01
       -1   -1    0    0    0  501  0.00000000000E+00  0.00000000000E+00  0.13830009899E+04  0.13830009899E+04  0.50400001928E-02 0.  1.
        1   -1    0    0  501    0  0.00000000000E+00  0.00000000000E+00 -0.22234090243E+04  0.22234090243E+04  0.50400001928E-02 0. -1.
    10030    2    1    2    0    0  0.00000000000E+00  0.00000000000E+00 -0.84040803442E+03  0.36064100142E+04  0.35071223997E+04 0.  0.
        1    1    3    3  502    0 -0.64093866205E+03  0.70825463780E+03 -0.19323970890E+04  0.21555940040E+04  0.50400001928E-02 0. -1.
       -1    1    3    3    0  502  0.64093866205E+03 -0.70825463780E+03  0.10919890545E+04  0.14508160103E+04  0.50400001928E-02 0.  1.
</event>
<event>
 5   0  0.4409125E-07  0.3458292E+04  0.7818609E-02  0.8123746E-01
        1   -1    0    0  501    0  0.00000000000E+00  0.00000000000E+00  0.26509396460E+04  0.26509396460E+04  0.50400001928E-02 0.  1.
       -1   -1    0    0    0  501  0.00000000000E+00  0.00000000000E+00 -0.11278813060E+04  0.11278813060E+04  0.50400001928E-02 0. -1.
    10030    2    1    2    0    0  0.00000000000E+00  0.00000000000E+00  0.15230583401E+04  0.37788209520E+04  0.34582916419E+04 0.  0.
        5    1    3    3  502    0 -0.49016970044E+03 -0.83239316295E+03 -0.80554105198E+03  0.12578009339E+04  0.46999998093E+01 0. -1.
       -5    1    3    3    0  502  0.49016970044E+03  0.83239316295E+03  0.23285993921E+04  0.25210200181E+04  0.46999998093E+01 0.  1.
</event>
<event>
 5   0  0.1387133E-06  0.3536860E+04  0.7818609E-02  0.8105110E-01
        2   -1    0    0  501    0  0.00000000000E+00  0.00000000000E+00  0.20114012226E+04  0.20114012226E+04  0.25500000920E-02 0. -1.
       -2   -1    0    0    0  501  0.00000000000E+00  0.00000000000E+00 -0.15548087280E+04  0.15548087280E+04  0.25500000920E-02 0.  1.
    10030    2    1    2    0    0  0.00000000000E+00  0.00000000000E+00  0.45659249455E+03  0.35662099506E+04  0.35368597237E+04 0.  0.
        4    1    3    3  502    0  0.53047537373E+03 -0.68120633528E+03 -0.13278503350E+04  0.15838668879E+04  0.12699999809E+01 0.  1.
       -4    1    3    3    0  502 -0.53047537373E+03  0.68120633528E+03  0.17844428296E+04  0.19823430627E+04  0.12699999809E+01 0. -1.
</event>
<event>
 5   0  0.4409125E-07  0.3295797E+04  0.7818609E-02  0.8163966E-01
       -1   -1    0    0    0  501  0.00000000000E+00  0.00000000000E+00  0.20873185136E+04  0.20873185136E+04  0.50400001928E-02 0. -1.
        1   -1    0    0  501    0  0.00000000000E+00  0.00000000000E+00 -0.13009849311E+04  0.13009849311E+04  0.50400001928E-02 0.  1.
    10030    2    1    2    0    0  0.00000000000E+00  0.00000000000E+00  0.78633358249E+03  0.33883034447E+04  0.32957972830E+04 0.  0.
        5    1    3    3  502    0  0.11105044602E+04 -0.10746532795E+04 -0.19512526912E+03  0.15576250473E+04  0.46999998093E+01 0. -1.
       -5    1    3    3    0  502 -0.11105044602E+04  0.10746532795E+04  0.98145885161E+03  0.18306783974E+04  0.46999998093E+01 0.  1.
</event>
<event>
 5   0  0.1387133E-06  0.3497668E+04  0.7818609E-02  0.8114343E-01
        2   -1    0    0  501    0  0.00000000000E+00  0.00000000000E+00  0.24545906813E+04  0.24545906813E+04  0.25500000920E-02 0. -1.
       -2   -1    0    0    0  501  0.00000000000E+00  0.00000000000E+00 -0.12459999124E+04  0.12459999124E+04  0.25500000920E-02 0.  1.
    10030    2    1    2    0    0  0.00000000000E+00  0.00000000000E+00  0.12085907690E+04  0.37005905937E+04  0.34976676651E+04 0.  0.
        4    1    3    3  502    0 -0.12116677748E+04 -0.11276511536E+04  0.70243834563E+01  0.16552301579E+04  0.12699999809E+01 0.  1.
       -4    1    3    3    0  502  0.12116677748E+04  0.11276511536E+04  0.12015663855E+04  0.20453604358E+04  0.12699999809E+01 0. -1.
</event>
<event>
 5   0  0.4693374E-07  0.3441497E+04  0.7818609E-02  0.8127796E-01
        1   -1    0    0  501    0  0.00000000000E+00  0.00000000000E+00  0.15143645456E+04  0.15143645456E+04  0.50400001928E-02 0. -1.
       -1   -1    0    0    0  501  0.00000000000E+00  0.00000000000E+00 -0.19552594318E+04  0.19552594318E+04  0.50400001928E-02 0.  1.
    10030    2    1    2    0    0  0.00000000000E+00  0.00000000000E+00 -0.44089488623E+03  0.34696239775E+04  0.34414970935E+04 0.  0.
        1    1    3    3  502    0 -0.14432615980E+04 -0.20368079872E+03  0.70162331987E+03  0.16176418611E+04  0.50400001928E-02 0. -1.
       -1    1    3    3    0  502  0.14432615980E+04  0.20368079872E+03 -0.11425182061E+04  0.18519821163E+04  0.50400001928E-02 0.  1.
</event>
<event>
 5   0  0.1442864E-06  0.3267905E+04  0.7818609E-02  0.8171110E-01
        2   -1    0    0  501    0  0.00000000000E+00  0.00000000000E+00  0.22316815954E+04  0.22316815954E+04  0.25500000920E-02 0. -1.
       -2   -1    0    0    0  501  0.00000000000E+00  0.00000000000E+00 -0.11963176829E+04  0.11963176829E+04  0.25500000920E-02 0.  1.
    10030    2    1    2    0    0  0.00000000000E+00  0.00000000000E+00  0.10353639125E+04  0.34279992784E+04  0.32679046224E+04 0.  0.
        1    1    3    3  502    0  0.49738204915E+03  0.43411739834E+03 -0.10501820780E+04  0.12404552452E+04  0.50400001928E-02 0.  1.
       -1    1    3    3    0  502 -0.49738204915E+03 -0.43411739834E+03  0.20855459905E+04  0.21875440331E+04  0.50400001928E-02 0. -1.
</event>
<event>
 5   0  0.4700769E-07  0.3514865E+04  0.7818609E-02  0.8110276E-01
       -1   -1    0    0    0  501  0.00000000000E+00  0.00000000000E+00  0.13292473175E+04  0.13292473175E+04  0.50400001928E-02 0. -1.
        1   -1    0    0  501    0  0.00000000000E+00  0.00000000000E+00 -0.23235469217E+04  0.23235469217E+04  0.50400001928E-02 0.  1.
    10030    2    1    2    0    0  0.00000000000E+00  0.00000000000E+00 -0.99429960413E+03  0.36527942392E+04  0.35148647273E+04 0.  0.
        3    1    3    3  502    0 -0.15615096905E+04 -0.48315833273E+03 -0.11680960835E+04  0.20090303528E+04  0.10100000352E+00 0.  1.
       -3    1    3    3    0  502  0.15615096905E+04  0.48315833273E+03  0.17379647936E+03  0.16437638864E+04  0.10100000352E+00 0. -1.
</event>
<event>
 5   0  0.1378620E-06  0.3429605E+04  0.7818609E-02  0.8130678E-01
       -2   -1    0    0    0  501  0.00000000000E+00  0.00000000000E+00  0.10412933677E+04  0.10412933678E+04  0.25500000920E-02 0.  1.
        2   -1    0    0  501    0  0.00000000000E+00  0.00000000000E+00 -0.28239378814E+04  0.28239378814E+04  0.25500000920E-02 0. -1.
    10030    2    1    2    0    0  0.00000000000E+00  0.00000000000E+00 -0.17826445137E+04  0.38652312492E+04  0.34296051008E+04 0.  0.
        2    1    3    3  502    0  0.21893415359E+03 -0.93453671864E+03 -0.24928229711E+04  0.26712276966E+04  0.25500000920E-02 0. -1.
       -2    1    3    3    0  502 -0.21893415359E+03  0.93453671864E+03  0.71017845741E+03  0.11940035525E+04  0.25500000920E-02 0.  1.
</event>
<event>
 5   0  0.4693374E-07  0.3409129E+04  0.7818609E-02  0.8135669E-01
        1   -1    0    0  501    0  0.00000000000E+00  0.00000000000E+00  0.18617742213E+04  0.18617742213E+04  0.50400001928E-02 0. -1.
       -1   -1    0    0    0  501  0.00000000000E+00  0.00000000000E+00 -0.15606296768E+04  0.15606296768E+04  0.50400001928E-02 0.  1.
    10030    2    1    2    0    0  0.00000000000E+00  0.00000000000E+00  0.30114454453E+03  0.34224038981E+04  0.34091289804E+04 0.  0.
        1    1    3    3  502    0  0.16132517845E+04  0.54968540170E+03  0.17905068000E+03  0.17137078243E+04  0.50400001928E-02 0. -1.
       -1    1    3    3    0  502 -0.16132517845E+04 -0.54968540170E+03  0.12209386454E+03  0.17086960738E+04  0.50400001928E-02 0.  1.
</event>
<event>
 5   0  0.4409125E-07  0.3449363E+04  0.7818609E-02  0.8125896E-01
        1   -1    0    0  501    0  0.00000000000E+00  0.00000000000E+00  0.94983934421E+03  0.94983934422E+03  0.50400001928E-02 0. -1.
       -1   -1    0    0    0  501  0.00000000000E+00  0.00000000000E+00 -0.31316102325E+04  0.31316102325E+04  0.50400001928E-02 0.  1.
    10030    2    1    2    0    0  0.00000000000E+00  0.00000000000E+00 -0.21817708883E+04  0.40814495767E+04  0.34493631932E+04 0.  0.
        5    1    3    3  502    0  0.10074719252E+04 -0.13364429830E+04 -0.59813008883E+03  0.17773185477E+04  0.46999998093E+01 0.  1.
       -5    1    3    3    0  502 -0.10074719252E+04  0.13364429830E+04 -0.15836407994E+04  0.23041310290E+04  0.46999998093E+01 0. -1.
</event>
<event>
 5   0  0.4693374E-07  0.3161356E+04  0.7818609E-02  0.8199098E-01
        1   -1    0    0  501    0  0.00000000000E+00  0.00000000000E+00  0.16435944294E+04  0.16435944294E+04  0.50400001928E-02 0.  1.
       -1   -1    0    0    0  501  0.00000000000E+00  0.00000000000E+00 -0.15201702370E+04  0.15201702370E+04  0.50400001928E-02 0. -1.
    10030    2    1    2    0    0  0.00000000000E+00  0.00000000000E+00  0.12342419244E+03  0.31637646664E+04  0.31613562490E+04 0.  0.
        1    1    3    3  502    0 -0.15408733815E+04  0.16775803416E+03 -0.24853988500E+03  0.15697788412E+04  0.50400001928E-02 0. -1.
       -1    1    3    3    0  502  0.15408733815E+04 -0.16775803416E+03  0.37196407744E+03  0.15939858252E+04  0.50400001928E-02 0.  1.
</event>
<event>
 5   0  0.1348388E-06  0.3543746E+04  0.7818609E-02  0.8103500E-01
        2   -1    0    0  501    0  0.00000000000E+00  0.00000000000E+00  0.26460635228E+04  0.26460635228E+04  0.25500000920E-02 0.  1.
       -2   -1    0    0    0  501  0.00000000000E+00  0.00000000000E+00 -0.11864921428E+04  0.11864921428E+04  0.25500000920E-02 0. -1.
    10030    2    1    2    0    0  0.00000000000E+00  0.00000000000E+00  0.14595713800E+04  0.38325556657E+04  0.35437458031E+04 0.  0.
        5    1    3    3  502    0  0.10294134763E+04 -0.45992739923E+03 -0.74846336211E+03  0.13533088385E+04  0.46999998093E+01 0. -1.
       -5    1    3    3    0  502 -0.10294134763E+04  0.45992739923E+03  0.22080347421E+04  0.24792468272E+04  0.46999998093E+01 0.  1.
</event>
<event>
 5   0  0.1361560E-06  0.3530701E+04  0.7818609E-02  0.8106553E-01
        2   -1    0    0  501    0  0.00000000000E+00  0.00000000000E+00  0.17723132213E+04  0.17723132213E+04  0.25500000920E-02 0. -1.
       -2   -1    0    0    0  501  0.00000000000E+00  0.00000000000E+00 -0.17584146610E+04  0.17584146610E+04  0.25500000920E-02 0.  1.
    10030    2    1    2    0    0  0.00000000000E+00  0.00000000000E+00  0.13898560383E+02  0.35307278823E+04  0.35307005267E+04 0.  0.
        3    1    3    3  502    0 -0.61889752371E+03  0.13086625185E+04 -0.10034197754E+04  0.17613866663E+04  0.10100000352E+00 0.  1.
       -3    1    3    3    0  502  0.61889752371E+03 -0.13086625185E+04  0.10173183358E+04  0.17693412160E+04  0.10100000352E+00 0. -1.
</event>
<event>
 5   0  0.1442864E-06  0.2647276E+04  0.7818609E-02  0.8352318E-01
        2   -1    0    0  501    0  0.00000000000E+00  0.00000000000E+00  0.15231684021E+04  0.15231684021E+04  0.25500000920E-02 0.  1.
       -2   -1    0    0    0  501  0.00000000000E+00  0.00000000000E+00 -0.11502450677E+04  0.11502450677E+04  0.25500000920E-02 0. -1.
    10030    2    1    2    0    0  0.00000000000E+00  0.00000000000E+00  0.37292333444E+03  0.26734134698E+04  0.26472755367E+04 0.  0.
        1    1    3    3  502    0  0.10914711609E+04 -0.49336498438E+03  0.75531602588E+03  0.14160581209E+04  0.50400001928E-02 0.  1.
       -1    1    3    3    0  502 -0.10914711609E+04  0.49336498438E+03 -0.38239269143E+03  0.12573553489E+04  0.50400001928E-02 0. -1.
</event>
<event>
 5   0  0.4557237E-07  0.3501613E+04  0.7818609E-02  0.8113408E-01
       -1   -1    0    0    0  501  0.00000000000E+00  0.00000000000E+00  0.10460231131E+04  0.10460231131E+04  0.50400001928E-02 0.  1.
        1   -1    0    0  501    0  0.00000000000E+00  0.00000000000E+00 -0.29304552603E+04  0.29304552603E+04  0.50400001928E-02 0. -1.
    10030    2    1    2    0    0  0.00000000000E+00  0.00000000000E+00 -0.18844321472E+04  0.39764783734E+04  0.35016133049E+04 0.  0.
        2    1    3    3  502    0 -0.92361394470E+03 -0.14265670062E+04 -0.46422165277E+03  0.17617201494E+04  0.25500000920E-02 0.  1.
       -2    1    3    3    0  502  0.92361394470E+03  0.14265670062E+04 -0.14202104945E+04  0.22147582240E+04  0.25500000920E-02 0. -1.
</event>
<event>
 5   0  0.4693374E-07  0.3482906E+04  0.7818609E-02  0.8117853E-01
       -1   -1    0    0    0  501  0.00000000000E+00  0.00000000000E+00  0.14589460931E+04  0.14589460931E+04  0.50400001928E-02 0.  1.
        1   -1    0    0  501    0  0.00000000000E+00  0.00000000000E+00 -0.20786638681E+04  0.20786638681E+04  0.50400001928E-02 0. -1.
    10030    2    1    2    0    0  0.00000000000E+00  0.00000000000E+00 -0.61971777501E+03  0.35376099612E+04  0.34829059874E+04 0.  0.
        1    1    3    3  502    0 -0.17207377093E+04 -0.22291102601E+03 -0.46061839285E+03  0.17952149993E+04  0.50400001928E-02 0.  1.
       -1    1    3    3    0  502  0.17207377093E+04  0.22291102601E+03 -0.15909938216E+03  0.17423949619E+04  0.50400001928E-02 0. -1.
</event>
<event>
 5   0  0.1348388E-06  0.3542548E+04  0.7818609E-02  0.8103780E-01
        2   -1    0    0  501    0  0.00000000000E+00  0.00000000000E+00  0.18076816934E+04  0.18076816934E+04  0.25500000920E-02 0. -1.
       -2   -1    0    0    0  501  0.00000000000E+00  0.00000000000E+00 -0.17355999754E+04  0.17355999754E+04  0.25500000920E-02 0.  1.
    10030    2    1    2    0    0  0.00000000000E+00  0.00000000000E+00  0.72081717941E+02  0.35432816688E+04  0.35425484062E+04 0.  0.
        5    1    3    3  502    0 -0.15955237710E+04 -0.76606803757E+03  0.10558129286E+03  0.17730555100E+04  0.46999998093E+01 0.  1.
       -5    1    3    3    0  502  0.15955237710E+04  0.76606803757E+03 -0.33499574920E+02  0.17702261589E+04  0.46999998093E+01 0. -1.
</event>
<event>
 5   0  0.4409125E-07  0.3299359E+04  0.7818609E-02  0.8163059E-01
        1   -1    0    0  501    0  0.00000000000E+00  0.00000000000E+00  0.26680700139E+04  0.26680700139E+04  0.50400001928E-02 0. -1.
       -1   -1    0    0    0  501  0.00000000000E+00  0.00000000000E+00 -0.10200038588E+04  0.10200038589E+04  0.50400001928E-02 0.  1.
    10030    2    1    2    0    0  0.00000000000E+00  0.00000000000E+00  0.16480661551E+04  0.36880738728E+04  0.32993585497E+04 0.  0.
        5    1    3    3  502    0 -0.53645035073E+03 -0.27781394017E+03 -0.89189918056E+03  0.10772491831E+04  0.46999998093E+01 0.  1.
       -5    1    3    3    0  502  0.53645035073E+03  0.27781394017E+03  0.25399653357E+04  0.26108246897E+04  0.46999998093E+01 0. -1.
</event>
<event>
 5   0  0.4591195E-07  0.3413211E+04  0.7818609E-02  0.8134671E-01
       -1   -1    0    0    0  501  0.00000000000E+00  0.00000000000E+00  0.10783187212E+04  0.10783187212E+04  0.50400001928E-02 0. -1.
        1   -1    0    0  501    0  0.00000000000E+00  0.00000000000E+00 -0.27009662535E+04  0.27009662535E+04  0.50400001928E-02 0.  1.
    10030    2    1    2    0    0  0.00000000000E+00  0.00000000000E+00 -0.16226475323E+04  0.37792849747E+04  0.34132110843E+04 0.  0.
        4    1    3    3  502    0  0.15449684818E+04 -0.49978113585E+03 -0.13928072460E+04  0.21393041932E+04  0.12699999809E+01 0.  1.
       -4    1    3    3    0  502 -0.15449684818E+04  0.49978113585E+03 -0.22984028627E+03  0.16399807815E+04  0.12699999809E+01 0. -1.
</event>
<event>
 5   0  0.1348388E-06  0.3050725E+04  0.7818609E-02  0.8229393E-01
       -2   -1    0    0    0  501  0.00000000000E+00  0.00000000000E+00  0.15031701643E+04  0.15031701643E+04  0.25500000920E-02 0. -1.
        2   -1    0    0  501    0  0.00000000000E+00  0.00000000000E+00 -0.15478824765E+04  0.15478824765E+04  0.25500000920E-02 0.  1.
    10030    2    1    2    0    0  0.00000000000E+00  0.00000000000E+00 -0.44712312208E+02  0.30510526409E+04  0.30507250002E+04 0.  0.
        5    1    3    3  502    0 -0.67738073302E+03 -0.32106253309E+03 -0.13509501296E+04  0.15449964888E+04  0.46999998093E+01 0.  1.
       -5    1    3    3    0  502  0.67738073302E+03  0.32106253309E+03  0.13062378174E+04  0.15060561521E+04  0.46999998093E+01 0. -1.
</event>
<event>
 5   0  0.4409125E-07  0.3353703E+04  0.7818609E-02  0.8149363E-01
       -3   -1    0    0    0  501  0.00000000000E+00  0.00000000000E+00  0.11835393998E+04  0.11835394041E+04  0.10100000352E+00 0.  1.
        3   -1    0    0  501    0  0.00000000000E+00  0.00000000000E+00 -0.23757815437E+04  0.23757815458E+04  0.10100000352E+00 0. -1.
    10030    2    1    2    0    0  0.00000000000E+00  0.00000000000E+00 -0.11922421438E+04  0.35593209500E+04  0.33537030720E+04 0.  0.
        3    1    3    3  502    0 -0.91643472467E+01  0.16731983679E+04 -0.71312690664E+03  0.18188531438E+04  0.10100000352E+00 0.  1.
       -3    1    3    3    0  502  0.91643472467E+01 -0.16731983679E+04 -0.47911523718E+03  0.17404678062E+04  0.10100000352E+00 0. -1.
</event>
<event>
 5   0  0.1348388E-06  0.3443142E+04  0.7818609E-02  0.8127398E-01
        2   -1    0    0  501    0  0.00000000000E+00  0.00000000000E+00  0.23513337386E+04  0.23513337386E+04  0.25500000920E-02 0.  1.
       -2   -1    0    0    0  501  0.00000000000E+00  0.00000000000E+00 -0.12604788907E+04  0.12604788907E+04  0.25500000920E-02 0. -1.
    10030    2    1    2    0    0  0.00000000000E+00  0.00000000000E+00  0.10908548479E+04  0.36118126293E+04  0.34431419038E+04 0.  0.
        5    1    3    3  502    0 -0.91176348157E+03  0.58946338716E+03  0.19469173325E+04  0.22291901940E+04  0.46999998093E+01 0.  1.
       -5    1    3    3    0  502  0.91176348157E+03 -0.58946338716E+03 -0.85606248457E+03  0.13826224353E+04  0.46999998093E+01 0. -1.
</event>
<event>
 5   0  0.1387133E-06  0.3462938E+04  0.7818609E-02  0.8122630E-01
       -2   -1    0    0    0  501  0.00000000000E+00  0.00000000000E+00  0.15896770387E+04  0.15896770387E+04  0.25500000920E-02 0.  1.
        2   -1    0    0  501    0  0.00000000000E+00  0.00000000000E+00 -0.18859083296E+04  0.18859083296E+04  0.25500000920E-02 0. -1.
    10030    2    1    2    0    0  0.00000000000E+00  0.00000000000E+00 -0.29623129089E+03  0.34755853683E+04  0.34629381563E+04 0.  0.
        4    1    3    3  502    0  0.15109542798E+04 -0.84378155986E+03 -0.20339309730E+03  0.17425040951E+04  0.12699999809E+01 0.  1.
       -4    1    3    3    0  502 -0.15109542798E+04  0.84378155986E+03 -0.92838193584E+02  0.17330812732E+04  0.12699999809E+01 0. -1.
</event>
<event>
 5   0  0.1442864E-06  0.3566957E+04  0.7818609E-02  0.8098103E-01
        2   -1    0    0  501    0  0.00000000000E+00  0.00000000000E+00  0.20889040987E+04  0.20889040987E+04  0.25500000920E-02 0.  1.
       -2   -1    0    0    0  501  0.00000000000E+00  0.00000000000E+00 -0.15227104729E+04  0.15227104729E+04  0.25500000920E-02 0. -1.
    10030    2    1    2    0    0  0.00000000000E+00  0.00000000000E+00  0.56619362583E+03  0.36116145716E+04  0.35669573296E+04 0.  0.
        1    1    3    3  502    0 -0.14645789709E+04 -0.28245754417E+03 -0.70690843964E+03  0.16506039404E+04  0.50400001928E-02 0. -1.
       -1    1    3    3    0  502  0.14645789709E+04  0.28245754417E+03  0.12731020655E+04  0.19610106311E+04  0.50400001928E-02 0.  1.
</event>
<event>
 5   0  0.1442864E-06  0.3488314E+04  0.7818609E-02  0.8116565E-01
       -2   -1    0    0    0  501  0.00000000000E+00  0.00000000000E+00  0.21082095272E+04  0.21082095272E+04  0.25500000920E-02 0. -1.
        2   -1    0    0  501    0  0.00000000000E+00  0.00000000000E+00 -0.14429699293E+04  0.14429699293E+04  0.25500000920E-02 0.  1.
    10030    2    1    2    0    0  0.00000000000E+00  0.00000000000E+00  0.66523959790E+03  0.35511794564E+04  0.34883136053E+04 0.  0.
        1    1    3    3  502    0  0.25858922904E+02 -0.11562750615E+04  0.16616909871E+04  0.20245635674E+04  0.50400001928E-02 0. -1.
       -1    1    3    3    0  502 -0.25858922904E+02  0.11562750615E+04 -0.99645138916E+03  0.15266158891E+04  0.50400001928E-02 0.  1.
</event>
<event>
 5   0  0.4557237E-07  0.3558888E+04  0.7818609E-02  0.8099974E-01
       -1   -1    0    0    0  501  0.00000000000E+00  0.00000000000E+00  0.18823751851E+04  0.18823751851E+04  0.50400001928E-02 0. -1.
        1   -1    0    0  501    0  0.00000000000E+00  0.00000000000E+00 -0.16821416236E+04  0.16821416236E+04  0.50400001928E-02 0.  1.
    10030    2    1    2    0    0  0.00000000000E+00  0.00000000000E+00  0.20023356153E+03  0.35645168087E+04  0.35588883939E+04 0.  0.
        2    1    3    3  502    0 -0.16233316462E+04 -0.39677321131E+03  0.71246493795E+03  0.18166565175E+04  0.25500000920E-02 0. -1.
       -2    1    3    3    0  502  0.16233316462E+04  0.39677321131E+03 -0.51223137642E+03  0.17478602912E+04  0.25500000920E-02 0.  1.
</event>
<event>
 5   0  0.1442864E-06  0.2502429E+04  0.7818609E-02  0.8402121E-01
        2   -1    0    0  501    0  0.00000000000E+00  0.00000000000E+00  0.10166223870E+04  0.10166223870E+04  0.25500000920E-02 0.  1.
       -2   -1    0    0    0  501  0.00000000000E+00  0.00000000000E+00 -0.15399405139E+04  0.15399405139E+04  0.25500000920E-02 0. -1.
    10030    2    1    2    0    0  0.00000000000E+00  0.00000000000E+00 -0.52331812695E+03  0.25565629009E+04  0.25024292207E+04 0.  0.
        1    1    3    3  502    0  0.73995088494E+03  0.93502496303E+03  0.12567170784E+03  0.11989964019E+04  0.50400001928E-02 0. -1.
       -1    1    3    3    0  502 -0.73995088494E+03 -0.93502496303E+03 -0.64898983479E+03  0.13575664990E+04  0.50400001928E-02 0.  1.
</event>
<event>
 5   0  0.4409125E-07  0.3467048E+04  0.7818609E-02  0.8121644E-01
        1   -1    0    0  501    0  0.00000000000E+00  0.00000000000E+00  0.20264950400E+04  0.20264950400E+04  0.50400001928E-02 0. -1.
       -1   -1    0    0    0  501  0.00000000000E+00  0.00000000000E+00 -0.14829079856E+04  0.14829079856E+04  0.50400001928E-02 0.  1.
    10030    2    1    2    0    0  0.00000000000E+00  0.00000000000E+00  0.54358705441E+03  0.35094030257E+04  0.34670481264E+04 0.  0.
        5    1    3    3  502    0 -0.64209499881E+03 -0.11046788743E+04  0.14576352703E+04  0.19383818184E+04  0.46999998093E+01 0. -1.
       -5    1    3    3    0  502  0.64209499881E+03  0.11046788743E+04 -0.91404821588E+03  0.15710212073E+04  0.46999998093E+01 0.  1.
</event>
<event>
 5   0  0.4700769E-07  0.3515417E+04  0.7818609E-02  0.8110146E-01
        1   -1    0    0  501    0  0.00000000000E+00  0.00000000000E+00  0.25860915788E+04  0.25860915788E+04  0.50400001928E-02 0. -1.
       -1   -1    0    0    0  501  0.00000000000E+00  0.00000000000E+00 -0.11946750675E+04  0.11946750675E+04  0.50400001928E-02 0.  1.
    10030    2    1    2    0    0  0.00000000000E+00  0.00000000000E+00  0.13914165113E+04  0.37807666464E+04  0.35154169776E+04 0.  0.
        3    1    3    3  502    0 -0.99308418240E+03 -0.16336348422E+03  0.22455349726E+04  0.24607582459E+04  0.10100000352E+00 0. -1.
       -3    1    3    3    0  502  0.99308418240E+03  0.16336348422E+03 -0.85411846127E+03  0.13200084005E+04  0.10100000352E+00 0.  1.
</event>
<event>
 5   0  0.1387133E-06  0.3726576E+04  0.7818609E-02  0.8062098E-01
        2   -1    0    0  501    0  0.00000000000E+00  0.00000000000E+00  0.20623614746E+04  0.20623614746E+04  0.25500000920E-02 0. -1.
       -2   -1    0    0    0  501  0.00000000000E+00  0.00000000000E+00 -0.16834302172E+04  0.16834302172E+04  0.25500000920E-02 0.  1.
    10030    2    1    2    0    0  0.00000000000E+00  0.00000000000E+00  0.37893125734E+03  0.37457916918E+04  0.37265757071E+04 0.  0.
        4    1    3    3  502    0  0.11407511660E+04 -0.72184924758E+03  0.14804013768E+04  0.20034893082E+04  0.12699999809E+01 0. -1.
       -4    1    3    3    0  502 -0.11407511660E+04  0.72184924758E+03 -0.11014701194E+04  0.17423023836E+04  0.12699999809E+01 0.  1.
</event>
<event>
 5   0  0.4693374E-07  0.3497216E+04  0.7818609E-02  0.8114450E-01
        1   -1    0    0  501    0  0.00000000000E+00  0.00000000000E+00  0.25047520688E+04  0.25047520688E+04  0.50400001928E-02 0.  1.
       -1   -1    0    0    0  501  0.00000000000E+00  0.00000000000E+00 -0.12207316965E+04  0.12207316965E+04  0.50400001928E-02 0. -1.
    10030    2    1    2    0    0  0.00000000000E+00  0.00000000000E+00  0.12840203724E+04  0.37254837653E+04  0.34972161742E+04 0.  0.
        1    1    3    3  502    0 -0.60017751102E+03  0.82979448722E+03 -0.86784345090E+03  0.13423576986E+04  0.50400001928E-02 0. -1.
       -1    1    3    3    0  502  0.60017751102E+03 -0.82979448722E+03  0.21518638233E+04  0.23831260667E+04  0.50400001928E-02 0.  1.
</event>
<event>
 5   0  0.1361560E-06  0.3520602E+04  0.7818609E-02  0.8108925E-01
        2   -1    0    0  501    0  0.00000000000E+00  0.00000000000E+00  0.26221934500E+04  0.26221934500E+04  0.25500000920E-02 0. -1.
       -2   -1    0    0    0  501  0.00000000000E+00  0.00000000000E+00 -0.11817053533E+04  0.11817053533E+04  0.25500000920E-02 0.  1.
    10030    2    1    2    0    0  0.00000000000E+00  0.00000000000E+00  0.14404880967E+04  0.38038988033E+04  0.35206022423E+04 0.  0.
        3    1    3    3  502    0 -0.59980905440E+03  0.79951259199E+03 -0.84537964373E+03  0.13090676219E+04  0.10100000352E+00 0.  1.
       -3    1    3    3    0  502  0.59980905440E+03 -0.79951259199E+03  0.22858677404E+04  0.24948311814E+04  0.10100000352E+00 0. -1.
</event>
<event>
 5   0  0.1361560E-06  0.3473291E+04  0.7818609E-02  0.8120149E-01
        2   -1    0    0  501    0  0.00000000000E+00  0.00000000000E+00  0.13410874267E+04  0.13410874267E+04  0.25500000920E-02 0. -1.
       -2   -1    0    0    0  501  0.00000000000E+00  0.00000000000E+00 -0.22488747090E+04  0.22488747090E+04  0.25500000920E-02 0.  1.
    10030    2    1    2    0    0  0.00000000000E+00  0.00000000000E+00 -0.90778728226E+03  0.35899621356E+04  0.34732910021E+04 0.  0.
        3    1    3    3  502    0 -0.10102140422E+03  0.16090948769E+04 -0.11209770651E+04  0.19636652560E+04  0.10100000352E+00 0. -1.
       -3    1    3    3    0  502  0.10102140422E+03 -0.16090948769E+04  0.21318978287E+03  0.16262968796E+04  0.10100000352E+00 0.  1.
</event>
<event>
 5   0  0.1361560E-06  0.2642160E+04  0.7818609E-02  0.8354020E-01
       -2   -1    0    0    0  501  0.00000000000E+00  0.00000000000E+00  0.26610646783E+04  0.26610646783E+04  0.25500000920E-02 0.  1.
        2   -1    0    0  501    0  0.00000000000E+00  0.00000000000E+00 -0.65584716759E+03  0.65584716759E+03  0.25500000920E-02 0. -1.
    10030    2    1    2    0    0  0.00000000000E+00  0.00000000000E+00  0.20052175107E+04  0.33169118459E+04  0.26421595198E+04 0.  0.
        3    1    3    3  502    0 -0.26221263898E+03  0.89772962473E+03  0.21739371807E+04  0.23665749139E+04  0.10100000352E+00 0.  1.
       -3    1    3    3    0  502  0.26221263898E+03 -0.89772962473E+03 -0.16871966997E+03  0.95033693204E+03  0.10100000352E+00 0. -1.
</event>
<event>
 5   0  0.4557237E-07  0.3512638E+04  0.7818609E-02  0.8110801E-01
        1   -1    0    0  501    0  0.00000000000E+00  0.00000000000E+00  0.11569645747E+04  0.11569645747E+04  0.50400001928E-02 0.  1.
       -1   -1    0    0    0  501  0.00000000000E+00  0.00000000000E+00 -0.26661636453E+04  0.26661636453E+04  0.50400001928E-02 0. -1.
    10030    2    1    2    0    0  0.00000000000E+00  0.00000000000E+00 -0.15091990706E+04  0.38231282200E+04  0.35126382609E+04 0.  0.
        2    1    3    3  502    0 -0.45845250945E+02  0.77462532333E+03 -0.24694687401E+04  0.25885173434E+04  0.25500000920E-02 0. -1.
       -2    1    3    3    0  502  0.45845250945E+02 -0.77462532333E+03  0.96026966950E+03  0.12346108766E+04  0.25500000920E-02 0.  1.
</event>
<event>
 5   0  0.1348388E-06  0.3480835E+04  0.7818609E-02  0.8118347E-01
       -2   -1    0    0    0  501  0.00000000000E+00  0.00000000000E+00  0.18069512764E+04  0.18069512764E+04  0.25500000920E-02 0.  1.
        2   -1    0    0  501    0  0.00000000000E+00  0.00000000000E+00 -0.16763335606E+04  0.16763335606E+04  0.25500000920E-02 0. -1.
    10030    2    1    2    0    0  0.00000000000E+00  0.00000000000E+00  0.13061771573E+03  0.34832848370E+04  0.34808349958E+04 0.  0.
        5    1    3    3  502    0  0.19480715262E+03 -0.42900931389E+03 -0.16112903117E+04  0.16787725804E+04  0.46999998093E+01 0. -1.
       -5    1    3    3    0  502 -0.19480715262E+03  0.42900931389E+03  0.17419080274E+04  0.18045122566E+04  0.46999998093E+01 0.  1.
</event>
<event>
 5   0  0.1348388E-06  0.3661015E+04  0.7818609E-02  0.8076657E-01
        2   -1    0    0  501    0  0.00000000000E+00  0.00000000000E+00  0.18657404596E+04  0.18657404596E+04  0.25500000920E-02 0.  1.
       -2   -1    0    0    0  501  0.00000000000E+00  0.00000000000E+00 -0.17959402457E+04  0.17959402457E+04  0.25500000920E-02 0. -1.
    10030    2    1    2    0    0  0.00000000000E+00  0.00000000000E+00  0.69800213894E+02  0.36616807053E+04  0.36610153670E+04 0.  0.
        5    1    3    3  502    0  0.23050108537E+03  0.53616800541E+03 -0.17003876519E+04  0.17977617020E+04  0.46999998093E+01 0. -1.
       -5    1    3    3    0  502 -0.23050108537E+03 -0.53616800541E+03  0.17701878658E+04  0.18639190033E+04  0.46999998093E+01 0.  1.
</event>
<event>
 5   0  0.1387133E-06  0.3496815E+04  0.7818609E-02  0.8114545E-01
       -2   -1    0    0    0  501  0.00000000000E+00  0.00000000000E+00  0.10753627438E+04  0.10753627438E+04  0.25500000920E-02 0.  1.
        2   -1    0    0  501    0  0.00000000000E+00  0.00000000000E+00 -0.28426958509E+04  0.28426958509E+04  0.25500000920E-02 0. -1.
    10030    2    1    2    0    0  0.00000000000E+00  0.00000000000E+00 -0.17673331070E+04  0.39180585947E+04  0.34968152425E+04 0.  0.
        4    1    3    3  502    0 -0.68278872338E+03  0.11368601707E+03  0.91529993206E+03  0.11475628653E+04  0.12699999809E+01 0.  1.
       -4    1    3    3    0  502  0.68278872338E+03 -0.11368601707E+03 -0.26826330391E+04  0.27704957294E+04  0.12699999809E+01 0. -1.
</event>
<event>
 5   0  0.1387133E-06  0.3570203E+04  0.7818609E-02  0.8097351E-01
       -2   -1    0    0    0  501  0.00000000000E+00  0.00000000000E+00  0.29713557672E+04  0.29713557672E+04  0.25500000920E-02 0.  1.
        2   -1    0    0  501    0  0.00000000000E+00  0.00000000000E+00 -0.10724353846E+04  0.10724353846E+04  0.25500000920E-02 0. -1.
    10030    2    1    2    0    0  0.00000000000E+00  0.00000000000E+00  0.18989203826E+04  0.40437911518E+04  0.35702028317E+04 0.  0.
        4    1    3    3  502    0 -0.46014607698E+03  0.17168181184E+04  0.11369012781E+04  0.21099158734E+04  0.12699999809E+01 0.  1.
       -4    1    3    3    0  502  0.46014607698E+03 -0.17168181184E+04  0.76201910457E+03  0.19338752784E+04  0.12699999809E+01 0. -1.
</event>
<event>
 5   0  0.4591195E-07  0.3474048E+04  0.7818609E-02  0.8119968E-01
       -1   -1    0    0    0  501  0.00000000000E+00  0.00000000000E+00  0.16056596225E+04  0.16056596225E+04  0.50400001928E-02 0. -1.
        1   -1    0    0  501    0  0.00000000000E+00  0.00000000000E+00 -0.18791354321E+04  0.18791354321E+04  0.50400001928E-02 0.  1.
    10030    2    1    2    0    0  0.00000000000E+00  0.00000000000E+00 -0.27347580958E+03  0.34847950545E+04  0.34740477190E+04 0.  0.
        4    1    3    3  502    0  0.57631787818E+03 -0.99808200312E+03  0.11668748790E+04  0.16400940759E+04  0.12699999809E+01 0. -1.
       -4    1    3    3    0  502 -0.57631787818E+03  0.99808200312E+03 -0.14403506886E+04  0.18447009786E+04  0.12699999809E+01 0.  1.
</event>
<event>
 5   0  0.1361560E-06  0.3485089E+04  0.7818609E-02  0.8117333E-01
        2   -1    0    0  501    0  0.00000000000E+00  0.00000000000E+00  0.16604810719E+04  0.16604810719E+04  0.25500000920E-02 0.  1.
       -2   -1    0    0    0  501  0.00000000000E+00  0.00000000000E+00 -0.18286639930E+04  0.18286639930E+04  0.25500000920E-02 0. -1.
    10030    2    1    2    0    0  0.00000000000E+00  0.00000000000E+00 -0.16818292113E+03  0.34891450649E+04  0.34850893516E+04 0.  0.
        3    1    3    3  502    0 -0.10102041435E+04 -0.13537398862E+04 -0.51276943654E+03  0.17652355639E+04  0.10100000352E+00 0. -1.
       -3    1    3    3    0  502  0.10102041435E+04  0.13537398862E+04  0.34458651541E+03  0.17239095010E+04  0.10100000352E+00 0.  1.
</event>
<event>
 5   0  0.4591195E-07  0.3547133E+04  0.7818609E-02  0.8102710E-01
        1   -1    0    0  501    0  0.00000000000E+00  0.00000000000E+00  0.23176303109E+04  0.23176303109E+04  0.50400001928E-02 0.  1.
       -1   -1    0    0    0  501  0.00000000000E+00  0.00000000000E+00 -0.13572218341E+04  0.13572218341E+04  0.50400001928E-02 0. -1.
    10030    2    1    2    0    0  0.00000000000E+00  0.00000000000E+00  0.96040847677E+03  0.36748521450E+04  0.35471331869E+04 0.  0.
        4    1    3    3  502    0  0.71597718528E+03  0.64765129144E+03  0.20215438638E+04  0.22402492565E+04  0.12699999809E+01 0.  1.
       -4    1    3    3    0  502 -0.71597718528E+03 -0.64765129144E+03 -0.10611353870E+04  0.14346028885E+04  0.12699999809E+01 0. -1.
</event>
<event>
 5   0  0.1442864E-06  0.3519461E+04  0.7818609E-02  0.8109193E-01
       -2   -1    0    0    0  501  0.00000000000E+00  0.00000000000E+00  0.18812645920E+04  0.18812645920E+04  0.25500000920E-02 0.  1.
        2   -1    0    0  501    0  0.00000000000E+00  0.00000000000E+00 -0.16460475015E+04  0.16460475015E+04  0.25500000920E-02 0. -1.
    10030    2    1    2    0    0  0.00000000000E+00  0.00000000000E+00  0.23521709052E+03  0.35273120935E+04  0.35194606867E+04 0.  0.
        1    1    3    3  502    0 -0.85502884433E+03  0.63662171421E+03  0.15208353083E+04  0.18572295406E+04  0.50400001928E-02 0.  1.
       -1    1    3    3    0  502  0.85502884433E+03 -0.63662171421E+03 -0.12856182178E+04  0.16700825529E+04  0.50400001928E-02 0. -1.
</event>
<event>
 5   0  0.1378620E-06  0.3371561E+04  0.7818609E-02  0.8144922E-01
       -2   -1    0    0    0  501  0.00000000000E+00  0.00000000000E+00  0.13953222532E+04  0.13953222532E+04  0.25500000920E-02 0.  1.
        2   -1    0    0  501    0  0.00000000000E+00  0.00000000000E+00 -0.20367018076E+04  0.20367018076E+04  0.25500000920E-02 0. -1.
    10030    2    1    2    0    0  0.00000000000E+00  0.00000000000E+00 -0.64137955432E+03  0.34320240608E+04  0.33715606803E+04 0.  0.
        2    1    3    3  502    0  0.10133787187E+04 -0.91840492642E+03 -0.13239875880E+04  0.19035091724E+04  0.25500000920E-02 0. -1.
       -2    1    3    3    0  502 -0.10133787187E+04  0.91840492642E+03  0.68260803367E+03  0.15285148884E+04  0.25500000920E-02 0.  1.
</event>
<event>
 5   0  0.4693374E-07  0.3521931E+04  0.7818609E-02  0.8108612E-01
        1   -1    0    0  501    0  0.00000000000E+00  0.00000000000E+00  0.27723484849E+04  0.27723484849E+04  0.50400001928E-02 0. -1.
       -1   -1    0    0    0  501  0.00000000000E+00  0.00000000000E+00 -0.11185460739E+04  0.11185460739E+04  0.50400001928E-02 0.  1.
    10030    2    1    2    0    0  0.00000000000E+00  0.00000000000E+00  0.16538024109E+04  0.38908945588E+04  0.35219310120E+04 0.  0.
        1    1    3    3  502    0 -0.96740243286E+03 -0.11372018007E+04 -0.20467895159E+03  0.15069800516E+04  0.50400001928E-02 0.  1.
       -1    1    3    3    0  502  0.96740243286E+03  0.11372018007E+04  0.18584813625E+04  0.23839145072E+04  0.50400001928E-02 0. -1.
</event>
<event>
 5   0  0.4557237E-07  0.3460554E+04  0.7818609E-02  0.8123202E-01
       -1   -1    0    0    0  501  0.00000000000E+00  0.00000000000E+00  0.12407177235E+04  0.12407177235E+04  0.50400001928E-02 0. -1.
        1   -1    0    0  501    0  0.00000000000E+00  0.00000000000E+00 -0.24130048412E+04  0.24130048412E+04  0.50400001928E-02 0.  1.
    10030    2    1    2    0    0  0.00000000000E+00  0.00000000000E+00 -0.11722871177E+04  0.36537225647E+04  0.34605536397E+04 0.  0.
        2    1    3    3  502    0 -0.10217617011E+04 -0.13356489330E+04 -0.10161915028E+04  0.19648410156E+04  0.25500000920E-02 0. -1.
       -2    1    3    3    0  502  0.10217617011E+04  0.13356489330E+04 -0.15609561485E+03  0.16888815491E+04  0.25500000920E-02 0.  1.
</event>
<event>
 5   0  0.1387133E-06  0.3365088E+04  0.7818609E-02  0.8146528E-01
       -2   -1    0    0    0  501  0.00000000000E+00  0.00000000000E+00  0.16853870385E+04  0.16853870385E+04  0.25500000920E-02 0.  1.
        2   -1    0    0  501    0  0.00000000000E+00  0.00000000000E+00 -0.16797058277E+04  0.16797058277E+04  0.25500000920E-02 0. -1.
    10030    2    1    2    0    0  0.00000000000E+00  0.00000000000E+00  0.56812107970E+01  0.33650928662E+04  0.33650880704E+04 0.  0.
        4    1    3    3  502    0 -0.60327816981E+03  0.15692237669E+04 -0.64576377891E+02  0.16824326145E+04  0.12699999809E+01 0.  1.
       -4    1    3    3    0  502  0.60327816981E+03 -0.15692237669E+04  0.70257588688E+02  0.16826602517E+04  0.12699999809E+01 0. -1.
</event>
<event>
 5   0  0.1387133E-06  0.3601788E+04  0.7818609E-02  0.8090082E-01
        2   -1    0    0  501    0  0.00000000000E+00  0.00000000000E+00  0.16831062812E+04  0.16831062812E+04  0.25500000920E-02 0. -1.
       -2   -1    0    0    0  501  0.00000000000E+00  0.00000000000E+00 -0.19269244272E+04  0.19269244272E+04  0.25500000920E-02 0.  1.
    10030    2    1    2    0    0  0.00000000000E+00  0.00000000000E+00 -0.24381814608E+03  0.36100307084E+04  0.36017876710E+04 0.  0.
        4    1    3    3  502    0 -0.17869138809E+04 -0.21909385668E+03 -0.75395343824E+02  0.18018738598E+04  0.12699999809E+01 0. -1.
       -4    1    3    3    0  502  0.17869138809E+04  0.21909385668E+03 -0.16842280225E+03  0.18081568486E+04  0.12699999809E+01 0.  1.
</event>
<event>
 5   0  0.4591195E-07  0.3470377E+04  0.7818609E-02  0.8120846E-01
        1   -1    0    0  501    0  0.00000000000E+00  0.00000000000E+00  0.15779186685E+04  0.15779186685E+04  0.50400001928E-02 0.  1.
       -1   -1    0    0    0  501  0.00000000000E+00  0.00000000000E+00 -0.19081329984E+04  0.19081329984E+04  0.50400001928E-02 0. -1.
    10030    2    1    2    0    0  0.00000000000E+00  0.00000000000E+00 -0.33021432987E+03  0.34860516669E+04  0.34703767404E+04 0.  0.
        4    1    3    3  502    0  0.11584871068E+04  0.12915768426E+04 -0.14021722609E+03  0.17406681477E+04  0.12699999809E+01 0. -1.
       -4    1    3    3    0  502 -0.11584871068E+04 -0.12915768426E+04 -0.18999710378E+03  0.17453835192E+04  0.12699999809E+01 0.  1.
</event>
<event>
 5   0  0.4557237E-07  0.3578256E+04  0.7818609E-02  0.8095491E-01
       -1   -1    0    0    0  501  0.00000000000E+00  0.00000000000E+00  0.14308278723E+04  0.14308278723E+04  0.50400001928E-02 0. -1.
        1   -1    0    0  501    0  0.00000000000E+00  0.00000000000E+00 -0.22371513131E+04  0.22371513131E+04  0.50400001928E-02 0.  1.
    10030    2    1    2    0    0  0.00000000000E+00  0.00000000000E+00 -0.80632344086E+03  0.36679791854E+04  0.35782556942E+04 0.  0.
        2    1    3    3  502    0 -0.16542144642E+04  0.22225833750E+03  0.25731909082E+03  0.16887976127E+04  0.25500000920E-02 0. -1.
       -2    1    3    3    0  502  0.16542144642E+04 -0.22225833750E+03 -0.10636425317E+04  0.19791815727E+04  0.25500000920E-02 0.  1.
</event>
<event>
 5   0  0.1348388E-06  0.3478242E+04  0.7818609E-02  0.8118966E-01
       -2   -1    0    0    0  501  0.00000000000E+00  0.00000000000E+00  0.13317789116E+04  0.13317789116E+04  0.25500000920E-02 0. -1.
        2   -1    0    0  501    0  0.00000000000E+00  0.00000000000E+00 -0.22710537079E+04  0.22710537079E+04  0.25500000920E-02 0.  1.
    10030    2    1    2    0    0  0.00000000000E+00  0.00000000000E+00 -0.93927479633E+03  0.36028326194E+04  0.34782417599E+04 0.  0.
        5    1    3    3  502    0  0.31212530113E+03 -0.35457824992E+03 -0.22033203034E+04  0.22533953023E+04  0.46999998093E+01 0.  1.
       -5    1    3    3    0  502 -0.31212530113E+03  0.35457824992E+03  0.12640455071E+04  0.13494373171E+04  0.46999998093E+01 0. -1.
</event>
<event>
 5   0  0.1348388E-06  0.3488949E+04  0.7818609E-02  0.8116414E-01
        2   -1    0    0  501    0  0.00000000000E+00  0.00000000000E+00  0.13352739406E+04  0.13352739406E+04  0.25500000920E-02 0.  1.
       -2   -1    0    0    0  501  0.00000000000E+00  0.00000000000E+00 -0.22790767830E+04  0.22790767830E+04  0.25500000920E-02 0. -1.
    10030    2    1    2    0    0  0.00000000000E+00  0.00000000000E+00 -0.94380284246E+03  0.36143507236E+04  0.34889493186E+04 0.  0.
        5    1    3    3  502    0 -0.47379115762E+03  0.11592839584E+04  0.78614071134E+03  0.14786671922E+04  0.46999998093E+01 0.  1.
       -5    1    3    3    0  502  0.47379115762E+03 -0.11592839584E+04 -0.17299435538E+04  0.21356835314E+04  0.46999998093E+01 0. -1.
</event>
<event>
 5   0  0.4409125E-07  0.3534713E+04  0.7818609E-02  0.8105612E-01
       -1   -1    0    0    0  501  0.00000000000E+00  0.00000000000E+00  0.11947253506E+04  0.11947253506E+04  0.50400001928E-02 0.  1.
        1   -1    0    0  501    0  0.00000000000E+00  0.00000000000E+00 -0.26144500975E+04  0.26144500975E+04  0.50400001928E-02 0. -1.
    10030    2    1    2    0    0  0.00000000000E+00  0.00000000000E+00 -0.14197247469E+04  0.38091754481E+04  0.35347134590E+04 0.  0.
        5    1    3    3  502    0 -0.52598721034E+03  0.18984082479E+03  0.10968695396E+04  0.12311973688E+04  0.46999998093E+01 0.  1.
       -5    1    3    3    0  502  0.52598721034E+03 -0.18984082479E+03 -0.25165942865E+04  0.25779780792E+04  0.46999998093E+01 0. -1.
</event>
<event>
 5   0  0.1378620E-06  0.2816317E+04  0.7818609E-02  0.8298220E-01
        2   -1    0    0  501    0  0.00000000000E+00  0.00000000000E+00  0.13208522435E+04  0.13208522435E+04  0.25500000920E-02 0.  1.
       -2   -1    0    0    0  501  0.00000000000E+00  0.00000000000E+00 -0.15012357333E+04  0.15012357333E+04  0.25500000920E-02 0. -1.
    10030    2    1    2    0    0  0.00000000000E+00  0.00000000000E+00 -0.18038348986E+03  0.28220879768E+04  0.28163171600E+04 0.  0.
        2    1    3    3  502    0  0.11832533904E+04  0.76194058546E+03 -0.42464907813E+02  0.14079933629E+04  0.25500000920E-02 0.  1.
       -2    1    3    3    0  502 -0.11832533904E+04 -0.76194058546E+03 -0.13791858205E+03  0.14140946139E+04  0.25500000920E-02 0. -1.
</event>
<event>
 5   0  0.4591195E-07  0.2880835E+04  0.7818609E-02  0.8278603E-01
        1   -1    0    0  501    0  0.00000000000E+00  0.00000000000E+00  0.14423994365E+04  0.14423994365E+04  0.50400001928E-02 0. -1.
       -1   -1    0    0    0  501  0.00000000000E+00  0.00000000000E+00 -0.14384380991E+04  0.14384380991E+04  0.50400001928E-02 0.  1.
    10030    2    1    2    0    0  0.00000000000E+00  0.00000000000E+00  0.39613373507E+01  0.28808375356E+04  0.28808348120E+04 0.  0.
        4    1    3    3  502    0 -0.11973655545E+04  0.37885990237E+03 -0.70341463525E+03  0.14394488038E+04  0.12699999809E+01 0.  1.
       -4    1    3    3    0  502  0.11973655545E+04 -0.37885990237E+03  0.70737597260E+03  0.14413887318E+04  0.12699999809E+01 0. -1.
</event>
<event>
 5   0  0.1361560E-06  0.3519929E+04  0.7818609E-02  0.8109083E-01
       -2   -1    0    0    0  501  0.00000000000E+00  0.00000000000E+00  0.14053072778E+04  0.14053072778E+04  0.25500000920E-02 0. -1.
        2   -1    0    0  501    0  0.00000000000E+00  0.00000000000E+00 -0.22041259315E+04  0.22041259315E+04  0.25500000920E-02 0.  1.
    10030    2    1    2    0    0  0.00000000000E+00  0.00000000000E+00 -0.79881865374E+03  0.36094332093E+04  0.35199285292E+04 0.  0.
        3    1    3    3  502    0  0.13903393282E+04  0.73908918459E+03  0.40682616599E+03  0.16262852794E+04  0.10100000352E+00 0. -1.
       -3    1    3    3    0  502 -0.13903393282E+04 -0.73908918459E+03 -0.12056448197E+04  0.19831479299E+04  0.10100000352E+00 0.  1.
</event>
<event>
 5   0  0.4557237E-07  0.3507662E+04  0.7818609E-02  0.8111976E-01
       -1   -1    0    0    0  501  0.00000000000E+00  0.00000000000E+00  0.18818592838E+04  0.18818592838E+04  0.50400001928E-02 0.  1.
        1   -1    0    0  501    0  0.00000000000E+00  0.00000000000E+00 -0.16345132303E+04  0.16345132303E+04  0.50400001928E-02 0. -1.
    10030    2    1    2    0    0  0.00000000000E+00  0.00000000000E+00  0.24734605354E+03  0.35163725141E+04  0.35076624107E+04 0.  0.
        2    1    3    3  502    0  0.74541286704E+03 -0.82132187472E+03 -0.12382710752E+04  0.16623854005E+04  0.25500000920E-02 0. -1.
       -2    1    3    3    0  502 -0.74541286704E+03  0.82132187472E+03  0.14856171287E+04  0.18539871136E+04  0.25500000920E-02 0.  1.
</event>
<event>
 5   0  0.1378620E-06  0.3508910E+04  0.7818609E-02  0.8111682E-01
        2   -1    0    0  501    0  0.00000000000E+00  0.00000000000E+00  0.18453641875E+04  0.18453641875E+04  0.25500000920E-02 0.  1.
       -2   -1    0    0    0  501  0.00000000000E+00  0.00000000000E+00 -0.16680239676E+04  0.16680239676E+04  0.25500000920E-02 0. -1.
    10030    2    1    2    0    0  0.00000000000E+00  0.00000000000E+00  0.17734021986E+03  0.35133881551E+04  0.35089096276E+04 0.  0.
        2    1    3    3  502    0 -0.14295128837E+04  0.74304824718E+02  0.11044023477E+04  0.18079637268E+04  0.25500000920E-02 0. -1.
       -2    1    3    3    0  502  0.14295128837E+04 -0.74304824718E+02 -0.92706212787E+03  0.17054244283E+04  0.25500000920E-02 0.  1.
</event>
<event>
 5   0  0.4700769E-07  0.2958163E+04  0.7818609E-02  0.8255779E-01
       -1   -1    0    0    0  501  0.00000000000E+00  0.00000000000E+00  0.20074597838E+04  0.20074597838E+04  0.50400001928E-02 0. -1.
        1   -1    0    0  501    0  0.00000000000E+00  0.00000000000E+00 -0.10897765502E+04  0.10897765502E+04  0.50400001928E-02 0.  1.
    10030    2    1    2    0    0  0.00000000000E+00  0.00000000000E+00  0.91768323363E+03  0.30972363340E+04  0.29581633476E+04 0.  0.
        3    1    3    3  502    0  0.10732304429E+03  0.11583423207E+04  0.14152453712E+04  0.18319919865E+04  0.10100000352E+00 0. -1.
       -3    1    3    3    0  502 -0.10732304429E+03 -0.11583423207E+04 -0.49756213755E+03  0.12652443474E+04  0.10100000352E+00 0.  1.
</event>
<event>
 5   0  0.1378620E-06  0.3509849E+04  0.7818609E-02  0.8111460E-01
        2   -1    0    0  501    0  0.00000000000E+00  0.00000000000E+00  0.16690849445E+04  0.16690849445E+04  0.25500000920E-02 0. -1.
       -2   -1    0    0    0  501  0.00000000000E+00  0.00000000000E+00 -0.18451783725E+04  0.18451783725E+04  0.25500000920E-02 0.  1.
    10030    2    1    2    0    0  0.00000000000E+00  0.00000000000E+00 -0.17609342801E+03  0.35142633170E+04  0.35098486813E+04 0.  0.
        2    1    3    3  502    0  0.79903774103E+03  0.15118744756E+04 -0.48292036721E+03  0.17769180686E+04  0.25500000920E-02 0.  1.
       -2    1    3    3    0  502 -0.79903774103E+03 -0.15118744756E+04  0.30682693920E+03  0.17373452484E+04  0.25500000920E-02 0. -1.
</event>
<event>
 5   0  0.4409125E-07  0.3537856E+04  0.7818609E-02  0.8104877E-01
        1   -1    0    0  501    0  0.00000000000E+00  0.00000000000E+00  0.20363902252E+04  0.20363902252E+04  0.50400001928E-02 0.  1.
       -1   -1    0    0    0  501  0.00000000000E+00  0.00000000000E+00 -0.15365942390E+04  0.15365942390E+04  0.50400001928E-02 0. -1.
    10030    2    1    2    0    0  0.00000000000E+00  0.00000000000E+00  0.49979598615E+03  0.35729844642E+04  0.35378555587E+04 0.  0.
        5    1    3    3  502    0 -0.70305774694E+03 -0.57214963696E+03  0.17840064000E+04  0.20010862870E+04  0.46999998093E+01 0.  1.
       -5    1    3    3    0  502  0.70305774694E+03  0.57214963696E+03 -0.12842104139E+04  0.15718981773E+04  0.46999998093E+01 0. -1.
</event>
<event>
 5   0  0.4591195E-07  0.3484157E+04  0.7818609E-02  0.8117555E-01
       -1   -1    0    0    0  501  0.00000000000E+00  0.00000000000E+00  0.10320609034E+04  0.10320609034E+04  0.50400001928E-02 0.  1.
        1   -1    0    0  501    0  0.00000000000E+00  0.00000000000E+00 -0.29405599277E+04  0.29405599277E+04  0.50400001928E-02 0. -1.
    10030    2    1    2    0    0  0.00000000000E+00  0.00000000000E+00 -0.19084990243E+04  0.39726208312E+04  0.34841566759E+04 0.  0.
        4    1    3    3  502    0  0.13882113568E+04  0.40922266769E+03 -0.20598522743E+04  0.25174564480E+04  0.12699999809E+01 0. -1.
       -4    1    3    3    0  502 -0.13882113568E+04 -0.40922266769E+03  0.15135325000E+03  0.14551643831E+04  0.12699999809E+01 0.  1.
</event>
<event>
 5   0  0.1361560E-06  0.3438556E+04  0.7818609E-02  0.8128508E-01
        2   -1    0    0  501    0  0.00000000000E+00  0.00000000000E+00  0.26230046896E+04  0.26230046896E+04  0.25500000920E-02 0. -1.
       -2   -1    0    0    0  501  0.00000000000E+00  0.00000000000E+00 -0.11269201118E+04  0.11269201118E+04  0.25500000920E-02 0.  1.
    10030    2    1    2    0    0  0.00000000000E+00  0.00000000000E+00  0.14960845778E+04  0.37499248014E+04  0.34385559399E+04 0.  0.
        3    1    3    3  502    0  0.21429924722E+03 -0.77499241759E+03 -0.90923088415E+03  0.12137702524E+04  0.10100000352E+00 0.  1.
       -3    1    3    3    0  502 -0.21429924722E+03  0.77499241759E+03  0.24053154620E+04  0.25361545490E+04  0.10100000352E+00 0. -1.
</event>
<event>
 5   0  0.4700769E-07  0.3525943E+04  0.7818609E-02  0.8107669E-01
       -1   -1    0    0    0  501  0.00000000000E+00  0.00000000000E+00  0.15197730921E+04  0.15197730921E+04  0.50400001928E-02 0. -1.
        1   -1    0    0  501    0  0.00000000000E+00  0.00000000000E+00 -0.20450873169E+04  0.20450873169E+04  0.50400001928E-02 0.  1.
    10030    2    1    2    0    0  0.00000000000E+00  0.00000000000E+00 -0.52531422478E+03  0.35648604090E+04  0.35259430938E+04 0.  0.
        3    1    3    3  502    0 -0.46835903097E+03 -0.10100230036E+04 -0.16446983057E+04  0.19860863971E+04  0.10100000352E+00 0.  1.
       -3    1    3    3    0  502  0.46835903097E+03  0.10100230036E+04  0.11193840809E+04  0.15787740119E+04  0.10100000352E+00 0. -1.
</event>
<event>
 5   0  0.4557237E-07  0.3378405E+04  0.7818609E-02  0.8143227E-01
       -1   -1    0    0    0  501  0.00000000000E+00  0.00000000000E+00  0.11512953893E+04  0.11512953894E+04  0.50400001928E-02 0.  1.
        1   -1    0    0  501    0  0.00000000000E+00  0.00000000000E+00 -0.24784305552E+04  0.24784305552E+04  0.50400001928E-02 0. -1.
    10030    2    1    2    0    0  0.00000000000E+00  0.00000000000E+00 -0.13271351659E+04  0.36297259446E+04  0.33784053463E+04 0.  0.
        2    1    3    3  502    0  0.29453438904E+03  0.17273393743E+03 -0.24409670713E+04  0.24647327974E+04  0.25500000920E-02 0. -1.
       -2    1    3    3    0  502 -0.29453438904E+03 -0.17273393743E+03  0.11138319054E+04  0.11649931472E+04  0.25500000920E-02 0.  1.
</event>
<event>
 5   0  0.4557237E-07  0.3507241E+04  0.7818609E-02  0.8112076E-01
       -1   -1    0    0    0  501  0.00000000000E+00  0.00000000000E+00  0.16247771203E+04  0.16247771203E+04  0.50400001928E-02 0. -1.
        1   -1    0    0  501    0  0.00000000000E+00  0.00000000000E+00 -0.18926807771E+04  0.18926807771E+04  0.50400001928E-02 0.  1.
    10030    2    1    2    0    0  0.00000000000E+00  0.00000000000E+00 -0.26790365683E+03  0.35174578974E+04  0.35072407517E+04 0.  0.
        2    1    3    3  502    0 -0.11256250717E+04  0.99546593485E+03 -0.10405765548E+04  0.18277811127E+04  0.25500000920E-02 0.  1.
       -2    1    3    3    0  502  0.11256250717E+04 -0.99546593485E+03  0.77267289799E+03  0.16896767847E+04  0.25500000920E-02 0. -1.
</event>
<event>
 5   0  0.1387133E-06  0.3514635E+04  0.7818609E-02  0.8110330E-01
       -2   -1    0    0    0  501  0.00000000000E+00  0.00000000000E+00  0.15201938410E+04  0.15201938410E+04  0.25500000920E-02 0. -1.
        2   -1    0    0  501    0  0.00000000000E+00  0.00000000000E+00 -0.20314287785E+04  0.20314287785E+04  0.25500000920E-02 0.  1.
    10030    2    1    2    0    0  0.00000000000E+00  0.00000000000E+00 -0.51123493759E+03  0.35516226195E+04  0.35146354107E+04 0.  0.
        4    1    3    3  502    0  0.21447165520E+03  0.16119006257E+04 -0.92891921568E+03  0.18727290889E+04  0.12699999809E+01 0.  1.
       -4    1    3    3    0  502 -0.21447165520E+03 -0.16119006257E+04  0.41768427809E+03  0.16788935306E+04  0.12699999809E+01 0. -1.
</event>
<event>
 5   0  0.4693374E-07  0.2600695E+04  0.7818609E-02  0.8367965E-01
        1   -1    0    0  501    0  0.00000000000E+00  0.00000000000E+00  0.10119466754E+04  0.10119466754E+04  0.50400001928E-02 0. -1.
       -1   -1    0    0    0  501  0.00000000000E+00  0.00000000000E+00 -0.16709411510E+04  0.16709411510E+04  0.50400001928E-02 0.  1.
    10030    2    1    2    0    0  0.00000000000E+00  0.00000000000E+00 -0.65899447555E+03  0.26828878264E+04  0.26006947861E+04 0.  0.
        1    1    3    3  502    0 -0.12836350367E+03 -0.10244233152E+04  0.48604646504E+03  0.11411229048E+04  0.50400001928E-02 0. -1.
       -1    1    3    3    0  502  0.12836350367E+03  0.10244233152E+04 -0.11450409406E+04  0.15417649216E+04  0.50400001928E-02 0.  1.
</event>
<event>
 5   0  0.4693374E-07  0.3576283E+04  0.7818609E-02  0.8095946E-01
       -1   -1    0    0    0  501  0.00000000000E+00  0.00000000000E+00  0.20300766056E+04  0.20300766056E+04  0.50400001928E-02 0. -1.
        1   -1    0    0  501    0  0.00000000000E+00  0.00000000000E+00 -0.15750393392E+04  0.15750393392E+04  0.50400001928E-02 0.  1.
    10030    2    1    2    0    0  0.00000000000E+00  0.00000000000E+00  0.45503726641E+03  0.36051159448E+04  0.35762832748E+04 0.  0.
        1    1    3    3  502    0  0.66335068502E+03  0.85528317461E+03  0.16623375230E+04  0.19836606263E+04  0.50400001928E-02 0. -1.
       -1    1    3    3    0  502 -0.66335068502E+03 -0.85528317461E+03 -0.12073002566E+04  0.16214553184E+04  0.50400001928E-02 0.  1.
</event>
<event>
 5   0  0.1348388E-06  0.3496229E+04  0.7818609E-02  0.8114684E-01
       -2   -1    0    0    0  501  0.00000000000E+00  0.00000000000E+00  0.14641479380E+04  0.14641479380E+04  0.25500000920E-02 0. -1.
        2   -1    0    0  501    0  0.00000000000E+00  0.00000000000E+00 -0.20871557904E+04  0.20871557904E+04  0.25500000920E-02 0.  1.
    10030    2    1    2    0    0  0.00000000000E+00  0.00000000000E+00 -0.62300785232E+03  0.35513037284E+04  0.34962293099E+04 0.  0.
        5    1    3    3  502    0 -0.34563887987E+03  0.12714562333E+04  0.85542533882E+03  0.15709365960E+04  0.46999998093E+01 0. -1.
       -5    1    3    3    0  502  0.34563887987E+03 -0.12714562333E+04 -0.14784331911E+04  0.19803671324E+04  0.46999998093E+01 0.  1.
</event>
<event>
 5   0  0.1442864E-06  0.3479815E+04  0.7818609E-02  0.8118590E-01
       -2   -1    0    0    0  501  0.00000000000E+00  0.00000000000E+00  0.11486620109E+04  0.11486620109E+04  0.25500000920E-02 0. -1.
        2   -1    0    0  501    0  0.00000000000E+00  0.00000000000E+00 -0.26354825255E+04  0.26354825255E+04  0.25500000920E-02 0.  1.
    10030    2    1    2    0    0  0.00000000000E+00  0.00000000000E+00 -0.14868205146E+04  0.37841445365E+04  0.34798153155E+04 0.  0.
        1    1    3    3  502    0 -0.61026778943E+03 -0.24661932176E+03  0.10080451496E+04  0.12039114952E+04  0.50400001928E-02 0. -1.
       -1    1    3    3    0  502  0.61026778943E+03  0.24661932176E+03 -0.24948656642E+04  0.25802330413E+04  0.50400001928E-02 0.  1.
</event>
<event>
 5   0  0.1442864E-06  0.3647681E+04  0.7818609E-02  0.8079656E-01
        2   -1    0    0  501    0  0.00000000000E+00  0.00000000000E+00  0.11702320504E+04  0.11702320504E+04  0.25500000920E-02 0. -1.
       -2   -1    0    0    0  501  0.00000000000E+00  0.00000000000E+00 -0.28425083480E+04  0.28425083480E+04  0.25500000920E-02 0.  1.
    10030    2    1    2    0    0  0.00000000000E+00  0.00000000000E+00 -0.16722762976E+04  0.40127403985E+04  0.36476811113E+04 0.  0.
        1    1    3    3  502    0  0.34172088107E+03  0.14455229603E+04 -0.20003971649E+04  0.24915654931E+04  0.50400001928E-02 0.  1.
       -1    1    3    3    0  502 -0.34172088107E+03 -0.14455229603E+04  0.32812086725E+03  0.15211749054E+04  0.50400001928E-02 0. -1.
</event>
<event>
 5   0  0.4700769E-07  0.3505229E+04  0.7818609E-02  0.8112552E-01
        1   -1    0    0  501    0  0.00000000000E+00  0.00000000000E+00  0.27666291275E+04  0.27666291275E+04  0.50400001928E-02 0. -1.
       -1   -1    0    0    0  501  0.00000000000E+00  0.00000000000E+00 -0.11102524617E+04  0.11102524617E+04  0.50400001928E-02 0.  1.
    10030    2    1    2    0    0  0.00000000000E+00  0.00000000000E+00  0.16563766658E+04  0.38768815893E+04  0.35052285515E+04 0.  0.
        3    1    3    3  502    0 -0.11147138984E+04  0.24082910718E+03  0.23001082732E+04  0.25673106187E+04  0.10100000352E+00 0. -1.
       -3    1    3    3    0  502  0.11147138984E+04 -0.24082910718E+03 -0.64373160745E+03  0.13095709705E+04  0.10100000352E+00 0.  1.
</event>
<event>
 5   0  0.1348388E-06  0.3439642E+04  0.7818609E-02  0.8128245E-01
       -2   -1    0    0    0  501  0.00000000000E+00  0.00000000000E+00  0.12713318397E+04  0.12713318397E+04  0.25500000920E-02 0.  1.
        2   -1    0    0  501    0  0.00000000000E+00  0.00000000000E+00 -0.23265236207E+04  0.23265236207E+04  0.25500000920E-02 0. -1.
    10030    2    1    2    0    0  0.00000000000E+00  0.00000000000E+00 -0.10551917811E+04  0.35978554604E+04  0.34396415829E+04 0.  0.
        5    1    3    3  502    0 -0.12628955596E+04  0.10305027488E+04 -0.11013902890E+04  0.19672121819E+04  0.46999998093E+01 0.  1.
       -5    1    3    3    0  502  0.12628955596E+04 -0.10305027488E+04  0.46198507986E+02  0.16306432785E+04  0.46999998093E+01 0. -1.
</event>
<event>
 5   0  0.1378620E-06  0.3508524E+04  0.7818609E-02  0.8111773E-01
        2   -1    0    0  501    0  0.00000000000E+00  0.00000000000E+00  0.16798568000E+04  0.16798568000E+04  0.25500000920E-02 0.  1.
       -2   -1    0    0    0  501  0.00000000000E+00  0.00000000000E+00 -0.18319625196E+04  0.18319625196E+04  0.25500000920E-02 0. -1.
    10030    2    1    2    0    0  0.00000000000E+00  0.00000000000E+00 -0.15210571952E+03  0.35118193196E+04  0.35085237328E+04 0.  0.
        2    1    3    3  502    0 -0.79958091528E+03 -0.13073729974E+04  0.77849429099E+03  0.17188970753E+04  0.25500000920E-02 0.  1.
       -2    1    3    3    0  502  0.79958091528E+03  0.13073729974E+04 -0.93060001051E+03  0.17929222443E+04  0.25500000920E-02 0. -1.
</event>
<event>
 5   0  0.4409125E-07  0.3334288E+04  0.7818609E-02  0.8154225E-01
        1   -1    0    0  501    0  0.00000000000E+00  0.00000000000E+00  0.14088166530E+04  0.14088166530E+04  0.50400001928E-02 0.  1.
       -1   -1    0    0    0  501  0.00000000000E+00  0.00000000000E+00 -0.19728395530E+04  0.19728395530E+04  0.50400001928E-02 0. -1.
    10030    2    1    2    0    0  0.00000000000E+00  0.00000000000E+00 -0.56402290002E+03  0.33816562060E+04  0.33342880595E+04 0.  0.
        5    1    3    3  502    0  0.15087131240E+04 -0.14516519059E+03 -0.98617961989E+03  0.18082755752E+04  0.46999998093E+01 0.  1.
       -5    1    3    3    0  502 -0.15087131240E+04  0.14516519059E+03  0.42215671987E+03  0.15733806308E+04  0.46999998093E+01 0. -1.
</event>
<event>
 5   0  0.1442864E-06  0.3473033E+04  0.7818609E-02  0.8120211E-01
        2   -1    0    0  501    0  0.00000000000E+00  0.00000000000E+00  0.15889146302E+04  0.15889146302E+04  0.25500000920E-02 0.  1.
       -2   -1    0    0    0  501  0.00000000000E+00  0.00000000000E+00 -0.18978292702E+04  0.18978292702E+04  0.25500000920E-02 0. -1.
    10030    2    1    2    0    0  0.00000000000E+00  0.00000000000E+00 -0.30891463997E+03  0.34867439004E+04  0.34730325038E+04 0.  0.
        1    1    3    3  502    0 -0.35096246016E+03 -0.13359694505E+04  0.90207553075E+03  0.16497664333E+04  0.50400001928E-02 0.  1.
       -1    1    3    3    0  502  0.35096246016E+03  0.13359694505E+04 -0.12109901707E+04  0.18369774671E+04  0.50400001928E-02 0. -1.
</event>
<event>
 5   0  0.1387133E-06  0.3398350E+04  0.7818609E-02  0.8138311E-01
        2   -1    0    0  501    0  0.00000000000E+00  0.00000000000E+00  0.13334378813E+04  0.13334378813E+04  0.25500000920E-02 0.  1.
       -2   -1    0    0    0  501  0.00000000000E+00  0.00000000000E+00 -0.21652273437E+04  0.21652273437E+04  0.25500000920E-02 0. -1.
    10030    2    1    2    0    0  0.00000000000E+00  0.00000000000E+00 -0.83178946241E+03  0.34986652250E+04  0.33983502832E+04 0.  0.
        4    1    3    3  502    0 -0.10269583052E+04  0.43300700581E+03 -0.17363527738E+04  0.20632646451E+04  0.12699999809E+01 0. -1.
       -4    1    3    3    0  502  0.10269583052E+04 -0.43300700581E+03  0.90456331140E+03  0.14354005799E+04  0.12699999809E+01 0.  1.
</event>
<event>
 5   0  0.1442864E-06  0.3491305E+04  0.7818609E-02  0.8115854E-01
       -2   -1    0    0    0  501  0.00000000000E+00  0.00000000000E+00  0.13703065070E+04  0.13703065070E+04  0.25500000920E-02 0. -1.
        2   -1    0    0  501    0  0.00000000000E+00  0.00000000000E+00 -0.22238103832E+04  0.22238103832E+04  0.25500000920E-02 0.  1.
    10030    2    1    2    0    0  0.00000000000E+00  0.00000000000E+00 -0.85350387619E+03  0.35941168902E+04  0.34913045346E+04 0.  0.
        1    1    3    3  502    0 -0.11598591856E+04  0.38366332882E+03  0.85689637532E+03  0.14922272878E+04  0.50400001928E-02 0. -1.
       -1    1    3    3    0  502  0.11598591856E+04 -0.38366332882E+03 -0.17104002515E+04  0.21018896024E+04  0.50400001928E-02 0.  1.
</event>
<event>
 5   0  0.1378620E-06  0.3505895E+04  0.7818609E-02  0.8112394E-01
        2   -1    0    0  501    0  0.00000000000E+00  0.00000000000E+00  0.20312138421E+04  0.20312138421E+04  0.25500000920E-02 0.  1.
       -2   -1    0    0    0  501  0.00000000000E+00  0.00000000000E+00 -0.15128024946E+04  0.15128024946E+04  0.25500000920E-02 0. -1.
    10030    2    1    2    0    0  0.00000000000E+00  0.00000000000E+00  0.51841134757E+03  0.35440163367E+04  0.35058952451E+04 0.  0.
        2    1    3    3  502    0  0.36464993670E+02 -0.63638422890E+03 -0.13914954694E+04  0.15305470342E+04  0.25500000920E-02 0. -1.
       -2    1    3    3    0  502 -0.36464993670E+02  0.63638422890E+03  0.19099068170E+04  0.20134693025E+04  0.25500000920E-02 0.  1.
</event>
<event>
 5   0  0.4557237E-07  0.3516354E+04  0.7818609E-02  0.8109925E-01
       -1   -1    0    0    0  501  0.00000000000E+00  0.00000000000E+00  0.20049558398E+04  0.20049558398E+04  0.50400001928E-02 0. -1.
        1   -1    0    0  501    0  0.00000000000E+00  0.00000000000E+00 -0.15417728011E+04  0.15417728011E+04  0.50400001928E-02 0.  1.
    10030    2    1    2    0    0  0.00000000000E+00  0.00000000000E+00  0.46318303868E+03  0.35467286409E+04  0.35163540102E+04 0.  0.
        2    1    3    3  502    0  0.66774276927E+03  0.12519010794E+04 -0.81566905613E+03  0.16365979126E+04  0.25500000920E-02 0.  1.
       -2    1    3    3    0  502 -0.66774276927E+03 -0.12519010794E+04  0.12788520948E+04  0.19101307282E+04  0.25500000920E-02 0. -1.
</event>
<event>
 5   0  0.4557237E-07  0.3484379E+04  0.7818609E-02  0.8117502E-01
       -1   -1    0    0    0  501  0.00000000000E+00  0.00000000000E+00  0.15697109652E+04  0.15697109652E+04  0.50400001928E-02 0.  1.
        1   -1    0    0  501    0  0.00000000000E+00  0.00000000000E+00 -0.19336195654E+04  0.19336195654E+04  0.50400001928E-02 0. -1.
    10030    2    1    2    0    0  0.00000000000E+00  0.00000000000E+00 -0.36390860027E+03  0.35033305306E+04  0.34843787592E+04 0.  0.
        2    1    3    3  502    0 -0.15311282720E+04  0.23281769123E+01 -0.10176578275E+04  0.18384740029E+04  0.25500000920E-02 0. -1.
       -2    1    3    3    0  502  0.15311282720E+04 -0.23281769123E+01  0.65374922719E+03  0.16648565277E+04  0.25500000920E-02 0.  1.
</event>
<event>
 5   0  0.1442864E-06  0.3467513E+04  0.7818609E-02  0.8121532E-01
       -2   -1    0    0    0  501  0.00000000000E+00  0.00000000000E+00  0.13401807283E+04  0.13401807283E+04  0.25500000920E-02 0. -1.
        2   -1    0    0  501    0  0.00000000000E+00  0.00000000000E+00 -0.22429145901E+04  0.22429145901E+04  0.25500000920E-02 0.  1.
    10030    2    1    2    0    0  0.00000000000E+00  0.00000000000E+00 -0.90273386175E+03  0.35830953184E+04  0.34675126006E+04 0.  0.
        1    1    3    3  502    0 -0.46961888524E+02 -0.10067066821E+04  0.10064192148E+04  0.14242694263E+04  0.50400001928E-02 0. -1.
       -1    1    3    3    0  502  0.46961888524E+02  0.10067066821E+04 -0.19091530765E+04  0.21588258921E+04  0.50400001928E-02 0.  1.
</event>
<event>
 5   0  0.4700769E-07  0.2589431E+04  0.7818609E-02  0.8371800E-01
        1   -1    0    0  501    0  0.00000000000E+00  0.00000000000E+00  0.17965256211E+04  0.17965256211E+04  0.50400001928E-02 0. -1.
       -1   -1    0    0    0  501  0.00000000000E+00  0.00000000000E+00 -0.93307191621E+03  0.93307191622E+03  0.50400001928E-02 0.  1.
    10030    2    1    2    0    0  0.00000000000E+00  0.00000000000E+00  0.86345370489E+03  0.27295975373E+04  0.25894305195E+04 0.  0.
        3    1    3    3  502    0  0.92591236999E+03 -0.88173458179E+03  0.64651612566E+03  0.14327430686E+04  0.10100000352E+00 0.  1.
       -3    1    3    3    0  502 -0.92591236999E+03  0.88173458179E+03  0.21693757923E+03  0.12968544687E+04  0.10100000352E+00 0. -1.
</event>
<event>
 5   0  0.4409125E-07  0.3149287E+04  0.7818609E-02  0.8202340E-01
       -1   -1    0    0    0  501  0.00000000000E+00  0.00000000000E+00  0.13955830240E+04  0.13955830240E+04  0.50400001928E-02 0. -1.
        1   -1    0    0  501    0  0.00000000000E+00  0.00000000000E+00 -0.17766783689E+04  0.17766783689E+04  0.50400001928E-02 0.  1.
    10030    2    1    2    0    0  0.00000000000E+00  0.00000000000E+00 -0.38109534491E+03  0.31722613928E+04  0.31492870118E+04 0.  0.
        5    1    3    3  502    0 -0.13355726639E+04 -0.64512339506E+03 -0.72312160371E+03  0.16501107475E+04  0.46999998093E+01 0.  1.
       -5    1    3    3    0  502  0.13355726639E+04  0.64512339506E+03  0.34202625880E+03  0.15221506453E+04  0.46999998093E+01 0. -1.
</event>
<event>
 5   0  0.1361560E-06  0.2562012E+04  0.7818609E-02  0.8381221E-01
        2   -1    0    0  501    0  0.00000000000E+00  0.00000000000E+00  0.22426721696E+04  0.22426721696E+04  0.25500000920E-02 0. -1.
       -2   -1    0    0    0  501  0.00000000000E+00  0.00000000000E+00 -0.73170578112E+03  0.73170578113E+03  0.25500000920E-02 0.  1.
    10030    2    1    2    0    0  0.00000000000E+00  0.00000000000E+00  0.15109663884E+04  0.29743779507E+04  0.25620118592E+04 0.  0.
        3    1    3    3  502    0  0.37925011181E+03 -0.80712817581E+03 -0.31214620143E+03  0.94483956351E+03  0.10100000352E+00 0.  1.
       -3    1    3    3    0  502 -0.37925011181E+03  0.80712817581E+03  0.18231125899E+04  0.20295383872E+04  0.10100000352E+00 0. -1.
</event>
<event>
 5   0  0.4591195E-07  0.3546215E+04  0.7818609E-02  0.8102924E-01
       -1   -1    0    0    0  501  0.00000000000E+00  0.00000000000E+00  0.15087633642E+04  0.15087633642E+04  0.50400001928E-02 0. -1.
        1   -1    0    0  501    0  0.00000000000E+00  0.00000000000E+00 -0.20837666232E+04  0.20837666232E+04  0.50400001928E-02 0.  1.
    10030    2    1    2    0    0  0.00000000000E+00  0.00000000000E+00 -0.57500325894E+03  0.35925299874E+04  0.35462153012E+04 0.  0.
        4    1    3    3  502    0 -0.38801701451E+03 -0.60863935513E+03 -0.19281934084E+04  0.20588663145E+04  0.12699999809E+01 0.  1.
       -4    1    3    3    0  502  0.38801701451E+03  0.60863935513E+03  0.13531901494E+04  0.15336636729E+04  0.12699999809E+01 0. -1.
</event>
<event>
 5   0  0.1378620E-06  0.3472750E+04  0.7818609E-02  0.8120278E-01
        2   -1    0    0  501    0  0.00000000000E+00  0.00000000000E+00  0.24129023962E+04  0.24129023962E+04  0.25500000920E-02 0. -1.
       -2   -1    0    0    0  501  0.00000000000E+00  0.00000000000E+00 -0.12495319786E+04  0.12495319786E+04  0.25500000920E-02 0.  1.
    10030    2    1    2    0    0  0.00000000000E+00  0.00000000000E+00  0.11633704177E+04  0.36624343748E+04  0.34727503252E+04 0.  0.
        2    1    3    3  502    0  0.36178568722E+03 -0.16391117616E+04  0.11309353801E+03  0.16823692813E+04  0.25500000920E-02 0.  1.
       -2    1    3    3    0  502 -0.36178568722E+03  0.16391117616E+04  0.10502768797E+04  0.19800650935E+04  0.25500000920E-02 0. -1.
</event>
<event>
 5   0  0.4693374E-07  0.3492991E+04  0.7818609E-02  0.8115453E-01
       -1   -1    0    0    0  501  0.00000000000E+00  0.00000000000E+00  0.16149405562E+04  0.16149405562E+04  0.50400001928E-02 0.  1.
        1   -1    0    0  501    0  0.00000000000E+00  0.00000000000E+00 -0.18887669815E+04  0.18887669815E+04  0.50400001928E-02 0. -1.
    10030    2    1    2    0    0  0.00000000000E+00  0.00000000000E+00 -0.27382642534E+03  0.35037075377E+04  0.34929909245E+04 0.  0.
        1    1    3    3  502    0  0.12656667865E+04  0.67791738856E+03 -0.11343290820E+04  0.18298051444E+04  0.50400001928E-02 0. -1.
       -1    1    3    3    0  502 -0.12656667865E+04 -0.67791738856E+03  0.86050265667E+03  0.16739023933E+04  0.50400001928E-02 0.  1.
</event>
<event>
 5   0  0.4693374E-07  0.3429892E+04  0.7818609E-02  0.8130609E-01
        1   -1    0    0  501    0  0.00000000000E+00  0.00000000000E+00  0.24093602108E+04  0.24093602108E+04  0.50400001928E-02 0.  1.
       -1   -1    0    0    0  501  0.00000000000E+00  0.00000000000E+00 -0.12206727112E+04  0.12206727113E+04  0.50400001928E-02 0. -1.
    10030    2    1    2    0    0  0.00000000000E+00  0.00000000000E+00  0.11886874995E+04  0.36300329220E+04  0.34298922787E+04 0.  0.
        1    1    3    3  502    0  0.11363510119E+04  0.11152937840E+04 -0.79907314167E+02  0.15942267799E+04  0.50400001928E-02 0.  1.
       -1    1    3    3    0  502 -0.11363510119E+04 -0.11152937840E+04  0.12685948137E+04  0.20358061421E+04  0.50400001928E-02 0. -1.
</event>
<event>
 5   0  0.1348388E-06  0.3438322E+04  0.7818609E-02  0.8128564E-01
        2   -1    0    0  501    0  0.00000000000E+00  0.00000000000E+00  0.15368131108E+04  0.15368131108E+04  0.25500000920E-02 0.  1.
       -2   -1    0    0    0  501  0.00000000000E+00  0.00000000000E+00 -0.19231449290E+04  0.19231449290E+04  0.25500000920E-02 0. -1.
    10030    2    1    2    0    0  0.00000000000E+00  0.00000000000E+00 -0.38633181820E+03  0.34599580399E+04  0.34383218820E+04 0.  0.
        5    1    3    3  502    0  0.14425636179E+04 -0.92773108650E+03 -0.31145341873E+03  0.17431867607E+04  0.46999998093E+01 0.  1.
       -5    1    3    3    0  502 -0.14425636179E+04  0.92773108650E+03 -0.74878399469E+02  0.17167712792E+04  0.46999998093E+01 0. -1.
</event>
<event>
 5   0  0.4700769E-07  0.3444509E+04  0.7818609E-02  0.8127068E-01
        1   -1    0    0  501    0  0.00000000000E+00  0.00000000000E+00  0.18707938377E+04  0.18707938377E+04  0.50400001928E-02 0.  1.
       -1   -1    0    0    0  501  0.00000000000E+00  0.00000000000E+00 -0.15855094345E+04  0.15855094346E+04  0.50400001928E-02 0. -1.
    10030    2    1    2    0    0  0.00000000000E+00  0.00000000000E+00  0.28528440312E+03  0.34563032722E+04  0.34445094163E+04 0.  0.
        3    1    3    3  502    0  0.15950902939E+04 -0.40723593096E+03 -0.36506168561E+03  0.16862455911E+04  0.10100000352E+00 0. -1.
       -3    1    3    3    0  502 -0.15950902939E+04  0.40723593096E+03  0.65034608873E+03  0.17700576811E+04  0.10100000352E+00 0.  1.
</event>
<event>
 5   0  0.4409125E-07  0.3406368E+04  0.7818609E-02  0.8136345E-01
       -1   -1    0    0    0  501  0.00000000000E+00  0.00000000000E+00  0.15064023766E+04  0.15064023766E+04  0.50400001928E-02 0. -1.
        1   -1    0    0  501    0  0.00000000000E+00  0.00000000000E+00 -0.19256714231E+04  0.19256714231E+04  0.50400001928E-02 0.  1.
    10030    2    1    2    0    0  0.00000000000E+00  0.00000000000E+00 -0.41926904654E+03  0.34320737997E+04  0.34063681588E+04 0.  0.
        5    1    3    3  502    0  0.48508496632E+03  0.12356747838E+04  0.86547659863E+03  0.15846991603E+04  0.46999998093E+01 0. -1.
       -5    1    3    3    0  502 -0.48508496632E+03 -0.12356747838E+04 -0.12847456452E+04  0.18473746395E+04  0.46999998093E+01 0.  1.
</event>
<event>
 5   0  0.1378620E-06  0.3501109E+04  0.7818609E-02  0.8113527E-01
       -2   -1    0    0    0  501  0.00000000000E+00  0.00000000000E+00  0.17815544342E+04  0.17815544342E+04  0.25500000920E-02 0.  1.
        2   -1    0    0  501    0  0.00000000000E+00  0.00000000000E+00 -0.17200936029E+04  0.17200936029E+04  0.25500000920E-02 0. -1.
    10030    2    1    2    0    0  0.00000000000E+00  0.00000000000E+00  0.61460831367E+02  0.35016480371E+04  0.35011086161E+04 0.  0.
        2    1    3    3  502    0  0.47228461520E+03  0.10328957406E+04  0.13630445163E+04  0.17742087595E+04  0.25500000920E-02 0.  1.
       -2    1    3    3    0  502 -0.47228461520E+03 -0.10328957406E+04 -0.13015836850E+04  0.17274392776E+04  0.25500000920E-02 0. -1.
</event>
<event>
 5   0  0.1387133E-06  0.3098941E+04  0.7818609E-02  0.8216029E-01
       -2   -1    0    0    0  501  0.00000000000E+00  0.00000000000E+00  0.16929609603E+04  0.16929609603E+04  0.25500000920E-02 0. -1.
        2   -1    0    0  501    0  0.00000000000E+00  0.00000000000E+00 -0.14181417930E+04  0.14181417930E+04  0.25500000920E-02 0.  1.
    10030    2    1    2    0    0  0.00000000000E+00  0.00000000000E+00  0.27481916730E+03  0.31111027533E+04  0.30989409105E+04 0.  0.
        4    1    3    3  502    0  0.38904118772E+03  0.11035674959E+04  0.11570938983E+04  0.16456251596E+04  0.12699999809E+01 0. -1.
       -4    1    3    3    0  502 -0.38904118772E+03 -0.11035674959E+04 -0.88227473101E+03  0.14654775937E+04  0.12699999809E+01 0.  1.
</event>
<event>
 5   0  0.4700769E-07  0.3541367E+04  0.7818609E-02  0.8104056E-01
       -1   -1    0    0    0  501  0.00000000000E+00  0.00000000000E+00  0.29207206479E+04  0.29207206479E+04  0.50400001928E-02 0.  1.
        1   -1    0    0  501    0  0.00000000000E+00  0.00000000000E+00 -0.10734746760E+04  0.10734746760E+04  0.50400001928E-02 0. -1.
    10030    2    1    2    0    0  0.00000000000E+00  0.00000000000E+00  0.18472459720E+04  0.39941953239E+04  0.35413667707E+04 0.  0.
        3    1    3    3  502    0  0.13586490478E+03  0.13826641055E+04  0.21617636734E+04  0.25697162277E+04  0.10100000352E+00 0.  1.
       -3    1    3    3    0  502 -0.13586490478E+03 -0.13826641055E+04 -0.31451770144E+03  0.14244790962E+04  0.10100000352E+00 0. -1.
</event>
<event>
 5   0  0.1378620E-06  0.3532092E+04  0.7818609E-02  0.8106226E-01
       -2   -1    0    0    0  501  0.00000000000E+00  0.00000000000E+00  0.14127494131E+04  0.14127494131E+04  0.25500000920E-02 0.  1.
        2   -1    0    0  501    0  0.00000000000E+00  0.00000000000E+00 -0.22076939400E+04  0.22076939400E+04  0.25500000920E-02 0. -1.
    10030    2    1    2    0    0  0.00000000000E+00  0.00000000000E+00 -0.79494452688E+03  0.36204433531E+04  0.35320919117E+04 0.  0.
        2    1    3    3  502    0 -0.40722540070E+03  0.17083209975E+04 -0.58848041060E+03  0.18521615349E+04  0.25500000920E-02 0. -1.
       -2    1    3    3    0  502  0.40722540070E+03 -0.17083209975E+04 -0.20646411628E+03  0.17682818183E+04  0.25500000920E-02 0.  1.
</event>
<event>
 5   0  0.1387133E-06  0.3319377E+04  0.7818609E-02  0.8157982E-01
       -2   -1    0    0    0  501  0.00000000000E+00  0.00000000000E+00  0.12893052400E+04  0.12893052400E+04  0.25500000920E-02 0. -1.
        2   -1    0    0  501    0  0.00000000000E+00  0.00000000000E+00 -0.21364728200E+04  0.21364728200E+04  0.25500000920E-02 0.  1.
    10030    2    1    2    0    0  0.00000000000E+00  0.00000000000E+00 -0.84716758007E+03  0.34257780600E+04  0.33193768101E+04 0.  0.
        4    1    3    3  502    0  0.52975180644E+03 -0.34525258240E+03 -0.20072841351E+04  0.21045254890E+04  0.12699999809E+01 0.  1.
       -4    1    3    3    0  502 -0.52975180644E+03  0.34525258240E+03  0.11601165550E+04  0.13212525710E+04  0.12699999809E+01 0. -1.
</event>
<event>
 5   0  0.1361560E-06  0.3504589E+04  0.7818609E-02  0.8112703E-01
        2   -1    0    0  501    0  0.00000000000E+00  0.00000000000E+00  0.22691441231E+04  0.22691441231E+04  0.25500000920E-02 0.  1.
       -2   -1    0    0    0  501  0.00000000000E+00  0.00000000000E+00 -0.13531695826E+04  0.13531695826E+04  0.25500000920E-02 0. -1.
    10030    2    1    2    0    0  0.00000000000E+00  0.00000000000E+00  0.91597454045E+03  0.36223137057E+04  0.35045894515E+04 0.  0.
        3    1    3    3  502    0  0.62357639506E+03 -0.24467191337E+03  0.21315837512E+04  0.22343592290E+04  0.10100000352E+00 0.  1.
       -3    1    3    3    0  502 -0.62357639506E+03  0.24467191337E+03 -0.12156092108E+04  0.13879544766E+04  0.10100000352E+00 0. -1.
</event>
<event>
 5   0  0.4409125E-07  0.3379988E+04  0.7818609E-02  0.8142835E-01
       -1   -1    0    0    0  501  0.00000000000E+00  0.00000000000E+00  0.16513503490E+04  0.16513503490E+04  0.50400001928E-02 0. -1.
        1   -1    0    0  501    0  0.00000000000E+00  0.00000000000E+00 -0.17295424097E+04  0.17295424097E+04  0.50400001928E-02 0.  1.
    10030    2    1    2    0    0  0.00000000000E+00  0.00000000000E+00 -0.78192060771E+02  0.33808927587E+04  0.33799884390E+04 0.  0.
        5    1    3    3  502    0  0.95348361727E+02  0.15322561334E+04  0.66760428786E+03  0.16741020709E+04  0.46999998093E+01 0. -1.
       -5    1    3    3    0  502 -0.95348361727E+02 -0.15322561334E+04 -0.74579634864E+03  0.17067906879E+04  0.46999998093E+01 0.  1.
</event>
<event>
 5   0  0.1378620E-06  0.3491083E+04  0.7818609E-02  0.8115906E-01
       -2   -1    0    0    0  501  0.00000000000E+00  0.00000000000E+00  0.12698495788E+04  0.12698495788E+04  0.25500000920E-02 0.  1.
        2   -1    0    0  501    0  0.00000000000E+00  0.00000000000E+00 -0.23994296844E+04  0.23994296844E+04  0.25500000920E-02 0. -1.
    10030    2    1    2    0    0  0.00000000000E+00  0.00000000000E+00 -0.11295801056E+04  0.36692792632E+04  0.34910827972E+04 0.  0.
        2    1    3    3  502    0  0.18250021823E+03 -0.16866566172E+04 -0.13296867616E+03  0.17017043053E+04  0.25500000920E-02 0.  1.
       -2    1    3    3    0  502 -0.18250021823E+03  0.16866566172E+04 -0.99661142941E+03  0.19675749579E+04  0.25500000920E-02 0. -1.
</event>
<event>
 5   0  0.4409125E-07  0.2918663E+04  0.7818609E-02  0.8267346E-01
        3   -1    0    0  501    0  0.00000000000E+00  0.00000000000E+00  0.12116211813E+04  0.12116211855E+04  0.10100000352E+00 0. -1.
       -3   -1    0    0    0  501  0.00000000000E+00  0.00000000000E+00 -0.17576851780E+04  0.17576851809E+04  0.10100000352E+00 0.  1.
    10030    2    1    2    0    0  0.00000000000E+00  0.00000000000E+00 -0.54606399673E+03  0.29693063665E+04  0.29186631202E+04 0.  0.
        5    1    3    3  502    0 -0.90142022508E+03 -0.10608315675E+04 -0.71846989729E+03  0.15665704964E+04  0.46999998093E+01 0.  1.
       -5    1    3    3    0  502  0.90142022508E+03  0.10608315675E+04  0.17240590056E+03  0.14027358701E+04  0.46999998093E+01 0. -1.
</event>
<event>
 5   0  0.4591195E-07  0.3591376E+04  0.7818609E-02  0.8092470E-01
        1   -1    0    0  501    0  0.00000000000E+00  0.00000000000E+00  0.25632710465E+04  0.25632710465E+04  0.50400001928E-02 0.  1.
       -1   -1    0    0    0  501  0.00000000000E+00  0.00000000000E+00 -0.12579609004E+04  0.12579609004E+04  0.50400001928E-02 0. -1.
    10030    2    1    2    0    0  0.00000000000E+00  0.00000000000E+00  0.13053101461E+04  0.38212319469E+04  0.35913756437E+04 0.  0.
        4    1    3    3  502    0  0.10024572645E+04  0.14361815668E+04  0.23112335733E+03  0.17666232420E+04  0.12699999809E+01 0. -1.
       -4    1    3    3    0  502 -0.10024572645E+04 -0.14361815668E+04  0.10741867887E+04  0.20546087048E+04  0.12699999809E+01 0.  1.
</event>
<event>
 5   0  0.1378620E-06  0.3545583E+04  0.7818609E-02  0.8103072E-01
       -2   -1    0    0    0  501  0.00000000000E+00  0.00000000000E+00  0.15507935302E+04  0.15507935302E+04  0.25500000920E-02 0.  1.
        2   -1    0    0  501    0  0.00000000000E+00  0.00000000000E+00 -0.20265684528E+04  0.20265684528E+04  0.25500000920E-02 0. -1.
    10030    2    1    2    0    0  0.00000000000E+00  0.00000000000E+00 -0.47577492257E+03  0.35773619830E+04  0.35455827420E+04 0.  0.
        2    1    3    3  502    0 -0.42934516982E+03  0.40282064226E+03  0.14492808413E+04  0.15642943143E+04  0.25500000920E-02 0.  1.
       -2    1    3    3    0  502  0.42934516982E+03 -0.40282064226E+03 -0.19250557639E+04  0.20130676687E+04  0.25500000920E-02 0. -1.
</event>
<event>
 5   0  0.4409125E-07  0.3533046E+04  0.7818609E-02  0.8106003E-01
       -1   -1    0    0    0  501  0.00000000000E+00  0.00000000000E+00  0.15193109455E+04  0.15193109455E+04  0.50400001928E-02 0. -1.
        1   -1    0    0  501    0  0.00000000000E+00  0.00000000000E+00 -0.20539594636E+04  0.20539594636E+04  0.50400001928E-02 0.  1.
    10030    2    1    2    0    0  0.00000000000E+00  0.00000000000E+00 -0.53464851814E+03  0.35732704091E+04  0.35330457651E+04 0.  0.
        5    1    3    3  502    0 -0.16974956838E+04 -0.28431761780E+03 -0.66966356193E+03  0.18468349900E+04  0.46999998093E+01 0.  1.
       -5    1    3    3    0  502  0.16974956838E+04  0.28431761780E+03  0.13501504379E+03  0.17264354191E+04  0.46999998093E+01 0. -1.
</event>
<event>
 5   0  0.4409125E-07  0.3512453E+04  0.7818609E-02  0.8110845E-01
        1   -1    0    0  501    0  0.00000000000E+00  0.00000000000E+00  0.24410278397E+04  0.24410278397E+04  0.50400001928E-02 0.  1.
       -1   -1    0    0    0  501  0.00000000000E+00  0.00000000000E+00 -0.12635376750E+04  0.12635376750E+04  0.50400001928E-02 0. -1.
    10030    2    1    2    0    0  0.00000000000E+00  0.00000000000E+00  0.11774901647E+04  0.37045655148E+04  0.35124525001E+04 0.  0.
        5    1    3    3  502    0  0.29747191863E+03 -0.16971845491E+04  0.94700555213E+03  0.19661552690E+04  0.46999998093E+01 0.  1.
       -5    1    3    3    0  502 -0.29747191863E+03  0.16971845491E+04  0.23048461255E+03  0.17384102458E+04  0.46999998093E+01 0. -1.
</event>
<event>
 5   0  0.4700769E-07  0.3510334E+04  0.7818609E-02  0.8111345E-01
       -1   -1    0    0    0  501  0.00000000000E+00  0.00000000000E+00  0.17208867652E+04  0.17208867652E+04  0.50400001928E-02 0. -1.
        1   -1    0    0  501    0  0.00000000000E+00  0.00000000000E+00 -0.17901298578E+04  0.17901298578E+04  0.50400001928E-02 0.  1.
    10030    2    1    2    0    0  0.00000000000E+00  0.00000000000E+00 -0.69243092588E+02  0.35110166231E+04  0.35103337621E+04 0.  0.
        3    1    3    3  502    0  0.94887778077E+03  0.12579746401E+04  0.73866631122E+03  0.17402577877E+04  0.10100000352E+00 0. -1.
       -3    1    3    3    0  502 -0.94887778077E+03 -0.12579746401E+04 -0.80790940381E+03  0.17707588354E+04  0.10100000352E+00 0.  1.
</event>
<event>
 5   0  0.4557237E-07  0.3497018E+04  0.7818609E-02  0.8114497E-01
       -1   -1    0    0    0  501  0.00000000000E+00  0.00000000000E+00  0.14270488403E+04  0.14270488403E+04  0.50400001928E-02 0.  1.
        1   -1    0    0  501    0  0.00000000000E+00  0.00000000000E+00 -0.21423816730E+04  0.21423816730E+04  0.50400001928E-02 0. -1.
    10030    2    1    2    0    0  0.00000000000E+00  0.00000000000E+00 -0.71533283271E+03  0.35694305133E+04  0.34970177477E+04 0.  0.
        2    1    3    3  502    0  0.66342371682E+03 -0.66540791025E+02  0.12921966887E+04  0.14540739277E+04  0.25500000920E-02 0.  1.
       -2    1    3    3    0  502 -0.66342371682E+03  0.66540791025E+02 -0.20075295214E+04  0.21153565856E+04  0.25500000920E-02 0. -1.
</event>
<event>
 5   0  0.1348388E-06  0.3456526E+04  0.7818609E-02  0.8124171E-01
       -2   -1    0    0    0  501  0.00000000000E+00  0.00000000000E+00  0.18333145221E+04  0.18333145221E+04  0.25500000920E-02 0. -1.
        2   -1    0    0  501    0  0.00000000000E+00  0.00000000000E+00 -0.16292309906E+04  0.16292309906E+04  0.25500000920E-02 0.  1.
    10030    2    1    2    0    0  0.00000000000E+00  0.00000000000E+00  0.20408353155E+03  0.34625455127E+04  0.34565259061E+04 0.  0.
        5    1    3    3  502    0  0.33603563347E+03 -0.16217195407E+04 -0.39275824329E+03  0.17021090868E+04  0.46999998093E+01 0. -1.
       -5    1    3    3    0  502 -0.33603563347E+03  0.16217195407E+04  0.59684177485E+03  0.17604364259E+04  0.46999998093E+01 0.  1.
</event>
<event>
 5   0  0.4591195E-07  0.3505466E+04  0.7818609E-02  0.8112496E-01
        1   -1    0    0  501    0  0.00000000000E+00  0.00000000000E+00  0.12378786226E+04  0.12378786226E+04  0.50400001928E-02 0.  1.
       -1   -1    0    0    0  501  0.00000000000E+00  0.00000000000E+00 -0.24817232943E+04  0.24817232943E+04  0.50400001928E-02 0. -1.
    10030    2    1    2    0    0  0.00000000000E+00  0.00000000000E+00 -0.12438446717E+04  0.37196019169E+04  0.35054655687E+04 0.  0.
        4    1    3    3  502    0  0.41796493139E+03 -0.14440349529E+04 -0.15781601917E+04  0.21795694145E+04  0.12699999809E+01 0. -1.
       -4    1    3    3    0  502 -0.41796493139E+03  0.14440349529E+04  0.33431551992E+03  0.15400325025E+04  0.12699999809E+01 0.  1.
</event>
<event>
 5   0  0.4409125E-07  0.3515692E+04  0.7818609E-02  0.8110081E-01
        1   -1    0    0  501    0  0.00000000000E+00  0.00000000000E+00  0.13627525797E+04  0.13627525797E+04  0.50400001928E-02 0.  1.
       -1   -1    0    0    0  501  0.00000000000E+00  0.00000000000E+00 -0.22674857222E+04  0.22674857222E+04  0.50400001928E-02 0. -1.
    10030    2    1    2    0    0  0.00000000000E+00  0.00000000000E+00 -0.90473314249E+03  0.36302383019E+04  0.35156916915E+04 0.  0.
        5    1    3    3  502    0 -0.61861030555E+03  0.51870752930E+03 -0.20647365007E+04  0.22169562734E+04  0.46999998093E+01 0. -1.
       -5    1    3    3    0  502  0.61861030555E+03 -0.51870752930E+03  0.11600033582E+04  0.14132820285E+04  0.46999998093E+01 0.  1.
</event>
<event>
 5   0  0.1378620E-06  0.3477165E+04  0.7818609E-02  0.8119223E-01
       -2   -1    0    0    0  501  0.00000000000E+00  0.00000000000E+00  0.16503744156E+04  0.16503744156E+04  0.25500000920E-02 0. -1.
        2   -1    0    0  501    0  0.00000000000E+00  0.00000000000E+00 -0.18315046466E+04  0.18315046466E+04  0.25500000920E-02 0.  1.
    10030    2    1    2    0    0  0.00000000000E+00  0.00000000000E+00 -0.18113023092E+03  0.34818790622E+04  0.34771645982E+04 0.  0.
        2    1    3    3  502    0 -0.12226808933E+04 -0.37555503412E+03 -0.12697347493E+04  0.18022809115E+04  0.25500000920E-02 0.  1.
       -2    1    3    3    0  502  0.12226808933E+04  0.37555503412E+03  0.10886045183E+04  0.16795981507E+04  0.25500000920E-02 0. -1.
</event>
<event>
 5   0  0.4557237E-07  0.3477254E+04  0.7818609E-02  0.8119202E-01
        1   -1    0    0  501    0  0.00000000000E+00  0.00000000000E+00  0.24542866464E+04  0.24542866464E+04  0.50400001928E-02 0.  1.
       -1   -1    0    0    0  501  0.00000000000E+00  0.00000000000E+00 -0.12316509696E+04  0.12316509696E+04  0.50400001928E-02 0. -1.
    10030    2    1    2    0    0  0.00000000000E+00  0.00000000000E+00  0.12226356769E+04  0.36859376160E+04  0.34772543926E+04 0.  0.
        2    1    3    3  502    0  0.36990057287E+03 -0.13804490609E+03  0.24061380304E+04  0.24383156177E+04  0.25500000920E-02 0.  1.
       -2    1    3    3    0  502 -0.36990057287E+03  0.13804490609E+03 -0.11835023536E+04  0.12476219984E+04  0.25500000920E-02 0. -1.
</event>
<event>
 5   0  0.1348388E-06  0.3404649E+04  0.7818609E-02  0.8136766E-01
        2   -1    0    0  501    0  0.00000000000E+00  0.00000000000E+00  0.21512480914E+04  0.21512480914E+04  0.25500000920E-02 0. -1.
       -2   -1    0    0    0  501  0.00000000000E+00  0.00000000000E+00 -0.13470828462E+04  0.13470828462E+04  0.25500000920E-02 0.  1.
    10030    2    1    2    0    0  0.00000000000E+00  0.00000000000E+00  0.80416524523E+03  0.34983309376E+04  0.34046494104E+04 0.  0.
        5    1    3    3  502    0 -0.28650403581E+03  0.15733618957E+03 -0.13145294068E+04  0.13545659417E+04  0.46999998093E+01 0.  1.
       -5    1    3    3    0  502  0.28650403581E+03 -0.15733618957E+03  0.21186946520E+04  0.21437649959E+04  0.46999998093E+01 0. -1.
</event>
<event>
 5   0  0.4693374E-07  0.3485396E+04  0.7818609E-02  0.8117260E-01
       -1   -1    0    0    0  501  0.00000000000E+00  0.00000000000E+00  0.17579930213E+04  0.17579930213E+04  0.50400001928E-02 0.  1.
        1   -1    0    0  501    0  0.00000000000E+00  0.00000000000E+00 -0.17275363476E+04  0.17275363477E+04  0.50400001928E-02 0. -1.
    10030    2    1    2    0    0  0.00000000000E+00  0.00000000000E+00  0.30456673668E+02  0.34855293690E+04  0.34853963007E+04 0.  0.
        1    1    3    3  502    0  0.14574849625E+04 -0.88475042319E+03  0.37572943108E+03  0.17459147553E+04  0.50400001928E-02 0. -1.
       -1    1    3    3    0  502 -0.14574849625E+04  0.88475042319E+03 -0.34527275742E+03  0.17396146137E+04  0.50400001928E-02 0.  1.
</event>
<event>
 5   0  0.1361560E-06  0.3298523E+04  0.7818609E-02  0.8163271E-01
       -2   -1    0    0    0  501  0.00000000000E+00  0.00000000000E+00  0.23044060258E+04  0.23044060258E+04  0.25500000920E-02 0. -1.
        2   -1    0    0  501    0  0.00000000000E+00  0.00000000000E+00 -0.11803751189E+04  0.11803751189E+04  0.25500000920E-02 0.  1.
    10030    2    1    2    0    0  0.00000000000E+00  0.00000000000E+00  0.11240309069E+04  0.34847811448E+04  0.32985230251E+04 0.  0.
        3    1    3    3  502    0  0.86503582283E+03 -0.78918221639E+03 -0.66501914598E+03  0.13466053691E+04  0.10100000352E+00 0.  1.
       -3    1    3    3    0  502 -0.86503582283E+03  0.78918221639E+03  0.17890500529E+04  0.21381757756E+04  0.10100000352E+00 0. -1.
</event>
<event>
 5   0  0.1348388E-06  0.3505017E+04  0.7818609E-02  0.8112602E-01
       -2   -1    0    0    0  501  0.00000000000E+00  0.00000000000E+00  0.17099015620E+04  0.17099015620E+04  0.25500000920E-02 0.  1.
        2   -1    0    0  501    0  0.00000000000E+00  0.00000000000E+00 -0.17961773351E+04  0.17961773351E+04  0.25500000920E-02 0. -1.
    10030    2    1    2    0    0  0.00000000000E+00  0.00000000000E+00 -0.86275773114E+02  0.35060788971E+04  0.35050172215E+04 0.  0.
        5    1    3    3  502    0 -0.91058041392E+03 -0.10564039351E+04 -0.11046465705E+04  0.17791605043E+04  0.46999998093E+01 0. -1.
       -5    1    3    3    0  502  0.91058041392E+03  0.10564039351E+04  0.10183707974E+04  0.17269183928E+04  0.46999998093E+01 0.  1.
</event>
<event>
 5   0  0.4693374E-07  0.3506003E+04  0.7818609E-02  0.8112369E-01
        1   -1    0    0  501    0  0.00000000000E+00  0.00000000000E+00  0.10491522772E+04  0.10491522772E+04  0.50400001928E-02 0.  1.
       -1   -1    0    0    0  501  0.00000000000E+00  0.00000000000E+00 -0.29290445587E+04  0.29290445587E+04  0.50400001928E-02 0. -1.
    10030    2    1    2    0    0  0.00000000000E+00  0.00000000000E+00 -0.18798922815E+04  0.39781968359E+04  0.35060027203E+04 0.  0.
        1    1    3    3  502    0  0.31648042047E+03  0.91405317168E+03 -0.25988183437E+04  0.27729965454E+04  0.50400001928E-02 0. -1.
       -1    1    3    3    0  502 -0.31648042047E+03 -0.91405317168E+03  0.71892606221E+03  0.12052002905E+04  0.50400001928E-02 0.  1.
</event>
<event>
 5   0  0.1378620E-06  0.3496342E+04  0.7818609E-02  0.8114657E-01
        2   -1    0    0  501    0  0.00000000000E+00  0.00000000000E+00  0.32139095380E+04  0.32139095380E+04  0.25500000920E-02 0. -1.
       -2   -1    0    0    0  501  0.00000000000E+00  0.00000000000E+00 -0.95089875578E+03  0.95089875578E+03  0.25500000920E-02 0.  1.
    10030    2    1    2    0    0  0.00000000000E+00  0.00000000000E+00  0.22630107822E+04  0.41648082937E+04  0.34963424208E+04 0.  0.
        2    1    3    3  502    0 -0.91365206510E+03 -0.22263930158E+03 -0.62394432366E+03  0.11285543291E+04  0.25500000920E-02 0.  1.
       -2    1    3    3    0  502  0.91365206510E+03  0.22263930158E+03  0.28869551058E+04  0.30362539646E+04  0.25500000920E-02 0. -1.
</event>
<event>
 5   0  0.1348388E-06  0.3463902E+04  0.7818609E-02  0.8122398E-01
        2   -1    0    0  501    0  0.00000000000E+00  0.00000000000E+00  0.23235858438E+04  0.23235858438E+04  0.25500000920E-02 0. -1.
       -2   -1    0    0    0  501  0.00000000000E+00  0.00000000000E+00 -0.12909587296E+04  0.12909587296E+04  0.25500000920E-02 0.  1.
    10030    2    1    2    0    0  0.00000000000E+00  0.00000000000E+00  0.10326271142E+04  0.36145445735E+04  0.34639015166E+04 0.  0.
        5    1    3    3  502    0 -0.84761943146E+03  0.96609695300E+03 -0.69513645302E+03  0.14611771972E+04  0.46999998093E+01 0.  1.
       -5    1    3    3    0  502  0.84761943146E+03 -0.96609695300E+03  0.17277635672E+04  0.21533673763E+04  0.46999998093E+01 0. -1.
</event>
<event>
 5   0  0.4591195E-07  0.3552361E+04  0.7818609E-02  0.8101492E-01
       -1   -1    0    0    0  501  0.00000000000E+00  0.00000000000E+00  0.30502361913E+04  0.30502361913E+04  0.50400001928E-02 0. -1.
        1   -1    0    0  501    0  0.00000000000E+00  0.00000000000E+00 -0.10342864588E+04  0.10342864589E+04  0.50400001928E-02 0.  1.
    10030    2    1    2    0    0  0.00000000000E+00  0.00000000000E+00  0.20159497325E+04  0.40845226502E+04  0.35523614619E+04 0.  0.
        4    1    3    3  502    0  0.46631219375E+03 -0.14770178956E+04  0.20075696862E+04  0.25356195661E+04  0.12699999809E+01 0. -1.
       -4    1    3    3    0  502 -0.46631219375E+03  0.14770178956E+04  0.83800462426E+01  0.15489030841E+04  0.12699999809E+01 0.  1.
</event>
<event>
 5   0  0.1348388E-06  0.3488009E+04  0.7818609E-02  0.8116637E-01
       -2   -1    0    0    0  501  0.00000000000E+00  0.00000000000E+00  0.18953884822E+04  0.18953884822E+04  0.25500000920E-02 0. -1.
        2   -1    0    0  501    0  0.00000000000E+00  0.00000000000E+00 -0.16047118889E+04  0.16047118889E+04  0.25500000920E-02 0.  1.
    10030    2    1    2    0    0  0.00000000000E+00  0.00000000000E+00  0.29067659326E+03  0.35001003711E+04  0.34880094217E+04 0.  0.
        5    1    3    3  502    0 -0.71056912000E+03  0.63272027578E+02 -0.14515985376E+04  0.16174276578E+04  0.46999998093E+01 0.  1.
       -5    1    3    3    0  502  0.71056912000E+03 -0.63272027578E+02  0.17422751308E+04  0.18826727133E+04  0.46999998093E+01 0. -1.
</event>
<event>
 5   0  0.4591195E-07  0.3045751E+04  0.7818609E-02  0.8230786E-01
        1   -1    0    0  501    0  0.00000000000E+00  0.00000000000E+00  0.19566102693E+04  0.19566102693E+04  0.50400001928E-02 0.  1.
       -1   -1    0    0    0  501  0.00000000000E+00  0.00000000000E+00 -0.11852898183E+04  0.11852898183E+04  0.50400001928E-02 0. -1.
    10030    2    1    2    0    0  0.00000000000E+00  0.00000000000E+00  0.77132045100E+03  0.31419000877E+04  0.30457512904E+04 0.  0.
        4    1    3    3  502    0 -0.64523142309E+03  0.12714748188E+04 -0.16618228831E+03  0.14354755205E+04  0.12699999809E+01 0. -1.
       -4    1    3    3    0  502  0.64523142309E+03 -0.12714748188E+04  0.93750273931E+03  0.17064245671E+04  0.12699999809E+01 0.  1.
</event>
<event>
 5   0  0.4409125E-07  0.3437710E+04  0.7818609E-02  0.8128713E-01
        1   -1    0    0  501    0  0.00000000000E+00  0.00000000000E+00  0.10912627522E+04  0.10912627522E+04  0.50400001928E-02 0.  1.
       -1   -1    0    0    0  501  0.00000000000E+00  0.00000000000E+00 -0.27073801501E+04  0.27073801501E+04  0.50400001928E-02 0. -1.
    10030    2    1    2    0    0  0.00000000000E+00  0.00000000000E+00 -0.16161173979E+04  0.37986429023E+04  0.34377103507E+04 0.  0.
        5    1    3    3  502    0  0.18916381764E+03  0.21001108471E+03 -0.26815185004E+04  0.26963774149E+04  0.46999998093E+01 0. -1.
       -5    1    3    3    0  502 -0.18916381764E+03 -0.21001108471E+03  0.10654011025E+04  0.11022654874E+04  0.46999998093E+01 0.  1.
</event>
<event>
 5   0  0.4409125E-07  0.3297942E+04  0.7818609E-02  0.8163419E-01
        1   -1    0    0  501    0  0.00000000000E+00  0.00000000000E+00  0.28402561854E+04  0.28402561854E+04  0.50400001928E-02 0.  1.
       -1   -1    0    0    0  501  0.00000000000E+00  0.00000000000E+00 -0.95734495716E+03  0.95734495718E+03  0.50400001928E-02 0. -1.
    10030    2    1    2    0    0  0.00000000000E+00  0.00000000000E+00  0.18829112282E+04  0.37976011425E+04  0.32979417437E+04 0.  0.
        5    1    3    3  502    0 -0.18567620246E+03  0.39039286708E+03  0.27738351104E+04  0.28073235568E+04  0.46999998093E+01 0.  1.
       -5    1    3    3    0  502  0.18567620246E+03 -0.39039286708E+03 -0.89092388224E+03  0.99027758571E+03  0.46999998093E+01 0. -1.
</event>
<event>
 5   0  0.1361560E-06  0.3456431E+04  0.7818609E-02  0.8124194E-01
       -2   -1    0    0    0  501  0.00000000000E+00  0.00000000000E+00  0.11879066383E+04  0.11879066383E+04  0.25500000920E-02 0.  1.
        2   -1    0    0  501    0  0.00000000000E+00  0.00000000000E+00 -0.25142788301E+04  0.25142788301E+04  0.25500000920E-02 0. -1.
    10030    2    1    2    0    0  0.00000000000E+00  0.00000000000E+00 -0.13263721918E+04  0.37021854685E+04  0.34564308255E+04 0.  0.
        3    1    3    3  502    0  0.22305222701E+01  0.74487804066E+03  0.10071404891E+04  0.12526692483E+04  0.10100000352E+00 0.  1.
       -3    1    3    3    0  502 -0.22305222701E+01 -0.74487804066E+03 -0.23335126809E+04  0.24495162202E+04  0.10100000352E+00 0. -1.
</event>
<event>
 5   0  0.4409125E-07  0.3495398E+04  0.7818609E-02  0.8114882E-01
        1   -1    0    0  501    0  0.00000000000E+00  0.00000000000E+00  0.15943059305E+04  0.15943059305E+04  0.50400001928E-02 0. -1.
       -1   -1    0    0    0  501  0.00000000000E+00  0.00000000000E+00 -0.19158499616E+04  0.19158499617E+04  0.50400001928E-02 0.  1.
    10030    2    1    2    0    0  0.00000000000E+00  0.00000000000E+00 -0.32154403112E+03  0.35101558922E+04  0.34953975201E+04 0.  0.
        5    1    3    3  502    0 -0.89435623160E+03 -0.14985154433E+03  0.13395576100E+04  0.16176418747E+04  0.46999998093E+01 0. -1.
       -5    1    3    3    0  502  0.89435623160E+03  0.14985154433E+03 -0.16611016411E+04  0.18925140175E+04  0.46999998093E+01 0.  1.
</event>
<event>
 5   0  0.4409125E-07  0.3478204E+04  0.7818609E-02  0.8118975E-01
        1   -1    0    0  501    0  0.00000000000E+00  0.00000000000E+00  0.19980880270E+04  0.19980880270E+04  0.50400001928E-02 0. -1.
       -1   -1    0    0    0  501  0.00000000000E+00  0.00000000000E+00 -0.15136848458E+04  0.15136848458E+04  0.50400001928E-02 0.  1.
    10030    2    1    2    0    0  0.00000000000E+00  0.00000000000E+00  0.48440318122E+03  0.35117728728E+04  0.34782038853E+04 0.  0.
        5    1    3    3  502    0  0.49280153233E+03 -0.74703956351E+03  0.17477442910E+04  0.19635563797E+04  0.46999998093E+01 0. -1.
       -5    1    3    3    0  502 -0.49280153233E+03  0.74703956351E+03 -0.12633411098E+04  0.15482164930E+04  0.46999998093E+01 0.  1.
</event>
<event>
 5   0  0.1361560E-06  0.3391491E+04  0.7818609E-02  0.8139998E-01
        2   -1    0    0  501    0  0.00000000000E+00  0.00000000000E+00  0.17062247905E+04  0.17062247905E+04  0.25500000920E-02 0. -1.
       -2   -1    0    0    0  501  0.00000000000E+00  0.00000000000E+00 -0.16853309299E+04  0.16853309299E+04  0.25500000920E-02 0.  1.
    10030    2    1    2    0    0  0.00000000000E+00  0.00000000000E+00  0.20893860591E+02  0.33915557204E+04  0.33914913609E+04 0.  0.
        3    1    3    3  502    0 -0.15524684213E+03 -0.11271053264E+04  0.12678829772E+04  0.17035243623E+04  0.10100000352E+00 0. -1.
       -3    1    3    3    0  502  0.15524684213E+03  0.11271053264E+04 -0.12469891166E+04  0.16880313581E+04  0.10100000352E+00 0.  1.
</event>
<event>
 5   0  0.1442864E-06  0.3478622E+04  0.7818609E-02  0.8118875E-01
       -2   -1    0    0    0  501  0.00000000000E+00  0.00000000000E+00  0.15009376177E+04  0.15009376177E+04  0.25500000920E-02 0.  1.
        2   -1    0    0  501    0  0.00000000000E+00  0.00000000000E+00 -0.20155417342E+04  0.20155417342E+04  0.25500000920E-02 0. -1.
    10030    2    1    2    0    0  0.00000000000E+00  0.00000000000E+00 -0.51460411651E+03  0.35164793519E+04  0.34786218012E+04 0.  0.
        1    1    3    3  502    0 -0.14164078958E+04 -0.18715255256E+03  0.74544335340E+03  0.16114971915E+04  0.50400001928E-02 0.  1.
       -1    1    3    3    0  502  0.14164078958E+04  0.18715255256E+03 -0.12600474699E+04  0.19049821604E+04  0.50400001928E-02 0. -1.
</event>
<event>
 5   0  0.1387133E-06  0.3470138E+04  0.7818609E-02  0.8120903E-01
       -2   -1    0    0    0  501  0.00000000000E+00  0.00000000000E+00  0.15401362795E+04  0.15401362795E+04  0.25500000920E-02 0. -1.
        2   -1    0    0  501    0  0.00000000000E+00  0.00000000000E+00 -0.19546745462E+04  0.19546745462E+04  0.25500000920E-02 0.  1.
    10030    2    1    2    0    0  0.00000000000E+00  0.00000000000E+00 -0.41453826673E+03  0.34948108257E+04  0.34701384314E+04 0.  0.
        4    1    3    3  502    0 -0.55036308084E+03  0.10842562554E+04  0.10392516131E+04  0.15995488978E+04  0.12699999809E+01 0. -1.
       -4    1    3    3    0  502  0.55036308084E+03 -0.10842562554E+04 -0.14537898798E+04  0.18952619280E+04  0.12699999809E+01 0.  1.
</event>
<event>
 5   0  0.4557237E-07  0.3518331E+04  0.7818609E-02  0.8109460E-01
        1   -1    0    0  501    0  0.00000000000E+00  0.00000000000E+00  0.19351681791E+04  0.19351681791E+04  0.50400001928E-02 0.  1.
       -1   -1    0    0    0  501  0.00000000000E+00  0.00000000000E+00 -0.15991697540E+04  0.15991697540E+04  0.50400001928E-02 0. -1.
    10030    2    1    2    0    0  0.00000000000E+00  0.00000000000E+00  0.33599842508E+03  0.35343379331E+04  0.35183305251E+04 0.  0.
        2    1    3    3  502    0 -0.42418405860E+03  0.17068316247E+04  0.20633183671E+03  0.17708131289E+04  0.25500000920E-02 0. -1.
       -2    1    3    3    0  502  0.42418405860E+03 -0.17068316247E+04  0.12966658837E+03  0.17635248042E+04  0.25500000920E-02 0.  1.
</event>
<event>
 5   0  0.1348388E-06  0.3567088E+04  0.7818609E-02  0.8098072E-01
       -2   -1    0    0    0  501  0.00000000000E+00  0.00000000000E+00  0.13782246287E+04  0.13782246287E+04  0.25500000920E-02 0. -1.
        2   -1    0    0  501    0  0.00000000000E+00  0.00000000000E+00 -0.23080629266E+04  0.23080629266E+04  0.25500000920E-02 0.  1.
    10030    2    1    2    0    0  0.00000000000E+00  0.00000000000E+00 -0.92983829789E+03  0.36862875553E+04  0.35670879833E+04 0.  0.
        5    1    3    3  502    0  0.41848233905E+03  0.17125358352E+04 -0.18551301662E+03  0.17726656832E+04  0.46999998093E+01 0.  1.
       -5    1    3    3    0  502 -0.41848233905E+03 -0.17125358352E+04 -0.74432528127E+03  0.19136218721E+04  0.46999998093E+01 0. -1.
</event>
<event>
 5   0  0.4591195E-07  0.3515169E+04  0.7818609E-02  0.8110205E-01
        1   -1    0    0  501    0  0.00000000000E+00  0.00000000000E+00  0.19913270638E+04  0.19913270638E+04  0.50400001928E-02 0.  1.
       -1   -1    0    0    0  501  0.00000000000E+00  0.00000000000E+00 -0.15512783850E+04  0.15512783850E+04  0.50400001928E-02 0. -1.
    10030    2    1    2    0    0  0.00000000000E+00  0.00000000000E+00  0.44004867875E+03  0.35426054488E+04  0.35151686341E+04 0.  0.
        4    1    3    3  502    0 -0.13506238198E+04  0.93742306174E+02 -0.90949505009E+03  0.16309982163E+04  0.12699999809E+01 0. -1.
       -4    1    3    3    0  502  0.13506238198E+04 -0.93742306174E+02  0.13495437288E+04  0.19116072325E+04  0.12699999809E+01 0.  1.
</event>
<event>
 5   0  0.1442864E-06  0.3494003E+04  0.7818609E-02  0.8115213E-01
       -2   -1    0    0    0  501  0.00000000000E+00  0.00000000000E+00  0.10771784552E+04  0.10771784552E+04  0.25500000920E-02 0.  1.
        2   -1    0    0  501    0  0.00000000000E+00  0.00000000000E+00 -0.28333408719E+04  0.28333408719E+04  0.25500000920E-02 0. -1.
    10030    2    1    2    0    0  0.00000000000E+00  0.00000000000E+00 -0.17561624167E+04  0.39105193271E+04  0.34940027152E+04 0.  0.
        1    1    3    3  502    0 -0.14062813868E+04  0.76993646046E+02 -0.20349657125E+04  0.24748011660E+04  0.50400001928E-02 0. -1.
       -1    1    3    3    0  502  0.14062813868E+04 -0.76993646046E+02  0.27880329575E+03  0.14357181611E+04  0.50400001928E-02 0.  1.
</event>
<event>
 5   0  0.1348388E-06  0.3530833E+04  0.7818609E-02  0.8106522E-01
       -2   -1    0    0    0  501  0.00000000000E+00  0.00000000000E+00  0.15367014204E+04  0.15367014204E+04  0.25500000920E-02 0. -1.
        2   -1    0    0  501    0  0.00000000000E+00  0.00000000000E+00 -0.20281725287E+04  0.20281725287E+04  0.25500000920E-02 0.  1.
    10030    2    1    2    0    0  0.00000000000E+00  0.00000000000E+00 -0.49147110827E+03  0.35648739491E+04  0.35308331060E+04 0.  0.
        5    1    3    3  502    0 -0.62450496417E+03  0.54341393000E+03  0.13285821129E+04  0.15653937748E+04  0.46999998093E+01 0. -1.
       -5    1    3    3    0  502  0.62450496417E+03 -0.54341393000E+03 -0.18200532211E+04  0.19994801743E+04  0.46999998093E+01 0.  1.
</event>
<event>
 5   0  0.1378620E-06  0.3478391E+04  0.7818609E-02  0.8118930E-01
       -2   -1    0    0    0  501  0.00000000000E+00  0.00000000000E+00  0.13171348497E+04  0.13171348497E+04  0.25500000920E-02 0. -1.
        2   -1    0    0  501    0  0.00000000000E+00  0.00000000000E+00 -0.22964999924E+04  0.22964999924E+04  0.25500000920E-02 0.  1.
    10030    2    1    2    0    0  0.00000000000E+00  0.00000000000E+00 -0.97936514265E+03  0.36136348421E+04  0.34783905314E+04 0.  0.
        2    1    3    3  502    0 -0.67376616460E+03  0.54495108023E+02 -0.21544455471E+04  0.22580004820E+04  0.25500000920E-02 0.  1.
       -2    1    3    3    0  502  0.67376616460E+03 -0.54495108023E+02  0.11750804044E+04  0.13556343601E+04  0.25500000920E-02 0. -1.
</event>
<event>
 5   0  0.4693374E-07  0.3407422E+04  0.7818609E-02  0.8136087E-01
       -1   -1    0    0    0  501  0.00000000000E+00  0.00000000000E+00  0.13587676502E+04  0.13587676502E+04  0.50400001928E-02 0.  1.
        1   -1    0    0  501    0  0.00000000000E+00  0.00000000000E+00 -0.21362230284E+04  0.21362230285E+04  0.50400001928E-02 0. -1.
    10030    2    1    2    0    0  0.00000000000E+00  0.00000000000E+00 -0.77745537829E+03  0.34949906786E+04  0.34074217494E+04 0.  0.
        1    1    3    3  502    0 -0.87569882395E+03  0.10805491549E+04 -0.13979846103E+04  0.19720030115E+04  0.50400001928E-02 0. -1.
       -1    1    3    3    0  502  0.87569882395E+03 -0.10805491549E+04  0.62052923205E+03  0.15229876672E+04  0.50400001928E-02 0.  1.
</event>
<event>
 5   0  0.4591195E-07  0.3491263E+04  0.7818609E-02  0.8115864E-01
        1   -1    0    0  501    0  0.00000000000E+00  0.00000000000E+00  0.12852861229E+04  0.12852861230E+04  0.50400001928E-02 0.  1.
       -1   -1    0    0    0  501  0.00000000000E+00  0.00000000000E+00 -0.23708563696E+04  0.23708563696E+04  0.50400001928E-02 0. -1.
    10030    2    1    2    0    0  0.00000000000E+00  0.00000000000E+00 -0.10855702466E+04  0.36561424925E+04  0.34912626892E+04 0.  0.
        4    1    3    3  502    0  0.15016429946E+04 -0.64807672643E+03  0.96187819467E+02  0.16383494243E+04  0.12699999809E+01 0.  1.
       -4    1    3    3    0  502 -0.15016429946E+04  0.64807672643E+03 -0.11817580661E+04  0.20177930682E+04  0.12699999809E+01 0. -1.
</event>
<event>
 5   0  0.1378620E-06  0.3288464E+04  0.7818609E-02  0.8165837E-01
       -2   -1    0    0    0  501  0.00000000000E+00  0.00000000000E+00  0.12461328769E+04  0.12461328769E+04  0.25500000920E-02 0.  1.
        2   -1    0    0  501    0  0.00000000000E+00  0.00000000000E+00 -0.21695114652E+04  0.21695114652E+04  0.25500000920E-02 0. -1.
    10030    2    1    2    0    0  0.00000000000E+00  0.00000000000E+00 -0.92337858825E+03  0.34156443421E+04  0.32884644220E+04 0.  0.
        2    1    3    3  502    0 -0.65532904591E+03 -0.13408873325E+04 -0.11783480720E+04  0.19015622986E+04  0.25500000920E-02 0. -1.
       -2    1    3    3    0  502  0.65532904591E+03  0.13408873325E+04  0.25496948372E+03  0.15140820435E+04  0.25500000920E-02 0.  1.
</event>
<event>
 5   0  0.1348388E-06  0.3129369E+04  0.7818609E-02  0.8207724E-01
       -2   -1    0    0    0  501  0.00000000000E+00  0.00000000000E+00  0.15360971858E+04  0.15360971858E+04  0.25500000920E-02 0. -1.
        2   -1    0    0  501    0  0.00000000000E+00  0.00000000000E+00 -0.15938040246E+04  0.15938040246E+04  0.25500000920E-02 0.  1.
    10030    2    1    2    0    0  0.00000000000E+00  0.00000000000E+00 -0.57706838811E+02  0.31299012105E+04  0.31293691869E+04 0.  0.
        5    1    3    3  502    0 -0.76064647904E+02  0.28704554747E+03 -0.15653550746E+04  0.15932795036E+04  0.46999998093E+01 0.  1.
       -5    1    3    3    0  502  0.76064647904E+02 -0.28704554747E+03  0.15076482358E+04  0.15366217069E+04  0.46999998093E+01 0. -1.
</event>
<event>
 5   0  0.4693374E-07  0.3461958E+04  0.7818609E-02  0.8122865E-01
       -1   -1    0    0    0  501  0.00000000000E+00  0.00000000000E+00  0.10357290381E+04  0.10357290381E+04  0.50400001928E-02 0.  1.
        1   -1    0    0  501    0  0.00000000000E+00  0.00000000000E+00 -0.28929266671E+04  0.28929266671E+04  0.50400001928E-02 0. -1.
    10030    2    1    2    0    0  0.00000000000E+00  0.00000000000E+00 -0.18571976290E+04  0.39286557052E+04  0.34619579167E+04 0.  0.
        1    1    3    3  502    0 -0.16191758370E+04 -0.13798600722E+02 -0.16229372002E+04  0.22925631831E+04  0.50400001928E-02 0. -1.
       -1    1    3    3    0  502  0.16191758370E+04  0.13798600722E+02 -0.23426042878E+03  0.16360925222E+04  0.50400001928E-02 0.  1.
</event>
<event>
 5   0  0.4557237E-07  0.3411617E+04  0.7818609E-02  0.8135061E-01
       -1   -1    0    0    0  501  0.00000000000E+00  0.00000000000E+00  0.24968401153E+04  0.24968401153E+04  0.50400001928E-02 0.  1.
        1   -1    0    0  501    0  0.00000000000E+00  0.00000000000E+00 -0.11653863748E+04  0.11653863748E+04  0.50400001928E-02 0. -1.
    10030    2    1    2    0    0  0.00000000000E+00  0.00000000000E+00  0.13314537405E+04  0.36622264901E+04  0.34116174758E+04 0.  0.
        2    1    3    3  502    0 -0.12911056858E+04  0.79292243385E+03  0.15069393000E+04  0.21369478075E+04  0.25500000920E-02 0.  1.
       -2    1    3    3    0  502  0.12911056858E+04 -0.79292243385E+03 -0.17548555942E+03  0.15252786826E+04  0.25500000920E-02 0. -1.
</event>
<event>
 5   0  0.1387133E-06  0.3452293E+04  0.7818609E-02  0.8125190E-01
        2   -1    0    0  501    0  0.00000000000E+00  0.00000000000E+00  0.16677966116E+04  0.16677966116E+04  0.25500000920E-02 0. -1.
       -2   -1    0    0    0  501  0.00000000000E+00  0.00000000000E+00 -0.17865377701E+04  0.17865377701E+04  0.25500000920E-02 0.  1.
    10030    2    1    2    0    0  0.00000000000E+00  0.00000000000E+00 -0.11874115854E+03  0.34543343817E+04  0.34522929420E+04 0.  0.
        4    1    3    3  502    0 -0.62638845174E+02  0.78890651459E+03  0.14755779094E+04  0.16744040412E+04  0.12699999809E+01 0. -1.
       -4    1    3    3    0  502  0.62638845174E+02 -0.78890651459E+03 -0.15943190679E+04  0.17799303405E+04  0.12699999809E+01 0.  1.
</event>
<event>
 5   0  0.4409125E-07  0.3520887E+04  0.7818609E-02  0.8108858E-01
       -3   -1    0    0    0  501  0.00000000000E+00  0.00000000000E+00  0.18733348926E+04  0.18733348954E+04  0.10100000352E+00 0.  1.
        3   -1    0    0  501    0  0.00000000000E+00  0.00000000000E+00 -0.16543551273E+04  0.16543551304E+04  0.10100000352E+00 0. -1.
    10030    2    1    2    0    0  0.00000000000E+00  0.00000000000E+00  0.21897976531E+03  0.35276900258E+04  0.35208869309E+04 0.  0.
        3    1    3    3  502    0  0.14406808731E+04  0.96398429551E+03  0.41722188211E+03  0.17829473378E+04  0.10100000352E+00 0.  1.
       -3    1    3    3    0  502 -0.14406808731E+04 -0.96398429551E+03 -0.19824211681E+03  0.17447426880E+04  0.10100000352E+00 0. -1.
</event>
<event>
 5   0  0.1387133E-06  0.3578715E+04  0.7818609E-02  0.8095385E-01
       -2   -1    0    0    0  501  0.00000000000E+00  0.00000000000E+00  0.15412434426E+04  0.15412434426E+04  0.25500000920E-02 0.  1.
        2   -1    0    0  501    0  0.00000000000E+00  0.00000000000E+00 -0.20774135288E+04  0.20774135288E+04  0.25500000920E-02 0. -1.
    10030    2    1    2    0    0  0.00000000000E+00  0.00000000000E+00 -0.53617008620E+03  0.36186569714E+04  0.35787148412E+04 0.  0.
        4    1    3    3  502    0  0.15459923982E+04  0.44406753109E+03  0.52457097893E+03  0.16918820267E+04  0.12699999809E+01 0.  1.
       -4    1    3    3    0  502 -0.15459923982E+04 -0.44406753109E+03 -0.10607410651E+04  0.19267749447E+04  0.12699999809E+01 0. -1.
</event>
<event>
 5   0  0.1387133E-06  0.3527800E+04  0.7818609E-02  0.8107233E-01
        2   -1    0    0  501    0  0.00000000000E+00  0.00000000000E+00  0.18262812189E+04  0.18262812189E+04  0.25500000920E-02 0.  1.
       -2   -1    0    0    0  501  0.00000000000E+00  0.00000000000E+00 -0.17036491043E+04  0.17036491043E+04  0.25500000920E-02 0. -1.
    10030    2    1    2    0    0  0.00000000000E+00  0.00000000000E+00  0.12263211455E+03  0.35299303232E+04  0.35277995197E+04 0.  0.
        4    1    3    3  502    0  0.15752097639E+04 -0.26874784862E+03 -0.68601493290E+03  0.17390023886E+04  0.12699999809E+01 0.  1.
       -4    1    3    3    0  502 -0.15752097639E+04  0.26874784862E+03  0.80864704745E+03  0.17909279346E+04  0.12699999809E+01 0. -1.
</event>
<event>
 5   0  0.1361560E-06  0.3505987E+04  0.7818609E-02  0.8112373E-01
        2   -1    0    0  501    0  0.00000000000E+00  0.00000000000E+00  0.20050986693E+04  0.20050986693E+04  0.25500000920E-02 0.  1.
       -2   -1    0    0    0  501  0.00000000000E+00  0.00000000000E+00 -0.15325861278E+04  0.15325861278E+04  0.25500000920E-02 0. -1.
    10030    2    1    2    0    0  0.00000000000E+00  0.00000000000E+00  0.47251254151E+03  0.35376847971E+04  0.35059871109E+04 0.  0.
        3    1    3    3  502    0 -0.41439910573E+03  0.10298172936E+04 -0.11327473194E+04  0.15859907872E+04  0.10100000352E+00 0. -1.
       -3    1    3    3    0  502  0.41439910573E+03 -0.10298172936E+04  0.16052598610E+04  0.19516940100E+04  0.10100000352E+00 0.  1.
</event>
<event>
 5   0  0.4557237E-07  0.3349669E+04  0.7818609E-02  0.8150371E-01
       -1   -1    0    0    0  501  0.00000000000E+00  0.00000000000E+00  0.13684073897E+04  0.13684073897E+04  0.50400001928E-02 0. -1.
        1   -1    0    0  501    0  0.00000000000E+00  0.00000000000E+00 -0.20498791946E+04  0.20498791946E+04  0.50400001928E-02 0.  1.
    10030    2    1    2    0    0  0.00000000000E+00  0.00000000000E+00 -0.68147180495E+03  0.34182865843E+04  0.33496685435E+04 0.  0.
        2    1    3    3  502    0 -0.15005720276E+04 -0.72041365225E+03 -0.52989099155E+03  0.17468533720E+04  0.25500000920E-02 0.  1.
       -2    1    3    3    0  502  0.15005720276E+04  0.72041365225E+03 -0.15158081340E+03  0.16714332123E+04  0.25500000920E-02 0. -1.
</event>
<event>
 5   0  0.4693374E-07  0.3488677E+04  0.7818609E-02  0.8116479E-01
        1   -1    0    0  501    0  0.00000000000E+00  0.00000000000E+00  0.16949460433E+04  0.16949460433E+04  0.50400001928E-02 0.  1.
       -1   -1    0    0    0  501  0.00000000000E+00  0.00000000000E+00 -0.17951706386E+04  0.17951706386E+04  0.50400001928E-02 0. -1.
    10030    2    1    2    0    0  0.00000000000E+00  0.00000000000E+00 -0.10022459527E+03  0.34901166819E+04  0.34886773259E+04 0.  0.
        1    1    3    3  502    0 -0.10828885756E+04  0.12174307081E+04 -0.67321128372E+03  0.17629516807E+04  0.50400001928E-02 0. -1.
       -1    1    3    3    0  502  0.10828885756E+04 -0.12174307081E+04  0.57298668846E+03  0.17271650012E+04  0.50400001928E-02 0.  1.
</event>
<event>
 5   0  0.4409125E-07  0.3492505E+04  0.7818609E-02  0.8115568E-01
        3   -1    0    0  501    0  0.00000000000E+00  0.00000000000E+00  0.17732693166E+04  0.17732693194E+04  0.10100000352E+00 0. -1.
       -3   -1    0    0    0  501  0.00000000000E+00  0.00000000000E+00 -0.17196472258E+04  0.17196472288E+04  0.10100000352E+00 0.  1.
    10030    2    1    2    0    0  0.00000000000E+00  0.00000000000E+00  0.53622090716E+02  0.34929165482E+04  0.34925049298E+04 0.  0.
        2    1    3    3  502    0  0.76783111275E+03  0.78759256088E+03 -0.13296419183E+04  0.17256344603E+04  0.25500000920E-02 0.  1.
       -2    1    3    3    0  502 -0.76783111275E+03 -0.78759256088E+03  0.13832640090E+04  0.17672820879E+04  0.25500000920E-02 0. -1.
</event>
<event>
 5   0  0.1442864E-06  0.3552969E+04  0.7818609E-02  0.8101351E-01
        2   -1    0    0  501    0  0.00000000000E+00  0.00000000000E+00  0.25933149657E+04  0.25933149657E+04  0.25500000920E-02 0. -1.
       -2   -1    0    0    0  501  0.00000000000E+00  0.00000000000E+00 -0.12169352789E+04  0.12169352789E+04  0.25500000920E-02 0.  1.
    10030    2    1    2    0    0  0.00000000000E+00  0.00000000000E+00  0.13763796868E+04  0.38102502446E+04  0.35529686016E+04 0.  0.
        1    1    3    3  502    0 -0.14327373576E+04 -0.32502794140E+03  0.17592707487E+04  0.22920325185E+04  0.50400001928E-02 0. -1.
       -1    1    3    3    0  502  0.14327373576E+04  0.32502794140E+03 -0.38289106191E+03  0.15182177261E+04  0.50400001928E-02 0.  1.
</event>
<event>
 5   0  0.1348388E-06  0.3492349E+04  0.7818609E-02  0.8115606E-01
       -2   -1    0    0    0  501  0.00000000000E+00  0.00000000000E+00  0.14598271207E+04  0.14598271207E+04  0.25500000920E-02 0. -1.
        2   -1    0    0  501    0  0.00000000000E+00  0.00000000000E+00 -0.20886892362E+04  0.20886892362E+04  0.25500000920E-02 0.  1.
    10030    2    1    2    0    0  0.00000000000E+00  0.00000000000E+00 -0.62886211550E+03  0.35485163568E+04  0.34923488907E+04 0.  0.
        5    1    3    3  502    0  0.56144105531E+03  0.15741342978E+04  0.19965900551E+03  0.16831519999E+04  0.46999998093E+01 0.  1.
       -5    1    3    3    0  502 -0.56144105531E+03 -0.15741342978E+04 -0.82852112101E+03  0.18653643569E+04  0.46999998093E+01 0. -1.
</event>
<event>
 5   0  0.1387133E-06  0.3449382E+04  0.7818609E-02  0.8125892E-01
       -2   -1    0    0    0  501  0.00000000000E+00  0.00000000000E+00  0.13751868326E+04  0.13751868326E+04  0.25500000920E-02 0.  1.
        2   -1    0    0  501    0  0.00000000000E+00  0.00000000000E+00 -0.21630215893E+04  0.21630215893E+04  0.25500000920E-02 0. -1.
    10030    2    1    2    0    0  0.00000000000E+00  0.00000000000E+00 -0.78783475674E+03  0.35382084220E+04  0.34493818625E+04 0.  0.
        4    1    3    3  502    0 -0.35921800523E+03 -0.11410074767E+04 -0.16683373071E+04  0.20528727726E+04  0.12699999809E+01 0. -1.
       -4    1    3    3    0  502  0.35921800523E+03  0.11410074767E+04  0.88050255040E+03  0.14853356494E+04  0.12699999809E+01 0.  1.
</event>
<event>
 5   0  0.4409125E-07  0.3447755E+04  0.7818609E-02  0.8126284E-01
        1   -1    0    0  501    0  0.00000000000E+00  0.00000000000E+00  0.10798692799E+04  0.10798692799E+04  0.50400001928E-02 0.  1.
       -1   -1    0    0    0  501  0.00000000000E+00  0.00000000000E+00 -0.27519563605E+04  0.27519563605E+04  0.50400001928E-02 0. -1.
    10030    2    1    2    0    0  0.00000000000E+00  0.00000000000E+00 -0.16720870807E+04  0.38318256404E+04  0.34477547090E+04 0.  0.
        5    1    3    3  502    0 -0.29587113757E+03 -0.12710920146E+04 -0.20877930289E+04  0.24621365643E+04  0.46999998093E+01 0. -1.
       -5    1    3    3    0  502  0.29587113757E+03  0.12710920146E+04  0.41570594828E+03  0.13696890761E+04  0.46999998093E+01 0.  1.
</event>
<event>
 5   0  0.4700769E-07  0.3527041E+04  0.7818609E-02  0.8107411E-01
       -1   -1    0    0    0  501  0.00000000000E+00  0.00000000000E+00  0.29016627191E+04  0.29016627191E+04  0.50400001928E-02 0. -1.
        1   -1    0    0  501    0  0.00000000000E+00  0.00000000000E+00 -0.10718010390E+04  0.10718010390E+04  0.50400001928E-02 0.  1.
    10030    2    1    2    0    0  0.00000000000E+00  0.00000000000E+00  0.18298616801E+04  0.39734637580E+04  0.35270413193E+04 0.  0.
        3    1    3    3  502    0 -0.85703844974E+02  0.10362603027E+04 -0.68972149958E+03  0.12477565152E+04  0.10100000352E+00 0.  1.
       -3    1    3    3    0  502  0.85703844974E+02 -0.10362603027E+04  0.25195831797E+04  0.27257072428E+04  0.10100000352E+00 0. -1.
</event>
<event>
 5   0  0.4557237E-07  0.3385230E+04  0.7818609E-02  0.8141541E-01
       -1   -1    0    0    0  501  0.00000000000E+00  0.00000000000E+00  0.17259422182E+04  0.17259422182E+04  0.50400001928E-02 0.  1.
        1   -1    0    0  501    0  0.00000000000E+00  0.00000000000E+00 -0.16599313276E+04  0.16599313276E+04  0.50400001928E-02 0. -1.
    10030    2    1    2    0    0  0.00000000000E+00  0.00000000000E+00  0.66010890610E+02  0.33858735458E+04  0.33852300115E+04 0.  0.
        2    1    3    3  502    0 -0.66724351436E+03  0.29939908957E+02  0.15885616107E+04  0.17232638499E+04  0.25500000920E-02 0.  1.
       -2    1    3    3    0  502  0.66724351436E+03 -0.29939908957E+02 -0.15225507201E+04  0.16626096959E+04  0.25500000920E-02 0. -1.
</event>
<event>
 5   0  0.4557237E-07  0.2660655E+04  0.7818609E-02  0.8347885E-01
       -1   -1    0    0    0  501  0.00000000000E+00  0.00000000000E+00  0.92902276692E+03  0.92902276694E+03  0.50400001928E-02 0. -1.
        1   -1    0    0  501    0  0.00000000000E+00  0.00000000000E+00 -0.19049810234E+04  0.19049810234E+04  0.50400001928E-02 0.  1.
    10030    2    1    2    0    0  0.00000000000E+00  0.00000000000E+00 -0.97595825648E+03  0.28340037903E+04  0.26606546122E+04 0.  0.
        2    1    3    3  502    0 -0.40268865887E+03 -0.11812293028E+04  0.28124123559E+01  0.12479858699E+04  0.25500000920E-02 0. -1.
       -2    1    3    3    0  502  0.40268865887E+03  0.11812293028E+04 -0.97877066883E+03  0.15860179204E+04  0.25500000920E-02 0.  1.
</event>
<event>
 5   0  0.4409125E-07  0.3416585E+04  0.7818609E-02  0.8133848E-01
       -1   -1    0    0    0  501  0.00000000000E+00  0.00000000000E+00  0.12643182023E+04  0.12643182023E+04  0.50400001928E-02 0. -1.
        1   -1    0    0  501    0  0.00000000000E+00  0.00000000000E+00 -0.23081719293E+04  0.23081719293E+04  0.50400001928E-02 0.  1.
    10030    2    1    2    0    0  0.00000000000E+00  0.00000000000E+00 -0.10438537270E+04  0.35724901316E+04  0.34165853036E+04 0.  0.
        5    1    3    3  502    0 -0.83658401179E+03  0.23878259645E+01 -0.20793086590E+04  0.22412998684E+04  0.46999998093E+01 0.  1.
       -5    1    3    3    0  502  0.83658401179E+03 -0.23878259645E+01  0.10354549321E+04  0.13311902632E+04  0.46999998093E+01 0. -1.
</event>
<event>
 5   0  0.1442864E-06  0.3504735E+04  0.7818609E-02  0.8112669E-01
        2   -1    0    0  501    0  0.00000000000E+00  0.00000000000E+00  0.13579859097E+04  0.13579859097E+04  0.25500000920E-02 0.  1.
       -2   -1    0    0    0  501  0.00000000000E+00  0.00000000000E+00 -0.22612839815E+04  0.22612839815E+04  0.25500000920E-02 0. -1.
    10030    2    1    2    0    0  0.00000000000E+00  0.00000000000E+00 -0.90329807178E+03  0.36192698912E+04  0.35047349599E+04 0.  0.
        1    1    3    3  502    0  0.11195626143E+04 -0.24214713603E+03  0.91786386756E+03  0.14678316532E+04  0.50400001928E-02 0.  1.
       -1    1    3    3    0  502 -0.11195626143E+04  0.24214713603E+03 -0.18211619393E+04  0.21514382380E+04  0.50400001928E-02 0. -1.
</event>
<event>
 5   0  0.4591195E-07  0.3516413E+04  0.7818609E-02  0.8109911E-01
        1   -1    0    0  501    0  0.00000000000E+00  0.00000000000E+00  0.25061530560E+04  0.25061530560E+04  0.50400001928E-02 0. -1.
       -1   -1    0    0    0  501  0.00000000000E+00  0.00000000000E+00 -0.12334801892E+04  0.12334801892E+04  0.50400001928E-02 0.  1.
    10030    2    1    2    0    0  0.00000000000E+00  0.00000000000E+00  0.12726728668E+04  0.37396332452E+04  0.35164130278E+04 0.  0.
        4    1    3    3  502    0  0.67324336161E+03  0.11959677521E+04 -0.53237532682E+03  0.14720803611E+04  0.12699999809E+01 0.  1.
       -4    1    3    3    0  502 -0.67324336161E+03 -0.11959677521E+04  0.18050481936E+04  0.22675528841E+04  0.12699999809E+01 0. -1.
</event>
<event>
 5   0  0.4693374E-07  0.3476771E+04  0.7818609E-02  0.8119317E-01
        1   -1    0    0  501    0  0.00000000000E+00  0.00000000000E+00  0.14154632607E+04  0.14154632607E+04  0.50400001928E-02 0.  1.
       -1   -1    0    0    0  501  0.00000000000E+00  0.00000000000E+00 -0.21349784909E+04  0.21349784910E+04  0.50400001928E-02 0. -1.
    10030    2    1    2    0    0  0.00000000000E+00  0.00000000000E+00 -0.71951523029E+03  0.35504417516E+04  0.34767706949E+04 0.  0.
        1    1    3    3  502    0  0.18942561172E+03  0.13899983501E+04 -0.14081597923E+04  0.19876849540E+04  0.50400001928E-02 0. -1.
       -1    1    3    3    0  502 -0.18942561172E+03 -0.13899983501E+04  0.68864456203E+03  0.15627567976E+04  0.50400001928E-02 0.  1.
</event>
<event>
 5   0  0.1387133E-06  0.2507678E+04  0.7818609E-02  0.8400255E-01
        2   -1    0    0  501    0  0.00000000000E+00  0.00000000000E+00  0.24020161764E+04  0.24020161765E+04  0.25500000920E-02 0. -1.
       -2   -1    0    0    0  501  0.00000000000E+00  0.00000000000E+00 -0.65449715970E+03  0.65449715970E+03  0.25500000920E-02 0.  1.
    10030    2    1    2    0    0  0.00000000000E+00  0.00000000000E+00  0.17475190168E+04  0.30565133362E+04  0.25076784204E+04 0.  0.
        4    1    3    3  502    0 -0.97789852579E+03  0.22707205151E+03 -0.41818998005E+02  0.10047873829E+04  0.12699999809E+01 0.  1.
       -4    1    3    3    0  502  0.97789852579E+03 -0.22707205151E+03  0.17893380148E+04  0.20517259533E+04  0.12699999809E+01 0. -1.
</event>
<event>
 5   0  0.4409125E-07  0.2508767E+04  0.7818609E-02  0.8399869E-01
       -1   -1    0    0    0  501  0.00000000000E+00  0.00000000000E+00  0.53991541217E+03  0.53991541220E+03  0.50400001928E-02 0. -1.
        1   -1    0    0  501    0  0.00000000000E+00  0.00000000000E+00 -0.29143048691E+04  0.29143048691E+04  0.50400001928E-02 0.  1.
    10030    2    1    2    0    0  0.00000000000E+00  0.00000000000E+00 -0.23743894569E+04  0.34542202813E+04  0.25087671192E+04 0.  0.
        5    1    3    3  502    0  0.11194284353E+03  0.17149098645E+03  0.51672998756E+03  0.55585279409E+03  0.46999998093E+01 0. -1.
       -5    1    3    3    0  502 -0.11194284353E+03 -0.17149098645E+03 -0.28911194445E+04  0.28983674872E+04  0.46999998093E+01 0.  1.
</event>
<event>
 5   0  0.4409125E-07  0.3408462E+04  0.7818609E-02  0.8135833E-01
       -3   -1    0    0    0  501  0.00000000000E+00  0.00000000000E+00  0.19082878071E+04  0.19082878098E+04  0.10100000352E+00 0.  1.
        3   -1    0    0  501    0  0.00000000000E+00  0.00000000000E+00 -0.15219941266E+04  0.15219941299E+04  0.10100000352E+00 0. -1.
    10030    2    1    2    0    0  0.00000000000E+00  0.00000000000E+00  0.38629368055E+03  0.34302819398E+04  0.34084617320E+04 0.  0.
        2    1    3    3  502    0 -0.47501310587E+02  0.44184248633E+03 -0.14626583523E+04  0.15286760981E+04  0.25500000920E-02 0. -1.
       -2    1    3    3    0  502  0.47501310587E+02 -0.44184248633E+03  0.18489520329E+04  0.19016058417E+04  0.25500000920E-02 0.  1.
</event>
<event>
 5   0  0.4591195E-07  0.3523736E+04  0.7818609E-02  0.8108188E-01
        1   -1    0    0  501    0  0.00000000000E+00  0.00000000000E+00  0.23848982856E+04  0.23848982856E+04  0.50400001928E-02 0. -1.
       -1   -1    0    0    0  501  0.00000000000E+00  0.00000000000E+00 -0.13015979159E+04  0.13015979159E+04  0.50400001928E-02 0.  1.
    10030    2    1    2    0    0  0.00000000000E+00  0.00000000000E+00  0.10833003697E+04  0.36864962015E+04  0.35237358801E+04 0.  0.
        4    1    3    3  502    0 -0.12237999099E+03  0.99570924938E+03 -0.97361511889E+03  0.13979777481E+04  0.12699999809E+01 0. -1.
       -4    1    3    3    0  502  0.12237999099E+03 -0.99570924938E+03  0.20569154886E+04  0.22885184534E+04  0.12699999809E+01 0.  1.
</event>
<event>
 5   0  0.1442864E-06  0.3613793E+04  0.7818609E-02  0.8087339E-01
       -2   -1    0    0    0  501  0.00000000000E+00  0.00000000000E+00  0.13491658748E+04  0.13491658748E+04  0.25500000920E-02 0.  1.
        2   -1    0    0  501    0  0.00000000000E+00  0.00000000000E+00 -0.24199216384E+04  0.24199216384E+04  0.25500000920E-02 0. -1.
    10030    2    1    2    0    0  0.00000000000E+00  0.00000000000E+00 -0.10707557636E+04  0.37690875132E+04  0.36137934054E+04 0.  0.
        1    1    3    3  502    0 -0.33281600689E+03  0.14711494535E+04 -0.15730326216E+04  0.21793299056E+04  0.50400001928E-02 0. -1.
       -1    1    3    3    0  502  0.33281600689E+03 -0.14711494535E+04  0.50227685794E+03  0.15897576076E+04  0.50400001928E-02 0.  1.
</event>
<event>
 5   0  0.4591195E-07  0.3495550E+04  0.7818609E-02  0.8114845E-01
        1   -1    0    0  501    0  0.00000000000E+00  0.00000000000E+00  0.16510369491E+04  0.16510369491E+04  0.50400001928E-02 0.  1.
       -1   -1    0    0    0  501  0.00000000000E+00  0.00000000000E+00 -0.18501813600E+04  0.18501813600E+04  0.50400001928E-02 0. -1.
    10030    2    1    2    0    0  0.00000000000E+00  0.00000000000E+00 -0.19914441090E+03  0.35012183092E+04  0.34955501931E+04 0.  0.
        4    1    3    3  502    0 -0.15924031660E+04  0.72028461666E+03 -0.11217843895E+03  0.17513261796E+04  0.12699999809E+01 0.  1.
       -4    1    3    3    0  502  0.15924031660E+04 -0.72028461666E+03 -0.86965971952E+02  0.17498921296E+04  0.12699999809E+01 0. -1.
</event>
<event>
 5   0  0.1442864E-06  0.3433898E+04  0.7818609E-02  0.8129636E-01
        2   -1    0    0  501    0  0.00000000000E+00  0.00000000000E+00  0.18643444765E+04  0.18643444765E+04  0.25500000920E-02 0. -1.
       -2   -1    0    0    0  501  0.00000000000E+00  0.00000000000E+00 -0.15812070753E+04  0.15812070753E+04  0.25500000920E-02 0.  1.
    10030    2    1    2    0    0  0.00000000000E+00  0.00000000000E+00  0.28313740122E+03  0.34455515518E+04  0.34338984709E+04 0.  0.
        1    1    3    3  502    0 -0.65588750229E+03  0.15589921437E+04  0.43798575407E+03  0.17471337787E+04  0.50400001928E-02 0.  1.
       -1    1    3    3    0  502  0.65588750229E+03 -0.15589921437E+04 -0.15484835286E+03  0.16984177732E+04  0.50400001928E-02 0. -1.
</event>
<event>
 5   0  0.1361560E-06  0.3510699E+04  0.7818609E-02  0.8111259E-01
        2   -1    0    0  501    0  0.00000000000E+00  0.00000000000E+00  0.25941932715E+04  0.25941932715E+04  0.25500000920E-02 0. -1.
       -2   -1    0    0    0  501  0.00000000000E+00  0.00000000000E+00 -0.11877495736E+04  0.11877495736E+04  0.25500000920E-02 0.  1.
    10030    2    1    2    0    0  0.00000000000E+00  0.00000000000E+00  0.14064436979E+04  0.37819428450E+04  0.35106990483E+04 0.  0.
        3    1    3    3  502    0  0.12296076350E+04 -0.12524918588E+04  0.67725224850E+03  0.18813137459E+04  0.10100000352E+00 0. -1.
       -3    1    3    3    0  502 -0.12296076350E+04  0.12524918588E+04  0.72919144940E+03  0.19006290991E+04  0.10100000352E+00 0.  1.
</event>
<event>
 5   0  0.1361560E-06  0.3524316E+04  0.7818609E-02  0.8108051E-01
        2   -1    0    0  501    0  0.00000000000E+00  0.00000000000E+00  0.26179811721E+04  0.26179811721E+04  0.25500000920E-02 0. -1.
       -2   -1    0    0    0  501  0.00000000000E+00  0.00000000000E+00 -0.11861052344E+04  0.11861052344E+04  0.25500000920E-02 0.  1.
    10030    2    1    2    0    0  0.00000000000E+00  0.00000000000E+00  0.14318759377E+04  0.38040864066E+04  0.35243162014E+04 0.  0.
        3    1    3    3  502    0 -0.17273416891E+04 -0.34760355338E+03  0.74374377129E+03  0.19125094375E+04  0.10100000352E+00 0.  1.
       -3    1    3    3    0  502  0.17273416891E+04  0.34760355338E+03  0.68813216641E+03  0.18915769690E+04  0.10100000352E+00 0. -1.
</event>
<event>
 5   0  0.4693374E-07  0.3386841E+04  0.7818609E-02  0.8141143E-01
       -1   -1    0    0    0  501  0.00000000000E+00  0.00000000000E+00  0.16251687285E+04  0.16251687285E+04  0.50400001928E-02 0.  1.
        1   -1    0    0  501    0  0.00000000000E+00  0.00000000000E+00 -0.17645390839E+04  0.17645390839E+04  0.50400001928E-02 0. -1.
    10030    2    1    2    0    0  0.00000000000E+00  0.00000000000E+00 -0.13937035542E+03  0.33897078124E+04  0.33868414426E+04 0.  0.
        1    1    3    3  502    0  0.27533965954E+03  0.14851541840E+02 -0.17419197653E+04  0.17636090738E+04  0.50400001928E-02 0. -1.
       -1    1    3    3    0  502 -0.27533965954E+03 -0.14851541840E+02  0.16025494099E+04  0.16260987386E+04  0.50400001928E-02 0.  1.
</event>
<event>
 5   0  0.4409125E-07  0.3418195E+04  0.7818609E-02  0.8133455E-01
       -1   -1    0    0    0  501  0.00000000000E+00  0.00000000000E+00  0.12177784161E+04  0.12177784161E+04  0.50400001928E-02 0. -1.
        1   -1    0    0  501    0  0.00000000000E+00  0.00000000000E+00 -0.23986417700E+04  0.23986417700E+04  0.50400001928E-02 0.  1.
    10030    2    1    2    0    0  0.00000000000E+00  0.00000000000E+00 -0.11808633539E+04  0.36164201861E+04  0.34181949479E+04 0.  0.
        5    1    3    3  502    0  0.66546567520E+03  0.98201416940E+03  0.71128266320E+03  0.13831635878E+04  0.46999998093E+01 0. -1.
       -5    1    3    3    0  502 -0.66546567520E+03 -0.98201416940E+03 -0.18921460171E+04  0.22332565983E+04  0.46999998093E+01 0.  1.
</event>
<event>
 5   0  0.1361560E-06  0.3416026E+04  0.7818609E-02  0.8133984E-01
        2   -1    0    0  501    0  0.00000000000E+00  0.00000000000E+00  0.24262706078E+04  0.24262706078E+04  0.25500000920E-02 0. -1.
       -2   -1    0    0    0  501  0.00000000000E+00  0.00000000000E+00 -0.12023835935E+04  0.12023835935E+04  0.25500000920E-02 0.  1.
    10030    2    1    2    0    0  0.00000000000E+00  0.00000000000E+00  0.12238870143E+04  0.36286542014E+04  0.34160257448E+04 0.  0.
        3    1    3    3  502    0 -0.12684475586E+04  0.37591600867E+02  0.18263149516E+04  0.22239151625E+04  0.10100000352E+00 0. -1.
       -3    1    3    3    0  502  0.12684475586E+04 -0.37591600867E+02 -0.60242793730E+03  0.14047390389E+04  0.10100000352E+00 0.  1.
</event>
<event>
 5   0  0.4409125E-07  0.3400866E+04  0.7818609E-02  0.8137694E-01
       -1   -1    0    0    0  501  0.00000000000E+00  0.00000000000E+00  0.16454332163E+04  0.16454332164E+04  0.50400001928E-02 0. -1.
        1   -1    0    0  501    0  0.00000000000E+00  0.00000000000E+00 -0.17572714595E+04  0.17572714596E+04  0.50400001928E-02 0.  1.
    10030    2    1    2    0    0  0.00000000000E+00  0.00000000000E+00 -0.11183824320E+03  0.34027046759E+04  0.34008662601E+04 0.  0.
        5    1    3    3  502    0  0.61245028299E+03  0.15651054797E+04  0.20267799442E+03  0.16928529088E+04  0.46999998093E+01 0. -1.
       -5    1    3    3    0  502 -0.61245028299E+03 -0.15651054797E+04 -0.31451623762E+03  0.17098517671E+04  0.46999998093E+01 0.  1.
</event>
<event>
 5   0  0.1378620E-06  0.3662637E+04  0.7818609E-02  0.8076293E-01
        2   -1    0    0  501    0  0.00000000000E+00  0.00000000000E+00  0.17520569318E+04  0.17520569318E+04  0.25500000920E-02 0. -1.
       -2   -1    0    0    0  501  0.00000000000E+00  0.00000000000E+00 -0.19141661254E+04  0.19141661254E+04  0.25500000920E-02 0.  1.
    10030    2    1    2    0    0  0.00000000000E+00  0.00000000000E+00 -0.16210919358E+03  0.36662230572E+04  0.36626373168E+04 0.  0.
        2    1    3    3  502    0 -0.13105581867E+04 -0.10223839648E+04 -0.85050494845E+03  0.18671342746E+04  0.25500000920E-02 0. -1.
       -2    1    3    3    0  502  0.13105581867E+04  0.10223839648E+04  0.68839575486E+03  0.17990887826E+04  0.25500000920E-02 0.  1.
</event>
<event>
 5   0  0.4700769E-07  0.3550007E+04  0.7818609E-02  0.8102040E-01
       -1   -1    0    0    0  501  0.00000000000E+00  0.00000000000E+00  0.32558202742E+04  0.32558202742E+04  0.50400001928E-02 0.  1.
        1   -1    0    0  501    0  0.00000000000E+00  0.00000000000E+00 -0.96769411125E+03  0.96769411126E+03  0.50400001928E-02 0. -1.
    10030    2    1    2    0    0  0.00000000000E+00  0.00000000000E+00  0.22881261629E+04  0.42235143854E+04  0.35500073840E+04 0.  0.
        3    1    3    3  502    0  0.53661825179E+03  0.13068884137E+04 -0.13438580853E+03  0.14191462327E+04  0.10100000352E+00 0. -1.
       -3    1    3    3    0  502 -0.53661825179E+03 -0.13068884137E+04  0.24225119715E+04  0.28043681527E+04  0.10100000352E+00 0.  1.
</event>
<event>
 5   0  0.4700769E-07  0.3536606E+04  0.7818609E-02  0.8105169E-01
       -1   -1    0    0    0  501  0.00000000000E+00  0.00000000000E+00  0.10423459008E+04  0.10423459008E+04  0.50400001928E-02 0. -1.
        1   -1    0    0  501    0  0.00000000000E+00  0.00000000000E+00 -0.29998629142E+04  0.29998629142E+04  0.50400001928E-02 0.  1.
    10030    2    1    2    0    0  0.00000000000E+00  0.00000000000E+00 -0.19575170134E+04  0.40422088150E+04  0.35366056108E+04 0.  0.
        3    1    3    3  502    0 -0.45878843522E+03 -0.12695153664E+04  0.32679262814E+03  0.13888662735E+04  0.10100000352E+00 0. -1.
       -3    1    3    3    0  502  0.45878843522E+03  0.12695153664E+04 -0.22843096415E+04  0.26533425415E+04  0.10100000352E+00 0.  1.
</event>
<event>
 5   0  0.4591195E-07  0.2629528E+04  0.7818609E-02  0.8358240E-01
       -1   -1    0    0    0  501  0.00000000000E+00  0.00000000000E+00  0.10984313143E+04  0.10984313144E+04  0.50400001928E-02 0. -1.
        1   -1    0    0  501    0  0.00000000000E+00  0.00000000000E+00 -0.15737028246E+04  0.15737028246E+04  0.50400001928E-02 0.  1.
    10030    2    1    2    0    0  0.00000000000E+00  0.00000000000E+00 -0.47527151028E+03  0.26721341390E+04  0.26295280657E+04 0.  0.
        4    1    3    3  502    0  0.74313166371E+03  0.59330130690E+02 -0.13381596607E+04  0.15318086122E+04  0.12699999809E+01 0.  1.
       -4    1    3    3    0  502 -0.74313166371E+03 -0.59330130690E+02  0.86288815041E+03  0.11403255268E+04  0.12699999809E+01 0. -1.
</event>
<event>
 5   0  0.1387133E-06  0.3178784E+04  0.7818609E-02  0.8194443E-01
        2   -1    0    0  501    0  0.00000000000E+00  0.00000000000E+00  0.21644194496E+04  0.21644194496E+04  0.25500000920E-02 0. -1.
       -2   -1    0    0    0  501  0.00000000000E+00  0.00000000000E+00 -0.11671337145E+04  0.11671337145E+04  0.25500000920E-02 0.  1.
    10030    2    1    2    0    0  0.00000000000E+00  0.00000000000E+00  0.99728573510E+03  0.33315531641E+04  0.31787839889E+04 0.  0.
        4    1    3    3  502    0 -0.10065034465E+04 -0.71184509537E+03 -0.55276074276E+03  0.13510435519E+04  0.12699999809E+01 0. -1.
       -4    1    3    3    0  502  0.10065034465E+04  0.71184509537E+03  0.15500464779E+04  0.19805096122E+04  0.12699999809E+01 0.  1.
</event>
<event>
 5   0  0.4700769E-07  0.3494592E+04  0.7818609E-02  0.8115073E-01
       -1   -1    0    0    0  501  0.00000000000E+00  0.00000000000E+00  0.28997084185E+04  0.28997084185E+04  0.50400001928E-02 0. -1.
        1   -1    0    0  501    0  0.00000000000E+00  0.00000000000E+00 -0.10528793418E+04  0.10528793418E+04  0.50400001928E-02 0.  1.
    10030    2    1    2    0    0  0.00000000000E+00  0.00000000000E+00  0.18468290768E+04  0.39525877603E+04  0.34945918737E+04 0.  0.
        3    1    3    3  502    0  0.15161291726E+04 -0.18023028496E+03 -0.37594178043E+02  0.15272668254E+04  0.10100000352E+00 0.  1.
       -3    1    3    3    0  502 -0.15161291726E+04  0.18023028496E+03  0.18844232548E+04  0.24253209349E+04  0.10100000352E+00 0. -1.
</event>
<event>
 5   0  0.4409125E-07  0.3487235E+04  0.7818609E-02  0.8116822E-01
        1   -1    0    0  501    0  0.00000000000E+00  0.00000000000E+00  0.26429547289E+04  0.26429547289E+04  0.50400001928E-02 0.  1.
       -1   -1    0    0    0  501  0.00000000000E+00  0.00000000000E+00 -0.11503043170E+04  0.11503043170E+04  0.50400001928E-02 0. -1.
    10030    2    1    2    0    0  0.00000000000E+00  0.00000000000E+00  0.14926504119E+04  0.37932590458E+04  0.34872351422E+04 0.  0.
        5    1    3    3  502    0 -0.10051393659E+04  0.12143617708E+04  0.15568311227E+04  0.22155642373E+04  0.46999998093E+01 0.  1.
       -5    1    3    3    0  502  0.10051393659E+04 -0.12143617708E+04 -0.64180710799E+02  0.15776948085E+04  0.46999998093E+01 0. -1.
</event>
<event>
 5   0  0.4591195E-07  0.3562729E+04  0.7818609E-02  0.8099083E-01
        1   -1    0    0  501    0  0.00000000000E+00  0.00000000000E+00  0.20926572640E+04  0.20926572640E+04  0.50400001928E-02 0.  1.
       -1   -1    0    0    0  501  0.00000000000E+00  0.00000000000E+00 -0.15163777816E+04  0.15163777816E+04  0.50400001928E-02 0. -1.
    10030    2    1    2    0    0  0.00000000000E+00  0.00000000000E+00  0.57627948243E+03  0.36090350456E+04  0.35627287180E+04 0.  0.
        4    1    3    3  502    0  0.11247661163E+04  0.50275293545E+02 -0.11102484346E+04  0.15812272516E+04  0.12699999809E+01 0. -1.
       -4    1    3    3    0  502 -0.11247661163E+04 -0.50275293545E+02  0.16865279170E+04  0.20278077940E+04  0.12699999809E+01 0.  1.
</event>
<event>
 5   0  0.1378620E-06  0.3483370E+04  0.7818609E-02  0.8117742E-01
       -2   -1    0    0    0  501  0.00000000000E+00  0.00000000000E+00  0.13770610096E+04  0.13770610096E+04  0.25500000920E-02 0. -1.
        2   -1    0    0  501    0  0.00000000000E+00  0.00000000000E+00 -0.22028562557E+04  0.22028562557E+04  0.25500000920E-02 0.  1.
    10030    2    1    2    0    0  0.00000000000E+00  0.00000000000E+00 -0.82579524612E+03  0.35799172653E+04  0.34833704710E+04 0.  0.
        2    1    3    3  502    0  0.60389062883E+03 -0.80107473783E+03  0.10503132821E+04  0.14524333437E+04  0.25500000920E-02 0. -1.
       -2    1    3    3    0  502 -0.60389062883E+03  0.80107473783E+03 -0.18761085282E+04  0.21274839217E+04  0.25500000920E-02 0.  1.
</event>
<event>
 5   0  0.1387133E-06  0.3398553E+04  0.7818609E-02  0.8138262E-01
        2   -1    0    0  501    0  0.00000000000E+00  0.00000000000E+00  0.18070866208E+04  0.18070866208E+04  0.25500000920E-02 0. -1.
       -2   -1    0    0    0  501  0.00000000000E+00  0.00000000000E+00 -0.15978981080E+04  0.15978981080E+04  0.25500000920E-02 0.  1.
    10030    2    1    2    0    0  0.00000000000E+00  0.00000000000E+00  0.20918851274E+03  0.34049847288E+04  0.33985528052E+04 0.  0.
        4    1    3    3  502    0 -0.14072474381E+04  0.81618973549E+03 -0.38728054402E+03  0.16722735628E+04  0.12699999809E+01 0.  1.
       -4    1    3    3    0  502  0.14072474381E+04 -0.81618973549E+03  0.59646905676E+03  0.17327111660E+04  0.12699999809E+01 0. -1.
</event>
<event>
 5   0  0.1387133E-06  0.3382800E+04  0.7818609E-02  0.8142141E-01
        2   -1    0    0  501    0  0.00000000000E+00  0.00000000000E+00  0.23818163854E+04  0.23818163854E+04  0.25500000920E-02 0.  1.
       -2   -1    0    0    0  501  0.00000000000E+00  0.00000000000E+00 -0.12011147404E+04  0.12011147404E+04  0.25500000920E-02 0. -1.
    10030    2    1    2    0    0  0.00000000000E+00  0.00000000000E+00  0.11807016450E+04  0.35829311258E+04  0.33828004786E+04 0.  0.
        4    1    3    3  502    0 -0.58605569668E+03 -0.14666336522E+04 -0.50732801801E+02  0.15802059927E+04  0.12699999809E+01 0. -1.
       -4    1    3    3    0  502  0.58605569668E+03  0.14666336522E+04  0.12314344468E+04  0.20027251331E+04  0.12699999809E+01 0.  1.
</event>
<event>
 5   0  0.4591195E-07  0.3491898E+04  0.7818609E-02  0.8115713E-01
        1   -1    0    0  501    0  0.00000000000E+00  0.00000000000E+00  0.19312418357E+04  0.19312418357E+04  0.50400001928E-02 0.  1.
       -1   -1    0    0    0  501  0.00000000000E+00  0.00000000000E+00 -0.15784336329E+04  0.15784336329E+04  0.50400001928E-02 0. -1.
    10030    2    1    2    0    0  0.00000000000E+00  0.00000000000E+00  0.35280820279E+03  0.35096754687E+04  0.34918975167E+04 0.  0.
        4    1    3    3  502    0 -0.96505023700E+03  0.85321758359E+03 -0.10081687955E+04  0.16357591932E+04  0.12699999809E+01 0. -1.
       -4    1    3    3    0  502  0.96505023700E+03 -0.85321758359E+03  0.13609769983E+04  0.18739162755E+04  0.12699999809E+01 0.  1.
</event>
<event>
 5   0  0.1378620E-06  0.3526578E+04  0.7818609E-02  0.8107520E-01
       -2   -1    0    0    0  501  0.00000000000E+00  0.00000000000E+00  0.23153575587E+04  0.23153575587E+04  0.25500000920E-02 0.  1.
        2   -1    0    0  501    0  0.00000000000E+00  0.00000000000E+00 -0.13428546506E+04  0.13428546506E+04  0.25500000920E-02 0. -1.
    10030    2    1    2    0    0  0.00000000000E+00  0.00000000000E+00  0.97250290811E+03  0.36582122094E+04  0.35265783222E+04 0.  0.
        2    1    3    3  502    0  0.77358567080E+03 -0.14322550523E+04 -0.21683793736E+03  0.16421960955E+04  0.25500000920E-02 0. -1.
       -2    1    3    3    0  502 -0.77358567080E+03  0.14322550523E+04  0.11893408455E+04  0.20160161139E+04  0.25500000920E-02 0.  1.
</event>
<event>
 5   0  0.1387133E-06  0.3348867E+04  0.7818609E-02  0.8150571E-01
        2   -1    0    0  501    0  0.00000000000E+00  0.00000000000E+00  0.21072867869E+04  0.21072867869E+04  0.25500000920E-02 0. -1.
       -2   -1    0    0    0  501  0.00000000000E+00  0.00000000000E+00 -0.13304919070E+04  0.13304919070E+04  0.25500000920E-02 0.  1.
    10030    2    1    2    0    0  0.00000000000E+00  0.00000000000E+00  0.77679487991E+03  0.34377786939E+04  0.33488672805E+04 0.  0.
        4    1    3    3  502    0 -0.15252734314E+04 -0.31330457432E+03 -0.24366681181E+03  0.15760691371E+04  0.12699999809E+01 0. -1.
       -4    1    3    3    0  502  0.15252734314E+04  0.31330457432E+03  0.10204616917E+04  0.18617095568E+04  0.12699999809E+01 0.  1.
</event>
<event>
 5   0  0.1348388E-06  0.3100823E+04  0.7818609E-02  0.8215512E-01
        2   -1    0    0  501    0  0.00000000000E+00  0.00000000000E+00  0.11981494823E+04  0.11981494823E+04  0.25500000920E-02 0. -1.
       -2   -1    0    0    0  501  0.00000000000E+00  0.00000000000E+00 -0.20062403442E+04  0.20062403442E+04  0.25500000920E-02 0.  1.
    10030    2    1    2    0    0  0.00000000000E+00  0.00000000000E+00 -0.80809086192E+03  0.32043898264E+04  0.31008230067E+04 0.  0.
        5    1    3    3  502    0  0.99798102265E+03  0.85451055057E+03 -0.12547031609E+04  0.18167158596E+04  0.46999998093E+01 0.  1.
       -5    1    3    3    0  502 -0.99798102265E+03 -0.85451055057E+03  0.44661229897E+03  0.13876739668E+04  0.46999998093E+01 0. -1.
</event>
<event>
 5   0  0.4557237E-07  0.3474398E+04  0.7818609E-02  0.8119884E-01
        1   -1    0    0  501    0  0.00000000000E+00  0.00000000000E+00  0.15967059493E+04  0.15967059493E+04  0.50400001928E-02 0.  1.
       -1   -1    0    0    0  501  0.00000000000E+00  0.00000000000E+00 -0.18900544480E+04  0.18900544480E+04  0.50400001928E-02 0. -1.
    10030    2    1    2    0    0  0.00000000000E+00  0.00000000000E+00 -0.29334849876E+03  0.34867603973E+04  0.34743984697E+04 0.  0.
        2    1    3    3  502    0 -0.13025449775E+03 -0.13755069794E+04 -0.12034525157E+04  0.18322891808E+04  0.25500000920E-02 0. -1.
       -2    1    3    3    0  502  0.13025449775E+03  0.13755069794E+04  0.91010401694E+03  0.16544712165E+04  0.25500000920E-02 0.  1.
</event>
<event>
 5   0  0.1348388E-06  0.3475427E+04  0.7818609E-02  0.8119638E-01
       -2   -1    0    0    0  501  0.00000000000E+00  0.00000000000E+00  0.12835977927E+04  0.12835977927E+04  0.25500000920E-02 0. -1.
        2   -1    0    0  501    0  0.00000000000E+00  0.00000000000E+00 -0.23524877981E+04  0.23524877981E+04  0.25500000920E-02 0.  1.
    10030    2    1    2    0    0  0.00000000000E+00  0.00000000000E+00 -0.10688900055E+04  0.36360855908E+04  0.34754269637E+04 0.  0.
        5    1    3    3  502    0  0.12753283901E+03  0.26228111452E+03 -0.23266932801E+04  0.23449050552E+04  0.46999998093E+01 0.  1.
       -5    1    3    3    0  502 -0.12753283901E+03 -0.26228111452E+03  0.12578032746E+04  0.12911805357E+04  0.46999998093E+01 0. -1.
</event>
<event>
 5   0  0.4409125E-07  0.3316348E+04  0.7818609E-02  0.8158748E-01
        3   -1    0    0  501    0  0.00000000000E+00  0.00000000000E+00  0.20762915944E+04  0.20762915969E+04  0.10100000352E+00 0. -1.
       -3   -1    0    0    0  501  0.00000000000E+00  0.00000000000E+00 -0.13242559946E+04  0.13242559985E+04  0.10100000352E+00 0.  1.
    10030    2    1    2    0    0  0.00000000000E+00  0.00000000000E+00  0.75203559980E+03  0.34005475954E+04  0.33163483540E+04 0.  0.
        4    1    3    3  502    0 -0.46203009224E+03  0.21291165774E+03 -0.12422583517E+04  0.13423898857E+04  0.12699999809E+01 0.  1.
       -4    1    3    3    0  502  0.46203009224E+03 -0.21291165774E+03  0.19942939515E+04  0.20581577097E+04  0.12699999809E+01 0. -1.
</event>
<event>
 5   0  0.4557237E-07  0.3488592E+04  0.7818609E-02  0.8116499E-01
       -1   -1    0    0    0  501  0.00000000000E+00  0.00000000000E+00  0.12988937572E+04  0.12988937572E+04  0.50400001928E-02 0. -1.
        1   -1    0    0  501    0  0.00000000000E+00  0.00000000000E+00 -0.23424309780E+04  0.23424309780E+04  0.50400001928E-02 0.  1.
    10030    2    1    2    0    0  0.00000000000E+00  0.00000000000E+00 -0.10435372208E+04  0.36413247353E+04  0.34885922514E+04 0.  0.
        2    1    3    3  502    0  0.25614064028E+02 -0.11255379858E+04  0.86888130760E+03  0.14221274783E+04  0.25500000920E-02 0. -1.
       -2    1    3    3    0  502 -0.25614064028E+02  0.11255379858E+04 -0.19124185284E+04  0.22191972570E+04  0.25500000920E-02 0.  1.
</event>
<event>
 5   0  0.1442864E-06  0.3421674E+04  0.7818609E-02  0.8132607E-01
       -2   -1    0    0    0  501  0.00000000000E+00  0.00000000000E+00  0.11857503916E+04  0.11857503916E+04  0.25500000920E-02 0. -1.
        2   -1    0    0  501    0  0.00000000000E+00  0.00000000000E+00 -0.24684474737E+04  0.24684474737E+04  0.25500000920E-02 0.  1.
    10030    2    1    2    0    0  0.00000000000E+00  0.00000000000E+00 -0.12826970821E+04  0.36541978653E+04  0.34216736014E+04 0.  0.
        1    1    3    3  502    0 -0.11551573193E+04 -0.11899769327E+04 -0.10900541958E+04  0.19846036588E+04  0.50400001928E-02 0.  1.
       -1    1    3    3    0  502  0.11551573193E+04  0.11899769327E+04 -0.19264288626E+03  0.16695942065E+04  0.50400001928E-02 0. -1.
</event>
<event>
 5   0  0.4591195E-07  0.3456263E+04  0.7818609E-02  0.8124234E-01
        1   -1    0    0  501    0  0.00000000000E+00  0.00000000000E+00  0.18320191005E+04  0.18320191005E+04  0.50400001928E-02 0. -1.
       -1   -1    0    0    0  501  0.00000000000E+00  0.00000000000E+00 -0.16301347974E+04  0.16301347974E+04  0.50400001928E-02 0.  1.
    10030    2    1    2    0    0  0.00000000000E+00  0.00000000000E+00  0.20188430308E+03  0.34621538980E+04  0.34562627709E+04 0.  0.
        4    1    3    3  502    0  0.86096300442E+03  0.14931153307E+04  0.22679780572E+03  0.17384158143E+04  0.12699999809E+01 0. -1.
       -4    1    3    3    0  502 -0.86096300442E+03 -0.14931153307E+04 -0.24913502637E+02  0.17237380837E+04  0.12699999809E+01 0.  1.
</event>
<event>
 5   0  0.1361560E-06  0.3218681E+04  0.7818609E-02  0.8183901E-01
       -2   -1    0    0    0  501  0.00000000000E+00  0.00000000000E+00  0.13301339609E+04  0.13301339609E+04  0.25500000920E-02 0. -1.
        2   -1    0    0  501    0  0.00000000000E+00  0.00000000000E+00 -0.19471553835E+04  0.19471553835E+04  0.25500000920E-02 0.  1.
    10030    2    1    2    0    0  0.00000000000E+00  0.00000000000E+00 -0.61702142263E+03  0.32772893444E+04  0.32186814087E+04 0.  0.
        3    1    3    3  502    0  0.80609102636E+03 -0.73602792195E+02 -0.17248010576E+04  0.19052923168E+04  0.10100000352E+00 0.  1.
       -3    1    3    3    0  502 -0.80609102636E+03  0.73602792195E+02  0.11077796350E+04  0.13719970276E+04  0.10100000352E+00 0. -1.
</event>
<event>
 5   0  0.4409125E-07  0.3462669E+04  0.7818609E-02  0.8122694E-01
       -1   -1    0    0    0  501  0.00000000000E+00  0.00000000000E+00  0.16824138334E+04  0.16824138334E+04  0.50400001928E-02 0. -1.
        1   -1    0    0  501    0  0.00000000000E+00  0.00000000000E+00 -0.17816776120E+04  0.17816776120E+04  0.50400001928E-02 0.  1.
    10030    2    1    2    0    0  0.00000000000E+00  0.00000000000E+00 -0.99263778590E+02  0.34640914454E+04  0.34626689481E+04 0.  0.
        5    1    3    3  502    0 -0.64748508081E+03  0.27833003098E+03  0.15324071607E+04  0.16867122849E+04  0.46999998093E+01 0. -1.
       -5    1    3    3    0  502  0.64748508081E+03 -0.27833003098E+03 -0.16316709393E+04  0.17773791605E+04  0.46999998093E+01 0.  1.
</event>
<event>
 5   0  0.4700769E-07  0.3011554E+04  0.7818609E-02  0.8240439E-01
       -1   -1    0    0    0  501  0.00000000000E+00  0.00000000000E+00  0.14232136752E+04  0.14232136752E+04  0.50400001928E-02 0.  1.
        1   -1    0    0  501    0  0.00000000000E+00  0.00000000000E+00 -0.15931296314E+04  0.15931296314E+04  0.50400001928E-02 0. -1.
    10030    2    1    2    0    0  0.00000000000E+00  0.00000000000E+00 -0.16991595618E+03  0.30163433066E+04  0.30115536706E+04 0.  0.
        3    1    3    3  502    0 -0.41786146453E+03  0.12902855948E+04 -0.74015334704E+03  0.15450799679E+04  0.10100000352E+00 0. -1.
       -3    1    3    3    0  502  0.41786146453E+03 -0.12902855948E+04  0.57023739086E+03  0.14712633387E+04  0.10100000352E+00 0.  1.
</event>
<event>
 5   0  0.1378620E-06  0.3520967E+04  0.7818609E-02  0.8108839E-01
        2   -1    0    0  501    0  0.00000000000E+00  0.00000000000E+00  0.10460515592E+04  0.10460515592E+04  0.25500000920E-02 0. -1.
       -2   -1    0    0    0  501  0.00000000000E+00  0.00000000000E+00 -0.29628577448E+04  0.29628577448E+04  0.25500000920E-02 0.  1.
    10030    2    1    2    0    0  0.00000000000E+00  0.00000000000E+00 -0.19168061856E+04  0.40089093041E+04  0.35209668921E+04 0.  0.
        2    1    3    3  502    0 -0.66398237450E+02  0.49900561272E+03  0.96235684045E+03  0.10860690659E+04  0.25500000920E-02 0. -1.
       -2    1    3    3    0  502  0.66398237450E+02 -0.49900561272E+03 -0.28791630261E+04  0.29228402382E+04  0.25500000920E-02 0.  1.
</event>
<event>
 5   0  0.1348388E-06  0.3459531E+04  0.7818609E-02  0.8123448E-01
       -2   -1    0    0    0  501  0.00000000000E+00  0.00000000000E+00  0.14485340956E+04  0.14485340956E+04  0.25500000920E-02 0.  1.
        2   -1    0    0  501    0  0.00000000000E+00  0.00000000000E+00 -0.20655978470E+04  0.20655978470E+04  0.25500000920E-02 0. -1.
    10030    2    1    2    0    0  0.00000000000E+00  0.00000000000E+00 -0.61706375140E+03  0.35141319426E+04  0.34595311296E+04 0.  0.
        5    1    3    3  502    0 -0.14038528082E+04  0.78547451986E+03  0.33734451570E+03  0.16436533518E+04  0.46999998093E+01 0.  1.
       -5    1    3    3    0  502  0.14038528082E+04 -0.78547451986E+03 -0.95440826710E+03  0.18704785908E+04  0.46999998093E+01 0. -1.
</event>
<event>
 5   0  0.4591195E-07  0.3475102E+04  0.7818609E-02  0.8119716E-01
        1   -1    0    0  501    0  0.00000000000E+00  0.00000000000E+00  0.15134493711E+04  0.15134493711E+04  0.50400001928E-02 0. -1.
       -1   -1    0    0    0  501  0.00000000000E+00  0.00000000000E+00 -0.19948356069E+04  0.19948356069E+04  0.50400001928E-02 0.  1.
    10030    2    1    2    0    0  0.00000000000E+00  0.00000000000E+00 -0.48138623585E+03  0.35082849780E+04  0.34751015495E+04 0.  0.
        4    1    3    3  502    0 -0.14457932040E+04 -0.51408863904E+03 -0.10636309001E+04  0.18670611726E+04  0.12699999809E+01 0.  1.
       -4    1    3    3    0  502  0.14457932040E+04  0.51408863904E+03  0.58224466429E+03  0.16412238055E+04  0.12699999809E+01 0. -1.
</event>
<event>
 5   0  0.1387133E-06  0.3155967E+04  0.7818609E-02  0.8200544E-01
       -2   -1    0    0    0  501  0.00000000000E+00  0.00000000000E+00  0.26495310292E+04  0.26495310292E+04  0.25500000920E-02 0. -1.
        2   -1    0    0  501    0  0.00000000000E+00  0.00000000000E+00 -0.93980122954E+03  0.93980122955E+03  0.25500000920E-02 0.  1.
    10030    2    1    2    0    0  0.00000000000E+00  0.00000000000E+00  0.17097297996E+04  0.35893322587E+04  0.31559673756E+04 0.  0.
        4    1    3    3  502    0  0.12388867587E+04 -0.34343607021E+03  0.18955197306E+04  0.22903679611E+04  0.12699999809E+01 0. -1.
       -4    1    3    3    0  502 -0.12388867587E+04  0.34343607021E+03 -0.18578993097E+03  0.12989642976E+04  0.12699999809E+01 0.  1.
</event>
<event>
 5   0  0.4409125E-07  0.3517724E+04  0.7818609E-02  0.8109602E-01
       -1   -1    0    0    0  501  0.00000000000E+00  0.00000000000E+00  0.13524826954E+04  0.13524826954E+04  0.50400001928E-02 0. -1.
        1   -1    0    0  501    0  0.00000000000E+00  0.00000000000E+00 -0.22873454249E+04  0.22873454249E+04  0.50400001928E-02 0.  1.
    10030    2    1    2    0    0  0.00000000000E+00  0.00000000000E+00 -0.93486272955E+03  0.36398281203E+04  0.35177237558E+04 0.  0.
        5    1    3    3  502    0  0.14100535148E+04  0.39389175492E+03 -0.14760340457E+04  0.20789661429E+04  0.46999998093E+01 0. -1.
       -5    1    3    3    0  502 -0.14100535148E+04 -0.39389175492E+03  0.54117131614E+03  0.15608619774E+04  0.46999998093E+01 0.  1.
</event>
<event>
 5   0  0.1378620E-06  0.3472823E+04  0.7818609E-02  0.8120261E-01
       -2   -1    0    0    0  501  0.00000000000E+00  0.00000000000E+00  0.97276738182E+03  0.97276738182E+03  0.25500000920E-02 0.  1.
        2   -1    0    0  501    0  0.00000000000E+00  0.00000000000E+00 -0.30995329566E+04  0.30995329566E+04  0.25500000920E-02 0. -1.
    10030    2    1    2    0    0  0.00000000000E+00  0.00000000000E+00 -0.21267655747E+04  0.40723003384E+04  0.34728228052E+04 0.  0.
        2    1    3    3  502    0 -0.61869002862E+03 -0.16806266496E+03  0.82890063007E+03  0.10479020304E+04  0.25500000920E-02 0.  1.
       -2    1    3    3    0  502  0.61869002862E+03  0.16806266496E+03 -0.29556662048E+04  0.30243983080E+04  0.25500000920E-02 0. -1.
</event>
<event>
 5   0  0.1361560E-06  0.3462242E+04  0.7818609E-02  0.8122797E-01
        2   -1    0    0  501    0  0.00000000000E+00  0.00000000000E+00  0.24702779720E+04  0.24702779720E+04  0.25500000920E-02 0.  1.
       -2   -1    0    0    0  501  0.00000000000E+00  0.00000000000E+00 -0.12131343959E+04  0.12131343959E+04  0.25500000920E-02 0. -1.
    10030    2    1    2    0    0  0.00000000000E+00  0.00000000000E+00  0.12571435760E+04  0.36834123679E+04  0.34622415717E+04 0.  0.
        3    1    3    3  502    0 -0.32562781797E+03  0.80083722249E+03  0.22241821394E+04  0.23862858027E+04  0.10100000352E+00 0.  1.
       -3    1    3    3    0  502  0.32562781797E+03 -0.80083722249E+03 -0.96703856338E+03  0.12971265652E+04  0.10100000352E+00 0. -1.
</event>
<event>
 5   0  0.4557237E-07  0.3516964E+04  0.7818609E-02  0.8109781E-01
       -1   -1    0    0    0  501  0.00000000000E+00  0.00000000000E+00  0.18302031197E+04  0.18302031197E+04  0.50400001928E-02 0.  1.
        1   -1    0    0  501    0  0.00000000000E+00  0.00000000000E+00 -0.16895717786E+04  0.16895717786E+04  0.50400001928E-02 0. -1.
    10030    2    1    2    0    0  0.00000000000E+00  0.00000000000E+00  0.14063134109E+03  0.35197748984E+04  0.35169643389E+04 0.  0.
        2    1    3    3  502    0 -0.14173079911E+03  0.12574932738E+04 -0.11516771272E+04  0.17110631661E+04  0.25500000920E-02 0. -1.
       -2    1    3    3    0  502  0.14173079911E+03 -0.12574932738E+04  0.12923084683E+04  0.18087117322E+04  0.25500000920E-02 0.  1.
</event>
<event>
 5   0  0.4409125E-07  0.3400103E+04  0.7818609E-02  0.8137881E-01
       -1   -1    0    0    0  501  0.00000000000E+00  0.00000000000E+00  0.14853690365E+04  0.14853690365E+04  0.50400001928E-02 0.  1.
        1   -1    0    0  501    0  0.00000000000E+00  0.00000000000E+00 -0.19457625142E+04  0.19457625142E+04  0.50400001928E-02 0. -1.
    10030    2    1    2    0    0  0.00000000000E+00  0.00000000000E+00 -0.46039347769E+03  0.34311315507E+04  0.34001031696E+04 0.  0.
        5    1    3    3  502    0  0.13392255684E+03 -0.43410628169E+03  0.14229747395E+04  0.14937411805E+04  0.46999998093E+01 0.  1.
       -5    1    3    3    0  502 -0.13392255684E+03  0.43410628169E+03 -0.18833682172E+04  0.19373903702E+04  0.46999998093E+01 0. -1.
</event>
<event>
 5   0  0.1361560E-06  0.3469885E+04  0.7818609E-02  0.8120964E-01
        2   -1    0    0  501    0  0.00000000000E+00  0.00000000000E+00  0.17980111864E+04  0.17980111864E+04  0.25500000920E-02 0.  1.
       -2   -1    0    0    0  501  0.00000000000E+00  0.00000000000E+00 -0.16740858809E+04  0.16740858809E+04  0.25500000920E-02 0. -1.
    10030    2    1    2    0    0  0.00000000000E+00  0.00000000000E+00  0.12392530551E+03  0.34720970673E+04  0.34698848055E+04 0.  0.
        3    1    3    3  502    0  0.13018015356E+04  0.46915129002E+03  0.11091646209E+04  0.17734250301E+04  0.10100000352E+00 0.  1.
       -3    1    3    3    0  502 -0.13018015356E+04 -0.46915129002E+03 -0.98523931542E+03  0.16986720372E+04  0.10100000352E+00 0. -1.
</event>
<event>
 5   0  0.1361560E-06  0.3487409E+04  0.7818609E-02  0.8116780E-01
        2   -1    0    0  501    0  0.00000000000E+00  0.00000000000E+00  0.24775939797E+04  0.24775939797E+04  0.25500000920E-02 0.  1.
       -2   -1    0    0    0  501  0.00000000000E+00  0.00000000000E+00 -0.12272010192E+04  0.12272010192E+04  0.25500000920E-02 0. -1.
    10030    2    1    2    0    0  0.00000000000E+00  0.00000000000E+00  0.12503929605E+04  0.37047949988E+04  0.34874092716E+04 0.  0.
        3    1    3    3  502    0 -0.22471152076E+03  0.80557854398E+03  0.22506215733E+04  0.24009892824E+04  0.10100000352E+00 0.  1.
       -3    1    3    3    0  502  0.22471152076E+03 -0.80557854398E+03 -0.10002286128E+04  0.13038057164E+04  0.10100000352E+00 0. -1.
</event>
<event>
 5   0  0.1378620E-06  0.3501354E+04  0.7818609E-02  0.8113469E-01
        2   -1    0    0  501    0  0.00000000000E+00  0.00000000000E+00  0.16866762757E+04  0.16866762757E+04  0.25500000920E-02 0. -1.
       -2   -1    0    0    0  501  0.00000000000E+00  0.00000000000E+00 -0.18171062382E+04  0.18171062382E+04  0.25500000920E-02 0.  1.
    10030    2    1    2    0    0  0.00000000000E+00  0.00000000000E+00 -0.13042996244E+03  0.35037825139E+04  0.35013540137E+04 0.  0.
        2    1    3    3  502    0  0.69391926613E+03  0.77800230865E+03 -0.14726251248E+04  0.18042827657E+04  0.25500000920E-02 0.  1.
       -2    1    3    3    0  502 -0.69391926613E+03 -0.77800230865E+03  0.13421951624E+04  0.16994997482E+04  0.25500000920E-02 0. -1.
</event>
<event>
 5   0  0.4693374E-07  0.2671813E+04  0.7818609E-02  0.8344209E-01
       -1   -1    0    0    0  501  0.00000000000E+00  0.00000000000E+00  0.12144532008E+04  0.12144532009E+04  0.50400001928E-02 0.  1.
        1   -1    0    0  501    0  0.00000000000E+00  0.00000000000E+00 -0.14695062355E+04  0.14695062355E+04  0.50400001928E-02 0. -1.
    10030    2    1    2    0    0  0.00000000000E+00  0.00000000000E+00 -0.25505303469E+03  0.26839594364E+04  0.26718132805E+04 0.  0.
        1    1    3    3  502    0 -0.72045847246E+03  0.82660928153E+03  0.63903046823E+03  0.12691348448E+04  0.50400001928E-02 0.  1.
       -1    1    3    3    0  502  0.72045847246E+03 -0.82660928153E+03 -0.89408350292E+03  0.14148245916E+04  0.50400001928E-02 0. -1.
</event>
<event>
 5   0  0.1387133E-06  0.3224148E+04  0.7818609E-02  0.8182469E-01
        2   -1    0    0  501    0  0.00000000000E+00  0.00000000000E+00  0.15108332644E+04  0.15108332644E+04  0.25500000920E-02 0.  1.
       -2   -1    0    0    0  501  0.00000000000E+00  0.00000000000E+00 -0.17200988527E+04  0.17200988527E+04  0.25500000920E-02 0. -1.
    10030    2    1    2    0    0  0.00000000000E+00  0.00000000000E+00 -0.20926558834E+03  0.32309321171E+04  0.32241479896E+04 0.  0.
        4    1    3    3  502    0 -0.56013710892E+02  0.15181739011E+04 -0.64501826177E+03  0.16504665101E+04  0.12699999809E+01 0.  1.
       -4    1    3    3    0  502  0.56013710892E+02 -0.15181739011E+04  0.43575267343E+03  0.15804656071E+04  0.12699999809E+01 0. -1.
</event>
<event>
 5   0  0.1361560E-06  0.3375939E+04  0.7818609E-02  0.8143837E-01
        2   -1    0    0  501    0  0.00000000000E+00  0.00000000000E+00  0.15995605396E+04  0.15995605396E+04  0.25500000920E-02 0.  1.
       -2   -1    0    0    0  501  0.00000000000E+00  0.00000000000E+00 -0.17812643736E+04  0.17812643736E+04  0.25500000920E-02 0. -1.
    10030    2    1    2    0    0  0.00000000000E+00  0.00000000000E+00 -0.18170383400E+03  0.33808249132E+04  0.33759385081E+04 0.  0.
        3    1    3    3  502    0  0.43523156059E+03 -0.13124726218E+04 -0.10603592108E+04  0.17425190273E+04  0.10100000352E+00 0.  1.
       -3    1    3    3    0  502 -0.43523156059E+03  0.13124726218E+04  0.87865537682E+03  0.16383058859E+04  0.10100000352E+00 0. -1.
</event>
<event>
 5   0  0.4557237E-07  0.3506517E+04  0.7818609E-02  0.8112247E-01
       -1   -1    0    0    0  501  0.00000000000E+00  0.00000000000E+00  0.14391446312E+04  0.14391446312E+04  0.50400001928E-02 0. -1.
        1   -1    0    0  501    0  0.00000000000E+00  0.00000000000E+00 -0.21359328100E+04  0.21359328100E+04  0.50400001928E-02 0.  1.
    10030    2    1    2    0    0  0.00000000000E+00  0.00000000000E+00 -0.69678817884E+03  0.35750774412E+04  0.35065174953E+04 0.  0.
        2    1    3    3  502    0  0.28683664220E+02  0.11329895675E+04 -0.17122439790E+04  0.20533551949E+04  0.25500000920E-02 0.  1.
       -2    1    3    3    0  502 -0.28683664220E+02 -0.11329895675E+04  0.10154558002E+04  0.15217222463E+04  0.25500000920E-02 0. -1.
</event>
<event>
 5   0  0.4693374E-07  0.3135260E+04  0.7818609E-02  0.8206127E-01
       -1   -1    0    0    0  501  0.00000000000E+00  0.00000000000E+00  0.11118491353E+04  0.11118491353E+04  0.50400001928E-02 0. -1.
        1   -1    0    0  501    0  0.00000000000E+00  0.00000000000E+00 -0.22102495944E+04  0.22102495944E+04  0.50400001928E-02 0.  1.
    10030    2    1    2    0    0  0.00000000000E+00  0.00000000000E+00 -0.10984004591E+04  0.33220987297E+04  0.31352601808E+04 0.  0.
        1    1    3    3  502    0  0.86559955417E+03  0.18560530597E+03 -0.19200331535E+04  0.21142940260E+04  0.50400001928E-02 0.  1.
       -1    1    3    3    0  502 -0.86559955417E+03 -0.18560530597E+03  0.82163269442E+03  0.12078047037E+04  0.50400001928E-02 0. -1.
</event>
<event>
 5   0  0.1442864E-06  0.3476022E+04  0.7818609E-02  0.8119496E-01
       -2   -1    0    0    0  501  0.00000000000E+00  0.00000000000E+00  0.15086606490E+04  0.15086606490E+04  0.25500000920E-02 0.  1.
        2   -1    0    0  501    0  0.00000000000E+00  0.00000000000E+00 -0.20022279898E+04  0.20022279898E+04  0.25500000920E-02 0. -1.
    10030    2    1    2    0    0  0.00000000000E+00  0.00000000000E+00 -0.49356734078E+03  0.35108886387E+04  0.34760221970E+04 0.  0.
        1    1    3    3  502    0 -0.11813061706E+04 -0.11229014015E+04  0.36283545938E+03  0.16697429133E+04  0.50400001928E-02 0.  1.
       -1    1    3    3    0  502  0.11813061706E+04  0.11229014015E+04 -0.85640280016E+03  0.18411457254E+04  0.50400001928E-02 0. -1.
</event>
<event>
 5   0  0.4409125E-07  0.3490469E+04  0.7818609E-02  0.8116052E-01
       -1   -1    0    0    0  501  0.00000000000E+00  0.00000000000E+00  0.20390948097E+04  0.20390948097E+04  0.50400001928E-02 0. -1.
        1   -1    0    0  501    0  0.00000000000E+00  0.00000000000E+00 -0.14937234137E+04  0.14937234137E+04  0.50400001928E-02 0.  1.
    10030    2    1    2    0    0  0.00000000000E+00  0.00000000000E+00  0.54537139600E+03  0.35328182233E+04  0.34904691145E+04 0.  0.
        5    1    3    3  502    0 -0.55023193994E+03  0.10482273316E+04 -0.10251692325E+04  0.15660554816E+04  0.46999998093E+01 0.  1.
       -5    1    3    3    0  502  0.55023193994E+03 -0.10482273316E+04  0.15705406285E+04  0.19667627417E+04  0.46999998093E+01 0. -1.
</event>
<event>
 5   0  0.4693374E-07  0.3390252E+04  0.7818609E-02  0.8140303E-01
       -1   -1    0    0    0  501  0.00000000000E+00  0.00000000000E+00  0.11128298228E+04  0.11128298228E+04  0.50400001928E-02 0. -1.
        1   -1    0    0  501    0  0.00000000000E+00  0.00000000000E+00 -0.25821129734E+04  0.25821129734E+04  0.50400001928E-02 0.  1.
    10030    2    1    2    0    0  0.00000000000E+00  0.00000000000E+00 -0.14692831506E+04  0.36949427962E+04  0.33902520984E+04 0.  0.
        1    1    3    3  502    0 -0.15547259171E+04 -0.59976860060E+02 -0.14679261360E+04  0.21390598500E+04  0.50400001928E-02 0.  1.
       -1    1    3    3    0  502  0.15547259171E+04  0.59976860060E+02 -0.13570145877E+01  0.15558829463E+04  0.50400001928E-02 0. -1.
</event>
<event>
 5   0  0.1361560E-06  0.3513528E+04  0.7818609E-02  0.8110591E-01
       -2   -1    0    0    0  501  0.00000000000E+00  0.00000000000E+00  0.21406081632E+04  0.21406081632E+04  0.25500000920E-02 0. -1.
        2   -1    0    0  501    0  0.00000000000E+00  0.00000000000E+00 -0.14417488815E+04  0.14417488815E+04  0.25500000920E-02 0.  1.
    10030    2    1    2    0    0  0.00000000000E+00  0.00000000000E+00  0.69885928169E+03  0.35823570447E+04  0.35135278141E+04 0.  0.
        3    1    3    3  502    0  0.13173261407E+03 -0.22355784359E+03  0.21209614741E+04  0.21367754154E+04  0.10100000352E+00 0. -1.
       -3    1    3    3    0  502 -0.13173261407E+03  0.22355784359E+03 -0.14221021924E+04  0.14455816293E+04  0.10100000352E+00 0.  1.
</event>
<event>
 5   0  0.4693374E-07  0.3501012E+04  0.7818609E-02  0.8113550E-01
        1   -1    0    0  501    0  0.00000000000E+00  0.00000000000E+00  0.18777058721E+04  0.18777058721E+04  0.50400001928E-02 0. -1.
       -1   -1    0    0    0  501  0.00000000000E+00  0.00000000000E+00 -0.16319226972E+04  0.16319226972E+04  0.50400001928E-02 0.  1.
    10030    2    1    2    0    0  0.00000000000E+00  0.00000000000E+00  0.24578317491E+03  0.35096285693E+04  0.35010117574E+04 0.  0.
        1    1    3    3  502    0  0.24032409057E+03  0.14126014876E+04 -0.88510409556E+03  0.16842232308E+04  0.50400001928E-02 0.  1.
       -1    1    3    3    0  502 -0.24032409057E+03 -0.14126014876E+04  0.11308872705E+04  0.18254053385E+04  0.50400001928E-02 0. -1.
</event>
<event>
 5   0  0.4693374E-07  0.3445908E+04  0.7818609E-02  0.8126730E-01
        1   -1    0    0  501    0  0.00000000000E+00  0.00000000000E+00  0.21096685724E+04  0.21096685725E+04  0.50400001928E-02 0.  1.
       -1   -1    0    0    0  501  0.00000000000E+00  0.00000000000E+00 -0.14071267681E+04  0.14071267681E+04  0.50400001928E-02 0. -1.
    10030    2    1    2    0    0  0.00000000000E+00  0.00000000000E+00  0.70254180439E+03  0.35167953405E+04  0.34459083679E+04 0.  0.
        1    1    3    3  502    0  0.28298286986E+03  0.16881482581E+04  0.15063770043E+03  0.17183176548E+04  0.50400001928E-02 0. -1.
       -1    1    3    3    0  502 -0.28298286986E+03 -0.16881482581E+04  0.55190410396E+03  0.17984776857E+04  0.50400001928E-02 0.  1.
</event>
<event>
 5   0  0.4557237E-07  0.3503630E+04  0.7818609E-02  0.8112930E-01
       -1   -1    0    0    0  501  0.00000000000E+00  0.00000000000E+00  0.12751215705E+04  0.12751215705E+04  0.50400001928E-02 0.  1.
        1   -1    0    0  501    0  0.00000000000E+00  0.00000000000E+00 -0.24067162432E+04  0.24067162432E+04  0.50400001928E-02 0. -1.
    10030    2    1    2    0    0  0.00000000000E+00  0.00000000000E+00 -0.11315946727E+04  0.36818378137E+04  0.35036300009E+04 0.  0.
        2    1    3    3  502    0  0.87669855226E+03  0.43297240080E+03 -0.20932741234E+04  0.23103813553E+04  0.25500000920E-02 0. -1.
       -2    1    3    3    0  502 -0.87669855226E+03 -0.43297240080E+03  0.96167945070E+03  0.13714564584E+04  0.25500000920E-02 0.  1.
</event>
<event>
 5   0  0.1442864E-06  0.3503610E+04  0.7818609E-02  0.8112935E-01
        2   -1    0    0  501    0  0.00000000000E+00  0.00000000000E+00  0.12941034466E+04  0.12941034466E+04  0.25500000920E-02 0.  1.
       -2   -1    0    0    0  501  0.00000000000E+00  0.00000000000E+00 -0.23713873433E+04  0.23713873433E+04  0.25500000920E-02 0. -1.
    10030    2    1    2    0    0  0.00000000000E+00  0.00000000000E+00 -0.10772838967E+04  0.36654907899E+04  0.35036098723E+04 0.  0.
        1    1    3    3  502    0  0.55098870237E+03  0.92955464419E+03 -0.19811748990E+04  0.22567043154E+04  0.50400001928E-02 0. -1.
       -1    1    3    3    0  502 -0.55098870237E+03 -0.92955464419E+03  0.90389100233E+03  0.14087864745E+04  0.50400001928E-02 0.  1.
</event>
<event>
 5   0  0.1361560E-06  0.3501175E+04  0.7818609E-02  0.8113511E-01
       -2   -1    0    0    0  501  0.00000000000E+00  0.00000000000E+00  0.12056882843E+04  0.12056882843E+04  0.25500000920E-02 0.  1.
        2   -1    0    0  501    0  0.00000000000E+00  0.00000000000E+00 -0.25417490539E+04  0.25417490539E+04  0.25500000920E-02 0. -1.
    10030    2    1    2    0    0  0.00000000000E+00  0.00000000000E+00 -0.13360607696E+04  0.37474373383E+04  0.35011752633E+04 0.  0.
        3    1    3    3  502    0  0.12605342918E+04  0.11296550221E+04 -0.11460887902E+04  0.20441591658E+04  0.10100000352E+00 0.  1.
       -3    1    3    3    0  502 -0.12605342918E+04 -0.11296550221E+04 -0.18997197937E+03  0.17032781725E+04  0.10100000352E+00 0. -1.
</event>
<event>
 5   0  0.1378620E-06  0.3544495E+04  0.7818609E-02  0.8103325E-01
       -2   -1    0    0    0  501  0.00000000000E+00  0.00000000000E+00  0.14622345393E+04  0.14622345393E+04  0.25500000920E-02 0.  1.
        2   -1    0    0  501    0  0.00000000000E+00  0.00000000000E+00 -0.21479869829E+04  0.21479869829E+04  0.25500000920E-02 0. -1.
    10030    2    1    2    0    0  0.00000000000E+00  0.00000000000E+00 -0.68575244366E+03  0.36102215222E+04  0.35444947489E+04 0.  0.
        2    1    3    3  502    0 -0.58657993587E+03 -0.94344010039E+03 -0.17493165947E+04  0.20722605514E+04  0.25500000920E-02 0. -1.
       -2    1    3    3    0  502  0.58657993587E+03  0.94344010039E+03  0.10635641511E+04  0.15379609708E+04  0.25500000920E-02 0.  1.
</event>
<event>
 5   0  0.1387133E-06  0.3519310E+04  0.7818609E-02  0.8109229E-01
       -2   -1    0    0    0  501  0.00000000000E+00  0.00000000000E+00  0.12655684672E+04  0.12655684672E+04  0.25500000920E-02 0.  1.
        2   -1    0    0  501    0  0.00000000000E+00  0.00000000000E+00 -0.24466369610E+04  0.24466369610E+04  0.25500000920E-02 0. -1.
    10030    2    1    2    0    0  0.00000000000E+00  0.00000000000E+00 -0.11810684938E+04  0.37122054281E+04  0.35193104941E+04 0.  0.
        4    1    3    3  502    0 -0.27233426002E+03  0.79699044284E+03  0.10391479619E+04  0.13376060013E+04  0.12699999809E+01 0.  1.
       -4    1    3    3    0  502  0.27233426002E+03 -0.79699044284E+03 -0.22202164557E+04  0.23745994269E+04  0.12699999809E+01 0. -1.
</event>
<event>
 5   0  0.1361560E-06  0.3350304E+04  0.7818609E-02  0.8150212E-01
        2   -1    0    0  501    0  0.00000000000E+00  0.00000000000E+00  0.22715973482E+04  0.22715973482E+04  0.25500000920E-02 0. -1.
       -2   -1    0    0    0  501  0.00000000000E+00  0.00000000000E+00 -0.12353130855E+04  0.12353130855E+04  0.25500000920E-02 0.  1.
    10030    2    1    2    0    0  0.00000000000E+00  0.00000000000E+00  0.10362842627E+04  0.35069104337E+04  0.33503038245E+04 0.  0.
        3    1    3    3  502    0  0.26909147122E+03 -0.48267363633E+03  0.21734379104E+04  0.22425914518E+04  0.10100000352E+00 0. -1.
       -3    1    3    3    0  502 -0.26909147122E+03  0.48267363633E+03 -0.11371536478E+04  0.12643189819E+04  0.10100000352E+00 0.  1.
</event>
<event>
 5   0  0.4700769E-07  0.3462253E+04  0.7818609E-02  0.8122794E-01
       -1   -1    0    0    0  501  0.00000000000E+00  0.00000000000E+00  0.14249640862E+04  0.14249640862E+04  0.50400001928E-02 0.  1.
        1   -1    0    0  501    0  0.00000000000E+00  0.00000000000E+00 -0.21030698412E+04  0.21030698412E+04  0.50400001928E-02 0. -1.
    10030    2    1    2    0    0  0.00000000000E+00  0.00000000000E+00 -0.67810575501E+03  0.35280339274E+04  0.34622530205E+04 0.  0.
        3    1    3    3  502    0  0.44350847228E+03 -0.13933935699E+04 -0.12832390838E+04  0.19454942719E+04  0.10100000352E+00 0.  1.
       -3    1    3    3    0  502 -0.44350847228E+03  0.13933935699E+04  0.60513332874E+03  0.15825396555E+04  0.10100000352E+00 0. -1.
</event>
<event>
 5   0  0.4409125E-07  0.3567582E+04  0.7818609E-02  0.8097958E-01
        3   -1    0    0  501    0  0.00000000000E+00  0.00000000000E+00  0.15957993446E+04  0.15957993478E+04  0.10100000352E+00 0.  1.
       -3   -1    0    0    0  501  0.00000000000E+00  0.00000000000E+00 -0.19939286018E+04  0.19939286044E+04  0.10100000352E+00 0. -1.
    10030    2    1    2    0    0  0.00000000000E+00  0.00000000000E+00 -0.39812925727E+03  0.35897279522E+04  0.35675817951E+04 0.  0.
        5    1    3    3  502    0  0.21251225732E+03  0.17480126868E+04  0.87621672663E+02  0.17630681950E+04  0.46999998093E+01 0. -1.
       -5    1    3    3    0  502 -0.21251225732E+03 -0.17480126868E+04 -0.48575092993E+03  0.18266597572E+04  0.46999998093E+01 0.  1.
</event>
<event>
 5   0  0.1387133E-06  0.3524182E+04  0.7818609E-02  0.8108083E-01
       -2   -1    0    0    0  501  0.00000000000E+00  0.00000000000E+00  0.15416593651E+04  0.15416593651E+04  0.25500000920E-02 0.  1.
        2   -1    0    0  501    0  0.00000000000E+00  0.00000000000E+00 -0.20140403507E+04  0.20140403507E+04  0.25500000920E-02 0. -1.
    10030    2    1    2    0    0  0.00000000000E+00  0.00000000000E+00 -0.47238098562E+03  0.35556997158E+04  0.35241817027E+04 0.  0.
        4    1    3    3  502    0  0.14602706235E+04 -0.98061522374E+03 -0.34184591525E+03  0.17918863673E+04  0.12699999809E+01 0.  1.
       -4    1    3    3    0  502 -0.14602706235E+04  0.98061522374E+03 -0.13053507037E+03  0.17638133485E+04  0.12699999809E+01 0. -1.
</event>
<event>
 5   0  0.1378620E-06  0.3461569E+04  0.7818609E-02  0.8122958E-01
        2   -1    0    0  501    0  0.00000000000E+00  0.00000000000E+00  0.13688496673E+04  0.13688496673E+04  0.25500000920E-02 0. -1.
       -2   -1    0    0    0  501  0.00000000000E+00  0.00000000000E+00 -0.21884183241E+04  0.21884183241E+04  0.25500000920E-02 0.  1.
    10030    2    1    2    0    0  0.00000000000E+00  0.00000000000E+00 -0.81956865677E+03  0.35572679913E+04  0.34615694098E+04 0.  0.
        2    1    3    3  502    0 -0.11899697275E+03 -0.81859651288E+01 -0.21841896010E+04  0.21874440570E+04  0.25500000920E-02 0.  1.
       -2    1    3    3    0  502  0.11899697275E+03  0.81859651288E+01  0.13646209442E+04  0.13698239343E+04  0.25500000920E-02 0. -1.
</event>
<event>
 5   0  0.4557237E-07  0.3508160E+04  0.7818609E-02  0.8111859E-01
       -1   -1    0    0    0  501  0.00000000000E+00  0.00000000000E+00  0.13398446925E+04  0.13398446925E+04  0.50400001928E-02 0.  1.
        1   -1    0    0  501    0  0.00000000000E+00  0.00000000000E+00 -0.22963828674E+04  0.22963828674E+04  0.50400001928E-02 0. -1.
    10030    2    1    2    0    0  0.00000000000E+00  0.00000000000E+00 -0.95653817484E+03  0.36362275599E+04  0.35081598578E+04 0.  0.
        2    1    3    3  502    0  0.11420561263E+04  0.85680673328E+03 -0.15344812880E+04  0.20959586821E+04  0.25500000920E-02 0. -1.
       -2    1    3    3    0  502 -0.11420561263E+04 -0.85680673328E+03  0.57794311317E+03  0.15402688778E+04  0.25500000920E-02 0.  1.
</event>
<event>
 5   0  0.4557237E-07  0.3518102E+04  0.7818609E-02  0.8109513E-01
        1   -1    0    0  501    0  0.00000000000E+00  0.00000000000E+00  0.15017298393E+04  0.15017298393E+04  0.50400001928E-02 0.  1.
       -1   -1    0    0    0  501  0.00000000000E+00  0.00000000000E+00 -0.20604636160E+04  0.20604636160E+04  0.50400001928E-02 0. -1.
    10030    2    1    2    0    0  0.00000000000E+00  0.00000000000E+00 -0.55873377663E+03  0.35621934553E+04  0.35181015875E+04 0.  0.
        2    1    3    3  502    0 -0.10846270534E+04  0.37451357848E+03 -0.16293369031E+04  0.19928409392E+04  0.25500000920E-02 0. -1.
       -2    1    3    3    0  502  0.10846270534E+04 -0.37451357848E+03  0.10706031265E+04  0.15693525161E+04  0.25500000920E-02 0.  1.
</event>
<event>
 5   0  0.1442864E-06  0.3477066E+04  0.7818609E-02  0.8119247E-01
       -2   -1    0    0    0  501  0.00000000000E+00  0.00000000000E+00  0.11299528673E+04  0.11299528673E+04  0.25500000920E-02 0. -1.
        2   -1    0    0  501    0  0.00000000000E+00  0.00000000000E+00 -0.26748877241E+04  0.26748877241E+04  0.25500000920E-02 0.  1.
    10030    2    1    2    0    0  0.00000000000E+00  0.00000000000E+00 -0.15449348568E+04  0.38048405914E+04  0.34770660353E+04 0.  0.
        1    1    3    3  502    0  0.14825921657E+04 -0.12546297198E+03 -0.17565033597E+04  0.23019827410E+04  0.50400001928E-02 0.  1.
       -1    1    3    3    0  502 -0.14825921657E+04  0.12546297198E+03  0.21156850291E+03  0.15028578504E+04  0.50400001928E-02 0. -1.
</event>
<event>
 5   0  0.4693374E-07  0.3192971E+04  0.7818609E-02  0.8190676E-01
       -1   -1    0    0    0  501  0.00000000000E+00  0.00000000000E+00  0.10462711029E+04  0.10462711029E+04  0.50400001928E-02 0. -1.
        1   -1    0    0  501    0  0.00000000000E+00  0.00000000000E+00 -0.24360466816E+04  0.24360466816E+04  0.50400001928E-02 0.  1.
    10030    2    1    2    0    0  0.00000000000E+00  0.00000000000E+00 -0.13897755787E+04  0.34823177845E+04  0.31929705593E+04 0.  0.
        1    1    3    3  502    0 -0.13169368366E+04 -0.38233517750E+03 -0.15864404677E+04  0.20969730988E+04  0.50400001928E-02 0.  1.
       -1    1    3    3    0  502  0.13169368366E+04  0.38233517750E+03  0.19666488894E+03  0.13853446857E+04  0.50400001928E-02 0. -1.
</event>
<event>
 5   0  0.4409125E-07  0.2902235E+04  0.7818609E-02  0.8272213E-01
        1   -1    0    0  501    0  0.00000000000E+00  0.00000000000E+00  0.21377563089E+04  0.21377563089E+04  0.50400001928E-02 0.  1.
       -1   -1    0    0    0  501  0.00000000000E+00  0.00000000000E+00 -0.98502420793E+03  0.98502420794E+03  0.50400001928E-02 0. -1.
    10030    2    1    2    0    0  0.00000000000E+00  0.00000000000E+00  0.11527321010E+04  0.31227805169E+04  0.29022348044E+04 0.  0.
        5    1    3    3  502    0 -0.36427558366E+03  0.31942155993E+03  0.20481530833E+04  0.21046804927E+04  0.46999998093E+01 0.  1.
       -5    1    3    3    0  502  0.36427558366E+03 -0.31942155993E+03 -0.89542098226E+03  0.10181000242E+04  0.46999998093E+01 0. -1.
</event>
<event>
 5   0  0.4693374E-07  0.3517370E+04  0.7818609E-02  0.8109686E-01
       -1   -1    0    0    0  501  0.00000000000E+00  0.00000000000E+00  0.23681614584E+04  0.23681614584E+04  0.50400001928E-02 0.  1.
        1   -1    0    0  501    0  0.00000000000E+00  0.00000000000E+00 -0.13060654121E+04  0.13060654121E+04  0.50400001928E-02 0. -1.
    10030    2    1    2    0    0  0.00000000000E+00  0.00000000000E+00  0.10620960463E+04  0.36742268705E+04  0.35173704787E+04 0.  0.
        1    1    3    3  502    0 -0.97103217958E+03  0.11557188501E+04  0.14737241935E+04  0.21096095736E+04  0.50400001928E-02 0.  1.
       -1    1    3    3    0  502  0.97103217958E+03 -0.11557188501E+04 -0.41162814722E+03  0.15646172969E+04  0.50400001928E-02 0. -1.
</event>
<event>
 5   0  0.4700769E-07  0.3509803E+04  0.7818609E-02  0.8111471E-01
        1   -1    0    0  501    0  0.00000000000E+00  0.00000000000E+00  0.16910850294E+04  0.16910850294E+04  0.50400001928E-02 0.  1.
       -1   -1    0    0    0  501  0.00000000000E+00  0.00000000000E+00 -0.18211266675E+04  0.18211266675E+04  0.50400001928E-02 0. -1.
    10030    2    1    2    0    0  0.00000000000E+00  0.00000000000E+00 -0.13004163803E+03  0.35122116969E+04  0.35098034384E+04 0.  0.
        3    1    3    3  502    0  0.15636373997E+03  0.93425701355E+03  0.14132857064E+04  0.17013707076E+04  0.10100000352E+00 0.  1.
       -3    1    3    3    0  502 -0.15636373997E+03 -0.93425701355E+03 -0.15433273444E+04  0.18108409894E+04  0.10100000352E+00 0. -1.
</event>
<event>
 5   0  0.1361560E-06  0.3445092E+04  0.7818609E-02  0.8126927E-01
        2   -1    0    0  501    0  0.00000000000E+00  0.00000000000E+00  0.17805586948E+04  0.17805586948E+04  0.25500000920E-02 0. -1.
       -2   -1    0    0    0  501  0.00000000000E+00  0.00000000000E+00 -0.16664235189E+04  0.16664235189E+04  0.25500000920E-02 0.  1.
    10030    2    1    2    0    0  0.00000000000E+00  0.00000000000E+00  0.11413517583E+03  0.34469822137E+04  0.34450920950E+04 0.  0.
        3    1    3    3  502    0 -0.31840860503E+03 -0.48404140550E+03  0.16801427638E+04  0.17772337603E+04  0.10100000352E+00 0. -1.
       -3    1    3    3    0  502  0.31840860503E+03  0.48404140550E+03 -0.15660075879E+04  0.16697484534E+04  0.10100000352E+00 0.  1.
</event>
<event>
 5   0  0.1442864E-06  0.2561849E+04  0.7818609E-02  0.8381277E-01
        2   -1    0    0  501    0  0.00000000000E+00  0.00000000000E+00  0.11614453888E+04  0.11614453888E+04  0.25500000920E-02 0.  1.
       -2   -1    0    0    0  501  0.00000000000E+00  0.00000000000E+00 -0.14126942940E+04  0.14126942940E+04  0.25500000920E-02 0. -1.
    10030    2    1    2    0    0  0.00000000000E+00  0.00000000000E+00 -0.25124890511E+03  0.25741396828E+04  0.25618487649E+04 0.  0.
        1    1    3    3  502    0 -0.22401570489E+03  0.34955493405E+03 -0.13432118845E+04  0.14059124633E+04  0.50400001928E-02 0. -1.
       -1    1    3    3    0  502  0.22401570489E+03 -0.34955493405E+03  0.10919629794E+04  0.11682272195E+04  0.50400001928E-02 0.  1.
</event>
<event>
 5   0  0.1387133E-06  0.3349688E+04  0.7818609E-02  0.8150366E-01
       -2   -1    0    0    0  501  0.00000000000E+00  0.00000000000E+00  0.25118684481E+04  0.25118684481E+04  0.25500000920E-02 0.  1.
        2   -1    0    0  501    0  0.00000000000E+00  0.00000000000E+00 -0.11167394572E+04  0.11167394572E+04  0.25500000920E-02 0. -1.
    10030    2    1    2    0    0  0.00000000000E+00  0.00000000000E+00  0.13951289910E+04  0.36286079053E+04  0.33496881093E+04 0.  0.
        4    1    3    3  502    0 -0.53475662115E+02  0.11558523649E+04 -0.61414960925E+03  0.13099754545E+04  0.12699999809E+01 0. -1.
       -4    1    3    3    0  502  0.53475662115E+02 -0.11558523649E+04  0.20092786002E+04  0.23186324508E+04  0.12699999809E+01 0.  1.
</event>
<event>
 5   0  0.4557237E-07  0.3458743E+04  0.7818609E-02  0.8123637E-01
        1   -1    0    0  501    0  0.00000000000E+00  0.00000000000E+00  0.20855743480E+04  0.20855743480E+04  0.50400001928E-02 0.  1.
       -1   -1    0    0    0  501  0.00000000000E+00  0.00000000000E+00 -0.14340060460E+04  0.14340060461E+04  0.50400001928E-02 0. -1.
    10030    2    1    2    0    0  0.00000000000E+00  0.00000000000E+00  0.65156830200E+03  0.35195803941E+04  0.34587432542E+04 0.  0.
        2    1    3    3  502    0 -0.11552557892E+04  0.15576168748E+03 -0.97412348219E+03  0.15191425873E+04  0.25500000920E-02 0. -1.
       -2    1    3    3    0  502  0.11552557892E+04 -0.15576168748E+03  0.16256917842E+04  0.20004378068E+04  0.25500000920E-02 0.  1.
</event>
<event>
 5   0  0.1348388E-06  0.3492263E+04  0.7818609E-02  0.8115626E-01
        2   -1    0    0  501    0  0.00000000000E+00  0.00000000000E+00  0.15195181182E+04  0.15195181182E+04  0.25500000920E-02 0. -1.
       -2   -1    0    0    0  501  0.00000000000E+00  0.00000000000E+00 -0.20065407271E+04  0.20065407272E+04  0.25500000920E-02 0.  1.
    10030    2    1    2    0    0  0.00000000000E+00  0.00000000000E+00 -0.48702260899E+03  0.35260588453E+04  0.34922628708E+04 0.  0.
        5    1    3    3  502    0  0.14657919047E+04  0.28358186403E+03 -0.11578065512E+04  0.18893127537E+04  0.46999998093E+01 0.  1.
       -5    1    3    3    0  502 -0.14657919047E+04 -0.28358186403E+03  0.67078394217E+03  0.16367460916E+04  0.46999998093E+01 0. -1.
</event>
<event>
 5   0  0.1348388E-06  0.3479053E+04  0.7818609E-02  0.8118772E-01
       -2   -1    0    0    0  501  0.00000000000E+00  0.00000000000E+00  0.13693018541E+04  0.13693018541E+04  0.25500000920E-02 0.  1.
        2   -1    0    0  501    0  0.00000000000E+00  0.00000000000E+00 -0.22098511693E+04  0.22098511693E+04  0.25500000920E-02 0. -1.
    10030    2    1    2    0    0  0.00000000000E+00  0.00000000000E+00 -0.84054931520E+03  0.35791530233E+04  0.34790534939E+04 0.  0.
        5    1    3    3  502    0  0.83303248470E+03  0.95258163243E+03 -0.16481718931E+04  0.20779431095E+04  0.46999998093E+01 0. -1.
       -5    1    3    3    0  502 -0.83303248470E+03 -0.95258163243E+03  0.80762257795E+03  0.15012099138E+04  0.46999998093E+01 0.  1.
</event>
<event>
 5   0  0.1361560E-06  0.3442142E+04  0.7818609E-02  0.8127640E-01
        2   -1    0    0  501    0  0.00000000000E+00  0.00000000000E+00  0.10614890603E+04  0.10614890603E+04  0.25500000920E-02 0. -1.
       -2   -1    0    0    0  501  0.00000000000E+00  0.00000000000E+00 -0.27904993942E+04  0.27904993942E+04  0.25500000920E-02 0.  1.
    10030    2    1    2    0    0  0.00000000000E+00  0.00000000000E+00 -0.17290103339E+04  0.38519884544E+04  0.34421415308E+04 0.  0.
        3    1    3    3  502    0  0.15822509609E+03  0.73649801917E+03  0.86720242631E+03  0.11486969016E+04  0.10100000352E+00 0. -1.
       -3    1    3    3    0  502 -0.15822509609E+03 -0.73649801917E+03 -0.25962127602E+04  0.27032915529E+04  0.10100000352E+00 0.  1.
</event>
<event>
 5   0  0.1348388E-06  0.3261057E+04  0.7818609E-02  0.8172876E-01
       -2   -1    0    0    0  501  0.00000000000E+00  0.00000000000E+00  0.16265909904E+04  0.16265909904E+04  0.25500000920E-02 0. -1.
        2   -1    0    0  501    0  0.00000000000E+00  0.00000000000E+00 -0.16344750994E+04  0.16344750994E+04  0.25500000920E-02 0.  1.
    10030    2    1    2    0    0  0.00000000000E+00  0.00000000000E+00 -0.78841090363E+01  0.32610660898E+04  0.32610565592E+04 0.  0.
        5    1    3    3  502    0  0.10781056469E+04  0.12068188859E+04  0.19575021969E+03  0.16300502593E+04  0.46999998093E+01 0. -1.
       -5    1    3    3    0  502 -0.10781056469E+04 -0.12068188859E+04 -0.20363432873E+03  0.16310158305E+04  0.46999998093E+01 0.  1.
</event>
<event>
 5   0  0.1378620E-06  0.3482037E+04  0.7818609E-02  0.8118060E-01
       -2   -1    0    0    0  501  0.00000000000E+00  0.00000000000E+00  0.15055395696E+04  0.15055395696E+04  0.25500000920E-02 0.  1.
        2   -1    0    0  501    0  0.00000000000E+00  0.00000000000E+00 -0.20133288374E+04  0.20133288374E+04  0.25500000920E-02 0. -1.
    10030    2    1    2    0    0  0.00000000000E+00  0.00000000000E+00 -0.50778926782E+03  0.35188684069E+04  0.34820374675E+04 0.  0.
        2    1    3    3  502    0  0.72296636519E+03  0.89323656903E+03  0.10678364271E+04  0.15687021925E+04  0.25500000920E-02 0.  1.
       -2    1    3    3    0  502 -0.72296636519E+03 -0.89323656903E+03 -0.15756256950E+04  0.19501662145E+04  0.25500000920E-02 0. -1.
</event>
<event>
 5   0  0.1348388E-06  0.3553866E+04  0.7818609E-02  0.8101142E-01
        2   -1    0    0  501    0  0.00000000000E+00  0.00000000000E+00  0.16728099329E+04  0.16728099329E+04  0.25500000920E-02 0.  1.
       -2   -1    0    0    0  501  0.00000000000E+00  0.00000000000E+00 -0.18875373550E+04  0.18875373550E+04  0.25500000920E-02 0. -1.
    10030    2    1    2    0    0  0.00000000000E+00  0.00000000000E+00 -0.21472742213E+03  0.35603472879E+04  0.35538661967E+04 0.  0.
        5    1    3    3  502    0 -0.71588384158E+03 -0.13787869127E+04  0.75672074745E+03  0.17280600119E+04  0.46999998093E+01 0.  1.
       -5    1    3    3    0  502  0.71588384158E+03  0.13787869127E+04 -0.97144816958E+03  0.18322872759E+04  0.46999998093E+01 0. -1.
</event>
<event>
 5   0  0.1378620E-06  0.3489607E+04  0.7818609E-02  0.8116257E-01
       -2   -1    0    0    0  501  0.00000000000E+00  0.00000000000E+00  0.19318578460E+04  0.19318578460E+04  0.25500000920E-02 0.  1.
        2   -1    0    0  501    0  0.00000000000E+00  0.00000000000E+00 -0.15758613197E+04  0.15758613197E+04  0.25500000920E-02 0. -1.
    10030    2    1    2    0    0  0.00000000000E+00  0.00000000000E+00  0.35599652634E+03  0.35077191657E+04  0.34896074591E+04 0.  0.
        2    1    3    3  502    0  0.54230161296E+03 -0.23398924668E+03 -0.14723201678E+04  0.15863696554E+04  0.25500000920E-02 0. -1.
       -2    1    3    3    0  502 -0.54230161296E+03  0.23398924668E+03  0.18283166941E+04  0.19213495104E+04  0.25500000920E-02 0.  1.
</event>
<event>
 5   0  0.1387133E-06  0.3473126E+04  0.7818609E-02  0.8120188E-01
        2   -1    0    0  501    0  0.00000000000E+00  0.00000000000E+00  0.25480751417E+04  0.25480751417E+04  0.25500000920E-02 0.  1.
       -2   -1    0    0    0  501  0.00000000000E+00  0.00000000000E+00 -0.11835018442E+04  0.11835018442E+04  0.25500000920E-02 0. -1.
    10030    2    1    2    0    0  0.00000000000E+00  0.00000000000E+00  0.13645732975E+04  0.37315769859E+04  0.34731263319E+04 0.  0.
        4    1    3    3  502    0  0.78185924368E+03 -0.12645987507E+03 -0.97814566983E+03  0.12585970528E+04  0.12699999809E+01 0. -1.
       -4    1    3    3    0  502 -0.78185924368E+03  0.12645987507E+03  0.23427189674E+04  0.24729799332E+04  0.12699999809E+01 0.  1.
</event>
<event>
 5   0  0.1442864E-06  0.3541102E+04  0.7818609E-02  0.8104118E-01
       -2   -1    0    0    0  501  0.00000000000E+00  0.00000000000E+00  0.15569145895E+04  0.15569145895E+04  0.25500000920E-02 0.  1.
        2   -1    0    0  501    0  0.00000000000E+00  0.00000000000E+00 -0.20135018184E+04  0.20135018184E+04  0.25500000920E-02 0. -1.
    10030    2    1    2    0    0  0.00000000000E+00  0.00000000000E+00 -0.45658722893E+03  0.35704164079E+04  0.35411017252E+04 0.  0.
        1    1    3    3  502    0 -0.89347374634E+03  0.14037605582E+04  0.38170342002E+03  0.17072013768E+04  0.50400001928E-02 0.  1.
       -1    1    3    3    0  502  0.89347374634E+03 -0.14037605582E+04 -0.83829064896E+03  0.18632150311E+04  0.50400001928E-02 0. -1.
</event>
<event>
 5   0  0.4693374E-07  0.2555772E+04  0.7818609E-02  0.8383381E-01
        1   -1    0    0  501    0  0.00000000000E+00  0.00000000000E+00  0.21128704823E+04  0.21128704823E+04  0.50400001928E-02 0. -1.
       -1   -1    0    0    0  501  0.00000000000E+00  0.00000000000E+00 -0.77287884589E+03  0.77287884590E+03  0.50400001928E-02 0.  1.
    10030    2    1    2    0    0  0.00000000000E+00  0.00000000000E+00  0.13399916364E+04  0.28857493282E+04  0.25557722120E+04 0.  0.
        1    1    3    3  502    0 -0.50455081094E+03  0.11048426923E+04  0.11184446428E+04  0.16511109334E+04  0.50400001928E-02 0. -1.
       -1    1    3    3    0  502  0.50455081094E+03 -0.11048426923E+04  0.22154699366E+03  0.12346383948E+04  0.50400001928E-02 0.  1.
</event>
<event>
 5   0  0.4409125E-07  0.3483547E+04  0.7818609E-02  0.8117700E-01
       -1   -1    0    0    0  501  0.00000000000E+00  0.00000000000E+00  0.10603315543E+04  0.10603315543E+04  0.50400001928E-02 0.  1.
        1   -1    0    0  501    0  0.00000000000E+00  0.00000000000E+00 -0.28611565752E+04  0.28611565752E+04  0.50400001928E-02 0. -1.
    10030    2    1    2    0    0  0.00000000000E+00  0.00000000000E+00 -0.18008250209E+04  0.39214881295E+04  0.34835468124E+04 0.  0.
        5    1    3    3  502    0 -0.26548120378E+03 -0.40014707609E+03 -0.27851582735E+04  0.28262566498E+04  0.46999998093E+01 0. -1.
       -5    1    3    3    0  502  0.26548120378E+03  0.40014707609E+03  0.98433325261E+03  0.10952314798E+04  0.46999998093E+01 0.  1.
</event>
<event>
 5   0  0.4557237E-07  0.3467831E+04  0.7818609E-02  0.8121456E-01
       -1   -1    0    0    0  501  0.00000000000E+00  0.00000000000E+00  0.13669906904E+04  0.13669906904E+04  0.50400001928E-02 0.  1.
        1   -1    0    0  501    0  0.00000000000E+00  0.00000000000E+00 -0.21993296188E+04  0.21993296188E+04  0.50400001928E-02 0. -1.
    10030    2    1    2    0    0  0.00000000000E+00  0.00000000000E+00 -0.83233892844E+03  0.35663203092E+04  0.34678310881E+04 0.  0.
        2    1    3    3  502    0 -0.27566217713E+03 -0.70418270677E+03 -0.20208043775E+04  0.21576638414E+04  0.25500000920E-02 0. -1.
       -2    1    3    3    0  502  0.27566217713E+03  0.70418270677E+03  0.11884654491E+04  0.14086564677E+04  0.25500000920E-02 0.  1.
</event>
<event>
 5   0  0.4409125E-07  0.3529228E+04  0.7818609E-02  0.8106898E-01
       -3   -1    0    0    0  501  0.00000000000E+00  0.00000000000E+00  0.20541526800E+04  0.20541526825E+04  0.10100000352E+00 0. -1.
        3   -1    0    0  501    0  0.00000000000E+00  0.00000000000E+00 -0.15158868519E+04  0.15158868553E+04  0.10100000352E+00 0.  1.
    10030    2    1    2    0    0  0.00000000000E+00  0.00000000000E+00  0.53826582809E+03  0.35700395377E+04  0.35292282725E+04 0.  0.
        2    1    3    3  502    0 -0.95110751959E+03  0.14206037158E+04 -0.17312136316E+03  0.17183397329E+04  0.25500000920E-02 0.  1.
       -2    1    3    3    0  502  0.95110751959E+03 -0.14206037158E+04  0.71138719126E+03  0.18516998048E+04  0.25500000920E-02 0. -1.
</event>
<event>
 5   0  0.1442864E-06  0.3396736E+04  0.7818609E-02  0.8138708E-01
        2   -1    0    0  501    0  0.00000000000E+00  0.00000000000E+00  0.16637138298E+04  0.16637138298E+04  0.25500000920E-02 0. -1.
       -2   -1    0    0    0  501  0.00000000000E+00  0.00000000000E+00 -0.17337437259E+04  0.17337437259E+04  0.25500000920E-02 0.  1.
    10030    2    1    2    0    0  0.00000000000E+00  0.00000000000E+00 -0.70029896077E+02  0.33974575556E+04  0.33967357354E+04 0.  0.
        1    1    3    3  502    0  0.12363735053E+04  0.85578744959E+03  0.75474882365E+03  0.16824498180E+04  0.50400001928E-02 0. -1.
       -1    1    3    3    0  502 -0.12363735053E+04 -0.85578744959E+03 -0.82477871973E+03  0.17150077376E+04  0.50400001928E-02 0.  1.
</event>
<event>
 5   0  0.1387133E-06  0.3537338E+04  0.7818609E-02  0.8104998E-01
       -2   -1    0    0    0  501  0.00000000000E+00  0.00000000000E+00  0.14670485742E+04  0.14670485742E+04  0.25500000920E-02 0. -1.
        2   -1    0    0  501    0  0.00000000000E+00  0.00000000000E+00 -0.21323015998E+04  0.21323015998E+04  0.25500000920E-02 0.  1.
    10030    2    1    2    0    0  0.00000000000E+00  0.00000000000E+00 -0.66525302564E+03  0.35993501740E+04  0.35373379945E+04 0.  0.
        4    1    3    3  502    0 -0.13753605211E+04 -0.75069413560E+03  0.50213958912E+03  0.16453887164E+04  0.12699999809E+01 0. -1.
       -4    1    3    3    0  502  0.13753605211E+04  0.75069413560E+03 -0.11673926148E+04  0.19539614577E+04  0.12699999809E+01 0.  1.
</event>
<event>
 5   0  0.4591195E-07  0.3429365E+04  0.7818609E-02  0.8130737E-01
        1   -1    0    0  501    0  0.00000000000E+00  0.00000000000E+00  0.16043462191E+04  0.16043462191E+04  0.50400001928E-02 0.  1.
       -1   -1    0    0    0  501  0.00000000000E+00  0.00000000000E+00 -0.18326069036E+04  0.18326069036E+04  0.50400001928E-02 0. -1.
    10030    2    1    2    0    0  0.00000000000E+00  0.00000000000E+00 -0.22826068452E+03  0.34369531227E+04  0.34293649307E+04 0.  0.
        4    1    3    3  502    0 -0.74437835089E+03 -0.96649971622E+03 -0.13217502952E+04  0.17986790393E+04  0.12699999809E+01 0. -1.
       -4    1    3    3    0  502  0.74437835089E+03  0.96649971622E+03  0.10934896107E+04  0.16382740834E+04  0.12699999809E+01 0.  1.
</event>
<event>
 5   0  0.4557237E-07  0.3462371E+04  0.7818609E-02  0.8122766E-01
       -1   -1    0    0    0  501  0.00000000000E+00  0.00000000000E+00  0.10245191831E+04  0.10245191831E+04  0.50400001928E-02 0.  1.
        1   -1    0    0  501    0  0.00000000000E+00  0.00000000000E+00 -0.29252782331E+04  0.29252782331E+04  0.50400001928E-02 0. -1.
    10030    2    1    2    0    0  0.00000000000E+00  0.00000000000E+00 -0.19007590500E+04  0.39497974162E+04  0.34623712486E+04 0.  0.
        2    1    3    3  502    0 -0.94674479060E+03  0.14139928220E+04 -0.13134665840E+04  0.21496269133E+04  0.25500000920E-02 0. -1.
       -2    1    3    3    0  502  0.94674479060E+03 -0.14139928220E+04 -0.58729246598E+03  0.18001705029E+04  0.25500000920E-02 0.  1.
</event>
<event>
 5   0  0.4557237E-07  0.3493602E+04  0.7818609E-02  0.8115308E-01
        1   -1    0    0  501    0  0.00000000000E+00  0.00000000000E+00  0.24354047772E+04  0.24354047772E+04  0.50400001928E-02 0. -1.
       -1   -1    0    0    0  501  0.00000000000E+00  0.00000000000E+00 -0.12528978240E+04  0.12528978240E+04  0.50400001928E-02 0.  1.
    10030    2    1    2    0    0  0.00000000000E+00  0.00000000000E+00  0.11825069532E+04  0.36883026012E+04  0.34936017781E+04 0.  0.
        2    1    3    3  502    0 -0.14214312055E+04  0.98722013449E+03  0.84162659193E+03  0.19244234425E+04  0.25500000920E-02 0. -1.
       -2    1    3    3    0  502  0.14214312055E+04 -0.98722013449E+03  0.34088036124E+03  0.17638791587E+04  0.25500000920E-02 0.  1.
</event>
<event>
 5   0  0.1378620E-06  0.3513930E+04  0.7818609E-02  0.8110497E-01
       -2   -1    0    0    0  501  0.00000000000E+00  0.00000000000E+00  0.17481066432E+04  0.17481066432E+04  0.25500000920E-02 0.  1.
        2   -1    0    0  501    0  0.00000000000E+00  0.00000000000E+00 -0.17658686443E+04  0.17658686443E+04  0.25500000920E-02 0. -1.
    10030    2    1    2    0    0  0.00000000000E+00  0.00000000000E+00 -0.17762001140E+02  0.35139752875E+04  0.35139303967E+04 0.  0.
        2    1    3    3  502    0  0.41971124421E+03  0.86684206410E+03  0.14606118330E+04  0.17495598359E+04  0.25500000920E-02 0.  1.
       -2    1    3    3    0  502 -0.41971124421E+03 -0.86684206410E+03 -0.14783738341E+04  0.17644154517E+04  0.25500000920E-02 0. -1.
</event>
<event>
 5   0  0.4693374E-07  0.3095214E+04  0.7818609E-02  0.8217053E-01
       -1   -1    0    0    0  501  0.00000000000E+00  0.00000000000E+00  0.12647275870E+04  0.12647275871E+04  0.50400001928E-02 0. -1.
        1   -1    0    0  501    0  0.00000000000E+00  0.00000000000E+00 -0.18937574605E+04  0.18937574605E+04  0.50400001928E-02 0.  1.
    10030    2    1    2    0    0  0.00000000000E+00  0.00000000000E+00 -0.62902987341E+03  0.31584850475E+04  0.30952139205E+04 0.  0.
        1    1    3    3  502    0 -0.13925072441E+04 -0.58026058114E+03 -0.66698636190E+03  0.16494391695E+04  0.50400001928E-02 0.  1.
       -1    1    3    3    0  502  0.13925072441E+04  0.58026058114E+03  0.37956488490E+02  0.15090458780E+04  0.50400001928E-02 0. -1.
</event>
<event>
 5   0  0.4591195E-07  0.3463338E+04  0.7818609E-02  0.8122534E-01
       -1   -1    0    0    0  501  0.00000000000E+00  0.00000000000E+00  0.14147207405E+04  0.14147207405E+04  0.50400001928E-02 0. -1.
        1   -1    0    0  501    0  0.00000000000E+00  0.00000000000E+00 -0.21196248809E+04  0.21196248809E+04  0.50400001928E-02 0.  1.
    10030    2    1    2    0    0  0.00000000000E+00  0.00000000000E+00 -0.70490414039E+03  0.35343456214E+04  0.34633378588E+04 0.  0.
        4    1    3    3  502    0 -0.48601046911E+03  0.47776606125E+03 -0.19770106564E+04  0.20911813250E+04  0.12699999809E+01 0.  1.
       -4    1    3    3    0  502  0.48601046911E+03 -0.47776606125E+03  0.12721065161E+04  0.14431642964E+04  0.12699999809E+01 0. -1.
</event>
<event>
 5   0  0.4700769E-07  0.3473228E+04  0.7818609E-02  0.8120164E-01
        1   -1    0    0  501    0  0.00000000000E+00  0.00000000000E+00  0.17803702221E+04  0.17803702221E+04  0.50400001928E-02 0.  1.
       -1   -1    0    0    0  501  0.00000000000E+00  0.00000000000E+00 -0.16939327080E+04  0.16939327081E+04  0.50400001928E-02 0. -1.
    10030    2    1    2    0    0  0.00000000000E+00  0.00000000000E+00  0.86437514059E+02  0.34743029302E+04  0.34732275201E+04 0.  0.
        3    1    3    3  502    0 -0.71845959987E+03  0.32753061932E+03  0.15904254521E+04  0.17756445681E+04  0.10100000352E+00 0.  1.
       -3    1    3    3    0  502  0.71845959987E+03 -0.32753061932E+03 -0.15039879380E+04  0.16986583621E+04  0.10100000352E+00 0. -1.
</event>
<event>
 5   0  0.4591195E-07  0.3506157E+04  0.7818609E-02  0.8112332E-01
        1   -1    0    0  501    0  0.00000000000E+00  0.00000000000E+00  0.13401839362E+04  0.13401839362E+04  0.50400001928E-02 0.  1.
       -1   -1    0    0    0  501  0.00000000000E+00  0.00000000000E+00 -0.22931804976E+04  0.22931804977E+04  0.50400001928E-02 0. -1.
    10030    2    1    2    0    0  0.00000000000E+00  0.00000000000E+00 -0.95299656145E+03  0.36333644339E+04  0.35061566798E+04 0.  0.
        4    1    3    3  502    0 -0.27028845029E+03 -0.10471313664E+04 -0.19063193722E+04  0.21917105436E+04  0.12699999809E+01 0. -1.
       -4    1    3    3    0  502  0.27028845029E+03  0.10471313664E+04  0.95332281080E+03  0.14416538903E+04  0.12699999809E+01 0.  1.
</event>
<event>
 5   0  0.1387133E-06  0.3599746E+04  0.7818609E-02  0.8090550E-01
       -2   -1    0    0    0  501  0.00000000000E+00  0.00000000000E+00  0.23805144630E+04  0.23805144630E+04  0.25500000920E-02 0.  1.
        2   -1    0    0  501    0  0.00000000000E+00  0.00000000000E+00 -0.13608583306E+04  0.13608583306E+04  0.25500000920E-02 0. -1.
    10030    2    1    2    0    0  0.00000000000E+00  0.00000000000E+00  0.10196561324E+04  0.37413727935E+04  0.35997460677E+04 0.  0.
        4    1    3    3  502    0 -0.19444641005E+03 -0.79317465313E+03  0.21768670177E+04  0.23250133467E+04  0.12699999809E+01 0.  1.
       -4    1    3    3    0  502  0.19444641005E+03  0.79317465313E+03 -0.11572108853E+04  0.14163594468E+04  0.12699999809E+01 0. -1.
</event>
<event>
 5   0  0.1378620E-06  0.3461557E+04  0.7818609E-02  0.8122961E-01
       -2   -1    0    0    0  501  0.00000000000E+00  0.00000000000E+00  0.28811028593E+04  0.28811028593E+04  0.25500000920E-02 0. -1.
        2   -1    0    0  501    0  0.00000000000E+00  0.00000000000E+00 -0.10397387490E+04  0.10397387490E+04  0.25500000920E-02 0.  1.
    10030    2    1    2    0    0  0.00000000000E+00  0.00000000000E+00  0.18413641102E+04  0.39208416083E+04  0.34615570385E+04 0.  0.
        2    1    3    3  502    0  0.10299302621E+04  0.81403188426E+03 -0.35688528190E+03  0.13604305781E+04  0.25500000920E-02 0.  1.
       -2    1    3    3    0  502 -0.10299302621E+04 -0.81403188426E+03  0.21982493921E+04  0.25604110302E+04  0.25500000920E-02 0. -1.
</event>
<event>
 5   0  0.1348388E-06  0.3456602E+04  0.7818609E-02  0.8124152E-01
       -2   -1    0    0    0  501  0.00000000000E+00  0.00000000000E+00  0.17650189288E+04  0.17650189288E+04  0.25500000920E-02 0.  1.
        2   -1    0    0  501    0  0.00000000000E+00  0.00000000000E+00 -0.16923468614E+04  0.16923468614E+04  0.25500000920E-02 0. -1.
    10030    2    1    2    0    0  0.00000000000E+00  0.00000000000E+00  0.72672067399E+02  0.34573657902E+04  0.34566019409E+04 0.  0.
        5    1    3    3  502    0  0.16683938585E+04  0.15877423824E+03  0.45863168842E+03  0.17375593346E+04  0.46999998093E+01 0.  1.
       -5    1    3    3    0  502 -0.16683938585E+04 -0.15877423824E+03 -0.38595962102E+03  0.17198064556E+04  0.46999998093E+01 0. -1.
</event>
<event>
 5   0  0.1361560E-06  0.3461880E+04  0.7818609E-02  0.8122884E-01
        2   -1    0    0  501    0  0.00000000000E+00  0.00000000000E+00  0.31628092018E+04  0.31628092018E+04  0.25500000920E-02 0. -1.
       -2   -1    0    0    0  501  0.00000000000E+00  0.00000000000E+00 -0.94730772846E+03  0.94730772846E+03  0.25500000920E-02 0.  1.
    10030    2    1    2    0    0  0.00000000000E+00  0.00000000000E+00  0.22155014733E+04  0.41101169303E+04  0.34618801831E+04 0.  0.
        3    1    3    3  502    0 -0.66766453306E+03  0.36637631281E+02  0.30032781670E+04  0.30768162122E+04  0.10100000352E+00 0. -1.
       -3    1    3    3    0  502  0.66766453306E+03 -0.36637631281E+02 -0.78777669368E+03  0.10333007181E+04  0.10100000352E+00 0.  1.
</event>
<event>
 5   0  0.1442864E-06  0.3046548E+04  0.7818609E-02  0.8230562E-01
       -2   -1    0    0    0  501  0.00000000000E+00  0.00000000000E+00  0.13993899306E+04  0.13993899306E+04  0.25500000920E-02 0. -1.
        2   -1    0    0  501    0  0.00000000000E+00  0.00000000000E+00 -0.16581253366E+04  0.16581253366E+04  0.25500000920E-02 0.  1.
    10030    2    1    2    0    0  0.00000000000E+00  0.00000000000E+00 -0.25873540601E+03  0.30575152671E+04  0.30465481448E+04 0.  0.
        1    1    3    3  502    0 -0.13634293078E+03 -0.97153695902E+03  0.10401127150E+04  0.14297929631E+04  0.50400001928E-02 0. -1.
       -1    1    3    3    0  502  0.13634293078E+03  0.97153695902E+03 -0.12988481210E+04  0.16277223040E+04  0.50400001928E-02 0.  1.
</event>
<event>
 5   0  0.4700769E-07  0.3522626E+04  0.7818609E-02  0.8108449E-01
        1   -1    0    0  501    0  0.00000000000E+00  0.00000000000E+00  0.27711156250E+04  0.27711156250E+04  0.50400001928E-02 0.  1.
       -1   -1    0    0    0  501  0.00000000000E+00  0.00000000000E+00 -0.11194854212E+04  0.11194854212E+04  0.50400001928E-02 0. -1.
    10030    2    1    2    0    0  0.00000000000E+00  0.00000000000E+00  0.16516302039E+04  0.38906010462E+04  0.35226260333E+04 0.  0.
        3    1    3    3  502    0 -0.11456564658E+04 -0.83605329368E+02 -0.64883808363E+03  0.13192836911E+04  0.10100000352E+00 0. -1.
       -3    1    3    3    0  502  0.11456564658E+04  0.83605329368E+02  0.23004682875E+04  0.25713173551E+04  0.10100000352E+00 0.  1.
</event>
<event>
 5   0  0.4700769E-07  0.3505854E+04  0.7818609E-02  0.8112404E-01
        1   -1    0    0  501    0  0.00000000000E+00  0.00000000000E+00  0.20822219659E+04  0.20822219659E+04  0.50400001928E-02 0. -1.
       -1   -1    0    0    0  501  0.00000000000E+00  0.00000000000E+00 -0.14757088326E+04  0.14757088326E+04  0.50400001928E-02 0.  1.
    10030    2    1    2    0    0  0.00000000000E+00  0.00000000000E+00  0.60651313326E+03  0.35579307985E+04  0.35058541592E+04 0.  0.
        3    1    3    3  502    0  0.77547244150E+03  0.98814029899E+03 -0.93759706134E+03  0.15674396376E+04  0.10100000352E+00 0.  1.
       -3    1    3    3    0  502 -0.77547244150E+03 -0.98814029899E+03  0.15441101946E+04  0.19904911608E+04  0.10100000352E+00 0. -1.
</event>
<event>
 5   0  0.1348388E-06  0.3525563E+04  0.7818609E-02  0.8107758E-01
       -2   -1    0    0    0  501  0.00000000000E+00  0.00000000000E+00  0.21354000588E+04  0.21354000588E+04  0.25500000920E-02 0.  1.
        2   -1    0    0  501    0  0.00000000000E+00  0.00000000000E+00 -0.14551834996E+04  0.14551834996E+04  0.25500000920E-02 0. -1.
    10030    2    1    2    0    0  0.00000000000E+00  0.00000000000E+00  0.68021655919E+03  0.35905835584E+04  0.35255631781E+04 0.  0.
        5    1    3    3  502    0  0.41272639109E+03  0.67212114464E+03 -0.12654453050E+04  0.14911283703E+04  0.46999998093E+01 0. -1.
       -5    1    3    3    0  502 -0.41272639109E+03 -0.67212114464E+03  0.19456618642E+04  0.20994551881E+04  0.46999998093E+01 0.  1.
</event>
<event>
 5   0  0.4591195E-07  0.2958763E+04  0.7818609E-02  0.8255605E-01
       -1   -1    0    0    0  501  0.00000000000E+00  0.00000000000E+00  0.12906040704E+04  0.12906040704E+04  0.50400001928E-02 0.  1.
        1   -1    0    0  501    0  0.00000000000E+00  0.00000000000E+00 -0.16957718076E+04  0.16957718076E+04  0.50400001928E-02 0. -1.
    10030    2    1    2    0    0  0.00000000000E+00  0.00000000000E+00 -0.40516773722E+03  0.29863758780E+04  0.29587632534E+04 0.  0.
        4    1    3    3  502    0 -0.32499690881E+03  0.54956116656E+02  0.12530699804E+04  0.12956963973E+04  0.12699999809E+01 0.  1.
       -4    1    3    3    0  502  0.32499690881E+03 -0.54956116656E+02 -0.16582377176E+04  0.16906794807E+04  0.12699999809E+01 0. -1.
</event>
<event>
 5   0  0.1442864E-06  0.3505934E+04  0.7818609E-02  0.8112385E-01
        2   -1    0    0  501    0  0.00000000000E+00  0.00000000000E+00  0.21478139328E+04  0.21478139328E+04  0.25500000920E-02 0.  1.
       -2   -1    0    0    0  501  0.00000000000E+00  0.00000000000E+00 -0.14307073828E+04  0.14307073828E+04  0.25500000920E-02 0. -1.
    10030    2    1    2    0    0  0.00000000000E+00  0.00000000000E+00  0.71710655000E+03  0.35785213156E+04  0.35059339700E+04 0.  0.
        1    1    3    3  502    0  0.16451773616E+04 -0.57100418903E+03  0.56330285042E+03  0.18302908065E+04  0.50400001928E-02 0. -1.
       -1    1    3    3    0  502 -0.16451773616E+04  0.57100418903E+03  0.15380369958E+03  0.17482305091E+04  0.50400001928E-02 0.  1.
</event>
<event>
 5   0  0.1361560E-06  0.3489911E+04  0.7818609E-02  0.8116185E-01
        2   -1    0    0  501    0  0.00000000000E+00  0.00000000000E+00  0.16044371361E+04  0.16044371361E+04  0.25500000920E-02 0. -1.
       -2   -1    0    0    0  501  0.00000000000E+00  0.00000000000E+00 -0.18977802496E+04  0.18977802496E+04  0.25500000920E-02 0.  1.
    10030    2    1    2    0    0  0.00000000000E+00  0.00000000000E+00 -0.29334311349E+03  0.35022173857E+04  0.34899106629E+04 0.  0.
        3    1    3    3  502    0  0.78334445855E+03 -0.70102309690E+03  0.12510094728E+04  0.16340399733E+04  0.10100000352E+00 0. -1.
       -3    1    3    3    0  502 -0.78334445855E+03  0.70102309690E+03 -0.15443525863E+04  0.18681774124E+04  0.10100000352E+00 0.  1.
</event>
<event>
 5   0  0.4700769E-07  0.3415452E+04  0.7818609E-02  0.8134124E-01
       -1   -1    0    0    0  501  0.00000000000E+00  0.00000000000E+00  0.16238387728E+04  0.16238387728E+04  0.50400001928E-02 0.  1.
        1   -1    0    0  501    0  0.00000000000E+00  0.00000000000E+00 -0.17959469747E+04  0.17959469747E+04  0.50400001928E-02 0. -1.
    10030    2    1    2    0    0  0.00000000000E+00  0.00000000000E+00 -0.17210820188E+03  0.34197857474E+04  0.34154521407E+04 0.  0.
        3    1    3    3  502    0 -0.93095346471E+03 -0.96010031275E+03 -0.11494097740E+04  0.17634085751E+04  0.10100000352E+00 0. -1.
       -3    1    3    3    0  502  0.93095346471E+03  0.96010031275E+03  0.97730157211E+03  0.16563771723E+04  0.10100000352E+00 0.  1.
</event>
<event>
 5   0  0.1361560E-06  0.3474681E+04  0.7818609E-02  0.8119816E-01
        2   -1    0    0  501    0  0.00000000000E+00  0.00000000000E+00  0.15831381181E+04  0.15831381181E+04  0.25500000920E-02 0. -1.
       -2   -1    0    0    0  501  0.00000000000E+00  0.00000000000E+00 -0.19065631473E+04  0.19065631473E+04  0.25500000920E-02 0.  1.
    10030    2    1    2    0    0  0.00000000000E+00  0.00000000000E+00 -0.32342502923E+03  0.34897012653E+04  0.34746814490E+04 0.  0.
        3    1    3    3  502    0  0.81538764678E+03  0.81479843704E+03  0.11437521243E+04  0.16238603510E+04  0.10100000352E+00 0. -1.
       -3    1    3    3    0  502 -0.81538764678E+03 -0.81479843704E+03 -0.14671771535E+04  0.18658409143E+04  0.10100000352E+00 0.  1.
</event>
<event>
 5   0  0.1442864E-06  0.3250883E+04  0.7818609E-02  0.8175507E-01
        2   -1    0    0  501    0  0.00000000000E+00  0.00000000000E+00  0.30461412094E+04  0.30461412094E+04  0.25500000920E-02 0.  1.
       -2   -1    0    0    0  501  0.00000000000E+00  0.00000000000E+00 -0.86734667337E+03  0.86734667338E+03  0.25500000920E-02 0. -1.
    10030    2    1    2    0    0  0.00000000000E+00  0.00000000000E+00  0.21787945360E+04  0.39134878828E+04  0.32508832305E+04 0.  0.
        1    1    3    3  502    0 -0.10478717261E+04  0.47941179255E+03  0.24694371589E+04  0.27250671006E+04  0.50400001928E-02 0.  1.
       -1    1    3    3    0  502  0.10478717261E+04 -0.47941179255E+03 -0.29064262287E+03  0.11884207821E+04  0.50400001928E-02 0. -1.
</event>
<event>
 5   0  0.4557237E-07  0.3498973E+04  0.7818609E-02  0.8114033E-01
       -1   -1    0    0    0  501  0.00000000000E+00  0.00000000000E+00  0.16114744588E+04  0.16114744589E+04  0.50400001928E-02 0.  1.
        1   -1    0    0  501    0  0.00000000000E+00  0.00000000000E+00 -0.18993186665E+04  0.18993186665E+04  0.50400001928E-02 0. -1.
    10030    2    1    2    0    0  0.00000000000E+00  0.00000000000E+00 -0.28784420762E+03  0.35107931253E+04  0.34989732896E+04 0.  0.
        2    1    3    3  502    0  0.71433816296E+03  0.10054157322E+04  0.11010609657E+04  0.16533224295E+04  0.25500000920E-02 0.  1.
       -2    1    3    3    0  502 -0.71433816296E+03 -0.10054157322E+04 -0.13889051733E+04  0.18574706959E+04  0.25500000920E-02 0. -1.
</event>
<event>
 5   0  0.1387133E-06  0.2634229E+04  0.7818609E-02  0.8356667E-01
       -2   -1    0    0    0  501  0.00000000000E+00  0.00000000000E+00  0.11899582697E+04  0.11899582697E+04  0.25500000920E-02 0. -1.
        2   -1    0    0  501    0  0.00000000000E+00  0.00000000000E+00 -0.14578578342E+04  0.14578578343E+04  0.25500000920E-02 0.  1.
    10030    2    1    2    0    0  0.00000000000E+00  0.00000000000E+00 -0.26789956459E+03  0.26478161039E+04  0.26342285291E+04 0.  0.
        4    1    3    3  502    0  0.27428219231E+03  0.91649093660E+03 -0.10439382301E+04  0.14159784599E+04  0.12699999809E+01 0.  1.
       -4    1    3    3    0  502 -0.27428219231E+03 -0.91649093660E+03  0.77603866549E+03  0.12318376440E+04  0.12699999809E+01 0. -1.
</event>
<event>
 5   0  0.1378620E-06  0.3578315E+04  0.7818609E-02  0.8095477E-01
       -2   -1    0    0    0  501  0.00000000000E+00  0.00000000000E+00  0.16854992146E+04  0.16854992146E+04  0.25500000920E-02 0. -1.
        2   -1    0    0  501    0  0.00000000000E+00  0.00000000000E+00 -0.18991910332E+04  0.18991910332E+04  0.25500000920E-02 0.  1.
    10030    2    1    2    0    0  0.00000000000E+00  0.00000000000E+00 -0.21369181862E+03  0.35846902478E+04  0.35783152432E+04 0.  0.
        2    1    3    3  502    0  0.61256134875E+03 -0.14169396294E+04 -0.10129658780E+04  0.18463610669E+04  0.25500000920E-02 0.  1.
       -2    1    3    3    0  502 -0.61256134875E+03  0.14169396294E+04  0.79927405934E+03  0.17383291809E+04  0.25500000920E-02 0. -1.
</event>
<event>
 5   0  0.4700769E-07  0.3184104E+04  0.7818609E-02  0.8193028E-01
       -1   -1    0    0    0  501  0.00000000000E+00  0.00000000000E+00  0.11985731327E+04  0.11985731327E+04  0.50400001928E-02 0.  1.
        1   -1    0    0  501    0  0.00000000000E+00  0.00000000000E+00 -0.21147062671E+04  0.21147062671E+04  0.50400001928E-02 0. -1.
    10030    2    1    2    0    0  0.00000000000E+00  0.00000000000E+00 -0.91613313437E+03  0.33132793998E+04  0.31841043420E+04 0.  0.
        3    1    3    3  502    0 -0.30775824076E+03  0.84991763472E+03 -0.18217893432E+04  0.20337137315E+04  0.10100000352E+00 0. -1.
       -3    1    3    3    0  502  0.30775824076E+03 -0.84991763472E+03  0.90565620883E+03  0.12795656682E+04  0.10100000352E+00 0.  1.
</event>
<event>
 5   0  0.4591195E-07  0.3549291E+04  0.7818609E-02  0.8102207E-01
        1   -1    0    0  501    0  0.00000000000E+00  0.00000000000E+00  0.14871726067E+04  0.14871726067E+04  0.50400001928E-02 0. -1.
       -1   -1    0    0    0  501  0.00000000000E+00  0.00000000000E+00 -0.21176872332E+04  0.21176872332E+04  0.50400001928E-02 0.  1.
    10030    2    1    2    0    0  0.00000000000E+00  0.00000000000E+00 -0.63051462642E+03  0.36048598399E+04  0.35492908829E+04 0.  0.
        4    1    3    3  502    0 -0.72403196052E+03 -0.67405032767E+03  0.11811732412E+04  0.15406939874E+04  0.12699999809E+01 0. -1.
       -4    1    3    3    0  502  0.72403196052E+03  0.67405032767E+03 -0.18116878676E+04  0.20641658525E+04  0.12699999809E+01 0.  1.
</event>
<event>
 5   0  0.4409125E-07  0.3494288E+04  0.7818609E-02  0.8115145E-01
       -1   -1    0    0    0  501  0.00000000000E+00  0.00000000000E+00  0.14369243657E+04  0.14369243657E+04  0.50400001928E-02 0. -1.
        1   -1    0    0  501    0  0.00000000000E+00  0.00000000000E+00 -0.21243371160E+04  0.21243371160E+04  0.50400001928E-02 0.  1.
    10030    2    1    2    0    0  0.00000000000E+00  0.00000000000E+00 -0.68741275023E+03  0.35612614817E+04  0.34942877746E+04 0.  0.
        5    1    3    3  502    0 -0.20144159457E+03  0.11549253688E+04  0.97652096669E+03  0.15257937645E+04  0.46999998093E+01 0. -1.
       -5    1    3    3    0  502  0.20144159457E+03 -0.11549253688E+04 -0.16639337169E+04  0.20354677172E+04  0.46999998093E+01 0.  1.
</event>
<event>
 5   0  0.4591195E-07  0.2510922E+04  0.7818609E-02  0.8399105E-01
        1   -1    0    0  501    0  0.00000000000E+00  0.00000000000E+00  0.17484677042E+04  0.17484677042E+04  0.50400001928E-02 0.  1.
       -1   -1    0    0    0  501  0.00000000000E+00  0.00000000000E+00 -0.90146519813E+03  0.90146519814E+03  0.50400001928E-02 0. -1.
    10030    2    1    2    0    0  0.00000000000E+00  0.00000000000E+00  0.84700250610E+03  0.26499329024E+04  0.25109223687E+04 0.  0.
        4    1    3    3  502    0  0.10308304061E+04  0.60285316554E+03  0.14573326239E+02  0.11942601308E+04  0.12699999809E+01 0. -1.
       -4    1    3    3    0  502 -0.10308304061E+04 -0.60285316554E+03  0.83242917986E+03  0.14556727715E+04  0.12699999809E+01 0.  1.
</event>
<event>
 5   0  0.4693374E-07  0.3453570E+04  0.7818609E-02  0.8124882E-01
        1   -1    0    0  501    0  0.00000000000E+00  0.00000000000E+00  0.13900175405E+04  0.13900175405E+04  0.50400001928E-02 0. -1.
       -1   -1    0    0    0  501  0.00000000000E+00  0.00000000000E+00 -0.21451427613E+04  0.21451427613E+04  0.50400001928E-02 0.  1.
    10030    2    1    2    0    0  0.00000000000E+00  0.00000000000E+00 -0.75512522074E+03  0.35351603018E+04  0.34535697851E+04 0.  0.
        1    1    3    3  502    0 -0.13632108773E+04 -0.79602287085E+03  0.33882113853E+03  0.16145575464E+04  0.50400001928E-02 0. -1.
       -1    1    3    3    0  502  0.13632108773E+04  0.79602287085E+03 -0.10939463593E+04  0.19206027553E+04  0.50400001928E-02 0.  1.
</event>
<event>
 5   0  0.1348388E-06  0.3533791E+04  0.7818609E-02  0.8105828E-01
       -2   -1    0    0    0  501  0.00000000000E+00  0.00000000000E+00  0.28674134246E+04  0.28674134246E+04  0.25500000920E-02 0.  1.
        2   -1    0    0  501    0  0.00000000000E+00  0.00000000000E+00 -0.10887582022E+04  0.10887582022E+04  0.25500000920E-02 0. -1.
    10030    2    1    2    0    0  0.00000000000E+00  0.00000000000E+00  0.17786552224E+04  0.39561716268E+04  0.35337911003E+04 0.  0.
        5    1    3    3  502    0 -0.13668461815E+04 -0.84825276622E+03  0.71156501832E+02  0.16102442601E+04  0.46999998093E+01 0. -1.
       -5    1    3    3    0  502  0.13668461815E+04  0.84825276622E+03  0.17074987205E+04  0.23459273667E+04  0.46999998093E+01 0.  1.
</event>
<event>
 5   0  0.4591195E-07  0.3280593E+04  0.7818609E-02  0.8167851E-01
       -1   -1    0    0    0  501  0.00000000000E+00  0.00000000000E+00  0.17291823544E+04  0.17291823544E+04  0.50400001928E-02 0.  1.
        1   -1    0    0  501    0  0.00000000000E+00  0.00000000000E+00 -0.15559793391E+04  0.15559793391E+04  0.50400001928E-02 0. -1.
    10030    2    1    2    0    0  0.00000000000E+00  0.00000000000E+00  0.17320301528E+03  0.32851616935E+04  0.32805926397E+04 0.  0.
        4    1    3    3  502    0  0.28746570588E+03 -0.62369404550E+02 -0.15293510159E+04  0.15573832596E+04  0.12699999809E+01 0. -1.
       -4    1    3    3    0  502 -0.28746570588E+03  0.62369404550E+02  0.17025540312E+04  0.17277784339E+04  0.12699999809E+01 0.  1.
</event>
<event>
 5   0  0.4557237E-07  0.3533110E+04  0.7818609E-02  0.8105988E-01
       -1   -1    0    0    0  501  0.00000000000E+00  0.00000000000E+00  0.18321158239E+04  0.18321158239E+04  0.50400001928E-02 0. -1.
        1   -1    0    0  501    0  0.00000000000E+00  0.00000000000E+00 -0.17033402142E+04  0.17033402142E+04  0.50400001928E-02 0.  1.
    10030    2    1    2    0    0  0.00000000000E+00  0.00000000000E+00  0.12877560971E+03  0.35354560381E+04  0.35331099955E+04 0.  0.
        2    1    3    3  502    0 -0.16698727900E+04  0.15147867139E+03  0.62090063354E+03  0.17879984674E+04  0.25500000920E-02 0. -1.
       -2    1    3    3    0  502  0.16698727900E+04 -0.15147867139E+03 -0.49212502383E+03  0.17474575708E+04  0.25500000920E-02 0.  1.
</event>
<event>
 5   0  0.1361560E-06  0.3428579E+04  0.7818609E-02  0.8130928E-01
        2   -1    0    0  501    0  0.00000000000E+00  0.00000000000E+00  0.18980516076E+04  0.18980516076E+04  0.25500000920E-02 0.  1.
       -2   -1    0    0    0  501  0.00000000000E+00  0.00000000000E+00 -0.15483185242E+04  0.15483185242E+04  0.25500000920E-02 0. -1.
    10030    2    1    2    0    0  0.00000000000E+00  0.00000000000E+00  0.34973308341E+03  0.34463701317E+04  0.34285789848E+04 0.  0.
        3    1    3    3  502    0 -0.16749892843E+04 -0.14234996608E+03 -0.16293657255E+03  0.16889052526E+04  0.10100000352E+00 0.  1.
       -3    1    3    3    0  502  0.16749892843E+04  0.14234996608E+03  0.51266965597E+03  0.17574648792E+04  0.10100000352E+00 0. -1.
</event>
<event>
 5   0  0.1361560E-06  0.3682726E+04  0.7818609E-02  0.8071801E-01
        2   -1    0    0  501    0  0.00000000000E+00  0.00000000000E+00  0.17592431430E+04  0.17592431430E+04  0.25500000920E-02 0.  1.
       -2   -1    0    0    0  501  0.00000000000E+00  0.00000000000E+00 -0.19273158829E+04  0.19273158829E+04  0.25500000920E-02 0. -1.
    10030    2    1    2    0    0  0.00000000000E+00  0.00000000000E+00 -0.16807273996E+03  0.36865590259E+04  0.36827257576E+04 0.  0.
        3    1    3    3  502    0  0.15318939536E+04 -0.29304777496E+03  0.89577820622E+03  0.17986090982E+04  0.10100000352E+00 0.  1.
       -3    1    3    3    0  502 -0.15318939536E+04  0.29304777496E+03 -0.10638509462E+04  0.18879499276E+04  0.10100000352E+00 0. -1.
</event>
<event>
 5   0  0.4409125E-07  0.3582404E+04  0.7818609E-02  0.8094534E-01
       -1   -1    0    0    0  501  0.00000000000E+00  0.00000000000E+00  0.13420203943E+04  0.13420203944E+04  0.50400001928E-02 0. -1.
        1   -1    0    0  501    0  0.00000000000E+00  0.00000000000E+00 -0.23907266400E+04  0.23907266400E+04  0.50400001928E-02 0.  1.
    10030    2    1    2    0    0  0.00000000000E+00  0.00000000000E+00 -0.10487062456E+04  0.37327470343E+04  0.35824036111E+04 0.  0.
        5    1    3    3  502    0 -0.25809138426E+03  0.87860942020E+03 -0.21283790054E+04  0.23170207069E+04  0.46999998093E+01 0.  1.
       -5    1    3    3    0  502  0.25809138426E+03 -0.87860942020E+03  0.10796727598E+04  0.14157263274E+04  0.46999998093E+01 0. -1.
</event>
<event>
 5   0  0.1348388E-06  0.3471773E+04  0.7818609E-02  0.8120512E-01
        2   -1    0    0  501    0  0.00000000000E+00  0.00000000000E+00  0.25161860895E+04  0.25161860895E+04  0.25500000920E-02 0. -1.
       -2   -1    0    0    0  501  0.00000000000E+00  0.00000000000E+00 -0.11975673500E+04  0.11975673500E+04  0.25500000920E-02 0.  1.
    10030    2    1    2    0    0  0.00000000000E+00  0.00000000000E+00  0.13186187395E+04  0.37137534396E+04  0.34717732112E+04 0.  0.
        5    1    3    3  502    0 -0.45221608219E+03 -0.12029488439E+04  0.19075595188E+04  0.23000849362E+04  0.46999998093E+01 0. -1.
       -5    1    3    3    0  502  0.45221608219E+03  0.12029488439E+04 -0.58894077926E+03  0.14136685034E+04  0.46999998093E+01 0.  1.
</event>
<event>
 5   0  0.1361560E-06  0.3555771E+04  0.7818609E-02  0.8100699E-01
       -2   -1    0    0    0  501  0.00000000000E+00  0.00000000000E+00  0.16823589998E+04  0.16823589998E+04  0.25500000920E-02 0.  1.
        2   -1    0    0  501    0  0.00000000000E+00  0.00000000000E+00 -0.18788356813E+04  0.18788356813E+04  0.25500000920E-02 0. -1.
    10030    2    1    2    0    0  0.00000000000E+00  0.00000000000E+00 -0.19647668152E+03  0.35611946811E+04  0.35557705874E+04 0.  0.
        3    1    3    3  502    0  0.17529709794E+04 -0.13129798253E+03 -0.36459457632E+03  0.17952926307E+04  0.10100000352E+00 0.  1.
       -3    1    3    3    0  502 -0.17529709794E+04  0.13129798253E+03  0.16811789480E+03  0.17659020504E+04  0.10100000352E+00 0. -1.
</event>
<event>
 5   0  0.4700769E-07  0.3495873E+04  0.7818609E-02  0.8114769E-01
       -1   -1    0    0    0  501  0.00000000000E+00  0.00000000000E+00  0.11562956285E+04  0.11562956285E+04  0.50400001928E-02 0.  1.
        1   -1    0    0  501    0  0.00000000000E+00  0.00000000000E+00 -0.26423011213E+04  0.26423011213E+04  0.50400001928E-02 0. -1.
    10030    2    1    2    0    0  0.00000000000E+00  0.00000000000E+00 -0.14860054928E+04  0.37985967498E+04  0.34958725582E+04 0.  0.
        3    1    3    3  502    0 -0.99047142079E+03  0.92796069754E+03  0.45379962530E+03  0.14311110375E+04  0.10100000352E+00 0.  1.
       -3    1    3    3    0  502  0.99047142079E+03 -0.92796069754E+03 -0.19398051181E+04  0.23674857123E+04  0.10100000352E+00 0. -1.
</event>
<event>
 5   0  0.4700769E-07  0.3443226E+04  0.7818609E-02  0.8127378E-01
        1   -1    0    0  501    0  0.00000000000E+00  0.00000000000E+00  0.15156207023E+04  0.15156207023E+04  0.50400001928E-02 0.  1.
       -1   -1    0    0    0  501  0.00000000000E+00  0.00000000000E+00 -0.19556020058E+04  0.19556020058E+04  0.50400001928E-02 0. -1.
    10030    2    1    2    0    0  0.00000000000E+00  0.00000000000E+00 -0.43998130351E+03  0.34712227081E+04  0.34432257465E+04 0.  0.
        3    1    3    3  502    0  0.33362038649E+03 -0.92471440542E+03  0.12048489667E+04  0.15550113622E+04  0.10100000352E+00 0.  1.
       -3    1    3    3    0  502 -0.33362038649E+03  0.92471440542E+03 -0.16448302702E+04  0.19162113458E+04  0.10100000352E+00 0. -1.
</event>
<event>
 5   0  0.4591195E-07  0.3497020E+04  0.7818609E-02  0.8114497E-01
       -1   -1    0    0    0  501  0.00000000000E+00  0.00000000000E+00  0.13223838091E+04  0.13223838091E+04  0.50400001928E-02 0. -1.
        1   -1    0    0  501    0  0.00000000000E+00  0.00000000000E+00 -0.23119512533E+04  0.23119512533E+04  0.50400001928E-02 0.  1.
    10030    2    1    2    0    0  0.00000000000E+00  0.00000000000E+00 -0.98956744423E+03  0.36343350623E+04  0.34970198196E+04 0.  0.
        4    1    3    3  502    0 -0.15188420355E+04  0.83525176531E+03 -0.73349542642E+03  0.18821646564E+04  0.12699999809E+01 0. -1.
       -4    1    3    3    0  502  0.15188420355E+04 -0.83525176531E+03 -0.25607201780E+03  0.17521704060E+04  0.12699999809E+01 0.  1.
</event>
<event>
 5   0  0.1442864E-06  0.3447984E+04  0.7818609E-02  0.8126229E-01
        2   -1    0    0  501    0  0.00000000000E+00  0.00000000000E+00  0.18301419905E+04  0.18301419905E+04  0.25500000920E-02 0. -1.
       -2   -1    0    0    0  501  0.00000000000E+00  0.00000000000E+00 -0.16239984821E+04  0.16239984821E+04  0.25500000920E-02 0.  1.
    10030    2    1    2    0    0  0.00000000000E+00  0.00000000000E+00  0.20614350841E+03  0.34541404726E+04  0.34479836511E+04 0.  0.
        1    1    3    3  502    0 -0.12905931317E+04 -0.44418792781E+03  0.11581447829E+04  0.17900371184E+04  0.50400001928E-02 0. -1.
       -1    1    3    3    0  502  0.12905931317E+04  0.44418792781E+03 -0.95200127449E+03  0.16641033542E+04  0.50400001928E-02 0.  1.
</event>
<event>
 5   0  0.4409125E-07  0.3025205E+04  0.7818609E-02  0.8236570E-01
       -4   -1    0    0    0  501  0.00000000000E+00  0.00000000000E+00  0.14042142309E+04  0.14042148052E+04  0.12699999809E+01 0. -1.
        4   -1    0    0  501    0  0.00000000000E+00  0.00000000000E+00 -0.16293556383E+04  0.16293561332E+04  0.12699999809E+01 0.  1.
    10030    2    1    2    0    0  0.00000000000E+00  0.00000000000E+00 -0.22514140742E+03  0.30335709384E+04  0.30252047840E+04 0.  0.
        4    1    3    3  502    0  0.33609940715E+03  0.13711204631E+04 -0.65723969179E+03  0.15572089652E+04  0.12699999809E+01 0.  1.
       -4    1    3    3    0  502 -0.33609940715E+03 -0.13711204631E+04  0.43209828437E+03  0.14763619733E+04  0.12699999809E+01 0. -1.
</event>
<event>
 5   0  0.1378620E-06  0.3491595E+04  0.7818609E-02  0.8115785E-01
        2   -1    0    0  501    0  0.00000000000E+00  0.00000000000E+00  0.20036947718E+04  0.20036947718E+04  0.25500000920E-02 0.  1.
       -2   -1    0    0    0  501  0.00000000000E+00  0.00000000000E+00 -0.15210944679E+04  0.15210944679E+04  0.25500000920E-02 0. -1.
    10030    2    1    2    0    0  0.00000000000E+00  0.00000000000E+00  0.48260030388E+03  0.35247892397E+04  0.34915950698E+04 0.  0.
        2    1    3    3  502    0  0.73263198629E+03 -0.14608630407E+04 -0.37848986764E+03  0.16775354038E+04  0.25500000920E-02 0. -1.
       -2    1    3    3    0  502 -0.73263198629E+03  0.14608630407E+04  0.86109017152E+03  0.18472538360E+04  0.25500000920E-02 0.  1.
</event>
<event>
 5   0  0.1361560E-06  0.3534580E+04  0.7818609E-02  0.8105643E-01
       -2   -1    0    0    0  501  0.00000000000E+00  0.00000000000E+00  0.15009562986E+04  0.15009562986E+04  0.25500000920E-02 0.  1.
        2   -1    0    0  501    0  0.00000000000E+00  0.00000000000E+00 -0.20808831122E+04  0.20808831123E+04  0.25500000920E-02 0. -1.
    10030    2    1    2    0    0  0.00000000000E+00  0.00000000000E+00 -0.57992681362E+03  0.35818394109E+04  0.35345803791E+04 0.  0.
        3    1    3    3  502    0  0.93912687180E+03  0.10371177820E+04 -0.13840947911E+04  0.19680678281E+04  0.10100000352E+00 0. -1.
       -3    1    3    3    0  502 -0.93912687180E+03 -0.10371177820E+04  0.80416797751E+03  0.16137715828E+04  0.10100000352E+00 0.  1.
</event>
<event>
 5   0  0.4591195E-07  0.3502451E+04  0.7818609E-02  0.8113209E-01
        1   -1    0    0  501    0  0.00000000000E+00  0.00000000000E+00  0.18656250114E+04  0.18656250114E+04  0.50400001928E-02 0.  1.
       -1   -1    0    0    0  501  0.00000000000E+00  0.00000000000E+00 -0.16438408441E+04  0.16438408441E+04  0.50400001928E-02 0. -1.
    10030    2    1    2    0    0  0.00000000000E+00  0.00000000000E+00  0.22178416724E+03  0.35094658555E+04  0.35024509096E+04 0.  0.
        4    1    3    3  502    0 -0.43843081952E+03  0.40353067903E+03 -0.15391393527E+04  0.16504575585E+04  0.12699999809E+01 0. -1.
       -4    1    3    3    0  502  0.43843081952E+03 -0.40353067903E+03  0.17609235199E+04  0.18590082970E+04  0.12699999809E+01 0.  1.
</event>
<event>
 5   0  0.4693374E-07  0.3476549E+04  0.7818609E-02  0.8119370E-01
        1   -1    0    0  501    0  0.00000000000E+00  0.00000000000E+00  0.28825122897E+04  0.28825122897E+04  0.50400001928E-02 0.  1.
       -1   -1    0    0    0  501  0.00000000000E+00  0.00000000000E+00 -0.10482518908E+04  0.10482518908E+04  0.50400001928E-02 0. -1.
    10030    2    1    2    0    0  0.00000000000E+00  0.00000000000E+00  0.18342603989E+04  0.39307641805E+04  0.34765494146E+04 0.  0.
        1    1    3    3  502    0 -0.31883096465E+03 -0.17081117885E+04  0.86290735538E+03  0.19400794236E+04  0.50400001928E-02 0. -1.
       -1    1    3    3    0  502  0.31883096465E+03  0.17081117885E+04  0.97135304351E+03  0.19906847569E+04  0.50400001928E-02 0.  1.
</event>
<event>
 5   0  0.1361560E-06  0.3484854E+04  0.7818609E-02  0.8117389E-01
       -2   -1    0    0    0  501  0.00000000000E+00  0.00000000000E+00  0.12385949210E+04  0.12385949210E+04  0.25500000920E-02 0.  1.
        2   -1    0    0  501    0  0.00000000000E+00  0.00000000000E+00 -0.24512062460E+04  0.24512062460E+04  0.25500000920E-02 0. -1.
    10030    2    1    2    0    0  0.00000000000E+00  0.00000000000E+00 -0.12126113249E+04  0.36898011670E+04  0.34848538601E+04 0.  0.
        3    1    3    3  502    0 -0.15910758518E+04 -0.70689483654E+03 -0.67988288869E+03  0.18690809048E+04  0.10100000352E+00 0.  1.
       -3    1    3    3    0  502  0.15910758518E+04  0.70689483654E+03 -0.53272843626E+03  0.18207202622E+04  0.10100000352E+00 0. -1.
</event>
<event>
 5   0  0.1348388E-06  0.2627558E+04  0.7818609E-02  0.8358900E-01
        2   -1    0    0  501    0  0.00000000000E+00  0.00000000000E+00  0.15486749709E+04  0.15486749709E+04  0.25500000920E-02 0. -1.
       -2   -1    0    0    0  501  0.00000000000E+00  0.00000000000E+00 -0.11145108354E+04  0.11145108354E+04  0.25500000920E-02 0.  1.
    10030    2    1    2    0    0  0.00000000000E+00  0.00000000000E+00  0.43416413547E+03  0.26631858064E+04  0.26275578286E+04 0.  0.
        5    1    3    3  502    0 -0.11695331758E+04 -0.46432384221E+03 -0.16564694298E+03  0.12691987549E+04  0.46999998093E+01 0. -1.
       -5    1    3    3    0  502  0.11695331758E+04  0.46432384221E+03  0.59981107846E+03  0.13939870514E+04  0.46999998093E+01 0.  1.
</event>
<event>
 5   0  0.4700769E-07  0.3357986E+04  0.7818609E-02  0.8148296E-01
        1   -1    0    0  501    0  0.00000000000E+00  0.00000000000E+00  0.22741594483E+04  0.22741594483E+04  0.50400001928E-02 0. -1.
       -1   -1    0    0    0  501  0.00000000000E+00  0.00000000000E+00 -0.12395862904E+04  0.12395862905E+04  0.50400001928E-02 0.  1.
    10030    2    1    2    0    0  0.00000000000E+00  0.00000000000E+00  0.10345731579E+04  0.35137457388E+04  0.33579856310E+04 0.  0.
        3    1    3    3  502    0  0.85467754980E+03  0.81808074654E+03 -0.72931197104E+03  0.13898294080E+04  0.10100000352E+00 0.  1.
       -3    1    3    3    0  502 -0.85467754980E+03 -0.81808074654E+03  0.17638851289E+04  0.21239163308E+04  0.10100000352E+00 0. -1.
</event>
<event>
 5   0  0.4591195E-07  0.3497748E+04  0.7818609E-02  0.8114324E-01
        1   -1    0    0  501    0  0.00000000000E+00  0.00000000000E+00  0.22933148393E+04  0.22933148393E+04  0.50400001928E-02 0. -1.
       -1   -1    0    0    0  501  0.00000000000E+00  0.00000000000E+00 -0.13336854783E+04  0.13336854783E+04  0.50400001928E-02 0.  1.
    10030    2    1    2    0    0  0.00000000000E+00  0.00000000000E+00  0.95962936106E+03  0.36270003176E+04  0.34977482461E+04 0.  0.
        4    1    3    3  502    0  0.68173846699E+03  0.15594656258E+04  0.89699814203E+03  0.19238782849E+04  0.12699999809E+01 0. -1.
       -4    1    3    3    0  502 -0.68173846699E+03 -0.15594656258E+04  0.62631219031E+02  0.17031220326E+04  0.12699999809E+01 0.  1.
</event>
<event>
 5   0  0.4557237E-07  0.3597480E+04  0.7818609E-02  0.8091069E-01
        1   -1    0    0  501    0  0.00000000000E+00  0.00000000000E+00  0.17588888528E+04  0.17588888528E+04  0.50400001928E-02 0. -1.
       -1   -1    0    0    0  501  0.00000000000E+00  0.00000000000E+00 -0.18394940279E+04  0.18394940279E+04  0.50400001928E-02 0.  1.
    10030    2    1    2    0    0  0.00000000000E+00  0.00000000000E+00 -0.80605175171E+02  0.35983828807E+04  0.35974799738E+04 0.  0.
        2    1    3    3  502    0 -0.59141394897E+03  0.16238494453E+04  0.45862924082E+03  0.17880151735E+04  0.25500000920E-02 0. -1.
       -2    1    3    3    0  502  0.59141394897E+03 -0.16238494453E+04 -0.53923441600E+03  0.18103677072E+04  0.25500000920E-02 0.  1.
</event>
<event>
 5   0  0.1387133E-06  0.3351871E+04  0.7818609E-02  0.8149821E-01
        2   -1    0    0  501    0  0.00000000000E+00  0.00000000000E+00  0.17199087468E+04  0.17199087468E+04  0.25500000920E-02 0. -1.
       -2   -1    0    0    0  501  0.00000000000E+00  0.00000000000E+00 -0.16330868611E+04  0.16330868611E+04  0.25500000920E-02 0.  1.
    10030    2    1    2    0    0  0.00000000000E+00  0.00000000000E+00  0.86821885643E+02  0.33529956079E+04  0.33518713440E+04 0.  0.
        4    1    3    3  502    0 -0.10533647716E+03 -0.16607094583E+04 -0.15592226193E+03  0.16713363046E+04  0.12699999809E+01 0.  1.
       -4    1    3    3    0  502  0.10533647716E+03  0.16607094583E+04  0.24274414757E+03  0.16816593033E+04  0.12699999809E+01 0. -1.
</event>
<event>
 5   0  0.4409125E-07  0.3459803E+04  0.7818609E-02  0.8123383E-01
       -1   -1    0    0    0  501  0.00000000000E+00  0.00000000000E+00  0.14412736430E+04  0.14412736430E+04  0.50400001928E-02 0.  1.
        1   -1    0    0  501    0  0.00000000000E+00  0.00000000000E+00 -0.20763299227E+04  0.20763299227E+04  0.50400001928E-02 0. -1.
    10030    2    1    2    0    0  0.00000000000E+00  0.00000000000E+00 -0.63505627967E+03  0.35176035658E+04  0.34598032267E+04 0.  0.
        5    1    3    3  502    0  0.28137365679E+03  0.42153185267E+02 -0.20523726813E+04  0.20720047632E+04  0.46999998093E+01 0. -1.
       -5    1    3    3    0  502 -0.28137365679E+03 -0.42153185267E+02  0.14173164016E+04  0.14455988026E+04  0.46999998093E+01 0.  1.
</event>
<event>
 5   0  0.1348388E-06  0.3505512E+04  0.7818609E-02  0.8112485E-01
       -2   -1    0    0    0  501  0.00000000000E+00  0.00000000000E+00  0.15712310944E+04  0.15712310944E+04  0.25500000920E-02 0. -1.
        2   -1    0    0  501    0  0.00000000000E+00  0.00000000000E+00 -0.19552529609E+04  0.19552529609E+04  0.25500000920E-02 0.  1.
    10030    2    1    2    0    0  0.00000000000E+00  0.00000000000E+00 -0.38402186646E+03  0.35264840553E+04  0.35055123731E+04 0.  0.
        5    1    3    3  502    0 -0.88843507501E+03  0.13163983488E+04  0.55398505364E+03  0.16820056554E+04  0.46999998093E+01 0. -1.
       -5    1    3    3    0  502  0.88843507501E+03 -0.13163983488E+04 -0.93800692010E+03  0.18444783998E+04  0.46999998093E+01 0.  1.
</event>
<event>
 5   0  0.4557237E-07  0.3442347E+04  0.7818609E-02  0.8127590E-01
        1   -1    0    0  501    0  0.00000000000E+00  0.00000000000E+00  0.10317176126E+04  0.10317176126E+04  0.50400001928E-02 0.  1.
       -1   -1    0    0    0  501  0.00000000000E+00  0.00000000000E+00 -0.28713658676E+04  0.28713658676E+04  0.50400001928E-02 0. -1.
    10030    2    1    2    0    0  0.00000000000E+00  0.00000000000E+00 -0.18396482550E+04  0.39030834802E+04  0.34423473025E+04 0.  0.
        2    1    3    3  502    0 -0.47636935994E+03 -0.10715376218E+03 -0.27911913664E+04  0.28335770573E+04  0.25500000920E-02 0. -1.
       -2    1    3    3    0  502  0.47636935994E+03  0.10715376218E+03  0.95154311136E+03  0.10695064229E+04  0.25500000920E-02 0.  1.
</event>
<event>
 5   0  0.1442864E-06  0.3507390E+04  0.7818609E-02  0.8112041E-01
        2   -1    0    0  501    0  0.00000000000E+00  0.00000000000E+00  0.18056626912E+04  0.18056626912E+04  0.25500000920E-02 0. -1.
       -2   -1    0    0    0  501  0.00000000000E+00  0.00000000000E+00 -0.17032230448E+04  0.17032230448E+04  0.25500000920E-02 0.  1.
    10030    2    1    2    0    0  0.00000000000E+00  0.00000000000E+00  0.10243964646E+03  0.35088857360E+04  0.35073900877E+04 0.  0.
        1    1    3    3  502    0 -0.15366421164E+04  0.47726119216E+02  0.89532100627E+03  0.17790858553E+04  0.50400001928E-02 0. -1.
       -1    1    3    3    0  502  0.15366421164E+04 -0.47726119216E+02 -0.79288135981E+03  0.17297998807E+04  0.50400001928E-02 0.  1.
</event>
<event>
 5   0  0.4409125E-07  0.3516302E+04  0.7818609E-02  0.8109937E-01
       -1   -1    0    0    0  501  0.00000000000E+00  0.00000000000E+00  0.22841067248E+04  0.22841067248E+04  0.50400001928E-02 0. -1.
        1   -1    0    0  501    0  0.00000000000E+00  0.00000000000E+00 -0.13533061911E+04  0.13533061911E+04  0.50400001928E-02 0.  1.
    10030    2    1    2    0    0  0.00000000000E+00  0.00000000000E+00  0.93080053372E+03  0.36374129159E+04  0.35163024738E+04 0.  0.
        5    1    3    3  502    0 -0.15796234763E+04  0.52870166904E+03 -0.11641081905E+03  0.16698231494E+04  0.46999998093E+01 0. -1.
       -5    1    3    3    0  502  0.15796234763E+04 -0.52870166904E+03  0.10472113528E+04  0.19675897664E+04  0.46999998093E+01 0.  1.
</event>
<event>
 5   0  0.4557237E-07  0.3147532E+04  0.7818609E-02  0.8202813E-01
       -1   -1    0    0    0  501  0.00000000000E+00  0.00000000000E+00  0.12805020835E+04  0.12805020835E+04  0.50400001928E-02 0. -1.
        1   -1    0    0  501    0  0.00000000000E+00  0.00000000000E+00 -0.19341935372E+04  0.19341935372E+04  0.50400001928E-02 0.  1.
    10030    2    1    2    0    0  0.00000000000E+00  0.00000000000E+00 -0.65369145367E+03  0.32146956207E+04  0.31475316388E+04 0.  0.
        2    1    3    3  502    0 -0.51660955922E+03  0.81513394891E+03  0.94282650699E+03  0.13491666367E+04  0.25500000920E-02 0. -1.
       -2    1    3    3    0  502  0.51660955922E+03 -0.81513394891E+03 -0.15965179607E+04  0.18655289840E+04  0.25500000920E-02 0.  1.
</event>
<event>
 5   0  0.1378620E-06  0.3582236E+04  0.7818609E-02  0.8094573E-01
        2   -1    0    0  501    0  0.00000000000E+00  0.00000000000E+00  0.19356645133E+04  0.19356645133E+04  0.25500000920E-02 0. -1.
       -2   -1    0    0    0  501  0.00000000000E+00  0.00000000000E+00 -0.16573653627E+04  0.16573653627E+04  0.25500000920E-02 0.  1.
    10030    2    1    2    0    0  0.00000000000E+00  0.00000000000E+00  0.27829915059E+03  0.35930298760E+04  0.35822357924E+04 0.  0.
        2    1    3    3  502    0  0.92104509871E+03 -0.13528328713E+04 -0.59079495608E+03  0.17399768768E+04  0.25500000920E-02 0.  1.
       -2    1    3    3    0  502 -0.92104509871E+03  0.13528328713E+04  0.86909410667E+03  0.18530529992E+04  0.25500000920E-02 0. -1.
</event>
<event>
 5   0  0.1378620E-06  0.3624367E+04  0.7818609E-02  0.8084933E-01
        2   -1    0    0  501    0  0.00000000000E+00  0.00000000000E+00  0.15080704061E+04  0.15080704061E+04  0.25500000920E-02 0.  1.
       -2   -1    0    0    0  501  0.00000000000E+00  0.00000000000E+00 -0.21776235806E+04  0.21776235806E+04  0.25500000920E-02 0. -1.
    10030    2    1    2    0    0  0.00000000000E+00  0.00000000000E+00 -0.66955317455E+03  0.36856939867E+04  0.36243673530E+04 0.  0.
        2    1    3    3  502    0  0.99383674704E+03 -0.12568088444E+04  0.52614732948E+03  0.16864492176E+04  0.25500000920E-02 0.  1.
       -2    1    3    3    0  502 -0.99383674704E+03  0.12568088444E+04 -0.11957005040E+04  0.19992447691E+04  0.25500000920E-02 0. -1.
</event>
<event>
 5   0  0.1387133E-06  0.3503005E+04  0.7818609E-02  0.8113078E-01
       -2   -1    0    0    0  501  0.00000000000E+00  0.00000000000E+00  0.14005103052E+04  0.14005103052E+04  0.25500000920E-02 0. -1.
        2   -1    0    0  501    0  0.00000000000E+00  0.00000000000E+00 -0.21904590418E+04  0.21904590418E+04  0.25500000920E-02 0.  1.
    10030    2    1    2    0    0  0.00000000000E+00  0.00000000000E+00 -0.78994873652E+03  0.35909693470E+04  0.35030046881E+04 0.  0.
        4    1    3    3  502    0  0.76118741950E+03 -0.13616083109E+04 -0.12114517068E+04  0.19750950181E+04  0.12699999809E+01 0.  1.
       -4    1    3    3    0  502 -0.76118741950E+03  0.13616083109E+04  0.42150297029E+03  0.16158743289E+04  0.12699999809E+01 0. -1.
</event>
<event>
 5   0  0.1378620E-06  0.3234342E+04  0.7818609E-02  0.8179806E-01
       -2   -1    0    0    0  501  0.00000000000E+00  0.00000000000E+00  0.13057488958E+04  0.13057488958E+04  0.25500000920E-02 0.  1.
        2   -1    0    0  501    0  0.00000000000E+00  0.00000000000E+00 -0.20028680143E+04  0.20028680143E+04  0.25500000920E-02 0. -1.
    10030    2    1    2    0    0  0.00000000000E+00  0.00000000000E+00 -0.69711911853E+03  0.33086169101E+04  0.32343424050E+04 0.  0.
        2    1    3    3  502    0  0.10276981554E+04 -0.78263728779E+03 -0.13438139970E+04  0.18640066206E+04  0.25500000920E-02 0.  1.
       -2    1    3    3    0  502 -0.10276981554E+04  0.78263728779E+03  0.64669487849E+03  0.14446102896E+04  0.25500000920E-02 0. -1.
</event>
<event>
 5   0  0.1378620E-06  0.3426241E+04  0.7818609E-02  0.8131496E-01
       -2   -1    0    0    0  501  0.00000000000E+00  0.00000000000E+00  0.20202697777E+04  0.20202697777E+04  0.25500000920E-02 0.  1.
        2   -1    0    0  501    0  0.00000000000E+00  0.00000000000E+00 -0.14526684767E+04  0.14526684767E+04  0.25500000920E-02 0. -1.
    10030    2    1    2    0    0  0.00000000000E+00  0.00000000000E+00  0.56760130099E+03  0.34729382545E+04  0.34262412178E+04 0.  0.
        2    1    3    3  502    0  0.97282717940E+03  0.10439277547E+04  0.12446678827E+04  0.18935089163E+04  0.25500000920E-02 0.  1.
       -2    1    3    3    0  502 -0.97282717940E+03 -0.10439277547E+04 -0.67706658167E+03  0.15794293381E+04  0.25500000920E-02 0. -1.
</event>
<event>
 5   0  0.1361560E-06  0.3536341E+04  0.7818609E-02  0.8105231E-01
       -2   -1    0    0    0  501  0.00000000000E+00  0.00000000000E+00  0.14898182390E+04  0.14898182390E+04  0.25500000920E-02 0. -1.
        2   -1    0    0  501    0  0.00000000000E+00  0.00000000000E+00 -0.20985287128E+04  0.20985287128E+04  0.25500000920E-02 0.  1.
    10030    2    1    2    0    0  0.00000000000E+00  0.00000000000E+00 -0.60871047374E+03  0.35883469518E+04  0.35363406801E+04 0.  0.
        3    1    3    3  502    0 -0.11784290590E+04  0.84683983707E+03  0.72074597694E+03  0.16202800777E+04  0.10100000352E+00 0. -1.
       -3    1    3    3    0  502  0.11784290590E+04 -0.84683983707E+03 -0.13294564507E+04  0.19680668741E+04  0.10100000352E+00 0.  1.
</event>
<event>
 5   0  0.4591195E-07  0.3475152E+04  0.7818609E-02  0.8119704E-01
       -1   -1    0    0    0  501  0.00000000000E+00  0.00000000000E+00  0.19474804680E+04  0.19474804680E+04  0.50400001928E-02 0.  1.
        1   -1    0    0  501    0  0.00000000000E+00  0.00000000000E+00 -0.15502954048E+04  0.15502954048E+04  0.50400001928E-02 0. -1.
    10030    2    1    2    0    0  0.00000000000E+00  0.00000000000E+00  0.39718506319E+03  0.34977758728E+04  0.34751518071E+04 0.  0.
        4    1    3    3  502    0  0.17352969192E+04 -0.82554871547E+02  0.16524523479E+03  0.17451012306E+04  0.12699999809E+01 0. -1.
       -4    1    3    3    0  502 -0.17352969192E+04  0.82554871547E+02  0.23193982840E+03  0.17526746422E+04  0.12699999809E+01 0.  1.
</event>
<event>
 5   0  0.4693374E-07  0.3473593E+04  0.7818609E-02  0.8120077E-01
       -1   -1    0    0    0  501  0.00000000000E+00  0.00000000000E+00  0.23580425081E+04  0.23580425081E+04  0.50400001928E-02 0.  1.
        1   -1    0    0  501    0  0.00000000000E+00  0.00000000000E+00 -0.12792231149E+04  0.12792231149E+04  0.50400001928E-02 0. -1.
    10030    2    1    2    0    0  0.00000000000E+00  0.00000000000E+00  0.10788193932E+04  0.36372656231E+04  0.34735932303E+04 0.  0.
        1    1    3    3  502    0  0.14357016372E+04  0.83084035377E+03  0.10783735744E+04  0.19784904474E+04  0.50400001928E-02 0. -1.
       -1    1    3    3    0  502 -0.14357016372E+04 -0.83084035377E+03  0.44581885814E+00  0.16587751757E+04  0.50400001928E-02 0.  1.
</event>
<event>
 5   0  0.4700769E-07  0.3624317E+04  0.7818609E-02  0.8084944E-01
       -1   -1    0    0    0  501  0.00000000000E+00  0.00000000000E+00  0.19513711828E+04  0.19513711828E+04  0.50400001928E-02 0.  1.
        1   -1    0    0  501    0  0.00000000000E+00  0.00000000000E+00 -0.16828772916E+04  0.16828772916E+04  0.50400001928E-02 0. -1.
    10030    2    1    2    0    0  0.00000000000E+00  0.00000000000E+00  0.26849389125E+03  0.36342484744E+04  0.36243169017E+04 0.  0.
        3    1    3    3  502    0 -0.40167220010E+03 -0.12450120027E+03  0.19017674882E+04  0.19477065217E+04  0.10100000352E+00 0.  1.
       -3    1    3    3    0  502  0.40167220010E+03  0.12450120027E+03 -0.16332735970E+04  0.16865419526E+04  0.10100000352E+00 0. -1.
</event>
<event>
 5   0  0.4557237E-07  0.3490269E+04  0.7818609E-02  0.8116100E-01
        1   -1    0    0  501    0  0.00000000000E+00  0.00000000000E+00  0.18907349260E+04  0.18907349260E+04  0.50400001928E-02 0. -1.
       -1   -1    0    0    0  501  0.00000000000E+00  0.00000000000E+00 -0.16107467606E+04  0.16107467606E+04  0.50400001928E-02 0.  1.
    10030    2    1    2    0    0  0.00000000000E+00  0.00000000000E+00  0.27998816536E+03  0.35014816866E+04  0.34902694206E+04 0.  0.
        2    1    3    3  502    0 -0.13983142055E+04 -0.45365251331E+03 -0.80345877609E+03  0.16752997419E+04  0.25500000920E-02 0.  1.
       -2    1    3    3    0  502  0.13983142055E+04  0.45365251331E+03  0.10834469414E+04  0.18261819447E+04  0.25500000920E-02 0. -1.
</event>
<event>
 5   0  0.4700769E-07  0.3405774E+04  0.7818609E-02  0.8136491E-01
        1   -1    0    0  501    0  0.00000000000E+00  0.00000000000E+00  0.18727208430E+04  0.18727208430E+04  0.50400001928E-02 0. -1.
       -1   -1    0    0    0  501  0.00000000000E+00  0.00000000000E+00 -0.15484554209E+04  0.15484554209E+04  0.50400001928E-02 0.  1.
    10030    2    1    2    0    0  0.00000000000E+00  0.00000000000E+00  0.32426542215E+03  0.34211762639E+04  0.34057743561E+04 0.  0.
        3    1    3    3  502    0 -0.18334504470E+03  0.11998489397E+04  0.13619259319E+04  0.18243067554E+04  0.10100000352E+00 0. -1.
       -3    1    3    3    0  502  0.18334504470E+03 -0.11998489397E+04 -0.10376605098E+04  0.15968695085E+04  0.10100000352E+00 0.  1.
</event>
<event>
 5   0  0.1387133E-06  0.3512099E+04  0.7818609E-02  0.8110929E-01
        2   -1    0    0  501    0  0.00000000000E+00  0.00000000000E+00  0.21247465173E+04  0.21247465173E+04  0.25500000920E-02 0.  1.
       -2   -1    0    0    0  501  0.00000000000E+00  0.00000000000E+00 -0.14513309869E+04  0.14513309869E+04  0.25500000920E-02 0. -1.
    10030    2    1    2    0    0  0.00000000000E+00  0.00000000000E+00  0.67341553032E+03  0.35760775042E+04  0.35120993493E+04 0.  0.
        4    1    3    3  502    0 -0.74800850949E+03  0.13176454366E+04 -0.56715804884E+03  0.16178306747E+04  0.12699999809E+01 0. -1.
       -4    1    3    3    0  502  0.74800850949E+03 -0.13176454366E+04  0.12405735792E+04  0.19582468295E+04  0.12699999809E+01 0.  1.
</event>
<event>
 5   0  0.1387133E-06  0.3545064E+04  0.7818609E-02  0.8103193E-01
       -2   -1    0    0    0  501  0.00000000000E+00  0.00000000000E+00  0.10748445888E+04  0.10748445888E+04  0.25500000920E-02 0. -1.
        2   -1    0    0  501    0  0.00000000000E+00  0.00000000000E+00 -0.29230926717E+04  0.29230926717E+04  0.25500000920E-02 0.  1.
    10030    2    1    2    0    0  0.00000000000E+00  0.00000000000E+00 -0.18482480829E+04  0.39979372605E+04  0.35450643666E+04 0.  0.
        4    1    3    3  502    0 -0.10866782685E+04  0.10655130947E+04  0.10062606569E+03  0.15252262232E+04  0.12699999809E+01 0. -1.
       -4    1    3    3    0  502  0.10866782685E+04 -0.10655130947E+04 -0.19488741486E+04  0.24727110373E+04  0.12699999809E+01 0.  1.
</event>
<event>
 5   0  0.1378620E-06  0.2680486E+04  0.7818609E-02  0.8341365E-01
       -2   -1    0    0    0  501  0.00000000000E+00  0.00000000000E+00  0.11337812693E+04  0.11337812693E+04  0.25500000920E-02 0.  1.
        2   -1    0    0  501    0  0.00000000000E+00  0.00000000000E+00 -0.15843011279E+04  0.15843011279E+04  0.25500000920E-02 0. -1.
    10030    2    1    2    0    0  0.00000000000E+00  0.00000000000E+00 -0.45051985852E+03  0.27180823972E+04  0.26804857349E+04 0.  0.
        2    1    3    3  502    0  0.33403787412E+02 -0.13296117298E+04 -0.57814229363E+02  0.13312872155E+04  0.25500000920E-02 0.  1.
       -2    1    3    3    0  502 -0.33403787412E+02  0.13296117298E+04 -0.39270562916E+03  0.13867951817E+04  0.25500000920E-02 0. -1.
</event>
<event>
 5   0  0.4409125E-07  0.3499110E+04  0.7818609E-02  0.8114001E-01
        3   -1    0    0  501    0  0.00000000000E+00  0.00000000000E+00  0.16967453319E+04  0.16967453350E+04  0.10100000352E+00 0. -1.
       -3   -1    0    0    0  501  0.00000000000E+00  0.00000000000E+00 -0.18040078888E+04  0.18040078916E+04  0.10100000352E+00 0.  1.
    10030    2    1    2    0    0  0.00000000000E+00  0.00000000000E+00 -0.10726255684E+03  0.35007532266E+04  0.34991095863E+04 0.  0.
        5    1    3    3  502    0  0.91835012215E+03  0.86280734428E+03  0.11606589200E+04  0.17131709427E+04  0.46999998093E+01 0. -1.
       -5    1    3    3    0  502 -0.91835012215E+03 -0.86280734428E+03 -0.12679214769E+04  0.17875822839E+04  0.46999998093E+01 0.  1.
</event>
<event>
 5   0  0.4591195E-07  0.3550559E+04  0.7818609E-02  0.8101912E-01
        1   -1    0    0  501    0  0.00000000000E+00  0.00000000000E+00  0.13919504923E+04  0.13919504923E+04  0.50400001928E-02 0. -1.
       -1   -1    0    0    0  501  0.00000000000E+00  0.00000000000E+00 -0.22641735999E+04  0.22641735999E+04  0.50400001928E-02 0.  1.
    10030    2    1    2    0    0  0.00000000000E+00  0.00000000000E+00 -0.87222310761E+03  0.36561240921E+04  0.35505591430E+04 0.  0.
        4    1    3    3  502    0 -0.42867601738E+03 -0.12626305642E+04 -0.16429718088E+04  0.21159766178E+04  0.12699999809E+01 0.  1.
       -4    1    3    3    0  502  0.42867601738E+03  0.12626305642E+04  0.77074870122E+03  0.15401474744E+04  0.12699999809E+01 0. -1.
</event>
<event>
 5   0  0.4700769E-07  0.3473184E+04  0.7818609E-02  0.8120174E-01
       -1   -1    0    0    0  501  0.00000000000E+00  0.00000000000E+00  0.13582388583E+04  0.13582388584E+04  0.50400001928E-02 0. -1.
        1   -1    0    0  501    0  0.00000000000E+00  0.00000000000E+00 -0.22203402477E+04  0.22203402477E+04  0.50400001928E-02 0.  1.
    10030    2    1    2    0    0  0.00000000000E+00  0.00000000000E+00 -0.86210138933E+03  0.35785791060E+04  0.34731843620E+04 0.  0.
        3    1    3    3  502    0 -0.15475568025E+04 -0.72648889765E+03 -0.11677981620E+03  0.17135797942E+04  0.10100000352E+00 0. -1.
       -3    1    3    3    0  502  0.15475568025E+04  0.72648889765E+03 -0.74532157313E+03  0.18649993118E+04  0.10100000352E+00 0.  1.
</event>
<event>
 5   0  0.4591195E-07  0.3485576E+04  0.7818609E-02  0.8117217E-01
        1   -1    0    0  501    0  0.00000000000E+00  0.00000000000E+00  0.16310124467E+04  0.16310124467E+04  0.50400001928E-02 0.  1.
       -1   -1    0    0    0  501  0.00000000000E+00  0.00000000000E+00 -0.18622240558E+04  0.18622240558E+04  0.50400001928E-02 0. -1.
    10030    2    1    2    0    0  0.00000000000E+00  0.00000000000E+00 -0.23121160907E+03  0.34932365025E+04  0.34855763446E+04 0.  0.
        4    1    3    3  502    0  0.53722511267E+03 -0.43030990020E+03  0.14890161321E+04  0.16404109505E+04  0.12699999809E+01 0.  1.
       -4    1    3    3    0  502 -0.53722511267E+03  0.43030990020E+03 -0.17202277411E+04  0.18528255520E+04  0.12699999809E+01 0. -1.
</event>
<event>
 5   0  0.4591195E-07  0.3580418E+04  0.7818609E-02  0.8094992E-01
       -1   -1    0    0    0  501  0.00000000000E+00  0.00000000000E+00  0.25179102031E+04  0.25179102031E+04  0.50400001928E-02 0. -1.
        1   -1    0    0  501    0  0.00000000000E+00  0.00000000000E+00 -0.12728206303E+04  0.12728206303E+04  0.50400001928E-02 0.  1.
    10030    2    1    2    0    0  0.00000000000E+00  0.00000000000E+00  0.12450895729E+04  0.37907308334E+04  0.35804178816E+04 0.  0.
        4    1    3    3  502    0  0.67817166645E+03 -0.16567682620E+04  0.62992228421E+03  0.18977886026E+04  0.12699999809E+01 0.  1.
       -4    1    3    3    0  502 -0.67817166645E+03  0.16567682620E+04  0.61516728864E+03  0.18929422308E+04  0.12699999809E+01 0. -1.
</event>
<event>
 5   0  0.1442864E-06  0.3516589E+04  0.7818609E-02  0.8109870E-01
       -2   -1    0    0    0  501  0.00000000000E+00  0.00000000000E+00  0.15565555041E+04  0.15565555041E+04  0.25500000920E-02 0. -1.
        2   -1    0    0  501    0  0.00000000000E+00  0.00000000000E+00 -0.19861800229E+04  0.19861800229E+04  0.25500000920E-02 0.  1.
    10030    2    1    2    0    0  0.00000000000E+00  0.00000000000E+00 -0.42962451885E+03  0.35427355270E+04  0.35165889420E+04 0.  0.
        1    1    3    3  502    0 -0.16842760733E+04 -0.42588279466E+03  0.58195992938E+02  0.17382602854E+04  0.50400001928E-02 0.  1.
       -1    1    3    3    0  502  0.16842760733E+04  0.42588279466E+03 -0.48782051179E+03  0.18044752417E+04  0.50400001928E-02 0. -1.
</event>
<event>
 5   0  0.1378620E-06  0.3509331E+04  0.7818609E-02  0.8111582E-01
        2   -1    0    0  501    0  0.00000000000E+00  0.00000000000E+00  0.26315066902E+04  0.26315066902E+04  0.25500000920E-02 0. -1.
       -2   -1    0    0    0  501  0.00000000000E+00  0.00000000000E+00 -0.11699956175E+04  0.11699956175E+04  0.25500000920E-02 0.  1.
    10030    2    1    2    0    0  0.00000000000E+00  0.00000000000E+00  0.14615110728E+04  0.38015023077E+04  0.35093311585E+04 0.  0.
        2    1    3    3  502    0  0.78575235142E+03  0.15648748622E+04  0.85240470970E+03  0.19475199309E+04  0.25500000920E-02 0.  1.
       -2    1    3    3    0  502 -0.78575235142E+03 -0.15648748622E+04  0.60910636307E+03  0.18539823768E+04  0.25500000920E-02 0. -1.
</event>
<event>
 5   0  0.1361560E-06  0.2896676E+04  0.7818609E-02  0.8273867E-01
        2   -1    0    0  501    0  0.00000000000E+00  0.00000000000E+00  0.14574770048E+04  0.14574770048E+04  0.25500000920E-02 0.  1.
       -2   -1    0    0    0  501  0.00000000000E+00  0.00000000000E+00 -0.14392562876E+04  0.14392562876E+04  0.25500000920E-02 0. -1.
    10030    2    1    2    0    0  0.00000000000E+00  0.00000000000E+00  0.18220717244E+02  0.28967332924E+04  0.28966759869E+04 0.  0.
        3    1    3    3  502    0  0.13691600759E+04 -0.17960196267E+03  0.44595621834E+03  0.14511144466E+04  0.10100000352E+00 0.  1.
       -3    1    3    3    0  502 -0.13691600759E+04  0.17960196267E+03 -0.42773550109E+03  0.14456188458E+04  0.10100000352E+00 0. -1.
</event>
<event>
 5   0  0.1348388E-06  0.3500483E+04  0.7818609E-02  0.8113675E-01
       -2   -1    0    0    0  501  0.00000000000E+00  0.00000000000E+00  0.16822085494E+04  0.16822085494E+04  0.25500000920E-02 0.  1.
        2   -1    0    0  501    0  0.00000000000E+00  0.00000000000E+00 -0.18210260515E+04  0.18210260515E+04  0.25500000920E-02 0. -1.
    10030    2    1    2    0    0  0.00000000000E+00  0.00000000000E+00 -0.13881750208E+03  0.35032346009E+04  0.35004831623E+04 0.  0.
        5    1    3    3  502    0  0.12245672023E+04 -0.10632414575E+04  0.58934588093E+03  0.17255138038E+04  0.46999998093E+01 0.  1.
       -5    1    3    3    0  502 -0.12245672023E+04  0.10632414575E+04 -0.72816338302E+03  0.17777207970E+04  0.46999998093E+01 0. -1.
</event>
<event>
 5   0  0.4409125E-07  0.3446333E+04  0.7818609E-02  0.8126627E-01
        1   -1    0    0  501    0  0.00000000000E+00  0.00000000000E+00  0.28563752625E+04  0.28563752625E+04  0.50400001928E-02 0. -1.
       -1   -1    0    0    0  501  0.00000000000E+00  0.00000000000E+00 -0.10395354936E+04  0.10395354936E+04  0.50400001928E-02 0.  1.
    10030    2    1    2    0    0  0.00000000000E+00  0.00000000000E+00  0.18168397690E+04  0.38959107561E+04  0.34463333956E+04 0.  0.
        5    1    3    3  502    0 -0.14993141395E+04  0.55010421748E+03  0.17691782153E+03  0.16068228105E+04  0.46999998093E+01 0. -1.
       -5    1    3    3    0  502  0.14993141395E+04 -0.55010421748E+03  0.16399219474E+04  0.22890879456E+04  0.46999998093E+01 0.  1.
</event>
<event>
 5   0  0.4557237E-07  0.3513953E+04  0.7818609E-02  0.8110491E-01
        1   -1    0    0  501    0  0.00000000000E+00  0.00000000000E+00  0.91035605718E+03  0.91035605719E+03  0.50400001928E-02 0.  1.
       -1   -1    0    0    0  501  0.00000000000E+00  0.00000000000E+00 -0.33909445949E+04  0.33909445949E+04  0.50400001928E-02 0. -1.
    10030    2    1    2    0    0  0.00000000000E+00  0.00000000000E+00 -0.24805885377E+04  0.43013006521E+04  0.35139533016E+04 0.  0.
        2    1    3    3  502    0 -0.76816946135E+03 -0.44036555120E+03  0.61728385615E+03  0.10793727341E+04  0.25500000920E-02 0.  1.
       -2    1    3    3    0  502  0.76816946135E+03  0.44036555120E+03 -0.30978723939E+04  0.32219279180E+04  0.25500000920E-02 0. -1.
</event>
<event>
 5   0  0.4409125E-07  0.3551267E+04  0.7818609E-02  0.8101747E-01
       -1   -1    0    0    0  501  0.00000000000E+00  0.00000000000E+00  0.15111860072E+04  0.15111860072E+04  0.50400001928E-02 0. -1.
        1   -1    0    0  501    0  0.00000000000E+00  0.00000000000E+00 -0.20863580674E+04  0.20863580675E+04  0.50400001928E-02 0.  1.
    10030    2    1    2    0    0  0.00000000000E+00  0.00000000000E+00 -0.57517206029E+03  0.35975440746E+04  0.35512674456E+04 0.  0.
        5    1    3    3  502    0 -0.37905279217E+03  0.17345991464E+04 -0.26896693192E+03  0.17957952329E+04  0.46999998093E+01 0.  1.
       -5    1    3    3    0  502  0.37905279217E+03 -0.17345991464E+04 -0.30620512837E+03  0.18017488417E+04  0.46999998093E+01 0. -1.
</event>
<event>
 5   0  0.1378620E-06  0.3520347E+04  0.7818609E-02  0.8108985E-01
        2   -1    0    0  501    0  0.00000000000E+00  0.00000000000E+00  0.20311609969E+04  0.20311609969E+04  0.25500000920E-02 0.  1.
       -2   -1    0    0    0  501  0.00000000000E+00  0.00000000000E+00 -0.15253396331E+04  0.15253396331E+04  0.25500000920E-02 0. -1.
    10030    2    1    2    0    0  0.00000000000E+00  0.00000000000E+00  0.50582136375E+03  0.35565006300E+04  0.35203467839E+04 0.  0.
        2    1    3    3  502    0  0.13959068800E+04 -0.87979826177E+02  0.13324889232E+04  0.19317927420E+04  0.25500000920E-02 0. -1.
       -2    1    3    3    0  502 -0.13959068800E+04  0.87979826177E+02 -0.82666755950E+03  0.16247078880E+04  0.25500000920E-02 0.  1.
</event>
<event>
 5   0  0.1442864E-06  0.3498258E+04  0.7818609E-02  0.8114203E-01
       -2   -1    0    0    0  501  0.00000000000E+00  0.00000000000E+00  0.12214606970E+04  0.12214606970E+04  0.25500000920E-02 0. -1.
        2   -1    0    0  501    0  0.00000000000E+00  0.00000000000E+00 -0.25047494142E+04  0.25047494142E+04  0.25500000920E-02 0.  1.
    10030    2    1    2    0    0  0.00000000000E+00  0.00000000000E+00 -0.12832887172E+04  0.37262101112E+04  0.34982584040E+04 0.  0.
        1    1    3    3  502    0  0.12401942831E+04 -0.10388550104E+04 -0.13499177765E+04  0.21070309907E+04  0.50400001928E-02 0.  1.
       -1    1    3    3    0  502 -0.12401942831E+04  0.10388550104E+04  0.66629059327E+02  0.16191791205E+04  0.50400001928E-02 0. -1.
</event>
<event>
 5   0  0.1442864E-06  0.3500235E+04  0.7818609E-02  0.8113734E-01
       -2   -1    0    0    0  501  0.00000000000E+00  0.00000000000E+00  0.19935019877E+04  0.19935019877E+04  0.25500000920E-02 0.  1.
        2   -1    0    0  501    0  0.00000000000E+00  0.00000000000E+00 -0.15364472152E+04  0.15364472152E+04  0.25500000920E-02 0. -1.
    10030    2    1    2    0    0  0.00000000000E+00  0.00000000000E+00  0.45705477250E+03  0.35299492029E+04  0.35002346079E+04 0.  0.
        1    1    3    3  502    0 -0.71467471059E+03  0.10890887898E+04  0.14072250219E+04  0.19175913528E+04  0.50400001928E-02 0.  1.
       -1    1    3    3    0  502  0.71467471059E+03 -0.10890887898E+04 -0.95017024940E+03  0.16123578501E+04  0.50400001928E-02 0. -1.
</event>
<event>
 5   0  0.1361560E-06  0.3515290E+04  0.7818609E-02  0.8110176E-01
       -2   -1    0    0    0  501  0.00000000000E+00  0.00000000000E+00  0.16721124229E+04  0.16721124229E+04  0.25500000920E-02 0.  1.
        2   -1    0    0  501    0  0.00000000000E+00  0.00000000000E+00 -0.18475531726E+04  0.18475531726E+04  0.25500000920E-02 0. -1.
    10030    2    1    2    0    0  0.00000000000E+00  0.00000000000E+00 -0.17544074976E+03  0.35196655955E+04  0.35152903789E+04 0.  0.
        3    1    3    3  502    0 -0.23415995714E+02  0.16944627687E+04  0.37929796194E+03  0.17365538683E+04  0.10100000352E+00 0.  1.
       -3    1    3    3    0  502  0.23415995714E+02 -0.16944627687E+04 -0.55473871170E+03  0.17831117272E+04  0.10100000352E+00 0. -1.
</event>
<event>
 5   0  0.4591195E-07  0.3485573E+04  0.7818609E-02  0.8117217E-01
       -1   -1    0    0    0  501  0.00000000000E+00  0.00000000000E+00  0.20926552214E+04  0.20926552215E+04  0.50400001928E-02 0. -1.
        1   -1    0    0  501    0  0.00000000000E+00  0.00000000000E+00 -0.14514120639E+04  0.14514120639E+04  0.50400001928E-02 0.  1.
    10030    2    1    2    0    0  0.00000000000E+00  0.00000000000E+00  0.64124315758E+03  0.35440672853E+04  0.34855731431E+04 0.  0.
        4    1    3    3  502    0 -0.60801923106E+03  0.13891681325E+04  0.11940057266E+04  0.19300587487E+04  0.12699999809E+01 0. -1.
       -4    1    3    3    0  502  0.60801923106E+03 -0.13891681325E+04 -0.55276256900E+03  0.16140085366E+04  0.12699999809E+01 0.  1.
</event>
<event>
 5   0  0.1361560E-06  0.3573061E+04  0.7818609E-02  0.8096690E-01
       -2   -1    0    0    0  501  0.00000000000E+00  0.00000000000E+00  0.15011516133E+04  0.15011516133E+04  0.25500000920E-02 0. -1.
        2   -1    0    0  501    0  0.00000000000E+00  0.00000000000E+00 -0.21261618107E+04  0.21261618107E+04  0.25500000920E-02 0.  1.
    10030    2    1    2    0    0  0.00000000000E+00  0.00000000000E+00 -0.62501019740E+03  0.36273134240E+04  0.35730610027E+04 0.  0.
        3    1    3    3  502    0 -0.16710333171E+04  0.63127690248E+03 -0.34172313276E+03  0.18186911733E+04  0.10100000352E+00 0.  1.
       -3    1    3    3    0  502  0.16710333171E+04 -0.63127690248E+03 -0.28328706463E+03  0.18086222506E+04  0.10100000352E+00 0. -1.
</event>
<event>
 5   0  0.4557237E-07  0.3527727E+04  0.7818609E-02  0.8107250E-01
        1   -1    0    0  501    0  0.00000000000E+00  0.00000000000E+00  0.17816293431E+04  0.17816293431E+04  0.50400001928E-02 0.  1.
       -1   -1    0    0    0  501  0.00000000000E+00  0.00000000000E+00 -0.17462749664E+04  0.17462749664E+04  0.50400001928E-02 0. -1.
    10030    2    1    2    0    0  0.00000000000E+00  0.00000000000E+00  0.35354376707E+02  0.35279043094E+04  0.35277271556E+04 0.  0.
        2    1    3    3  502    0  0.73235655717E+03  0.13982261573E+04  0.80501095611E+03  0.17718423048E+04  0.25500000920E-02 0. -1.
       -2    1    3    3    0  502 -0.73235655717E+03 -0.13982261573E+04 -0.76965657940E+03  0.17560620046E+04  0.25500000920E-02 0.  1.
</event>
<event>
 5   0  0.1348388E-06  0.3502661E+04  0.7818609E-02  0.8113160E-01
        2   -1    0    0  501    0  0.00000000000E+00  0.00000000000E+00  0.20328297936E+04  0.20328297936E+04  0.25500000920E-02 0. -1.
       -2   -1    0    0    0  501  0.00000000000E+00  0.00000000000E+00 -0.15088125283E+04  0.15088125283E+04  0.25500000920E-02 0.  1.
    10030    2    1    2    0    0  0.00000000000E+00  0.00000000000E+00  0.52401726530E+03  0.35416423219E+04  0.35026613084E+04 0.  0.
        5    1    3    3  502    0 -0.52627566229E+03  0.72540976382E+03  0.17833971008E+04  0.19959240234E+04  0.46999998093E+01 0. -1.
       -5    1    3    3    0  502  0.52627566229E+03 -0.72540976382E+03 -0.12593798355E+04  0.15457182984E+04  0.46999998093E+01 0.  1.
</event>
<event>
 5   0  0.1361560E-06  0.3492386E+04  0.7818609E-02  0.8115597E-01
       -2   -1    0    0    0  501  0.00000000000E+00  0.00000000000E+00  0.91582039096E+03  0.91582039097E+03  0.25500000920E-02 0.  1.
        2   -1    0    0  501    0  0.00000000000E+00  0.00000000000E+00 -0.33294634862E+04  0.33294634862E+04  0.25500000920E-02 0. -1.
    10030    2    1    2    0    0  0.00000000000E+00  0.00000000000E+00 -0.24136430952E+04  0.42452838771E+04  0.34923863198E+04 0.  0.
        3    1    3    3  502    0  0.43154889149E+02 -0.65267223979E+03  0.76127648451E+03  0.10036858538E+04  0.10100000352E+00 0.  1.
       -3    1    3    3    0  502 -0.43154889149E+02  0.65267223979E+03 -0.31749195797E+04  0.32415980233E+04  0.10100000352E+00 0. -1.
</event>
<event>
 5   0  0.4557237E-07  0.3594659E+04  0.7818609E-02  0.8091716E-01
        1   -1    0    0  501    0  0.00000000000E+00  0.00000000000E+00  0.14180094505E+04  0.14180094505E+04  0.50400001928E-02 0.  1.
       -1   -1    0    0    0  501  0.00000000000E+00  0.00000000000E+00 -0.22781179449E+04  0.22781179449E+04  0.50400001928E-02 0. -1.
    10030    2    1    2    0    0  0.00000000000E+00  0.00000000000E+00 -0.86010849441E+03  0.36961273954E+04  0.35946586904E+04 0.  0.
        2    1    3    3  502    0 -0.13763379287E+04 -0.11379216974E+04 -0.22129392342E+03  0.17994840605E+04  0.25500000920E-02 0.  1.
       -2    1    3    3    0  502  0.13763379287E+04  0.11379216974E+04 -0.63881457099E+03  0.18966433348E+04  0.25500000920E-02 0. -1.
</event>
<event>
 5   0  0.4557237E-07  0.3504775E+04  0.7818609E-02  0.8112659E-01
        1   -1    0    0  501    0  0.00000000000E+00  0.00000000000E+00  0.13630669763E+04  0.13630669763E+04  0.50400001928E-02 0. -1.
       -1   -1    0    0    0  501  0.00000000000E+00  0.00000000000E+00 -0.22529056159E+04  0.22529056159E+04  0.50400001928E-02 0.  1.
    10030    2    1    2    0    0  0.00000000000E+00  0.00000000000E+00 -0.88983863966E+03  0.36159725922E+04  0.35047745980E+04 0.  0.
        2    1    3    3  502    0 -0.89458140942E+03 -0.11971474809E+04  0.49922317771E+03  0.15756464610E+04  0.25500000920E-02 0. -1.
       -2    1    3    3    0  502  0.89458140942E+03  0.11971474809E+04 -0.13890618174E+04  0.20403261312E+04  0.25500000920E-02 0.  1.
</event>
<event>
 5   0  0.4409125E-07  0.3469837E+04  0.7818609E-02  0.8120976E-01
       -3   -1    0    0    0  501  0.00000000000E+00  0.00000000000E+00  0.11108757053E+04  0.11108757099E+04  0.10100000352E+00 0.  1.
        3   -1    0    0  501    0  0.00000000000E+00  0.00000000000E+00 -0.27095223124E+04  0.27095223143E+04  0.10100000352E+00 0. -1.
    10030    2    1    2    0    0  0.00000000000E+00  0.00000000000E+00 -0.15986466071E+04  0.38203980243E+04  0.34698371848E+04 0.  0.
        4    1    3    3  502    0 -0.65600316745E+03 -0.14687956347E+04 -0.15147732770E+04  0.22095792509E+04  0.12699999809E+01 0. -1.
       -4    1    3    3    0  502  0.65600316745E+03  0.14687956347E+04 -0.83873330117E+02  0.16108187734E+04  0.12699999809E+01 0.  1.
</event>
<event>
 5   0  0.1378620E-06  0.3592246E+04  0.7818609E-02  0.8092270E-01
       -2   -1    0    0    0  501  0.00000000000E+00  0.00000000000E+00  0.17994909221E+04  0.17994909221E+04  0.25500000920E-02 0.  1.
        2   -1    0    0  501    0  0.00000000000E+00  0.00000000000E+00 -0.17927611775E+04  0.17927611775E+04  0.25500000920E-02 0. -1.
    10030    2    1    2    0    0  0.00000000000E+00  0.00000000000E+00  0.67297445876E+01  0.35922520997E+04  0.35922457959E+04 0.  0.
        2    1    3    3  502    0 -0.17710555664E+04  0.93849313597E+02 -0.28055806550E+03  0.17955941471E+04  0.25500000920E-02 0. -1.
       -2    1    3    3    0  502  0.17710555664E+04 -0.93849313597E+02  0.28728781009E+03  0.17966579526E+04  0.25500000920E-02 0.  1.
</event>
<event>
 5   0  0.1378620E-06  0.3474089E+04  0.7818609E-02  0.8119958E-01
       -2   -1    0    0    0  501  0.00000000000E+00  0.00000000000E+00  0.14386959915E+04  0.14386959915E+04  0.25500000920E-02 0.  1.
        2   -1    0    0  501    0  0.00000000000E+00  0.00000000000E+00 -0.20972626529E+04  0.20972626529E+04  0.25500000920E-02 0. -1.
    10030    2    1    2    0    0  0.00000000000E+00  0.00000000000E+00 -0.65856666137E+03  0.35359586444E+04  0.34740888716E+04 0.  0.
        2    1    3    3  502    0  0.67588816015E+02 -0.10114721029E+04  0.11063971465E+04  0.15005861218E+04  0.25500000920E-02 0.  1.
       -2    1    3    3    0  502 -0.67588816015E+02  0.10114721029E+04 -0.17649638078E+04  0.20353725227E+04  0.25500000920E-02 0. -1.
</event>
<event>
 5   0  0.4700769E-07  0.3703273E+04  0.7818609E-02  0.8067237E-01
       -1   -1    0    0    0  501  0.00000000000E+00  0.00000000000E+00  0.17034836789E+04  0.17034836789E+04  0.50400001928E-02 0.  1.
        1   -1    0    0  501    0  0.00000000000E+00  0.00000000000E+00 -0.20126745159E+04  0.20126745159E+04  0.50400001928E-02 0. -1.
    10030    2    1    2    0    0  0.00000000000E+00  0.00000000000E+00 -0.30919083702E+03  0.37161581949E+04  0.37032732488E+04 0.  0.
        3    1    3    3  502    0  0.77170371989E+03  0.50588780173E+03  0.14563277807E+04  0.17240474803E+04  0.10100000352E+00 0.  1.
       -3    1    3    3    0  502 -0.77170371989E+03 -0.50588780173E+03 -0.17655186177E+04  0.19921107145E+04  0.10100000352E+00 0. -1.
</event>
<event>
 5   0  0.1387133E-06  0.3690487E+04  0.7818609E-02  0.8070073E-01
        2   -1    0    0  501    0  0.00000000000E+00  0.00000000000E+00  0.12759248421E+04  0.12759248421E+04  0.25500000920E-02 0. -1.
       -2   -1    0    0    0  501  0.00000000000E+00  0.00000000000E+00 -0.26685928992E+04  0.26685928992E+04  0.25500000920E-02 0.  1.
    10030    2    1    2    0    0  0.00000000000E+00  0.00000000000E+00 -0.13926680570E+04  0.39445177413E+04  0.36904872164E+04 0.  0.
        4    1    3    3  502    0  0.16103121908E+04 -0.82304670334E+03 -0.10881912273E+04  0.21106096246E+04  0.12699999809E+01 0.  1.
       -4    1    3    3    0  502 -0.16103121908E+04  0.82304670334E+03 -0.30447682975E+03  0.18339081167E+04  0.12699999809E+01 0. -1.
</event>
<event>
 5   0  0.4693374E-07  0.3491738E+04  0.7818609E-02  0.8115751E-01
       -1   -1    0    0    0  501  0.00000000000E+00  0.00000000000E+00  0.15022892964E+04  0.15022892964E+04  0.50400001928E-02 0. -1.
        1   -1    0    0  501    0  0.00000000000E+00  0.00000000000E+00 -0.20289424053E+04  0.20289424053E+04  0.50400001928E-02 0.  1.
    10030    2    1    2    0    0  0.00000000000E+00  0.00000000000E+00 -0.52665310892E+03  0.35312317017E+04  0.34917379389E+04 0.  0.
        1    1    3    3  502    0 -0.16540313215E+04  0.54750739747E+03 -0.37627911280E+03  0.17824617621E+04  0.50400001928E-02 0.  1.
       -1    1    3    3    0  502  0.16540313215E+04 -0.54750739747E+03 -0.15037399612E+03  0.17487699395E+04  0.50400001928E-02 0. -1.
</event>
<event>
 5   0  0.1378620E-06  0.3570603E+04  0.7818609E-02  0.8097259E-01
        2   -1    0    0  501    0  0.00000000000E+00  0.00000000000E+00  0.23382928470E+04  0.23382928470E+04  0.25500000920E-02 0.  1.
       -2   -1    0    0    0  501  0.00000000000E+00  0.00000000000E+00 -0.13630892755E+04  0.13630892755E+04  0.25500000920E-02 0. -1.
    10030    2    1    2    0    0  0.00000000000E+00  0.00000000000E+00  0.97520357145E+03  0.37013821225E+04  0.35706032559E+04 0.  0.
        2    1    3    3  502    0  0.72238237926E+03  0.38644133999E+03  0.21319309188E+04  0.22839226461E+04  0.25500000920E-02 0.  1.
       -2    1    3    3    0  502 -0.72238237926E+03 -0.38644133999E+03 -0.11567273473E+04  0.14174594764E+04  0.25500000920E-02 0. -1.
</event>
<event>
 5   0  0.4409125E-07  0.3490779E+04  0.7818609E-02  0.8115979E-01
        1   -1    0    0  501    0  0.00000000000E+00  0.00000000000E+00  0.23771246202E+04  0.23771246203E+04  0.50400001928E-02 0. -1.
       -1   -1    0    0    0  501  0.00000000000E+00  0.00000000000E+00 -0.12815416456E+04  0.12815416456E+04  0.50400001928E-02 0.  1.
    10030    2    1    2    0    0  0.00000000000E+00  0.00000000000E+00  0.10955829747E+04  0.36586662658E+04  0.34907788229E+04 0.  0.
        5    1    3    3  502    0 -0.66021399105E+03 -0.14972908301E+04 -0.88532052537E+02  0.16387868557E+04  0.46999998093E+01 0.  1.
       -5    1    3    3    0  502  0.66021399105E+03  0.14972908301E+04  0.11841150272E+04  0.20198794102E+04  0.46999998093E+01 0. -1.
</event>
<event>
 5   0  0.1442864E-06  0.3452645E+04  0.7818609E-02  0.8125105E-01
        2   -1    0    0  501    0  0.00000000000E+00  0.00000000000E+00  0.12818216832E+04  0.12818216833E+04  0.25500000920E-02 0. -1.
       -2   -1    0    0    0  501  0.00000000000E+00  0.00000000000E+00 -0.23249642449E+04  0.23249642449E+04  0.25500000920E-02 0.  1.
    10030    2    1    2    0    0  0.00000000000E+00  0.00000000000E+00 -0.10431425617E+04  0.36067859282E+04  0.34526451204E+04 0.  0.
        1    1    3    3  502    0 -0.27083940426E+02 -0.10448461641E+04 -0.19568655671E+04  0.22185039766E+04  0.50400001928E-02 0.  1.
       -1    1    3    3    0  502  0.27083940426E+02  0.10448461641E+04  0.91372300542E+03  0.13882819516E+04  0.50400001928E-02 0. -1.
</event>
<event>
 5   0  0.4409125E-07  0.2817489E+04  0.7818609E-02  0.8297859E-01
        4   -1    0    0  501    0  0.00000000000E+00  0.00000000000E+00  0.18510219042E+04  0.18510223399E+04  0.12699999809E+01 0. -1.
       -4   -1    0    0    0  501  0.00000000000E+00  0.00000000000E+00 -0.10721428953E+04  0.10721436475E+04  0.12699999809E+01 0.  1.
    10030    2    1    2    0    0  0.00000000000E+00  0.00000000000E+00  0.77887900890E+03  0.29231659874E+04  0.28174894640E+04 0.  0.
        2    1    3    3  502    0  0.35102223381E+03 -0.11584558205E+04 -0.35823209541E+03  0.12623655298E+04  0.25500000920E-02 0.  1.
       -2    1    3    3    0  502 -0.35102223381E+03  0.11584558205E+04  0.11371111043E+04  0.16608004577E+04  0.25500000920E-02 0. -1.
</event>
<event>
 5   0  0.4693374E-07  0.2772587E+04  0.7818609E-02  0.8311830E-01
        1   -1    0    0  501    0  0.00000000000E+00  0.00000000000E+00  0.21632505280E+04  0.21632505281E+04  0.50400001928E-02 0.  1.
       -1   -1    0    0    0  501  0.00000000000E+00  0.00000000000E+00 -0.88839000669E+03  0.88839000671E+03  0.50400001928E-02 0. -1.
    10030    2    1    2    0    0  0.00000000000E+00  0.00000000000E+00  0.12748605214E+04  0.30516405348E+04  0.27725873484E+04 0.  0.
        1    1    3    3  502    0  0.23128953126E+03 -0.11846015329E+04 -0.11313892428E+03  0.12122607208E+04  0.50400001928E-02 0. -1.
       -1    1    3    3    0  502 -0.23128953126E+03  0.11846015329E+04  0.13879994456E+04  0.18393798140E+04  0.50400001928E-02 0.  1.
</event>
<event>
 5   0  0.4591195E-07  0.3503039E+04  0.7818609E-02  0.8113070E-01
       -1   -1    0    0    0  501  0.00000000000E+00  0.00000000000E+00  0.31080577397E+04  0.31080577397E+04  0.50400001928E-02 0.  1.
        1   -1    0    0  501    0  0.00000000000E+00  0.00000000000E+00 -0.98705408823E+03  0.98705408824E+03  0.50400001928E-02 0. -1.
    10030    2    1    2    0    0  0.00000000000E+00  0.00000000000E+00  0.21210036514E+04  0.40951118279E+04  0.35030393081E+04 0.  0.
        4    1    3    3  502    0 -0.51033480552E+03 -0.12768117531E+04 -0.20783002574E+03  0.13906418659E+04  0.12699999809E+01 0. -1.
       -4    1    3    3    0  502  0.51033480552E+03  0.12768117531E+04  0.23288336772E+04  0.27044699620E+04  0.12699999809E+01 0.  1.
</event>
<event>
 5   0  0.4591195E-07  0.3076612E+04  0.7818609E-02  0.8222186E-01
        1   -1    0    0  501    0  0.00000000000E+00  0.00000000000E+00  0.16835613722E+04  0.16835613722E+04  0.50400001928E-02 0.  1.
       -1   -1    0    0    0  501  0.00000000000E+00  0.00000000000E+00 -0.14055830368E+04  0.14055830368E+04  0.50400001928E-02 0. -1.
    10030    2    1    2    0    0  0.00000000000E+00  0.00000000000E+00  0.27797833538E+03  0.30891444090E+04  0.30766119718E+04 0.  0.
        4    1    3    3  502    0 -0.13508736429E+04  0.30538177851E+03 -0.53326486470E+03  0.14840790607E+04  0.12699999809E+01 0. -1.
       -4    1    3    3    0  502  0.13508736429E+04 -0.30538177851E+03  0.81124320008E+03  0.16050653483E+04  0.12699999809E+01 0.  1.
</event>
<event>
 5   0  0.1378620E-06  0.2811827E+04  0.7818609E-02  0.8299606E-01
        2   -1    0    0  501    0  0.00000000000E+00  0.00000000000E+00  0.20533512105E+04  0.20533512105E+04  0.25500000920E-02 0.  1.
       -2   -1    0    0    0  501  0.00000000000E+00  0.00000000000E+00 -0.96261824871E+03  0.96261824871E+03  0.25500000920E-02 0. -1.
    10030    2    1    2    0    0  0.00000000000E+00  0.00000000000E+00  0.10907329618E+04  0.30159694592E+04  0.28118274102E+04 0.  0.
        2    1    3    3  502    0  0.10074321661E+03 -0.12196008422E+03  0.20437753449E+04  0.20498880746E+04  0.25500000920E-02 0.  1.
       -2    1    3    3    0  502 -0.10074321661E+03  0.12196008422E+03 -0.95304238309E+03  0.96608138467E+03  0.25500000920E-02 0. -1.
</event>
<event>
 5   0  0.1378620E-06  0.2651148E+04  0.7818609E-02  0.8351032E-01
        2   -1    0    0  501    0  0.00000000000E+00  0.00000000000E+00  0.19335350523E+04  0.19335350523E+04  0.25500000920E-02 0.  1.
       -2   -1    0    0    0  501  0.00000000000E+00  0.00000000000E+00 -0.90877375955E+03  0.90877375955E+03  0.25500000920E-02 0. -1.
    10030    2    1    2    0    0  0.00000000000E+00  0.00000000000E+00  0.10247612927E+04  0.28423088118E+04  0.26511476147E+04 0.  0.
        2    1    3    3  502    0  0.20791952289E+03 -0.11825272881E+04 -0.89856764611E+02  0.12040247312E+04  0.25500000920E-02 0. -1.
       -2    1    3    3    0  502 -0.20791952289E+03  0.11825272881E+04  0.11146180574E+04  0.16382840807E+04  0.25500000920E-02 0.  1.
</event>
<event>
 5   0  0.1387133E-06  0.3587577E+04  0.7818609E-02  0.8093343E-01
       -2   -1    0    0    0  501  0.00000000000E+00  0.00000000000E+00  0.12889552437E+04  0.12889552437E+04  0.25500000920E-02 0.  1.
        2   -1    0    0  501    0  0.00000000000E+00  0.00000000000E+00 -0.24963458073E+04  0.24963458074E+04  0.25500000920E-02 0. -1.
    10030    2    1    2    0    0  0.00000000000E+00  0.00000000000E+00 -0.12073905637E+04  0.37853010510E+04  0.35875774659E+04 0.  0.
        4    1    3    3  502    0 -0.57864407328E+03 -0.15491554795E+04  0.12956278837E+03  0.16587645379E+04  0.12699999809E+01 0.  1.
       -4    1    3    3    0  502  0.57864407328E+03  0.15491554795E+04 -0.13369533521E+04  0.21265365131E+04  0.12699999809E+01 0. -1.
</event>
<event>
 5   0  0.1348388E-06  0.3529019E+04  0.7818609E-02  0.8106947E-01
       -2   -1    0    0    0  501  0.00000000000E+00  0.00000000000E+00  0.11780729177E+04  0.11780729177E+04  0.25500000920E-02 0. -1.
        2   -1    0    0  501    0  0.00000000000E+00  0.00000000000E+00 -0.26428704788E+04  0.26428704788E+04  0.25500000920E-02 0.  1.
    10030    2    1    2    0    0  0.00000000000E+00  0.00000000000E+00 -0.14647975611E+04  0.38209433965E+04  0.35290192042E+04 0.  0.
        5    1    3    3  502    0 -0.14426947263E+04  0.67450300404E+03  0.90148381419E+02  0.15951398674E+04  0.46999998093E+01 0. -1.
       -5    1    3    3    0  502  0.14426947263E+04 -0.67450300404E+03 -0.15549459426E+04  0.22258035291E+04  0.46999998093E+01 0.  1.
</event>
<event>
 5   0  0.1378620E-06  0.3461834E+04  0.7818609E-02  0.8122895E-01
       -2   -1    0    0    0  501  0.00000000000E+00  0.00000000000E+00  0.27147331547E+04  0.27147331547E+04  0.25500000920E-02 0.  1.
        2   -1    0    0  501    0  0.00000000000E+00  0.00000000000E+00 -0.11036343850E+04  0.11036343850E+04  0.25500000920E-02 0. -1.
    10030    2    1    2    0    0  0.00000000000E+00  0.00000000000E+00  0.16110987697E+04  0.38183675398E+04  0.34618335349E+04 0.  0.
        2    1    3    3  502    0 -0.12386744257E+04 -0.12088719844E+04  0.78384966255E+03  0.19000279211E+04  0.25500000920E-02 0.  1.
       -2    1    3    3    0  502  0.12386744257E+04  0.12088719844E+04  0.82724910713E+03  0.19183396187E+04  0.25500000920E-02 0. -1.
</event>
<event>
 5   0  0.1442864E-06  0.3525804E+04  0.7818609E-02  0.8107702E-01
        2   -1    0    0  501    0  0.00000000000E+00  0.00000000000E+00  0.21062637880E+04  0.21062637880E+04  0.25500000920E-02 0.  1.
       -2   -1    0    0    0  501  0.00000000000E+00  0.00000000000E+00 -0.14755152081E+04  0.14755152081E+04  0.25500000920E-02 0. -1.
    10030    2    1    2    0    0  0.00000000000E+00  0.00000000000E+00  0.63074857991E+03  0.35817789962E+04  0.35258044481E+04 0.  0.
        1    1    3    3  502    0 -0.14996081260E+02  0.86887710860E+03 -0.12428120918E+04  0.15164940514E+04  0.50400001928E-02 0. -1.
       -1    1    3    3    0  502  0.14996081260E+02 -0.86887710860E+03  0.18735606717E+04  0.20652849448E+04  0.50400001928E-02 0.  1.
</event>
<event>
 5   0  0.1387133E-06  0.3486931E+04  0.7818609E-02  0.8116894E-01
        2   -1    0    0  501    0  0.00000000000E+00  0.00000000000E+00  0.16525819782E+04  0.16525819782E+04  0.25500000920E-02 0. -1.
       -2   -1    0    0    0  501  0.00000000000E+00  0.00000000000E+00 -0.18393471949E+04  0.18393471949E+04  0.25500000920E-02 0.  1.
    10030    2    1    2    0    0  0.00000000000E+00  0.00000000000E+00 -0.18676521674E+03  0.34919291731E+04  0.34869310437E+04 0.  0.
        4    1    3    3  502    0 -0.95329030244E+03 -0.11448462521E+04  0.81358386774E+03  0.16974556443E+04  0.12699999809E+01 0. -1.
       -4    1    3    3    0  502  0.95329030244E+03  0.11448462521E+04 -0.10003490845E+04  0.17944735288E+04  0.12699999809E+01 0.  1.
</event>
<event>
 5   0  0.1387133E-06  0.3522959E+04  0.7818609E-02  0.8108370E-01
       -2   -1    0    0    0  501  0.00000000000E+00  0.00000000000E+00  0.17909456743E+04  0.17909456743E+04  0.25500000920E-02 0. -1.
        2   -1    0    0  501    0  0.00000000000E+00  0.00000000000E+00 -0.17324979847E+04  0.17324979847E+04  0.25500000920E-02 0.  1.
    10030    2    1    2    0    0  0.00000000000E+00  0.00000000000E+00  0.58447689637E+02  0.35234436590E+04  0.35229588538E+04 0.  0.
        4    1    3    3  502    0  0.56006535116E+03 -0.29065792322E+03 -0.16155853766E+04  0.17344373578E+04  0.12699999809E+01 0.  1.
       -4    1    3    3    0  502 -0.56006535116E+03  0.29065792322E+03  0.16740330663E+04  0.17890063012E+04  0.12699999809E+01 0. -1.
</event>
<event>
 5   0  0.1348388E-06  0.3482024E+04  0.7818609E-02  0.8118063E-01
        2   -1    0    0  501    0  0.00000000000E+00  0.00000000000E+00  0.14562958932E+04  0.14562958932E+04  0.25500000920E-02 0.  1.
       -2   -1    0    0    0  501  0.00000000000E+00  0.00000000000E+00 -0.20813919685E+04  0.20813919685E+04  0.25500000920E-02 0. -1.
    10030    2    1    2    0    0  0.00000000000E+00  0.00000000000E+00 -0.62509607538E+03  0.35376878617E+04  0.34820238803E+04 0.  0.
        5    1    3    3  502    0 -0.52506786232E+03  0.16590826008E+04 -0.25831731540E+03  0.17592615672E+04  0.46999998093E+01 0.  1.
       -5    1    3    3    0  502  0.52506786232E+03 -0.16590826008E+04 -0.36677875998E+03  0.17784262945E+04  0.46999998093E+01 0. -1.
</event>
<event>
 5   0  0.4591195E-07  0.3586652E+04  0.7818609E-02  0.8093556E-01
        1   -1    0    0  501    0  0.00000000000E+00  0.00000000000E+00  0.23109523831E+04  0.23109523831E+04  0.50400001928E-02 0. -1.
       -1   -1    0    0    0  501  0.00000000000E+00  0.00000000000E+00 -0.13916421314E+04  0.13916421314E+04  0.50400001928E-02 0.  1.
    10030    2    1    2    0    0  0.00000000000E+00  0.00000000000E+00  0.91931025174E+03  0.37025945145E+04  0.35866523110E+04 0.  0.
        4    1    3    3  502    0  0.53119447574E+03  0.57514059269E+03 -0.12059007202E+04  0.14377595182E+04  0.12699999809E+01 0.  1.
       -4    1    3    3    0  502 -0.53119447574E+03 -0.57514059269E+03  0.21252109719E+04  0.22648349963E+04  0.12699999809E+01 0. -1.
</event>
<event>
 5   0  0.1348388E-06  0.3510786E+04  0.7818609E-02  0.8111239E-01
       -2   -1    0    0    0  501  0.00000000000E+00  0.00000000000E+00  0.20302437538E+04  0.20302437538E+04  0.25500000920E-02 0. -1.
        2   -1    0    0  501    0  0.00000000000E+00  0.00000000000E+00 -0.15177507512E+04  0.15177507513E+04  0.25500000920E-02 0.  1.
    10030    2    1    2    0    0  0.00000000000E+00  0.00000000000E+00  0.51249300260E+03  0.35479945051E+04  0.35107856572E+04 0.  0.
        5    1    3    3  502    0  0.98652492154E+03 -0.12530644104E+04 -0.48499838569E+03  0.16669275214E+04  0.46999998093E+01 0. -1.
       -5    1    3    3    0  502 -0.98652492154E+03  0.12530644104E+04  0.99749138829E+03  0.18810669837E+04  0.46999998093E+01 0.  1.
</event>
<event>
 5   0  0.1361560E-06  0.3523087E+04  0.7818609E-02  0.8108340E-01
        2   -1    0    0  501    0  0.00000000000E+00  0.00000000000E+00  0.11810972935E+04  0.11810972935E+04  0.25500000920E-02 0. -1.
       -2   -1    0    0    0  501  0.00000000000E+00  0.00000000000E+00 -0.26272474198E+04  0.26272474198E+04  0.25500000920E-02 0.  1.
    10030    2    1    2    0    0  0.00000000000E+00  0.00000000000E+00 -0.14461501263E+04  0.38083447132E+04  0.35230866108E+04 0.  0.
        3    1    3    3  502    0 -0.15385094058E+04  0.73500020704E+03 -0.24475631715E+03  0.17225394512E+04  0.10100000352E+00 0.  1.
       -3    1    3    3    0  502  0.15385094058E+04 -0.73500020704E+03 -0.12013938091E+04  0.20858052620E+04  0.10100000352E+00 0. -1.
</event>
<event>
 5   0  0.4557237E-07  0.3468168E+04  0.7818609E-02  0.8121375E-01
       -1   -1    0    0    0  501  0.00000000000E+00  0.00000000000E+00  0.16771687012E+04  0.16771687012E+04  0.50400001928E-02 0. -1.
        1   -1    0    0  501    0  0.00000000000E+00  0.00000000000E+00 -0.17929309994E+04  0.17929309994E+04  0.50400001928E-02 0.  1.
    10030    2    1    2    0    0  0.00000000000E+00  0.00000000000E+00 -0.11576229824E+03  0.34700997006E+04  0.34681682518E+04 0.  0.
        2    1    3    3  502    0  0.95529611117E+03 -0.14419512430E+04 -0.18137479529E+03  0.17391695902E+04  0.25500000920E-02 0. -1.
       -2    1    3    3    0  502 -0.95529611117E+03  0.14419512430E+04  0.65612497050E+02  0.17309301104E+04  0.25500000920E-02 0.  1.
</event>
<event>
 5   0  0.4693374E-07  0.3557596E+04  0.7818609E-02  0.8100274E-01
       -1   -1    0    0    0  501  0.00000000000E+00  0.00000000000E+00  0.15185987819E+04  0.15185987819E+04  0.50400001928E-02 0.  1.
        1   -1    0    0  501    0  0.00000000000E+00  0.00000000000E+00 -0.20835800519E+04  0.20835800519E+04  0.50400001928E-02 0. -1.
    10030    2    1    2    0    0  0.00000000000E+00  0.00000000000E+00 -0.56498127001E+03  0.36021788339E+04  0.35575958899E+04 0.  0.
        1    1    3    3  502    0 -0.13036324458E+04 -0.12099928465E+04 -0.30691525780E+03  0.18049202802E+04  0.50400001928E-02 0. -1.
       -1    1    3    3    0  502  0.13036324458E+04  0.12099928465E+04 -0.25806601221E+03  0.17972585537E+04  0.50400001928E-02 0.  1.
</event>
<event>
 5   0  0.4409125E-07  0.3444117E+04  0.7818609E-02  0.8127163E-01
       -1   -1    0    0    0  501  0.00000000000E+00  0.00000000000E+00  0.16789960779E+04  0.16789960779E+04  0.50400001928E-02 0. -1.
        1   -1    0    0  501    0  0.00000000000E+00  0.00000000000E+00 -0.17662251181E+04  0.17662251181E+04  0.50400001928E-02 0.  1.
    10030    2    1    2    0    0  0.00000000000E+00  0.00000000000E+00 -0.87229040228E+02  0.34452211960E+04  0.34441167494E+04 0.  0.
        5    1    3    3  502    0 -0.53132210583E+03 -0.49801338421E+03  0.15173801885E+04  0.16830880064E+04  0.46999998093E+01 0. -1.
       -5    1    3    3    0  502  0.53132210583E+03  0.49801338421E+03 -0.16046092287E+04  0.17621331896E+04  0.46999998093E+01 0.  1.
</event>
<event>
 5   0  0.4409125E-07  0.3611679E+04  0.7818609E-02  0.8087822E-01
        1   -1    0    0  501    0  0.00000000000E+00  0.00000000000E+00  0.19892257780E+04  0.19892257780E+04  0.50400001928E-02 0.  1.
       -1   -1    0    0    0  501  0.00000000000E+00  0.00000000000E+00 -0.16393593832E+04  0.16393593832E+04  0.50400001928E-02 0. -1.
    10030    2    1    2    0    0  0.00000000000E+00  0.00000000000E+00  0.34986639488E+03  0.36285851612E+04  0.36116788032E+04 0.  0.
        5    1    3    3  502    0  0.10802453810E+04 -0.62335375386E+03 -0.11371409365E+04  0.16877830385E+04  0.46999998093E+01 0. -1.
       -5    1    3    3    0  502 -0.10802453810E+04  0.62335375386E+03  0.14870073314E+04  0.19408021227E+04  0.46999998093E+01 0.  1.
</event>
<event>
 5   0  0.1442864E-06  0.3513891E+04  0.7818609E-02  0.8110506E-01
       -2   -1    0    0    0  501  0.00000000000E+00  0.00000000000E+00  0.16835372760E+04  0.16835372760E+04  0.25500000920E-02 0. -1.
        2   -1    0    0  501    0  0.00000000000E+00  0.00000000000E+00 -0.18335548886E+04  0.18335548886E+04  0.25500000920E-02 0.  1.
    10030    2    1    2    0    0  0.00000000000E+00  0.00000000000E+00 -0.15001761260E+03  0.35170921646E+04  0.35138912917E+04 0.  0.
        1    1    3    3  502    0  0.15018476138E+04  0.69935159666E+03  0.51051902727E+03  0.17335710508E+04  0.50400001928E-02 0. -1.
       -1    1    3    3    0  502 -0.15018476138E+04 -0.69935159666E+03 -0.66053663988E+03  0.17835211138E+04  0.50400001928E-02 0.  1.
</event>
<event>
 5   0  0.1442864E-06  0.3583785E+04  0.7818609E-02  0.8094216E-01
       -2   -1    0    0    0  501  0.00000000000E+00  0.00000000000E+00  0.14119915281E+04  0.14119915281E+04  0.25500000920E-02 0. -1.
        2   -1    0    0  501    0  0.00000000000E+00  0.00000000000E+00 -0.22740066657E+04  0.22740066657E+04  0.25500000920E-02 0.  1.
    10030    2    1    2    0    0  0.00000000000E+00  0.00000000000E+00 -0.86201513760E+03  0.36859981938E+04  0.35837846737E+04 0.  0.
        1    1    3    3  502    0 -0.35252504925E+03 -0.32294328066E+03 -0.22071988711E+04  0.22583828571E+04  0.50400001928E-02 0.  1.
       -1    1    3    3    0  502  0.35252504925E+03  0.32294328066E+03  0.13451837335E+04  0.14276153367E+04  0.50400001928E-02 0. -1.
</event>
<event>
 5   0  0.4693374E-07  0.3427533E+04  0.7818609E-02  0.8131182E-01
       -1   -1    0    0    0  501  0.00000000000E+00  0.00000000000E+00  0.17276451216E+04  0.17276451216E+04  0.50400001928E-02 0.  1.
        1   -1    0    0  501    0  0.00000000000E+00  0.00000000000E+00 -0.16999990682E+04  0.16999990682E+04  0.50400001928E-02 0. -1.
    10030    2    1    2    0    0  0.00000000000E+00  0.00000000000E+00  0.27646053435E+02  0.34276441898E+04  0.34275326968E+04 0.  0.
        1    1    3    3  502    0 -0.48745362797E+03 -0.16039842234E+04  0.36966977191E+03  0.17166922172E+04  0.50400001928E-02 0.  1.
       -1    1    3    3    0  502  0.48745362797E+03  0.16039842234E+04 -0.34202371847E+03  0.17109519726E+04  0.50400001928E-02 0. -1.
</event>
<event>
 5   0  0.1378620E-06  0.3500193E+04  0.7818609E-02  0.8113744E-01
       -2   -1    0    0    0  501  0.00000000000E+00  0.00000000000E+00  0.11695226586E+04  0.11695226586E+04  0.25500000920E-02 0. -1.
        2   -1    0    0  501    0  0.00000000000E+00  0.00000000000E+00 -0.26188785039E+04  0.26188785039E+04  0.25500000920E-02 0.  1.
    10030    2    1    2    0    0  0.00000000000E+00  0.00000000000E+00 -0.14493558454E+04  0.37884011625E+04  0.35001929949E+04 0.  0.
        2    1    3    3  502    0  0.95045296219E+03  0.11709474379E+04  0.23632783351E+03  0.15265417061E+04  0.25500000920E-02 0. -1.
       -2    1    3    3    0  502 -0.95045296219E+03 -0.11709474379E+04 -0.16856836789E+04  0.22618594564E+04  0.25500000920E-02 0.  1.
</event>
<event>
 5   0  0.1348388E-06  0.3059093E+04  0.7818609E-02  0.8227055E-01
        2   -1    0    0  501    0  0.00000000000E+00  0.00000000000E+00  0.12092474842E+04  0.12092474842E+04  0.25500000920E-02 0. -1.
       -2   -1    0    0    0  501  0.00000000000E+00  0.00000000000E+00 -0.19346842678E+04  0.19346842678E+04  0.25500000920E-02 0.  1.
    10030    2    1    2    0    0  0.00000000000E+00  0.00000000000E+00 -0.72543678355E+03  0.31439317520E+04  0.30590927306E+04 0.  0.
        5    1    3    3  502    0  0.87057578685E+03  0.57526215817E+02 -0.16538552877E+04  0.18698852555E+04  0.46999998093E+01 0.  1.
       -5    1    3    3    0  502 -0.87057578685E+03 -0.57526215817E+02  0.92841850418E+03  0.12740464964E+04  0.46999998093E+01 0. -1.
</event>
<event>
 5   0  0.1348388E-06  0.3508595E+04  0.7818609E-02  0.8111756E-01
       -2   -1    0    0    0  501  0.00000000000E+00  0.00000000000E+00  0.13540558879E+04  0.13540558879E+04  0.25500000920E-02 0.  1.
        2   -1    0    0  501    0  0.00000000000E+00  0.00000000000E+00 -0.22728448574E+04  0.22728448574E+04  0.25500000920E-02 0. -1.
    10030    2    1    2    0    0  0.00000000000E+00  0.00000000000E+00 -0.91878896944E+03  0.36269007453E+04  0.35085945685E+04 0.  0.
        5    1    3    3  502    0  0.10288295222E+04 -0.68931326854E+03  0.82503779097E+03  0.14880700301E+04  0.46999998093E+01 0. -1.
       -5    1    3    3    0  502 -0.10288295222E+04  0.68931326854E+03 -0.17438267604E+04  0.21388307152E+04  0.46999998093E+01 0.  1.
</event>
<event>
 5   0  0.4693374E-07  0.3502890E+04  0.7818609E-02  0.8113105E-01
        1   -1    0    0  501    0  0.00000000000E+00  0.00000000000E+00  0.16076408555E+04  0.16076408555E+04  0.50400001928E-02 0. -1.
       -1   -1    0    0    0  501  0.00000000000E+00  0.00000000000E+00 -0.19081122648E+04  0.19081122648E+04  0.50400001928E-02 0.  1.
    10030    2    1    2    0    0  0.00000000000E+00  0.00000000000E+00 -0.30047140924E+03  0.35157531203E+04  0.35028897977E+04 0.  0.
        1    1    3    3  502    0 -0.23730031805E+02 -0.14867960500E+04 -0.10790710885E+04  0.18372588339E+04  0.50400001928E-02 0.  1.
       -1    1    3    3    0  502  0.23730031805E+02  0.14867960500E+04  0.77859967928E+03  0.16784942864E+04  0.50400001928E-02 0. -1.
</event>
<event>
 5   0  0.4591195E-07  0.3410359E+04  0.7818609E-02  0.8135369E-01
        1   -1    0    0  501    0  0.00000000000E+00  0.00000000000E+00  0.22005897604E+04  0.22005897604E+04  0.50400001928E-02 0. -1.
       -1   -1    0    0    0  501  0.00000000000E+00  0.00000000000E+00 -0.13212988135E+04  0.13212988135E+04  0.50400001928E-02 0.  1.
    10030    2    1    2    0    0  0.00000000000E+00  0.00000000000E+00  0.87929094685E+03  0.35218885739E+04  0.34103587139E+04 0.  0.
        4    1    3    3  502    0 -0.47948074324E+03  0.13925244221E+04 -0.44788411501E+03  0.15393595560E+04  0.12699999809E+01 0.  1.
       -4    1    3    3    0  502  0.47948074324E+03 -0.13925244221E+04  0.13271750619E+04  0.19825290179E+04  0.12699999809E+01 0. -1.
</event>
<event>
 5   0  0.1361560E-06  0.3524805E+04  0.7818609E-02  0.8107937E-01
       -2   -1    0    0    0  501  0.00000000000E+00  0.00000000000E+00  0.14252679194E+04  0.14252679194E+04  0.25500000920E-02 0.  1.
        2   -1    0    0  501    0  0.00000000000E+00  0.00000000000E+00 -0.21792831031E+04  0.21792831031E+04  0.25500000920E-02 0. -1.
    10030    2    1    2    0    0  0.00000000000E+00  0.00000000000E+00 -0.75401518370E+03  0.36045510225E+04  0.35248048423E+04 0.  0.
        3    1    3    3  502    0 -0.58679262510E+03 -0.22497956492E+03 -0.20608077383E+04  0.21544999267E+04  0.10100000352E+00 0. -1.
       -3    1    3    3    0  502  0.58679262510E+03  0.22497956492E+03  0.13067925546E+04  0.14500510958E+04  0.10100000352E+00 0.  1.
</event>
<event>
 5   0  0.1442864E-06  0.3473406E+04  0.7818609E-02  0.8120121E-01
        2   -1    0    0  501    0  0.00000000000E+00  0.00000000000E+00  0.26022883965E+04  0.26022883965E+04  0.25500000920E-02 0.  1.
       -2   -1    0    0    0  501  0.00000000000E+00  0.00000000000E+00 -0.11590329734E+04  0.11590329734E+04  0.25500000920E-02 0. -1.
    10030    2    1    2    0    0  0.00000000000E+00  0.00000000000E+00  0.14432554231E+04  0.37613213700E+04  0.34734064305E+04 0.  0.
        1    1    3    3  502    0 -0.11819579057E+04  0.18789168741E+03 -0.64118575482E+03  0.13577359645E+04  0.50400001928E-02 0. -1.
       -1    1    3    3    0  502  0.11819579057E+04 -0.18789168741E+03  0.20844411780E+04  0.24035854055E+04  0.50400001928E-02 0.  1.
</event>
<event>
 5   0  0.1348388E-06  0.3500193E+04  0.7818609E-02  0.8113744E-01
        2   -1    0    0  501    0  0.00000000000E+00  0.00000000000E+00  0.21907212229E+04  0.21907212229E+04  0.25500000920E-02 0.  1.
       -2   -1    0    0    0  501  0.00000000000E+00  0.00000000000E+00 -0.13980953673E+04  0.13980953673E+04  0.25500000920E-02 0. -1.
    10030    2    1    2    0    0  0.00000000000E+00  0.00000000000E+00  0.79262585561E+03  0.35888165902E+04  0.35001926763E+04 0.  0.
        5    1    3    3  502    0 -0.65628268198E+02  0.11078710586E+04  0.17837678164E+04  0.21008415135E+04  0.46999998093E+01 0.  1.
       -5    1    3    3    0  502  0.65628268198E+02 -0.11078710586E+04 -0.99114196081E+03  0.14879750766E+04  0.46999998093E+01 0. -1.
</event>
<event>
 5   0  0.4557237E-07  0.3481403E+04  0.7818609E-02  0.8118211E-01
       -1   -1    0    0    0  501  0.00000000000E+00  0.00000000000E+00  0.16274607262E+04  0.16274607262E+04  0.50400001928E-02 0.  1.
        1   -1    0    0  501    0  0.00000000000E+00  0.00000000000E+00 -0.18618218914E+04  0.18618218914E+04  0.50400001928E-02 0. -1.
    10030    2    1    2    0    0  0.00000000000E+00  0.00000000000E+00 -0.23436116525E+03  0.34892826176E+04  0.34814031697E+04 0.  0.
        2    1    3    3  502    0 -0.11525792356E+04  0.71124427078E+02 -0.14226432156E+04  0.18323240154E+04  0.25500000920E-02 0. -1.
       -2    1    3    3    0  502  0.11525792356E+04 -0.71124427078E+02  0.11882820504E+04  0.16569586022E+04  0.25500000920E-02 0.  1.
</event>
<event>
 5   0  0.1361560E-06  0.3486146E+04  0.7818609E-02  0.8117081E-01
        2   -1    0    0  501    0  0.00000000000E+00  0.00000000000E+00  0.34769381342E+04  0.34769381342E+04  0.25500000920E-02 0. -1.
       -2   -1    0    0    0  501  0.00000000000E+00  0.00000000000E+00 -0.87384447632E+03  0.87384447632E+03  0.25500000920E-02 0.  1.
    10030    2    1    2    0    0  0.00000000000E+00  0.00000000000E+00  0.26030936579E+04  0.43507826105E+04  0.34861458277E+04 0.  0.
        3    1    3    3  502    0  0.14262648908E+04  0.93851925511E+03  0.17396950066E+04  0.24375374166E+04  0.10100000352E+00 0. -1.
       -3    1    3    3    0  502 -0.14262648908E+04 -0.93851925511E+03  0.86339865127E+03  0.19132451939E+04  0.10100000352E+00 0.  1.
</event>
<event>
 5   0  0.1387133E-06  0.3501449E+04  0.7818609E-02  0.8113447E-01
       -2   -1    0    0    0  501  0.00000000000E+00  0.00000000000E+00  0.13569146437E+04  0.13569146437E+04  0.25500000920E-02 0.  1.
        2   -1    0    0  501    0  0.00000000000E+00  0.00000000000E+00 -0.22588281810E+04  0.22588281810E+04  0.25500000920E-02 0. -1.
    10030    2    1    2    0    0  0.00000000000E+00  0.00000000000E+00 -0.90191353733E+03  0.36157428246E+04  0.35014494349E+04 0.  0.
        4    1    3    3  502    0  0.16268324167E+04  0.64399006628E+03 -0.38790212201E+03  0.17921430151E+04  0.12699999809E+01 0. -1.
       -4    1    3    3    0  502 -0.16268324167E+04 -0.64399006628E+03 -0.51401141531E+03  0.18235998095E+04  0.12699999809E+01 0.  1.
</event>
<event>
 5   0  0.4409125E-07  0.3493416E+04  0.7818609E-02  0.8115352E-01
       -3   -1    0    0    0  501  0.00000000000E+00  0.00000000000E+00  0.17906742863E+04  0.17906742891E+04  0.10100000352E+00 0. -1.
        3   -1    0    0  501    0  0.00000000000E+00  0.00000000000E+00 -0.17038207382E+04  0.17038207412E+04  0.10100000352E+00 0.  1.
    10030    2    1    2    0    0  0.00000000000E+00  0.00000000000E+00  0.86853548080E+02  0.34944950303E+04  0.34934155175E+04 0.  0.
        5    1    3    3  502    0  0.31025670350E+03 -0.69325623795E+03  0.16168408231E+04  0.17863537642E+04  0.46999998093E+01 0. -1.
       -5    1    3    3    0  502 -0.31025670350E+03  0.69325623795E+03 -0.15299872750E+04  0.17081412662E+04  0.46999998093E+01 0.  1.
</event>
<event>
 5   0  0.1361560E-06  0.3446447E+04  0.7818609E-02  0.8126600E-01
       -2   -1    0    0    0  501  0.00000000000E+00  0.00000000000E+00  0.15241080597E+04  0.15241080597E+04  0.25500000920E-02 0. -1.
        2   -1    0    0  501    0  0.00000000000E+00  0.00000000000E+00 -0.19483524113E+04  0.19483524113E+04  0.25500000920E-02 0.  1.
    10030    2    1    2    0    0  0.00000000000E+00  0.00000000000E+00 -0.42424435158E+03  0.34724604710E+04  0.34464472218E+04 0.  0.
        3    1    3    3  502    0  0.54555062013E+03  0.15731963845E+04  0.23499216238E+03  0.16816044927E+04  0.10100000352E+00 0. -1.
       -3    1    3    3    0  502 -0.54555062013E+03 -0.15731963845E+04 -0.65923651396E+03  0.17908559782E+04  0.10100000352E+00 0.  1.
</event>
<event>
 5   0  0.1387133E-06  0.3557502E+04  0.7818609E-02  0.8100296E-01
       -2   -1    0    0    0  501  0.00000000000E+00  0.00000000000E+00  0.10786717916E+04  0.10786717916E+04  0.25500000920E-02 0.  1.
        2   -1    0    0  501    0  0.00000000000E+00  0.00000000000E+00 -0.29331955240E+04  0.29331955240E+04  0.25500000920E-02 0. -1.
    10030    2    1    2    0    0  0.00000000000E+00  0.00000000000E+00 -0.18545237324E+04  0.40118673157E+04  0.35575020849E+04 0.  0.
        4    1    3    3  502    0 -0.72065002095E+03  0.28021015430E+03 -0.27337625979E+04  0.28410057616E+04  0.12699999809E+01 0. -1.
       -4    1    3    3    0  502  0.72065002095E+03 -0.28021015430E+03  0.87923886546E+03  0.11708615540E+04  0.12699999809E+01 0.  1.
</event>
<event>
 5   0  0.1442864E-06  0.2544594E+04  0.7818609E-02  0.8387269E-01
       -2   -1    0    0    0  501  0.00000000000E+00  0.00000000000E+00  0.59757272383E+03  0.59757272383E+03  0.25500000920E-02 0. -1.
        2   -1    0    0  501    0  0.00000000000E+00  0.00000000000E+00 -0.27088577868E+04  0.27088577868E+04  0.25500000920E-02 0.  1.
    10030    2    1    2    0    0  0.00000000000E+00  0.00000000000E+00 -0.21112850630E+04  0.33064305107E+04  0.25445938978E+04 0.  0.
        1    1    3    3  502    0 -0.50125216370E+03  0.11692768967E+02 -0.25750722581E+04  0.26234304998E+04  0.50400001928E-02 0.  1.
       -1    1    3    3    0  502  0.50125216370E+03 -0.11692768967E+02  0.46378719515E+03  0.68300001088E+03  0.50400001928E-02 0. -1.
</event>
<event>
 5   0  0.4591195E-07  0.3504695E+04  0.7818609E-02  0.8112678E-01
        1   -1    0    0  501    0  0.00000000000E+00  0.00000000000E+00  0.33760654219E+04  0.33760654219E+04  0.50400001928E-02 0.  1.
       -1   -1    0    0    0  501  0.00000000000E+00  0.00000000000E+00 -0.90955654940E+03  0.90955654941E+03  0.50400001928E-02 0. -1.
    10030    2    1    2    0    0  0.00000000000E+00  0.00000000000E+00  0.24665088725E+04  0.42856219713E+04  0.35046953738E+04 0.  0.
        4    1    3    3  502    0  0.21940217231E+02 -0.13510674700E+04  0.25975961708E+04  0.29280321311E+04  0.12699999809E+01 0.  1.
       -4    1    3    3    0  502 -0.21940217231E+02  0.13510674700E+04 -0.13108729828E+03  0.13575898402E+04  0.12699999809E+01 0. -1.
</event>
<event>
 5   0  0.1361560E-06  0.2807673E+04  0.7818609E-02  0.8300890E-01
       -2   -1    0    0    0  501  0.00000000000E+00  0.00000000000E+00  0.12343467188E+04  0.12343467188E+04  0.25500000920E-02 0. -1.
        2   -1    0    0  501    0  0.00000000000E+00  0.00000000000E+00 -0.15965995330E+04  0.15965995330E+04  0.25500000920E-02 0.  1.
    10030    2    1    2    0    0  0.00000000000E+00  0.00000000000E+00 -0.36225281423E+03  0.28309462517E+04  0.28076733390E+04 0.  0.
        3    1    3    3  502    0  0.10930194729E+04 -0.16526109172E+03  0.69135221426E+03  0.13038292415E+04  0.10100000352E+00 0. -1.
       -3    1    3    3    0  502 -0.10930194729E+04  0.16526109172E+03 -0.10536050285E+04  0.15271170102E+04  0.10100000352E+00 0.  1.
</event>
<event>
 5   0  0.1348388E-06  0.3394880E+04  0.7818609E-02  0.8139164E-01
        2   -1    0    0  501    0  0.00000000000E+00  0.00000000000E+00  0.20509906785E+04  0.20509906785E+04  0.25500000920E-02 0.  1.
       -2   -1    0    0    0  501  0.00000000000E+00  0.00000000000E+00 -0.14048345046E+04  0.14048345046E+04  0.25500000920E-02 0. -1.
    10030    2    1    2    0    0  0.00000000000E+00  0.00000000000E+00  0.64615617391E+03  0.34558251830E+04  0.33948799529E+04 0.  0.
        5    1    3    3  502    0  0.50572044213E+03 -0.43804352663E+03 -0.12649419019E+04  0.14309910559E+04  0.46999998093E+01 0. -1.
       -5    1    3    3    0  502 -0.50572044213E+03  0.43804352663E+03  0.19110980759E+04  0.20248341271E+04  0.46999998093E+01 0.  1.
</event>
<event>
 5   0  0.4700769E-07  0.3530720E+04  0.7818609E-02  0.8106548E-01
        1   -1    0    0  501    0  0.00000000000E+00  0.00000000000E+00  0.20788677059E+04  0.20788677059E+04  0.50400001928E-02 0.  1.
       -1   -1    0    0    0  501  0.00000000000E+00  0.00000000000E+00 -0.14991312907E+04  0.14991312907E+04  0.50400001928E-02 0. -1.
    10030    2    1    2    0    0  0.00000000000E+00  0.00000000000E+00  0.57973641521E+03  0.35779989966E+04  0.35307198287E+04 0.  0.
        3    1    3    3  502    0  0.16380225589E+04 -0.51220142161E+03  0.70896064753E+03  0.18569042543E+04  0.10100000352E+00 0.  1.
       -3    1    3    3    0  502 -0.16380225589E+04  0.51220142161E+03 -0.12922423232E+03  0.17210947423E+04  0.10100000352E+00 0. -1.
</event>
<event>
 5   0  0.4591195E-07  0.3518111E+04  0.7818609E-02  0.8109511E-01
       -1   -1    0    0    0  501  0.00000000000E+00  0.00000000000E+00  0.31220239308E+04  0.31220239308E+04  0.50400001928E-02 0.  1.
        1   -1    0    0  501    0  0.00000000000E+00  0.00000000000E+00 -0.99111235739E+03  0.99111235740E+03  0.50400001928E-02 0. -1.
    10030    2    1    2    0    0  0.00000000000E+00  0.00000000000E+00  0.21309115734E+04  0.41131362882E+04  0.35181111397E+04 0.  0.
        4    1    3    3  502    0 -0.12882462379E+04 -0.17046194132E+03 -0.32066310158E+03  0.13384551096E+04  0.12699999809E+01 0. -1.
       -4    1    3    3    0  502  0.12882462379E+04  0.17046194132E+03  0.24515746749E+04  0.27746811785E+04  0.12699999809E+01 0.  1.
</event>
<event>
 5   0  0.1387133E-06  0.3465872E+04  0.7818609E-02  0.8121926E-01
       -2   -1    0    0    0  501  0.00000000000E+00  0.00000000000E+00  0.16989579440E+04  0.16989579440E+04  0.25500000920E-02 0.  1.
        2   -1    0    0  501    0  0.00000000000E+00  0.00000000000E+00 -0.17675932422E+04  0.17675932422E+04  0.25500000920E-02 0. -1.
    10030    2    1    2    0    0  0.00000000000E+00  0.00000000000E+00 -0.68635298252E+02  0.34665511862E+04  0.34658716540E+04 0.  0.
        4    1    3    3  502    0 -0.12936274790E+04 -0.12423559163E+03 -0.11809099042E+04  0.17559773209E+04  0.12699999809E+01 0. -1.
       -4    1    3    3    0  502  0.12936274790E+04  0.12423559163E+03  0.11122746059E+04  0.17105738653E+04  0.12699999809E+01 0.  1.
</event>
<event>
 5   0  0.4700769E-07  0.3539446E+04  0.7818609E-02  0.8104505E-01
        1   -1    0    0  501    0  0.00000000000E+00  0.00000000000E+00  0.25289636045E+04  0.25289636045E+04  0.50400001928E-02 0. -1.
       -1   -1    0    0    0  501  0.00000000000E+00  0.00000000000E+00 -0.12384199097E+04  0.12384199097E+04  0.50400001928E-02 0.  1.
    10030    2    1    2    0    0  0.00000000000E+00  0.00000000000E+00  0.12905436949E+04  0.37673835142E+04  0.35394456508E+04 0.  0.
        3    1    3    3  502    0  0.10258877365E+04 -0.13491848566E+04  0.11871477451E+04  0.20693151534E+04  0.10100000352E+00 0. -1.
       -3    1    3    3    0  502 -0.10258877365E+04  0.13491848566E+04  0.10339594975E+03  0.16980683608E+04  0.10100000352E+00 0.  1.
</event>
<event>
 5   0  0.1348388E-06  0.3572308E+04  0.7818609E-02  0.8096865E-01
       -2   -1    0    0    0  501  0.00000000000E+00  0.00000000000E+00  0.12344731003E+04  0.12344731003E+04  0.25500000920E-02 0. -1.
        2   -1    0    0  501    0  0.00000000000E+00  0.00000000000E+00 -0.25843785620E+04  0.25843785620E+04  0.25500000920E-02 0.  1.
    10030    2    1    2    0    0  0.00000000000E+00  0.00000000000E+00 -0.13499054618E+04  0.38188516623E+04  0.35723078343E+04 0.  0.
        5    1    3    3  502    0 -0.17169373137E+04  0.24698132499E+03 -0.11303208822E+04  0.20703914849E+04  0.46999998093E+01 0. -1.
       -5    1    3    3    0  502  0.17169373137E+04 -0.24698132499E+03 -0.21958457958E+03  0.17484601773E+04  0.46999998093E+01 0.  1.
</event>
<event>
 5   0  0.1378620E-06  0.2631202E+04  0.7818609E-02  0.8357679E-01
        2   -1    0    0  501    0  0.00000000000E+00  0.00000000000E+00  0.13662465838E+04  0.13662465838E+04  0.25500000920E-02 0. -1.
       -2   -1    0    0    0  501  0.00000000000E+00  0.00000000000E+00 -0.12668323994E+04  0.12668323994E+04  0.25500000920E-02 0.  1.
    10030    2    1    2    0    0  0.00000000000E+00  0.00000000000E+00  0.99414184411E+02  0.26330789832E+04  0.26312015795E+04 0.  0.
        2    1    3    3  502    0  0.93546550754E+03  0.62153221428E+03  0.73532909224E+03  0.13424257458E+04  0.25500000920E-02 0. -1.
       -2    1    3    3    0  502 -0.93546550754E+03 -0.62153221428E+03 -0.63591490783E+03  0.12906532374E+04  0.25500000920E-02 0.  1.
</event>
<event>
 5   0  0.1348388E-06  0.3407096E+04  0.7818609E-02  0.8136167E-01
        2   -1    0    0  501    0  0.00000000000E+00  0.00000000000E+00  0.15996238292E+04  0.15996238292E+04  0.25500000920E-02 0. -1.
       -2   -1    0    0    0  501  0.00000000000E+00  0.00000000000E+00 -0.18142241329E+04  0.18142241329E+04  0.25500000920E-02 0.  1.
    10030    2    1    2    0    0  0.00000000000E+00  0.00000000000E+00 -0.21460030378E+03  0.34138479621E+04  0.34070962149E+04 0.  0.
        5    1    3    3  502    0  0.47408969477E+02  0.57693936355E+03 -0.17126447258E+04  0.18078386782E+04  0.46999998093E+01 0.  1.
       -5    1    3    3    0  502 -0.47408969477E+02 -0.57693936355E+03  0.14980444220E+04  0.16060092839E+04  0.46999998093E+01 0. -1.
</event>
<event>
 5   0  0.4409125E-07  0.3527016E+04  0.7818609E-02  0.8107417E-01
        1   -1    0    0  501    0  0.00000000000E+00  0.00000000000E+00  0.91309801207E+03  0.91309801208E+03  0.50400001928E-02 0. -1.
       -1   -1    0    0    0  501  0.00000000000E+00  0.00000000000E+00 -0.34059441898E+04  0.34059441898E+04  0.50400001928E-02 0.  1.
    10030    2    1    2    0    0  0.00000000000E+00  0.00000000000E+00 -0.24928461777E+04  0.43190422019E+04  0.35270162284E+04 0.  0.
        5    1    3    3  502    0 -0.13933210131E+04  0.77061195105E+02  0.73977706944E+02  0.13974178560E+04  0.46999998093E+01 0. -1.
       -5    1    3    3    0  502  0.13933210131E+04 -0.77061195105E+02 -0.25668238846E+04  0.29216243458E+04  0.46999998093E+01 0.  1.
</event>
<event>
 5   0  0.4591195E-07  0.3515046E+04  0.7818609E-02  0.8110233E-01
        1   -1    0    0  501    0  0.00000000000E+00  0.00000000000E+00  0.26172698954E+04  0.26172698954E+04  0.50400001928E-02 0.  1.
       -1   -1    0    0    0  501  0.00000000000E+00  0.00000000000E+00 -0.11801942516E+04  0.11801942516E+04  0.50400001928E-02 0. -1.
    10030    2    1    2    0    0  0.00000000000E+00  0.00000000000E+00  0.14370756438E+04  0.37974641470E+04  0.35150458805E+04 0.  0.
        4    1    3    3  502    0 -0.13090873183E+03 -0.96996575815E+03  0.22955887093E+04  0.24955359752E+04  0.12699999809E+01 0.  1.
       -4    1    3    3    0  502  0.13090873183E+03  0.96996575815E+03 -0.85851306556E+03  0.13019281719E+04  0.12699999809E+01 0. -1.
</event>
<event>
 5   0  0.1361560E-06  0.3519466E+04  0.7818609E-02  0.8109192E-01
        2   -1    0    0  501    0  0.00000000000E+00  0.00000000000E+00  0.21630190813E+04  0.21630190813E+04  0.25500000920E-02 0.  1.
       -2   -1    0    0    0  501  0.00000000000E+00  0.00000000000E+00 -0.14316376640E+04  0.14316376640E+04  0.25500000920E-02 0. -1.
    10030    2    1    2    0    0  0.00000000000E+00  0.00000000000E+00  0.73138141722E+03  0.35946567453E+04  0.35194656326E+04 0.  0.
        3    1    3    3  502    0  0.85736100275E+02  0.14491896848E+04  0.13815032365E+04  0.20040091377E+04  0.10100000352E+00 0.  1.
       -3    1    3    3    0  502 -0.85736100275E+02 -0.14491896848E+04 -0.65012181926E+03  0.15906476076E+04  0.10100000352E+00 0. -1.
</event>
<event>
 5   0  0.4557237E-07  0.3471600E+04  0.7818609E-02  0.8120553E-01
        1   -1    0    0  501    0  0.00000000000E+00  0.00000000000E+00  0.27249223147E+04  0.27249223147E+04  0.50400001928E-02 0. -1.
       -1   -1    0    0    0  501  0.00000000000E+00  0.00000000000E+00 -0.11057204562E+04  0.11057204562E+04  0.50400001928E-02 0.  1.
    10030    2    1    2    0    0  0.00000000000E+00  0.00000000000E+00  0.16192018585E+04  0.38306427709E+04  0.34716004061E+04 0.  0.
        2    1    3    3  502    0 -0.14957927896E+04  0.82170860801E+03  0.45996870044E+03  0.17675328318E+04  0.25500000920E-02 0. -1.
       -2    1    3    3    0  502  0.14957927896E+04 -0.82170860801E+03  0.11592331580E+04  0.20631099391E+04  0.25500000920E-02 0.  1.
</event>
<event>
 5   0  0.1387133E-06  0.3619342E+04  0.7818609E-02  0.8086076E-01
        2   -1    0    0  501    0  0.00000000000E+00  0.00000000000E+00  0.21227941341E+04  0.21227941341E+04  0.25500000920E-02 0. -1.
       -2   -1    0    0    0  501  0.00000000000E+00  0.00000000000E+00 -0.15427348633E+04  0.15427348633E+04  0.25500000920E-02 0.  1.
    10030    2    1    2    0    0  0.00000000000E+00  0.00000000000E+00  0.58005927079E+03  0.36655289974E+04  0.36193416629E+04 0.  0.
        4    1    3    3  502    0  0.47886332670E+03  0.86095051927E+03  0.18274135676E+04  0.20760510211E+04  0.12699999809E+01 0. -1.
       -4    1    3    3    0  502 -0.47886332670E+03 -0.86095051927E+03 -0.12473542968E+04  0.15894779762E+04  0.12699999809E+01 0.  1.
</event>
<event>
 5   0  0.4591195E-07  0.2798580E+04  0.7818609E-02  0.8303709E-01
       -1   -1    0    0    0  501  0.00000000000E+00  0.00000000000E+00  0.12771919000E+04  0.12771919001E+04  0.50400001928E-02 0. -1.
        1   -1    0    0  501    0  0.00000000000E+00  0.00000000000E+00 -0.15330607321E+04  0.15330607321E+04  0.50400001928E-02 0.  1.
    10030    2    1    2    0    0  0.00000000000E+00  0.00000000000E+00 -0.25586883206E+03  0.28102526322E+04  0.27985801753E+04 0.  0.
        4    1    3    3  502    0 -0.10544385150E+04 -0.22638742095E+03  0.76736670435E+03  0.13236106369E+04  0.12699999809E+01 0. -1.
       -4    1    3    3    0  502  0.10544385150E+04  0.22638742095E+03 -0.10232355364E+04  0.14866419953E+04  0.12699999809E+01 0.  1.
</event>
<event>
 5   0  0.4693374E-07  0.3467426E+04  0.7818609E-02  0.8121553E-01
       -1   -1    0    0    0  501  0.00000000000E+00  0.00000000000E+00  0.14929353932E+04  0.14929353932E+04  0.50400001928E-02 0.  1.
        1   -1    0    0  501    0  0.00000000000E+00  0.00000000000E+00 -0.20133223746E+04  0.20133223746E+04  0.50400001928E-02 0. -1.
    10030    2    1    2    0    0  0.00000000000E+00  0.00000000000E+00 -0.52038698133E+03  0.35062577678E+04  0.34674256912E+04 0.  0.
        1    1    3    3  502    0 -0.14945951625E+04  0.77497984621E+03 -0.67877590111E+03  0.18152534770E+04  0.50400001928E-02 0. -1.
       -1    1    3    3    0  502  0.14945951625E+04 -0.77497984621E+03  0.15838891978E+03  0.16910042908E+04  0.50400001928E-02 0.  1.
</event>
<event>
 5   0  0.4409125E-07  0.3468282E+04  0.7818609E-02  0.8121348E-01
        1   -1    0    0  501    0  0.00000000000E+00  0.00000000000E+00  0.17157615586E+04  0.17157615586E+04  0.50400001928E-02 0. -1.
       -1   -1    0    0    0  501  0.00000000000E+00  0.00000000000E+00 -0.17527169201E+04  0.17527169202E+04  0.50400001928E-02 0.  1.
    10030    2    1    2    0    0  0.00000000000E+00  0.00000000000E+00 -0.36955361533E+02  0.34684784788E+04  0.34682816003E+04 0.  0.
        5    1    3    3  502    0  0.12626355288E+04  0.60295965871E+03 -0.10429446349E+04  0.17451545577E+04  0.46999998093E+01 0.  1.
       -5    1    3    3    0  502 -0.12626355288E+04 -0.60295965871E+03  0.10059892734E+04  0.17233239211E+04  0.46999998093E+01 0. -1.
</event>
<event>
 5   0  0.4700769E-07  0.3541143E+04  0.7818609E-02  0.8104108E-01
       -1   -1    0    0    0  501  0.00000000000E+00  0.00000000000E+00  0.14930437832E+04  0.14930437832E+04  0.50400001928E-02 0.  1.
        1   -1    0    0  501    0  0.00000000000E+00  0.00000000000E+00 -0.20996860919E+04  0.20996860919E+04  0.50400001928E-02 0. -1.
    10030    2    1    2    0    0  0.00000000000E+00  0.00000000000E+00 -0.60664230868E+03  0.35927298751E+04  0.35411429037E+04 0.  0.
        3    1    3    3  502    0 -0.74302484107E+03  0.16058185561E+04 -0.23769416587E+03  0.17852836403E+04  0.10100000352E+00 0. -1.
       -3    1    3    3    0  502  0.74302484107E+03 -0.16058185561E+04 -0.36894814281E+03  0.18074462348E+04  0.10100000352E+00 0.  1.
</event>
<event>
 5   0  0.1378620E-06  0.3506504E+04  0.7818609E-02  0.8112250E-01
        2   -1    0    0  501    0  0.00000000000E+00  0.00000000000E+00  0.25159542205E+04  0.25159542205E+04  0.25500000920E-02 0. -1.
       -2   -1    0    0    0  501  0.00000000000E+00  0.00000000000E+00 -0.12217603320E+04  0.12217603320E+04  0.25500000920E-02 0.  1.
    10030    2    1    2    0    0  0.00000000000E+00  0.00000000000E+00  0.12941938885E+04  0.37377145525E+04  0.35065042784E+04 0.  0.
        2    1    3    3  502    0 -0.79360396876E+02  0.57153691475E+03  0.24118403428E+04  0.24799045055E+04  0.25500000920E-02 0. -1.
       -2    1    3    3    0  502  0.79360396876E+02 -0.57153691475E+03 -0.11176464542E+04  0.12578100470E+04  0.25500000920E-02 0.  1.
</event>
<event>
 5   0  0.4591195E-07  0.3487465E+04  0.7818609E-02  0.8116767E-01
        1   -1    0    0  501    0  0.00000000000E+00  0.00000000000E+00  0.15007076626E+04  0.15007076626E+04  0.50400001928E-02 0.  1.
       -1   -1    0    0    0  501  0.00000000000E+00  0.00000000000E+00 -0.20261125914E+04  0.20261125914E+04  0.50400001928E-02 0. -1.
    10030    2    1    2    0    0  0.00000000000E+00  0.00000000000E+00 -0.52540492879E+03  0.35268202540E+04  0.34874648048E+04 0.  0.
        4    1    3    3  502    0  0.62240021099E+01 -0.10909058358E+04 -0.16383795020E+04  0.19683503973E+04  0.12699999809E+01 0. -1.
       -4    1    3    3    0  502 -0.62240021099E+01  0.10909058358E+04  0.11129745732E+04  0.15584698568E+04  0.12699999809E+01 0.  1.
</event>
<event>
 5   0  0.1348388E-06  0.3523010E+04  0.7818609E-02  0.8108358E-01
        2   -1    0    0  501    0  0.00000000000E+00  0.00000000000E+00  0.12802145601E+04  0.12802145601E+04  0.25500000920E-02 0. -1.
       -2   -1    0    0    0  501  0.00000000000E+00  0.00000000000E+00 -0.24237343856E+04  0.24237343856E+04  0.25500000920E-02 0.  1.
    10030    2    1    2    0    0  0.00000000000E+00  0.00000000000E+00 -0.11435198254E+04  0.37039489457E+04  0.35230101052E+04 0.  0.
        5    1    3    3  502    0  0.92418923978E+03 -0.13757847707E+04  0.55513487261E+02  0.16583164124E+04  0.46999998093E+01 0. -1.
       -5    1    3    3    0  502 -0.92418923978E+03  0.13757847707E+04 -0.11990333127E+04  0.20456325333E+04  0.46999998093E+01 0.  1.
</event>
<event>
 5   0  0.1387133E-06  0.3393398E+04  0.7818609E-02  0.8139528E-01
        2   -1    0    0  501    0  0.00000000000E+00  0.00000000000E+00  0.16894514184E+04  0.16894514184E+04  0.25500000920E-02 0.  1.
       -2   -1    0    0    0  501  0.00000000000E+00  0.00000000000E+00 -0.17039779769E+04  0.17039779769E+04  0.25500000920E-02 0. -1.
    10030    2    1    2    0    0  0.00000000000E+00  0.00000000000E+00 -0.14526558560E+02  0.33934293953E+04  0.33933983026E+04 0.  0.
        4    1    3    3  502    0 -0.28645452759E+03 -0.47867895406E+03  0.15951236004E+04  0.16898552160E+04  0.12699999809E+01 0.  1.
       -4    1    3    3    0  502  0.28645452759E+03  0.47867895406E+03 -0.16096501590E+04  0.17035741794E+04  0.12699999809E+01 0. -1.
</event>
<event>
 5   0  0.4693374E-07  0.2727324E+04  0.7818609E-02  0.8326193E-01
       -1   -1    0    0    0  501  0.00000000000E+00  0.00000000000E+00  0.10045923162E+04  0.10045923162E+04  0.50400001928E-02 0.  1.
        1   -1    0    0  501    0  0.00000000000E+00  0.00000000000E+00 -0.18510728543E+04  0.18510728544E+04  0.50400001928E-02 0. -1.
    10030    2    1    2    0    0  0.00000000000E+00  0.00000000000E+00 -0.84648053819E+03  0.28556651705E+04  0.27273236450E+04 0.  0.
        1    1    3    3  502    0 -0.25608102779E+03 -0.12302484056E+04 -0.97777069001E+03  0.15922073215E+04  0.50400001928E-02 0.  1.
       -1    1    3    3    0  502  0.25608102779E+03  0.12302484056E+04  0.13129015182E+03  0.12634578490E+04  0.50400001928E-02 0. -1.
</event>
<event>
 5   0  0.1348388E-06  0.3501110E+04  0.7818609E-02  0.8113527E-01
       -2   -1    0    0    0  501  0.00000000000E+00  0.00000000000E+00  0.27877928725E+04  0.27877928725E+04  0.25500000920E-02 0. -1.
        2   -1    0    0  501    0  0.00000000000E+00  0.00000000000E+00 -0.10992360439E+04  0.10992360439E+04  0.25500000920E-02 0.  1.
    10030    2    1    2    0    0  0.00000000000E+00  0.00000000000E+00  0.16885568286E+04  0.38870289165E+04  0.35011097718E+04 0.  0.
        5    1    3    3  502    0  0.16457775170E+04 -0.50155492775E+03  0.12027965880E+04  0.20992576553E+04  0.46999998093E+01 0. -1.
       -5    1    3    3    0  502 -0.16457775170E+04  0.50155492775E+03  0.48576024056E+03  0.17877712612E+04  0.46999998093E+01 0.  1.
</event>
<event>
 5   0  0.1442864E-06  0.3527191E+04  0.7818609E-02  0.8107376E-01
       -2   -1    0    0    0  501  0.00000000000E+00  0.00000000000E+00  0.11198243684E+04  0.11198243684E+04  0.25500000920E-02 0.  1.
        2   -1    0    0  501    0  0.00000000000E+00  0.00000000000E+00 -0.27774621822E+04  0.27774621822E+04  0.25500000920E-02 0. -1.
    10030    2    1    2    0    0  0.00000000000E+00  0.00000000000E+00 -0.16576378138E+04  0.38972865506E+04  0.35271914232E+04 0.  0.
        1    1    3    3  502    0 -0.93302084643E+03  0.14379534354E+04 -0.12871061211E+04  0.21435671553E+04  0.50400001928E-02 0. -1.
       -1    1    3    3    0  502  0.93302084643E+03 -0.14379534354E+04 -0.37053169272E+03  0.17537193953E+04  0.50400001928E-02 0.  1.
</event>
<event>
 5   0  0.1361560E-06  0.2875243E+04  0.7818609E-02  0.8280282E-01
        2   -1    0    0  501    0  0.00000000000E+00  0.00000000000E+00  0.20260233738E+04  0.20260233738E+04  0.25500000920E-02 0. -1.
       -2   -1    0    0    0  501  0.00000000000E+00  0.00000000000E+00 -0.10201048252E+04  0.10201048252E+04  0.25500000920E-02 0.  1.
    10030    2    1    2    0    0  0.00000000000E+00  0.00000000000E+00  0.10059185486E+04  0.30461281991E+04  0.28752434468E+04 0.  0.
        3    1    3    3  502    0 -0.16890680458E+03 -0.13644340076E+04  0.57812572591E+02  0.13760639423E+04  0.10100000352E+00 0.  1.
       -3    1    3    3    0  502  0.16890680458E+03  0.13644340076E+04  0.94810597605E+03  0.16700642567E+04  0.10100000352E+00 0. -1.
</event>
<event>
 5   0  0.4693374E-07  0.3526580E+04  0.7818609E-02  0.8107520E-01
       -1   -1    0    0    0  501  0.00000000000E+00  0.00000000000E+00  0.21231074946E+04  0.21231074946E+04  0.50400001928E-02 0.  1.
        1   -1    0    0  501    0  0.00000000000E+00  0.00000000000E+00 -0.14644533771E+04  0.14644533771E+04  0.50400001928E-02 0. -1.
    10030    2    1    2    0    0  0.00000000000E+00  0.00000000000E+00  0.65865411745E+03  0.35875608717E+04  0.35265801794E+04 0.  0.
        1    1    3    3  502    0  0.25682926618E+03  0.94725764571E+03  0.18195582817E+04  0.20673777255E+04  0.50400001928E-02 0.  1.
       -1    1    3    3    0  502 -0.25682926618E+03 -0.94725764571E+03 -0.11609041643E+04  0.15201831462E+04  0.50400001928E-02 0. -1.
</event>
<event>
 5   0  0.4557237E-07  0.3235796E+04  0.7818609E-02  0.8179427E-01
       -1   -1    0    0    0  501  0.00000000000E+00  0.00000000000E+00  0.17025351645E+04  0.17025351645E+04  0.50400001928E-02 0.  1.
        1   -1    0    0  501    0  0.00000000000E+00  0.00000000000E+00 -0.15374683625E+04  0.15374683625E+04  0.50400001928E-02 0. -1.
    10030    2    1    2    0    0  0.00000000000E+00  0.00000000000E+00  0.16506680199E+03  0.32400035270E+04  0.32357960081E+04 0.  0.
        2    1    3    3  502    0  0.70408814583E+02 -0.12939634736E+04  0.10524492755E+04  0.16694155713E+04  0.25500000920E-02 0.  1.
       -2    1    3    3    0  502 -0.70408814583E+02  0.12939634736E+04 -0.88738247354E+03  0.15705879557E+04  0.25500000920E-02 0. -1.
</event>
<event>
 5   0  0.1442864E-06  0.3470687E+04  0.7818609E-02  0.8120772E-01
        2   -1    0    0  501    0  0.00000000000E+00  0.00000000000E+00  0.12597012003E+04  0.12597012003E+04  0.25500000920E-02 0. -1.
       -2   -1    0    0    0  501  0.00000000000E+00  0.00000000000E+00 -0.23905810720E+04  0.23905810720E+04  0.25500000920E-02 0.  1.
    10030    2    1    2    0    0  0.00000000000E+00  0.00000000000E+00 -0.11308798716E+04  0.36502822723E+04  0.34706874512E+04 0.  0.
        1    1    3    3  502    0  0.16749958016E+04 -0.42672646040E+03 -0.40348660078E+03  0.17749669981E+04  0.50400001928E-02 0.  1.
       -1    1    3    3    0  502 -0.16749958016E+04  0.42672646040E+03 -0.72739327086E+03  0.18753152742E+04  0.50400001928E-02 0. -1.
</event>
<event>
 5   0  0.1361560E-06  0.3501525E+04  0.7818609E-02  0.8113429E-01
       -2   -1    0    0    0  501  0.00000000000E+00  0.00000000000E+00  0.97975889898E+03  0.97975889898E+03  0.25500000920E-02 0. -1.
        2   -1    0    0  501    0  0.00000000000E+00  0.00000000000E+00 -0.31284942419E+04  0.31284942419E+04  0.25500000920E-02 0.  1.
    10030    2    1    2    0    0  0.00000000000E+00  0.00000000000E+00 -0.21487353429E+04  0.41082531409E+04  0.35015254241E+04 0.  0.
        3    1    3    3  502    0 -0.41887728876E+03 -0.10673142637E+04 -0.26267097780E+04  0.28660464386E+04  0.10100000352E+00 0.  1.
       -3    1    3    3    0  502  0.41887728876E+03  0.10673142637E+04  0.47797443502E+03  0.12422067023E+04  0.10100000352E+00 0. -1.
</event>
<event>
 5   0  0.4409125E-07  0.3414134E+04  0.7818609E-02  0.8134446E-01
       -1   -1    0    0    0  501  0.00000000000E+00  0.00000000000E+00  0.16654584163E+04  0.16654584163E+04  0.50400001928E-02 0. -1.
        1   -1    0    0  501    0  0.00000000000E+00  0.00000000000E+00 -0.17497147063E+04  0.17497147064E+04  0.50400001928E-02 0.  1.
    10030    2    1    2    0    0  0.00000000000E+00  0.00000000000E+00 -0.84256290005E+02  0.34151731227E+04  0.34141336142E+04 0.  0.
        5    1    3    3  502    0 -0.26451518061E+00  0.16988806565E+04 -0.20909043498E+03  0.17117057151E+04  0.46999998093E+01 0.  1.
       -5    1    3    3    0  502  0.26451518061E+00 -0.16988806565E+04  0.12483414497E+03  0.17034674076E+04  0.46999998093E+01 0. -1.
</event>
<event>
 5   0  0.1361560E-06  0.3523001E+04  0.7818609E-02  0.8108361E-01
       -2   -1    0    0    0  501  0.00000000000E+00  0.00000000000E+00  0.16195470282E+04  0.16195470282E+04  0.25500000920E-02 0.  1.
        2   -1    0    0  501    0  0.00000000000E+00  0.00000000000E+00 -0.19158963833E+04  0.19158963833E+04  0.25500000920E-02 0. -1.
    10030    2    1    2    0    0  0.00000000000E+00  0.00000000000E+00 -0.29634935506E+03  0.35354434115E+04  0.35230011604E+04 0.  0.
        3    1    3    3  502    0 -0.83012113962E+03  0.73912842028E+03  0.12232065332E+04  0.16527692401E+04  0.10100000352E+00 0.  1.
       -3    1    3    3    0  502  0.83012113962E+03 -0.73912842028E+03 -0.15195558882E+04  0.18826741714E+04  0.10100000352E+00 0. -1.
</event>
<event>
 5   0  0.4591195E-07  0.3436059E+04  0.7818609E-02  0.8129113E-01
       -1   -1    0    0    0  501  0.00000000000E+00  0.00000000000E+00  0.16684312374E+04  0.16684312374E+04  0.50400001928E-02 0.  1.
        1   -1    0    0  501    0  0.00000000000E+00  0.00000000000E+00 -0.17691021932E+04  0.17691021932E+04  0.50400001928E-02 0. -1.
    10030    2    1    2    0    0  0.00000000000E+00  0.00000000000E+00 -0.10067095580E+03  0.34375334306E+04  0.34360589991E+04 0.  0.
        4    1    3    3  502    0  0.93509198367E+02 -0.86630919813E+03  0.14309714067E+04  0.16753854412E+04  0.12699999809E+01 0.  1.
       -4    1    3    3    0  502 -0.93509198367E+02  0.86630919813E+03 -0.15316423625E+04  0.17621479894E+04  0.12699999809E+01 0. -1.
</event>
<event>
 5   0  0.4591195E-07  0.3491284E+04  0.7818609E-02  0.8115859E-01
        1   -1    0    0  501    0  0.00000000000E+00  0.00000000000E+00  0.23900667140E+04  0.23900667140E+04  0.50400001928E-02 0.  1.
       -1   -1    0    0    0  501  0.00000000000E+00  0.00000000000E+00 -0.12749712415E+04  0.12749712415E+04  0.50400001928E-02 0. -1.
    10030    2    1    2    0    0  0.00000000000E+00  0.00000000000E+00  0.11150954726E+04  0.36650379555E+04  0.34912841910E+04 0.  0.
        4    1    3    3  502    0  0.73538944965E+03 -0.41585135093E+03 -0.10460683665E+04  0.13446154205E+04  0.12699999809E+01 0. -1.
       -4    1    3    3    0  502 -0.73538944965E+03  0.41585135093E+03  0.21611638391E+04  0.23204225350E+04  0.12699999809E+01 0.  1.
</event>
<event>
 5   0  0.1361560E-06  0.3469075E+04  0.7818609E-02  0.8121158E-01
       -2   -1    0    0    0  501  0.00000000000E+00  0.00000000000E+00  0.17781205928E+04  0.17781205928E+04  0.25500000920E-02 0. -1.
        2   -1    0    0  501    0  0.00000000000E+00  0.00000000000E+00 -0.16920230625E+04  0.16920230625E+04  0.25500000920E-02 0.  1.
    10030    2    1    2    0    0  0.00000000000E+00  0.00000000000E+00  0.86097530322E+02  0.34701436553E+04  0.34690754105E+04 0.  0.
        3    1    3    3  502    0 -0.16194738917E+04  0.62121458745E+03  0.47268014708E+02  0.17351765112E+04  0.10100000352E+00 0.  1.
       -3    1    3    3    0  502  0.16194738917E+04 -0.62121458745E+03  0.38829515614E+02  0.17349671441E+04  0.10100000352E+00 0. -1.
</event>
<event>
 5   0  0.4409125E-07  0.3490886E+04  0.7818609E-02  0.8115953E-01
       -1   -1    0    0    0  501  0.00000000000E+00  0.00000000000E+00  0.20199445474E+04  0.20199445474E+04  0.50400001928E-02 0.  1.
        1   -1    0    0  501    0  0.00000000000E+00  0.00000000000E+00 -0.15082449877E+04  0.15082449877E+04  0.50400001928E-02 0. -1.
    10030    2    1    2    0    0  0.00000000000E+00  0.00000000000E+00  0.51169955974E+03  0.35281895351E+04  0.34908859844E+04 0.  0.
        5    1    3    3  502    0 -0.15113030476E+04 -0.81049227868E+03 -0.72606859037E+02  0.17164581211E+04  0.46999998093E+01 0.  1.
       -5    1    3    3    0  502  0.15113030476E+04  0.81049227868E+03  0.58430641878E+03  0.18117314140E+04  0.46999998093E+01 0. -1.
</event>
<event>
 5   0  0.4693374E-07  0.3457676E+04  0.7818609E-02  0.8123894E-01
       -1   -1    0    0    0  501  0.00000000000E+00  0.00000000000E+00  0.12640424655E+04  0.12640424655E+04  0.50400001928E-02 0.  1.
        1   -1    0    0  501    0  0.00000000000E+00  0.00000000000E+00 -0.23645414850E+04  0.23645414850E+04  0.50400001928E-02 0. -1.
    10030    2    1    2    0    0  0.00000000000E+00  0.00000000000E+00 -0.11004990195E+04  0.36285839505E+04  0.34576760105E+04 0.  0.
        1    1    3    3  502    0  0.77282845464E+03  0.90158193366E+03 -0.18688459675E+04  0.22142039322E+04  0.50400001928E-02 0. -1.
       -1    1    3    3    0  502 -0.77282845464E+03 -0.90158193366E+03  0.76834694801E+03  0.14143800182E+04  0.50400001928E-02 0.  1.
</event>
<event>
 5   0  0.4591195E-07  0.3430264E+04  0.7818609E-02  0.8130518E-01
        1   -1    0    0  501    0  0.00000000000E+00  0.00000000000E+00  0.98497406442E+03  0.98497406444E+03  0.50400001928E-02 0.  1.
       -1   -1    0    0    0  501  0.00000000000E+00  0.00000000000E+00 -0.29865530674E+04  0.29865530674E+04  0.50400001928E-02 0. -1.
    10030    2    1    2    0    0  0.00000000000E+00  0.00000000000E+00 -0.20015790030E+04  0.39715271319E+04  0.34302637295E+04 0.  0.
        4    1    3    3  502    0 -0.61088388376E+03 -0.15421238004E+04 -0.15059243563E+04  0.22403425441E+04  0.12699999809E+01 0. -1.
       -4    1    3    3    0  502  0.61088388376E+03  0.15421238004E+04 -0.49565464675E+03  0.17311845878E+04  0.12699999809E+01 0.  1.
</event>
<event>
 5   0  0.1378620E-06  0.3466606E+04  0.7818609E-02  0.8121750E-01
       -2   -1    0    0    0  501  0.00000000000E+00  0.00000000000E+00  0.13413876519E+04  0.13413876519E+04  0.25500000920E-02 0.  1.
        2   -1    0    0  501    0  0.00000000000E+00  0.00000000000E+00 -0.22397244729E+04  0.22397244729E+04  0.25500000920E-02 0. -1.
    10030    2    1    2    0    0  0.00000000000E+00  0.00000000000E+00 -0.89833682097E+03  0.35811121248E+04  0.34666056895E+04 0.  0.
        2    1    3    3  502    0 -0.84880458377E+03 -0.11509982639E+04 -0.14608391726E+04  0.20443378667E+04  0.25500000920E-02 0. -1.
       -2    1    3    3    0  502  0.84880458377E+03  0.11509982639E+04  0.56250235159E+03  0.15367742582E+04  0.25500000920E-02 0.  1.
</event>
<event>
 5   0  0.1378620E-06  0.3501526E+04  0.7818609E-02  0.8113428E-01
        2   -1    0    0  501    0  0.00000000000E+00  0.00000000000E+00  0.11895688216E+04  0.11895688216E+04  0.25500000920E-02 0.  1.
       -2   -1    0    0    0  501  0.00000000000E+00  0.00000000000E+00 -0.25767071247E+04  0.25767071247E+04  0.25500000920E-02 0. -1.
    10030    2    1    2    0    0  0.00000000000E+00  0.00000000000E+00 -0.13871383031E+04  0.37662759463E+04  0.35015256434E+04 0.  0.
        2    1    3    3  502    0 -0.69956346598E+02 -0.45793747454E+03  0.11224510194E+04  0.12142886444E+04  0.25500000920E-02 0.  1.
       -2    1    3    3    0  502  0.69956346598E+02  0.45793747454E+03 -0.25095893225E+04  0.25519873018E+04  0.25500000920E-02 0. -1.
</event>
<event>
 5   0  0.1378620E-06  0.3556074E+04  0.7818609E-02  0.8100628E-01
        2   -1    0    0  501    0  0.00000000000E+00  0.00000000000E+00  0.21089127250E+04  0.21089127250E+04  0.25500000920E-02 0. -1.
       -2   -1    0    0    0  501  0.00000000000E+00  0.00000000000E+00 -0.14990738566E+04  0.14990738566E+04  0.25500000920E-02 0.  1.
    10030    2    1    2    0    0  0.00000000000E+00  0.00000000000E+00  0.60983886832E+03  0.36079865816E+04  0.35560742017E+04 0.  0.
        2    1    3    3  502    0  0.91737216613E+03  0.98192719460E+02  0.18470427998E+04  0.20646502381E+04  0.25500000920E-02 0. -1.
       -2    1    3    3    0  502 -0.91737216613E+03 -0.98192719460E+02 -0.12372039314E+04  0.15433363436E+04  0.25500000920E-02 0.  1.
</event>
<event>
 5   0  0.4557237E-07  0.3083779E+04  0.7818609E-02  0.8220204E-01
        1   -1    0    0  501    0  0.00000000000E+00  0.00000000000E+00  0.18763670609E+04  0.18763670609E+04  0.50400001928E-02 0. -1.
       -1   -1    0    0    0  501  0.00000000000E+00  0.00000000000E+00 -0.12670352137E+04  0.12670352137E+04  0.50400001928E-02 0.  1.
    10030    2    1    2    0    0  0.00000000000E+00  0.00000000000E+00  0.60933184718E+03  0.31434022747E+04  0.30837789416E+04 0.  0.
        2    1    3    3  502    0 -0.99658383745E+03 -0.37131697928E+03 -0.83332757766E+03  0.13511071371E+04  0.25500000920E-02 0.  1.
       -2    1    3    3    0  502  0.99658383745E+03  0.37131697928E+03  0.14426594248E+04  0.17922951376E+04  0.25500000920E-02 0. -1.
</event>
<event>
 5   0  0.4591195E-07  0.3466404E+04  0.7818609E-02  0.8121798E-01
        1   -1    0    0  501    0  0.00000000000E+00  0.00000000000E+00  0.15308728602E+04  0.15308728602E+04  0.50400001928E-02 0. -1.
       -1   -1    0    0    0  501  0.00000000000E+00  0.00000000000E+00 -0.19622723664E+04  0.19622723664E+04  0.50400001928E-02 0.  1.
    10030    2    1    2    0    0  0.00000000000E+00  0.00000000000E+00 -0.43139950622E+03  0.34931452266E+04  0.34664041946E+04 0.  0.
        4    1    3    3  502    0 -0.14218381371E+04 -0.87849789953E+03  0.24675840874E+03  0.16894595505E+04  0.12699999809E+01 0. -1.
       -4    1    3    3    0  502  0.14218381371E+04  0.87849789953E+03 -0.67815791496E+03  0.18036856761E+04  0.12699999809E+01 0.  1.
</event>
<event>
 5   0  0.4700769E-07  0.3485547E+04  0.7818609E-02  0.8117224E-01
       -1   -1    0    0    0  501  0.00000000000E+00  0.00000000000E+00  0.14901704024E+04  0.14901704024E+04  0.50400001928E-02 0.  1.
        1   -1    0    0  501    0  0.00000000000E+00  0.00000000000E+00 -0.20381957093E+04  0.20381957093E+04  0.50400001928E-02 0. -1.
    10030    2    1    2    0    0  0.00000000000E+00  0.00000000000E+00 -0.54802530684E+03  0.35283661117E+04  0.34855466833E+04 0.  0.
        3    1    3    3  502    0 -0.18107422979E+03 -0.11000702813E+04  0.10819641273E+04  0.15535729412E+04  0.10100000352E+00 0.  1.
       -3    1    3    3    0  502  0.18107422979E+03  0.11000702813E+04 -0.16299894342E+04  0.19747931705E+04  0.10100000352E+00 0. -1.
</event>
<event>
 5   0  0.1348388E-06  0.3438807E+04  0.7818609E-02  0.8128447E-01
       -2   -1    0    0    0  501  0.00000000000E+00  0.00000000000E+00  0.14715065296E+04  0.14715065297E+04  0.25500000920E-02 0. -1.
        2   -1    0    0  501    0  0.00000000000E+00  0.00000000000E+00 -0.20090623392E+04  0.20090623392E+04  0.25500000920E-02 0.  1.
    10030    2    1    2    0    0  0.00000000000E+00  0.00000000000E+00 -0.53755580950E+03  0.34805688688E+04  0.34388069737E+04 0.  0.
        5    1    3    3  502    0  0.70899977839E+03 -0.14577019478E+04  0.31155301979E+03  0.16506553330E+04  0.46999998093E+01 0.  1.
       -5    1    3    3    0  502 -0.70899977839E+03  0.14577019478E+04 -0.84910882929E+03  0.18299135358E+04  0.46999998093E+01 0. -1.
</event>
<event>
 5   0  0.4591195E-07  0.3389154E+04  0.7818609E-02  0.8140573E-01
        1   -1    0    0  501    0  0.00000000000E+00  0.00000000000E+00  0.14902759294E+04  0.14902759294E+04  0.50400001928E-02 0.  1.
       -1   -1    0    0    0  501  0.00000000000E+00  0.00000000000E+00 -0.19268853897E+04  0.19268853897E+04  0.50400001928E-02 0. -1.
    10030    2    1    2    0    0  0.00000000000E+00  0.00000000000E+00 -0.43660946031E+03  0.34171613191E+04  0.33891538266E+04 0.  0.
        4    1    3    3  502    0 -0.97948359111E+03 -0.10822205171E+04 -0.10862319118E+04  0.18194754002E+04  0.12699999809E+01 0. -1.
       -4    1    3    3    0  502  0.97948359111E+03  0.10822205171E+04  0.64962245152E+03  0.15976859189E+04  0.12699999809E+01 0.  1.
</event>
<event>
 5   0  0.1348388E-06  0.3545697E+04  0.7818609E-02  0.8103045E-01
       -2   -1    0    0    0  501  0.00000000000E+00  0.00000000000E+00  0.27037533426E+04  0.27037533426E+04  0.25500000920E-02 0.  1.
        2   -1    0    0  501    0  0.00000000000E+00  0.00000000000E+00 -0.11624548962E+04  0.11624548962E+04  0.25500000920E-02 0. -1.
    10030    2    1    2    0    0  0.00000000000E+00  0.00000000000E+00  0.15412984465E+04  0.38662082388E+04  0.35456967221E+04 0.  0.
        5    1    3    3  502    0 -0.67360570271E+03 -0.16375738146E+04  0.67573741050E+03  0.18952666775E+04  0.46999998093E+01 0. -1.
       -5    1    3    3    0  502  0.67360570271E+03  0.16375738146E+04  0.86556103595E+03  0.19709415613E+04  0.46999998093E+01 0.  1.
</event>
<event>
 5   0  0.4591195E-07  0.3448918E+04  0.7818609E-02  0.8126004E-01
       -1   -1    0    0    0  501  0.00000000000E+00  0.00000000000E+00  0.20100390125E+04  0.20100390125E+04  0.50400001928E-02 0. -1.
        1   -1    0    0  501    0  0.00000000000E+00  0.00000000000E+00 -0.14794532991E+04  0.14794532991E+04  0.50400001928E-02 0.  1.
    10030    2    1    2    0    0  0.00000000000E+00  0.00000000000E+00  0.53058571336E+03  0.34894923116E+04  0.34489180033E+04 0.  0.
        4    1    3    3  502    0 -0.12511337269E+03  0.13915361508E+04  0.12879914675E+04  0.19002499436E+04  0.12699999809E+01 0. -1.
       -4    1    3    3    0  502  0.12511337269E+03 -0.13915361508E+04 -0.75740575411E+03  0.15892423680E+04  0.12699999809E+01 0.  1.
</event>
<event>
 5   0  0.4409125E-07  0.3440878E+04  0.7818609E-02  0.8127946E-01
        3   -1    0    0  501    0  0.00000000000E+00  0.00000000000E+00  0.30111928764E+04  0.30111928781E+04  0.10100000352E+00 0.  1.
       -3   -1    0    0    0  501  0.00000000000E+00  0.00000000000E+00 -0.98296929526E+03  0.98296930045E+03  0.10100000352E+00 0. -1.
    10030    2    1    2    0    0  0.00000000000E+00  0.00000000000E+00  0.20282235812E+04  0.39941621786E+04  0.34408778841E+04 0.  0.
        4    1    3    3  502    0  0.15797615893E+04 -0.62434302119E+02  0.22650939711E+03  0.15971389548E+04  0.12699999809E+01 0. -1.
       -4    1    3    3    0  502 -0.15797615893E+04  0.62434302119E+02  0.18017141841E+04  0.23970232237E+04  0.12699999809E+01 0.  1.
</event>
<event>
 5   0  0.4700769E-07  0.3513267E+04  0.7818609E-02  0.8110653E-01
       -1   -1    0    0    0  501  0.00000000000E+00  0.00000000000E+00  0.11513081361E+04  0.11513081361E+04  0.50400001928E-02 0. -1.
        1   -1    0    0  501    0  0.00000000000E+00  0.00000000000E+00 -0.26802212773E+04  0.26802212773E+04  0.50400001928E-02 0.  1.
    10030    2    1    2    0    0  0.00000000000E+00  0.00000000000E+00 -0.15289131412E+04  0.38315294133E+04  0.35132666070E+04 0.  0.
        3    1    3    3  502    0  0.13564854039E+04  0.21352644265E+02  0.45254089585E+03  0.14301405032E+04  0.10100000352E+00 0. -1.
       -3    1    3    3    0  502 -0.13564854039E+04 -0.21352644265E+02 -0.19814540370E+04  0.24013889101E+04  0.10100000352E+00 0.  1.
</event>
<event>
 5   0  0.4700769E-07  0.3528609E+04  0.7818609E-02  0.8107043E-01
        1   -1    0    0  501    0  0.00000000000E+00  0.00000000000E+00  0.17663527499E+04  0.17663527499E+04  0.50400001928E-02 0.  1.
       -1   -1    0    0    0  501  0.00000000000E+00  0.00000000000E+00 -0.17622587863E+04  0.17622587863E+04  0.50400001928E-02 0. -1.
    10030    2    1    2    0    0  0.00000000000E+00  0.00000000000E+00  0.40939635845E+01  0.35286115362E+04  0.35286091613E+04 0.  0.
        3    1    3    3  502    0  0.61920692996E+02 -0.38821804309E+03 -0.17179027861E+04  0.17623102490E+04  0.10100000352E+00 0. -1.
       -3    1    3    3    0  502 -0.61920692996E+02  0.38821804309E+03  0.17219967497E+04  0.17663012872E+04  0.10100000352E+00 0.  1.
</event>
<event>
 5   0  0.1387133E-06  0.2520722E+04  0.7818609E-02  0.8395640E-01
       -2   -1    0    0    0  501  0.00000000000E+00  0.00000000000E+00  0.86963828725E+03  0.86963828726E+03  0.25500000920E-02 0. -1.
        2   -1    0    0  501    0  0.00000000000E+00  0.00000000000E+00 -0.18266325590E+04  0.18266325590E+04  0.25500000920E-02 0.  1.
    10030    2    1    2    0    0  0.00000000000E+00  0.00000000000E+00 -0.95699427178E+03  0.26962708463E+04  0.25207218094E+04 0.  0.
        4    1    3    3  502    0  0.11368743082E+04  0.21729546744E+03 -0.10120412302E+04  0.15375075861E+04  0.12699999809E+01 0. -1.
       -4    1    3    3    0  502 -0.11368743082E+04 -0.21729546744E+03  0.55046958421E+02  0.11587632602E+04  0.12699999809E+01 0.  1.
</event>
<event>
 5   0  0.1378620E-06  0.3364883E+04  0.7818609E-02  0.8146579E-01
        2   -1    0    0  501    0  0.00000000000E+00  0.00000000000E+00  0.20572423547E+04  0.20572423547E+04  0.25500000920E-02 0.  1.
       -2   -1    0    0    0  501  0.00000000000E+00  0.00000000000E+00 -0.13759241127E+04  0.13759241127E+04  0.25500000920E-02 0. -1.
    10030    2    1    2    0    0  0.00000000000E+00  0.00000000000E+00  0.68131824194E+03  0.34331664674E+04  0.33648829766E+04 0.  0.
        2    1    3    3  502    0  0.12304772747E+04  0.45568804476E+03 -0.73374544837E+03  0.15033656577E+04  0.25500000920E-02 0. -1.
       -2    1    3    3    0  502 -0.12304772747E+04 -0.45568804476E+03  0.14150636903E+04  0.19298008097E+04  0.25500000920E-02 0.  1.
</event>
<event>
 5   0  0.4700769E-07  0.3522023E+04  0.7818609E-02  0.8108591E-01
        1   -1    0    0  501    0  0.00000000000E+00  0.00000000000E+00  0.26694565089E+04  0.26694565089E+04  0.50400001928E-02 0. -1.
       -1   -1    0    0    0  501  0.00000000000E+00  0.00000000000E+00 -0.11617200801E+04  0.11617200801E+04  0.50400001928E-02 0.  1.
    10030    2    1    2    0    0  0.00000000000E+00  0.00000000000E+00  0.15077364289E+04  0.38311765890E+04  0.35220228445E+04 0.  0.
        3    1    3    3  502    0 -0.76723562047E+03  0.11469671967E+04  0.19439666909E+04  0.23839443688E+04  0.10100000352E+00 0. -1.
       -3    1    3    3    0  502  0.76723562047E+03 -0.11469671967E+04 -0.43623026207E+03  0.14472322203E+04  0.10100000352E+00 0.  1.
</event>
<event>
 5   0  0.1361560E-06  0.3488084E+04  0.7818609E-02  0.8116620E-01
        2   -1    0    0  501    0  0.00000000000E+00  0.00000000000E+00  0.20526368493E+04  0.20526368493E+04  0.25500000920E-02 0.  1.
       -2   -1    0    0    0  501  0.00000000000E+00  0.00000000000E+00 -0.14818416638E+04  0.14818416638E+04  0.25500000920E-02 0. -1.
    10030    2    1    2    0    0  0.00000000000E+00  0.00000000000E+00  0.57079518545E+03  0.35344785131E+04  0.34880841755E+04 0.  0.
        3    1    3    3  502    0 -0.38162711458E+02  0.14143477866E+04 -0.74789438145E+03  0.16003693543E+04  0.10100000352E+00 0. -1.
       -3    1    3    3    0  502  0.38162711458E+02 -0.14143477866E+04  0.13186895669E+04  0.19341091588E+04  0.10100000352E+00 0.  1.
</event>
<event>
 5   0  0.4693374E-07  0.3377949E+04  0.7818609E-02  0.8143340E-01
        1   -1    0    0  501    0  0.00000000000E+00  0.00000000000E+00  0.29166011391E+04  0.29166011391E+04  0.50400001928E-02 0.  1.
       -1   -1    0    0    0  501  0.00000000000E+00  0.00000000000E+00 -0.97806806253E+03  0.97806806255E+03  0.50400001928E-02 0. -1.
    10030    2    1    2    0    0  0.00000000000E+00  0.00000000000E+00  0.19385330766E+04  0.38946692017E+04  0.33779487417E+04 0.  0.
        1    1    3    3  502    0  0.16453141401E+04 -0.35780961808E+03  0.81653372264E+03  0.18713133524E+04  0.50400001928E-02 0. -1.
       -1    1    3    3    0  502 -0.16453141401E+04  0.35780961808E+03  0.11219993539E+04  0.20233558493E+04  0.50400001928E-02 0.  1.
</event>
<event>
 5   0  0.4591195E-07  0.3536661E+04  0.7818609E-02  0.8105156E-01
       -1   -1    0    0    0  501  0.00000000000E+00  0.00000000000E+00  0.13525259093E+04  0.13525259093E+04  0.50400001928E-02 0. -1.
        1   -1    0    0  501    0  0.00000000000E+00  0.00000000000E+00 -0.23119653062E+04  0.23119653062E+04  0.50400001928E-02 0.  1.
    10030    2    1    2    0    0  0.00000000000E+00  0.00000000000E+00 -0.95943939690E+03  0.36644912156E+04  0.35366611250E+04 0.  0.
        4    1    3    3  502    0 -0.74023592937E+03  0.38095204844E+03 -0.20962102787E+04  0.22554761891E+04  0.12699999809E+01 0.  1.
       -4    1    3    3    0  502  0.74023592937E+03 -0.38095204844E+03  0.11367708818E+04  0.14090150265E+04  0.12699999809E+01 0. -1.
</event>
<event>
 5   0  0.4409125E-07  0.3501118E+04  0.7818609E-02  0.8113525E-01
        1   -1    0    0  501    0  0.00000000000E+00  0.00000000000E+00  0.23900302504E+04  0.23900302504E+04  0.50400001928E-02 0. -1.
       -1   -1    0    0    0  501  0.00000000000E+00  0.00000000000E+00 -0.12821829546E+04  0.12821829546E+04  0.50400001928E-02 0.  1.
    10030    2    1    2    0    0  0.00000000000E+00  0.00000000000E+00  0.11078472958E+04  0.36722132050E+04  0.35011175633E+04 0.  0.
        5    1    3    3  502    0  0.12331315718E+03 -0.11885797044E+04 -0.78785232081E+03  0.14313145069E+04  0.46999998093E+01 0.  1.
       -5    1    3    3    0  502 -0.12331315718E+03  0.11885797044E+04  0.18956996166E+04  0.22408986980E+04  0.46999998093E+01 0. -1.
</event>
<event>
 5   0  0.1361560E-06  0.3572868E+04  0.7818609E-02  0.8096735E-01
       -2   -1    0    0    0  501  0.00000000000E+00  0.00000000000E+00  0.20086506198E+04  0.20086506198E+04  0.25500000920E-02 0.  1.
        2   -1    0    0  501    0  0.00000000000E+00  0.00000000000E+00 -0.15888007863E+04  0.15888007863E+04  0.25500000920E-02 0. -1.
    10030    2    1    2    0    0  0.00000000000E+00  0.00000000000E+00  0.41984983345E+03  0.35974514061E+04  0.35728675789E+04 0.  0.
        3    1    3    3  502    0 -0.71337552403E+03  0.23173739411E+03  0.18424194475E+04  0.19892501826E+04  0.10100000352E+00 0.  1.
       -3    1    3    3    0  502  0.71337552403E+03 -0.23173739411E+03 -0.14225696141E+04  0.16082012235E+04  0.10100000352E+00 0. -1.
</event>
<event>
 5   0  0.4693374E-07  0.3118508E+04  0.7818609E-02  0.8210677E-01
       -1   -1    0    0    0  501  0.00000000000E+00  0.00000000000E+00  0.10166062164E+04  0.10166062164E+04  0.50400001928E-02 0.  1.
        1   -1    0    0  501    0  0.00000000000E+00  0.00000000000E+00 -0.23915575458E+04  0.23915575459E+04  0.50400001928E-02 0. -1.
    10030    2    1    2    0    0  0.00000000000E+00  0.00000000000E+00 -0.13749513294E+04  0.34081637623E+04  0.31185075072E+04 0.  0.
        1    1    3    3  502    0  0.45557336549E+03  0.43152811447E+03 -0.22474713335E+04  0.23334290218E+04  0.50400001928E-02 0. -1.
       -1    1    3    3    0  502 -0.45557336549E+03 -0.43152811447E+03  0.87252000406E+03  0.10747347405E+04  0.50400001928E-02 0.  1.
</event>
<event>
 5   0  0.1442864E-06  0.3493596E+04  0.7818609E-02  0.8115309E-01
        2   -1    0    0  501    0  0.00000000000E+00  0.00000000000E+00  0.23234526168E+04  0.23234526168E+04  0.25500000920E-02 0.  1.
       -2   -1    0    0    0  501  0.00000000000E+00  0.00000000000E+00 -0.13132623642E+04  0.13132623642E+04  0.25500000920E-02 0. -1.
    10030    2    1    2    0    0  0.00000000000E+00  0.00000000000E+00  0.10101902526E+04  0.36367149810E+04  0.34935957846E+04 0.  0.
        1    1    3    3  502    0 -0.10514700258E+03  0.10008242234E+04 -0.98119089246E+03  0.14055036769E+04  0.50400001928E-02 0. -1.
       -1    1    3    3    0  502  0.10514700258E+03 -0.10008242234E+04  0.19913811451E+04  0.22312113041E+04  0.50400001928E-02 0.  1.
</event>
<event>
 5   0  0.4591195E-07  0.3426592E+04  0.7818609E-02  0.8131411E-01
        1   -1    0    0  501    0  0.00000000000E+00  0.00000000000E+00  0.25807271994E+04  0.25807271994E+04  0.50400001928E-02 0.  1.
       -1   -1    0    0    0  501  0.00000000000E+00  0.00000000000E+00 -0.11374245440E+04  0.11374245440E+04  0.50400001928E-02 0. -1.
    10030    2    1    2    0    0  0.00000000000E+00  0.00000000000E+00  0.14433026555E+04  0.37181517435E+04  0.34265915765E+04 0.  0.
        4    1    3    3  502    0  0.13075778198E+04  0.51815861387E+03  0.17832267457E+04  0.22711555085E+04  0.12699999809E+01 0.  1.
       -4    1    3    3    0  502 -0.13075778198E+04 -0.51815861387E+03 -0.33992409027E+03  0.14469962350E+04  0.12699999809E+01 0. -1.
</event>
<event>
 5   0  0.4409125E-07  0.3012966E+04  0.7818609E-02  0.8240038E-01
        1   -1    0    0  501    0  0.00000000000E+00  0.00000000000E+00  0.14523200767E+04  0.14523200767E+04  0.50400001928E-02 0.  1.
       -1   -1    0    0    0  501  0.00000000000E+00  0.00000000000E+00 -0.15626661605E+04  0.15626661605E+04  0.50400001928E-02 0. -1.
    10030    2    1    2    0    0  0.00000000000E+00  0.00000000000E+00 -0.11034608380E+03  0.30149862372E+04  0.30129662714E+04 0.  0.
        5    1    3    3  502    0  0.19192749968E+03  0.64437127297E+03 -0.14041936296E+04  0.15568661927E+04  0.46999998093E+01 0. -1.
       -5    1    3    3    0  502 -0.19192749968E+03 -0.64437127297E+03  0.12938475458E+04  0.14581200446E+04  0.46999998093E+01 0.  1.
</event>
<event>
 5   0  0.4557237E-07  0.3511785E+04  0.7818609E-02  0.8111003E-01
        1   -1    0    0  501    0  0.00000000000E+00  0.00000000000E+00  0.23015958924E+04  0.23015958924E+04  0.50400001928E-02 0.  1.
       -1   -1    0    0    0  501  0.00000000000E+00  0.00000000000E+00 -0.13395742262E+04  0.13395742262E+04  0.50400001928E-02 0. -1.
    10030    2    1    2    0    0  0.00000000000E+00  0.00000000000E+00  0.96202166624E+03  0.36411701186E+04  0.35117850370E+04 0.  0.
        2    1    3    3  502    0  0.11069926066E+04  0.13359064617E+04  0.20071811630E+03  0.17465298359E+04  0.25500000920E-02 0.  1.
       -2    1    3    3    0  502 -0.11069926066E+04 -0.13359064617E+04  0.76130354994E+03  0.18946402827E+04  0.25500000920E-02 0. -1.
</event>
<event>
 5   0  0.4591195E-07  0.3555643E+04  0.7818609E-02  0.8100728E-01
        1   -1    0    0  501    0  0.00000000000E+00  0.00000000000E+00  0.18184240402E+04  0.18184240402E+04  0.50400001928E-02 0.  1.
       -1   -1    0    0    0  501  0.00000000000E+00  0.00000000000E+00 -0.17381252700E+04  0.17381252700E+04  0.50400001928E-02 0. -1.
    10030    2    1    2    0    0  0.00000000000E+00  0.00000000000E+00  0.80298770229E+02  0.35565493102E+04  0.35556427131E+04 0.  0.
        4    1    3    3  502    0  0.15588727643E+04 -0.19938480814E+03  0.87151024986E+03  0.17970448869E+04  0.12699999809E+01 0.  1.
       -4    1    3    3    0  502 -0.15588727643E+04  0.19938480814E+03 -0.79121147963E+03  0.17595044233E+04  0.12699999809E+01 0. -1.
</event>
<event>
 5   0  0.4409125E-07  0.3546147E+04  0.7818609E-02  0.8102940E-01
        1   -1    0    0  501    0  0.00000000000E+00  0.00000000000E+00  0.21857029614E+04  0.21857029614E+04  0.50400001928E-02 0.  1.
       -1   -1    0    0    0  501  0.00000000000E+00  0.00000000000E+00 -0.14383426186E+04  0.14383426186E+04  0.50400001928E-02 0. -1.
    10030    2    1    2    0    0  0.00000000000E+00  0.00000000000E+00  0.74736034283E+03  0.36240455800E+04  0.35461470477E+04 0.  0.
        5    1    3    3  502    0 -0.76716145127E+03 -0.10790968259E+04 -0.83153969536E+03  0.15634791354E+04  0.46999998093E+01 0. -1.
       -5    1    3    3    0  502  0.76716145127E+03  0.10790968259E+04  0.15789000382E+04  0.20605664446E+04  0.46999998093E+01 0.  1.
</event>
<event>
 5   0  0.1378620E-06  0.3497428E+04  0.7818609E-02  0.8114400E-01
       -2   -1    0    0    0  501  0.00000000000E+00  0.00000000000E+00  0.89306100779E+03  0.89306100779E+03  0.25500000920E-02 0.  1.
        2   -1    0    0  501    0  0.00000000000E+00  0.00000000000E+00 -0.34241785020E+04  0.34241785020E+04  0.25500000920E-02 0. -1.
    10030    2    1    2    0    0  0.00000000000E+00  0.00000000000E+00 -0.25311174942E+04  0.43172395098E+04  0.34974277999E+04 0.  0.
        2    1    3    3  502    0 -0.17073034671E+04 -0.30715828001E+03 -0.15381608229E+04  0.23184412986E+04  0.25500000920E-02 0. -1.
       -2    1    3    3    0  502  0.17073034671E+04  0.30715828001E+03 -0.99295667126E+03  0.19987982112E+04  0.25500000920E-02 0.  1.
</event>
<event>
 5   0  0.4693374E-07  0.3375943E+04  0.7818609E-02  0.8143836E-01
        1   -1    0    0  501    0  0.00000000000E+00  0.00000000000E+00  0.17735177816E+04  0.17735177816E+04  0.50400001928E-02 0.  1.
       -1   -1    0    0    0  501  0.00000000000E+00  0.00000000000E+00 -0.16065520487E+04  0.16065520487E+04  0.50400001928E-02 0. -1.
    10030    2    1    2    0    0  0.00000000000E+00  0.00000000000E+00  0.16696573288E+03  0.33800698303E+04  0.33759434980E+04 0.  0.
        1    1    3    3  502    0  0.15814252963E+04  0.32357197537E+03 -0.41072336402E+03  0.16656225481E+04  0.50400001928E-02 0.  1.
       -1    1    3    3    0  502 -0.15814252963E+04 -0.32357197537E+03  0.57768909690E+03  0.17144472822E+04  0.50400001928E-02 0. -1.
</event>
<event>
 5   0  0.4693374E-07  0.2585395E+04  0.7818609E-02  0.8373179E-01
       -1   -1    0    0    0  501  0.00000000000E+00  0.00000000000E+00  0.17243393425E+04  0.17243393425E+04  0.50400001928E-02 0.  1.
        1   -1    0    0  501    0  0.00000000000E+00  0.00000000000E+00 -0.96910586075E+03  0.96910586077E+03  0.50400001928E-02 0. -1.
    10030    2    1    2    0    0  0.00000000000E+00  0.00000000000E+00  0.75523348174E+03  0.26934452033E+04  0.25853954148E+04 0.  0.
        1    1    3    3  502    0 -0.10539869507E+04 -0.54603480701E+03 -0.15565972603E+03  0.11971935738E+04  0.50400001928E-02 0. -1.
       -1    1    3    3    0  502  0.10539869507E+04  0.54603480701E+03  0.91089320777E+03  0.14962516295E+04  0.50400001928E-02 0.  1.
</event>
<event>
 5   0  0.4693374E-07  0.3436438E+04  0.7818609E-02  0.8129021E-01
        1   -1    0    0  501    0  0.00000000000E+00  0.00000000000E+00  0.15546359128E+04  0.15546359128E+04  0.50400001928E-02 0.  1.
       -1   -1    0    0    0  501  0.00000000000E+00  0.00000000000E+00 -0.18990143279E+04  0.18990143280E+04  0.50400001928E-02 0. -1.
    10030    2    1    2    0    0  0.00000000000E+00  0.00000000000E+00 -0.34437841513E+03  0.34536502408E+04  0.34364376166E+04 0.  0.
        1    1    3    3  502    0 -0.14560015338E+04  0.71330684246E+03 -0.74383410651E+03  0.17838263077E+04  0.50400001928E-02 0. -1.
       -1    1    3    3    0  502  0.14560015338E+04 -0.71330684246E+03  0.39945569138E+03  0.16698239331E+04  0.50400001928E-02 0.  1.
</event>
<event>
 5   0  0.1387133E-06  0.3480616E+04  0.7818609E-02  0.8118399E-01
        2   -1    0    0  501    0  0.00000000000E+00  0.00000000000E+00  0.11710434832E+04  0.11710434832E+04  0.25500000920E-02 0. -1.
       -2   -1    0    0    0  501  0.00000000000E+00  0.00000000000E+00 -0.25863017713E+04  0.25863017713E+04  0.25500000920E-02 0.  1.
    10030    2    1    2    0    0  0.00000000000E+00  0.00000000000E+00 -0.14152582881E+04  0.37573452545E+04  0.34806159426E+04 0.  0.
        4    1    3    3  502    0 -0.86036483024E+03  0.12542786965E+04 -0.16205793906E+04  0.22225485065E+04  0.12699999809E+01 0.  1.
       -4    1    3    3    0  502  0.86036483024E+03 -0.12542786965E+04  0.20532110258E+03  0.15347967480E+04  0.12699999809E+01 0. -1.
</event>
<event>
 5   0  0.4700769E-07  0.3489752E+04  0.7818609E-02  0.8116223E-01
       -1   -1    0    0    0  501  0.00000000000E+00  0.00000000000E+00  0.26341465790E+04  0.26341465790E+04  0.50400001928E-02 0.  1.
        1   -1    0    0  501    0  0.00000000000E+00  0.00000000000E+00 -0.11558173810E+04  0.11558173810E+04  0.50400001928E-02 0. -1.
    10030    2    1    2    0    0  0.00000000000E+00  0.00000000000E+00  0.14783291980E+04  0.37899639601E+04  0.34897520830E+04 0.  0.
        3    1    3    3  502    0  0.20835814721E+03  0.52628077928E+03 -0.10533414179E+04  0.11957895839E+04  0.10100000352E+00 0. -1.
       -3    1    3    3    0  502 -0.20835814721E+03 -0.52628077928E+03  0.25316706159E+04  0.25941743762E+04  0.10100000352E+00 0.  1.
</event>
<event>
 5   0  0.1387133E-06  0.3638103E+04  0.7818609E-02  0.8081819E-01
        2   -1    0    0  501    0  0.00000000000E+00  0.00000000000E+00  0.15702807896E+04  0.15702807896E+04  0.25500000920E-02 0. -1.
       -2   -1    0    0    0  501  0.00000000000E+00  0.00000000000E+00 -0.21072337497E+04  0.21072337497E+04  0.25500000920E-02 0.  1.
    10030    2    1    2    0    0  0.00000000000E+00  0.00000000000E+00 -0.53695296012E+03  0.36775145393E+04  0.36381031741E+04 0.  0.
        4    1    3    3  502    0  0.11333802715E+04 -0.12551365034E+04 -0.94583154092E+03  0.19376577094E+04  0.12699999809E+01 0.  1.
       -4    1    3    3    0  502 -0.11333802715E+04  0.12551365034E+04  0.40887858080E+03  0.17398568300E+04  0.12699999809E+01 0. -1.
</event>
<event>
 5   0  0.1361560E-06  0.3477931E+04  0.7818609E-02  0.8119040E-01
        2   -1    0    0  501    0  0.00000000000E+00  0.00000000000E+00  0.19730507211E+04  0.19730507211E+04  0.25500000920E-02 0. -1.
       -2   -1    0    0    0  501  0.00000000000E+00  0.00000000000E+00 -0.15326520556E+04  0.15326520556E+04  0.25500000920E-02 0.  1.
    10030    2    1    2    0    0  0.00000000000E+00  0.00000000000E+00  0.44039866553E+03  0.35057027767E+04  0.34779305591E+04 0.  0.
        3    1    3    3  502    0  0.12024049257E+04  0.11034793357E+04  0.82545733444E+03  0.18288860191E+04  0.10100000352E+00 0. -1.
       -3    1    3    3    0  502 -0.12024049257E+04 -0.11034793357E+04 -0.38505866891E+03  0.16768167576E+04  0.10100000352E+00 0.  1.
</event>
<event>
 5   0  0.1442864E-06  0.3635136E+04  0.7818609E-02  0.8082490E-01
       -2   -1    0    0    0  501  0.00000000000E+00  0.00000000000E+00  0.13182715900E+04  0.13182715900E+04  0.25500000920E-02 0. -1.
        2   -1    0    0  501    0  0.00000000000E+00  0.00000000000E+00 -0.25059734003E+04  0.25059734003E+04  0.25500000920E-02 0.  1.
    10030    2    1    2    0    0  0.00000000000E+00  0.00000000000E+00 -0.11877018103E+04  0.38242449902E+04  0.36351360573E+04 0.  0.
        1    1    3    3  502    0 -0.12677951205E+04  0.11210916394E+04 -0.12912098098E+04  0.21287023522E+04  0.50400001928E-02 0.  1.
       -1    1    3    3    0  502  0.12677951205E+04 -0.11210916394E+04  0.10350799956E+03  0.16955426380E+04  0.50400001928E-02 0. -1.
</event>
<event>
 5   0  0.1387133E-06  0.3527252E+04  0.7818609E-02  0.8107362E-01
       -2   -1    0    0    0  501  0.00000000000E+00  0.00000000000E+00  0.14153121360E+04  0.14153121360E+04  0.25500000920E-02 0.  1.
        2   -1    0    0  501    0  0.00000000000E+00  0.00000000000E+00 -0.21976612620E+04  0.21976612620E+04  0.25500000920E-02 0. -1.
    10030    2    1    2    0    0  0.00000000000E+00  0.00000000000E+00 -0.78234912605E+03  0.36129733980E+04  0.35272519927E+04 0.  0.
        4    1    3    3  502    0  0.52636009360E+03  0.72448856872E+03 -0.19474527632E+04  0.21434814000E+04  0.12699999809E+01 0. -1.
       -4    1    3    3    0  502 -0.52636009360E+03 -0.72448856872E+03  0.11651036371E+04  0.14694919981E+04  0.12699999809E+01 0.  1.
</event>
<event>
 5   0  0.4700769E-07  0.3402821E+04  0.7818609E-02  0.8137214E-01
        1   -1    0    0  501    0  0.00000000000E+00  0.00000000000E+00  0.27172637072E+04  0.27172637072E+04  0.50400001928E-02 0. -1.
       -1   -1    0    0    0  501  0.00000000000E+00  0.00000000000E+00 -0.10653354204E+04  0.10653354204E+04  0.50400001928E-02 0.  1.
    10030    2    1    2    0    0  0.00000000000E+00  0.00000000000E+00  0.16519282869E+04  0.37825991276E+04  0.34028207557E+04 0.  0.
        3    1    3    3  502    0 -0.61350588702E+03  0.24124707789E+03 -0.91759677618E+03  0.11298555128E+04  0.10100000352E+00 0.  1.
       -3    1    3    3    0  502  0.61350588702E+03 -0.24124707789E+03  0.25695250630E+04  0.26527436148E+04  0.10100000352E+00 0. -1.
</event>
<event>
 5   0  0.1361560E-06  0.3528455E+04  0.7818609E-02  0.8107079E-01
        2   -1    0    0  501    0  0.00000000000E+00  0.00000000000E+00  0.21586441310E+04  0.21586441310E+04  0.25500000920E-02 0.  1.
       -2   -1    0    0    0  501  0.00000000000E+00  0.00000000000E+00 -0.14418768980E+04  0.14418768980E+04  0.25500000920E-02 0. -1.
    10030    2    1    2    0    0  0.00000000000E+00  0.00000000000E+00  0.71676723300E+03  0.36005210290E+04  0.35284552447E+04 0.  0.
        3    1    3    3  502    0 -0.50899583046E+03 -0.75307014389E+02 -0.13636108824E+04  0.14574575640E+04  0.10100000352E+00 0. -1.
       -3    1    3    3    0  502  0.50899583046E+03  0.75307014389E+02  0.20803781154E+04  0.21430634650E+04  0.10100000352E+00 0.  1.
</event>
<event>
 5   0  0.4700769E-07  0.3501320E+04  0.7818609E-02  0.8113477E-01
        1   -1    0    0  501    0  0.00000000000E+00  0.00000000000E+00  0.14347142771E+04  0.14347142771E+04  0.50400001928E-02 0.  1.
       -1   -1    0    0    0  501  0.00000000000E+00  0.00000000000E+00 -0.21361818996E+04  0.21361818996E+04  0.50400001928E-02 0. -1.
    10030    2    1    2    0    0  0.00000000000E+00  0.00000000000E+00 -0.70146762251E+03  0.35708961767E+04  0.35013201338E+04 0.  0.
        3    1    3    3  502    0 -0.63988214516E+03 -0.79689091986E+03 -0.18003604714E+04  0.20702130651E+04  0.10100000352E+00 0. -1.
       -3    1    3    3    0  502  0.63988214516E+03  0.79689091986E+03  0.10988928489E+04  0.15006831116E+04  0.10100000352E+00 0.  1.
</event>
<event>
 5   0  0.1387133E-06  0.3493837E+04  0.7818609E-02  0.8115252E-01
        2   -1    0    0  501    0  0.00000000000E+00  0.00000000000E+00  0.22683138523E+04  0.22683138523E+04  0.25500000920E-02 0.  1.
       -2   -1    0    0    0  501  0.00000000000E+00  0.00000000000E+00 -0.13453710422E+04  0.13453710422E+04  0.25500000920E-02 0. -1.
    10030    2    1    2    0    0  0.00000000000E+00  0.00000000000E+00  0.92294281002E+03  0.36136848945E+04  0.34938367286E+04 0.  0.
        4    1    3    3  502    0  0.57110736019E+03 -0.27772979486E+03 -0.12217509460E+04  0.13769438778E+04  0.12699999809E+01 0. -1.
       -4    1    3    3    0  502 -0.57110736019E+03  0.27772979486E+03  0.21446937560E+04  0.22367410167E+04  0.12699999809E+01 0.  1.
</event>
<event>
 5   0  0.1378620E-06  0.3475637E+04  0.7818609E-02  0.8119588E-01
       -2   -1    0    0    0  501  0.00000000000E+00  0.00000000000E+00  0.11757889396E+04  0.11757889397E+04  0.25500000920E-02 0. -1.
        2   -1    0    0  501    0  0.00000000000E+00  0.00000000000E+00 -0.25684991477E+04  0.25684991477E+04  0.25500000920E-02 0.  1.
    10030    2    1    2    0    0  0.00000000000E+00  0.00000000000E+00 -0.13927102081E+04  0.37442880874E+04  0.34756368564E+04 0.  0.
        2    1    3    3  502    0  0.11944501563E+04 -0.10077343206E+04 -0.15152224984E+04  0.21767266379E+04  0.25500000920E-02 0.  1.
       -2    1    3    3    0  502 -0.11944501563E+04  0.10077343206E+04  0.12251229029E+03  0.15675614495E+04  0.25500000920E-02 0. -1.
</event>
<event>
 5   0  0.1442864E-06  0.3610092E+04  0.7818609E-02  0.8088184E-01
        2   -1    0    0  501    0  0.00000000000E+00  0.00000000000E+00  0.21595058069E+04  0.21595058069E+04  0.25500000920E-02 0. -1.
       -2   -1    0    0    0  501  0.00000000000E+00  0.00000000000E+00 -0.15087669350E+04  0.15087669350E+04  0.25500000920E-02 0.  1.
    10030    2    1    2    0    0  0.00000000000E+00  0.00000000000E+00  0.65073887187E+03  0.36682727419E+04  0.36100919420E+04 0.  0.
        1    1    3    3  502    0  0.22932865937E+03 -0.10124124637E+04  0.18258603985E+04  0.21003182677E+04  0.50400001928E-02 0. -1.
       -1    1    3    3    0  502 -0.22932865937E+03  0.10124124637E+04 -0.11751215267E+04  0.15679544742E+04  0.50400001928E-02 0.  1.
</event>
<event>
 5   0  0.1361560E-06  0.3510045E+04  0.7818609E-02  0.8111414E-01
        2   -1    0    0  501    0  0.00000000000E+00  0.00000000000E+00  0.20598366997E+04  0.20598366997E+04  0.25500000920E-02 0.  1.
       -2   -1    0    0    0  501  0.00000000000E+00  0.00000000000E+00 -0.14953144208E+04  0.14953144208E+04  0.25500000920E-02 0. -1.
    10030    2    1    2    0    0  0.00000000000E+00  0.00000000000E+00  0.56452227897E+03  0.35551511205E+04  0.35100447413E+04 0.  0.
        3    1    3    3  502    0 -0.12452315845E+04 -0.69432004915E+03  0.13188490805E+04  0.19421753106E+04  0.10100000352E+00 0.  1.
       -3    1    3    3    0  502  0.12452315845E+04  0.69432004915E+03 -0.75432680157E+03  0.16129758099E+04  0.10100000352E+00 0. -1.
</event>
<event>
 5   0  0.1378620E-06  0.3516866E+04  0.7818609E-02  0.8109805E-01
       -2   -1    0    0    0  501  0.00000000000E+00  0.00000000000E+00  0.28065602029E+04  0.28065602029E+04  0.25500000920E-02 0.  1.
        2   -1    0    0  501    0  0.00000000000E+00  0.00000000000E+00 -0.11017352076E+04  0.11017352077E+04  0.25500000920E-02 0. -1.
    10030    2    1    2    0    0  0.00000000000E+00  0.00000000000E+00  0.17048249952E+04  0.39082954105E+04  0.35168657568E+04 0.  0.
        2    1    3    3  502    0  0.63699083401E+03  0.21672918922E+03 -0.95301763565E+03  0.11666068223E+04  0.25500000920E-02 0. -1.
       -2    1    3    3    0  502 -0.63699083401E+03 -0.21672918922E+03  0.26578426309E+04  0.27416885882E+04  0.25500000920E-02 0.  1.
</event>
<event>
 5   0  0.4557237E-07  0.3518168E+04  0.7818609E-02  0.8109498E-01
       -1   -1    0    0    0  501  0.00000000000E+00  0.00000000000E+00  0.18431963868E+04  0.18431963868E+04  0.50400001928E-02 0.  1.
        1   -1    0    0  501    0  0.00000000000E+00  0.00000000000E+00 -0.16788098896E+04  0.16788098896E+04  0.50400001928E-02 0. -1.
    10030    2    1    2    0    0  0.00000000000E+00  0.00000000000E+00  0.16438649714E+03  0.35220062764E+04  0.35181678883E+04 0.  0.
        2    1    3    3  502    0 -0.12040323769E+04 -0.88777853024E+03  0.10086929212E+04  0.18042466829E+04  0.25500000920E-02 0.  1.
       -2    1    3    3    0  502  0.12040323769E+04  0.88777853024E+03 -0.84430642409E+03  0.17177595935E+04  0.25500000920E-02 0. -1.
</event>
<event>
 5   0  0.4557237E-07  0.3527629E+04  0.7818609E-02  0.8107273E-01
       -1   -1    0    0    0  501  0.00000000000E+00  0.00000000000E+00  0.12555243600E+04  0.12555243600E+04  0.50400001928E-02 0.  1.
        1   -1    0    0  501    0  0.00000000000E+00  0.00000000000E+00 -0.24778817299E+04  0.24778817299E+04  0.50400001928E-02 0. -1.
    10030    2    1    2    0    0  0.00000000000E+00  0.00000000000E+00 -0.12223573699E+04  0.37334060899E+04  0.35276285934E+04 0.  0.
        2    1    3    3  502    0  0.18105277393E+03 -0.17484994038E+04 -0.45777294321E+03  0.18164763527E+04  0.25500000920E-02 0.  1.
       -2    1    3    3    0  502 -0.18105277393E+03  0.17484994038E+04 -0.76458442668E+03  0.19169297373E+04  0.25500000920E-02 0. -1.
</event>
<event>
 5   0  0.4591195E-07  0.3457447E+04  0.7818609E-02  0.8123949E-01
       -1   -1    0    0    0  501  0.00000000000E+00  0.00000000000E+00  0.17698945785E+04  0.17698945785E+04  0.50400001928E-02 0. -1.
        1   -1    0    0  501    0  0.00000000000E+00  0.00000000000E+00 -0.16885096686E+04  0.16885096686E+04  0.50400001928E-02 0.  1.
    10030    2    1    2    0    0  0.00000000000E+00  0.00000000000E+00  0.81384909872E+02  0.34584042471E+04  0.34574465192E+04 0.  0.
        4    1    3    3  502    0  0.83495021394E+03 -0.54148270859E+03 -0.13732538845E+04  0.16959284265E+04  0.12699999809E+01 0.  1.
       -4    1    3    3    0  502 -0.83495021394E+03  0.54148270859E+03  0.14546387944E+04  0.17624758207E+04  0.12699999809E+01 0. -1.
</event>
<event>
 5   0  0.4409125E-07  0.3461864E+04  0.7818609E-02  0.8122888E-01
        1   -1    0    0  501    0  0.00000000000E+00  0.00000000000E+00  0.25038107243E+04  0.25038107243E+04  0.50400001928E-02 0. -1.
       -1   -1    0    0    0  501  0.00000000000E+00  0.00000000000E+00 -0.11966259201E+04  0.11966259201E+04  0.50400001928E-02 0.  1.
    10030    2    1    2    0    0  0.00000000000E+00  0.00000000000E+00  0.13071848042E+04  0.37004366444E+04  0.34618635511E+04 0.  0.
        5    1    3    3  502    0 -0.52406799374E+03 -0.14561276216E+04  0.14823617136E+04  0.21429823266E+04  0.46999998093E+01 0. -1.
       -5    1    3    3    0  502  0.52406799374E+03  0.14561276216E+04 -0.17517690942E+03  0.15574543178E+04  0.46999998093E+01 0.  1.
</event>
<event>
 5   0  0.4409125E-07  0.2567345E+04  0.7818609E-02  0.8379379E-01
       -1   -1    0    0    0  501  0.00000000000E+00  0.00000000000E+00  0.14043005561E+04  0.14043005561E+04  0.50400001928E-02 0. -1.
        1   -1    0    0  501    0  0.00000000000E+00  0.00000000000E+00 -0.11734065518E+04  0.11734065518E+04  0.50400001928E-02 0.  1.
    10030    2    1    2    0    0  0.00000000000E+00  0.00000000000E+00  0.23089400427E+03  0.25777071079E+04  0.25673453006E+04 0.  0.
        5    1    3    3  502    0 -0.18791327510E+03  0.79228722225E+03  0.11118043630E+04  0.13781006759E+04  0.46999998093E+01 0. -1.
       -5    1    3    3    0  502  0.18791327510E+03 -0.79228722225E+03 -0.88091035870E+03  0.11996064319E+04  0.46999998093E+01 0.  1.
</event>
<event>
 5   0  0.1361560E-06  0.3523464E+04  0.7818609E-02  0.8108252E-01
       -2   -1    0    0    0  501  0.00000000000E+00  0.00000000000E+00  0.17792173719E+04  0.17792173719E+04  0.25500000920E-02 0. -1.
        2   -1    0    0  501    0  0.00000000000E+00  0.00000000000E+00 -0.17444187161E+04  0.17444187161E+04  0.25500000920E-02 0.  1.
    10030    2    1    2    0    0  0.00000000000E+00  0.00000000000E+00  0.34798655824E+02  0.35236360880E+04  0.35234642519E+04 0.  0.
        3    1    3    3  502    0  0.15377711018E+04 -0.65355322485E+02 -0.83978236559E+03  0.17533527059E+04  0.10100000352E+00 0.  1.
       -3    1    3    3    0  502 -0.15377711018E+04  0.65355322485E+02  0.87458102141E+03  0.17702833821E+04  0.10100000352E+00 0. -1.
</event>
<event>
 5   0  0.1361560E-06  0.3410326E+04  0.7818609E-02  0.8135377E-01
       -2   -1    0    0    0  501  0.00000000000E+00  0.00000000000E+00  0.12795519383E+04  0.12795519383E+04  0.25500000920E-02 0. -1.
        2   -1    0    0  501    0  0.00000000000E+00  0.00000000000E+00 -0.22723428435E+04  0.22723428435E+04  0.25500000920E-02 0.  1.
    10030    2    1    2    0    0  0.00000000000E+00  0.00000000000E+00 -0.99279090527E+03  0.35518947818E+04  0.34103259022E+04 0.  0.
        3    1    3    3  502    0  0.95487787206E+02 -0.10721655428E+04 -0.18737623898E+04  0.21609355317E+04  0.10100000352E+00 0.  1.
       -3    1    3    3    0  502 -0.95487787206E+02  0.10721655428E+04  0.88097148450E+03  0.13909592501E+04  0.10100000352E+00 0. -1.
</event>
<event>
 5   0  0.4409125E-07  0.3450382E+04  0.7818609E-02  0.8125650E-01
       -3   -1    0    0    0  501  0.00000000000E+00  0.00000000000E+00  0.21364436107E+04  0.21364436131E+04  0.10100000352E+00 0.  1.
        3   -1    0    0  501    0  0.00000000000E+00  0.00000000000E+00 -0.13931024382E+04  0.13931024418E+04  0.10100000352E+00 0. -1.
    10030    2    1    2    0    0  0.00000000000E+00  0.00000000000E+00  0.74334117259E+03  0.35295460550E+04  0.34503824796E+04 0.  0.
        4    1    3    3  502    0 -0.99835476599E+02  0.19286242586E+03 -0.13790635807E+04  0.13960590999E+04  0.12699999809E+01 0. -1.
       -4    1    3    3    0  502  0.99835476599E+02 -0.19286242586E+03  0.21224047533E+04  0.21334869551E+04  0.12699999809E+01 0.  1.
</event>
<event>
 5   0  0.1442864E-06  0.3482379E+04  0.7818609E-02  0.8117979E-01
        2   -1    0    0  501    0  0.00000000000E+00  0.00000000000E+00  0.21836659492E+04  0.21836659492E+04  0.25500000920E-02 0. -1.
       -2   -1    0    0    0  501  0.00000000000E+00  0.00000000000E+00 -0.13883721846E+04  0.13883721846E+04  0.25500000920E-02 0.  1.
    10030    2    1    2    0    0  0.00000000000E+00  0.00000000000E+00  0.79529376464E+03  0.35720381338E+04  0.34823791088E+04 0.  0.
        1    1    3    3  502    0 -0.10183734043E+04 -0.38030013326E+02  0.18458070879E+04  0.21084436152E+04  0.50400001928E-02 0. -1.
       -1    1    3    3    0  502  0.10183734043E+04  0.38030013326E+02 -0.10505133233E+04  0.14635945186E+04  0.50400001928E-02 0.  1.
</event>
<event>
 5   0  0.4557237E-07  0.3496144E+04  0.7818609E-02  0.8114704E-01
        1   -1    0    0  501    0  0.00000000000E+00  0.00000000000E+00  0.22231028513E+04  0.22231028513E+04  0.50400001928E-02 0.  1.
       -1   -1    0    0    0  501  0.00000000000E+00  0.00000000000E+00 -0.13745455690E+04  0.13745455690E+04  0.50400001928E-02 0. -1.
    10030    2    1    2    0    0  0.00000000000E+00  0.00000000000E+00  0.84855728239E+03  0.35976484203E+04  0.34961442611E+04 0.  0.
        2    1    3    3  502    0 -0.16784239328E+04 -0.41248011515E+03  0.15493634869E+03  0.17352959447E+04  0.25500000920E-02 0.  1.
       -2    1    3    3    0  502  0.16784239328E+04  0.41248011515E+03  0.69362093369E+03  0.18623524756E+04  0.25500000920E-02 0. -1.
</event>
<event>
 5   0  0.1361560E-06  0.3580764E+04  0.7818609E-02  0.8094912E-01
       -2   -1    0    0    0  501  0.00000000000E+00  0.00000000000E+00  0.12423021582E+04  0.12423021582E+04  0.25500000920E-02 0.  1.
        2   -1    0    0  501    0  0.00000000000E+00  0.00000000000E+00 -0.25802643649E+04  0.25802643649E+04  0.25500000920E-02 0. -1.
    10030    2    1    2    0    0  0.00000000000E+00  0.00000000000E+00 -0.13379622067E+04  0.38225665231E+04  0.35807641583E+04 0.  0.
        3    1    3    3  502    0 -0.11473120426E+04  0.70265408384E+03  0.59206757615E+03  0.14698951356E+04  0.10100000352E+00 0.  1.
       -3    1    3    3    0  502  0.11473120426E+04 -0.70265408384E+03 -0.19300297829E+04  0.23526713875E+04  0.10100000352E+00 0. -1.
</event>
<event>
 5   0  0.1387133E-06  0.2918667E+04  0.7818609E-02  0.8267345E-01
       -2   -1    0    0    0  501  0.00000000000E+00  0.00000000000E+00  0.14730772999E+04  0.14730772999E+04  0.25500000920E-02 0.  1.
        2   -1    0    0  501    0  0.00000000000E+00  0.00000000000E+00 -0.14457182626E+04  0.14457182626E+04  0.25500000920E-02 0. -1.
    10030    2    1    2    0    0  0.00000000000E+00  0.00000000000E+00  0.27359037355E+02  0.29187955625E+04  0.29186673361E+04 0.  0.
        4    1    3    3  502    0  0.24956296369E+03  0.12901166615E+04  0.64850695738E+03  0.14653482725E+04  0.12699999809E+01 0.  1.
       -4    1    3    3    0  502 -0.24956296369E+03 -0.12901166615E+04 -0.62114792003E+03  0.14534472899E+04  0.12699999809E+01 0. -1.
</event>
<event>
 5   0  0.1348388E-06  0.3553441E+04  0.7818609E-02  0.8101241E-01
        2   -1    0    0  501    0  0.00000000000E+00  0.00000000000E+00  0.25442306888E+04  0.25442306888E+04  0.25500000920E-02 0.  1.
       -2   -1    0    0    0  501  0.00000000000E+00  0.00000000000E+00 -0.12407429428E+04  0.12407429428E+04  0.25500000920E-02 0. -1.
    10030    2    1    2    0    0  0.00000000000E+00  0.00000000000E+00  0.13034877460E+04  0.37849736316E+04  0.35534413021E+04 0.  0.
        5    1    3    3  502    0  0.67954745678E+03  0.16333913359E+04  0.82664443746E+03  0.19527199283E+04  0.46999998093E+01 0.  1.
       -5    1    3    3    0  502 -0.67954745678E+03 -0.16333913359E+04  0.47684330855E+03  0.18322537033E+04  0.46999998093E+01 0. -1.
</event>
<event>
 5   0  0.4693374E-07  0.3378694E+04  0.7818609E-02  0.8143155E-01
        1   -1    0    0  501    0  0.00000000000E+00  0.00000000000E+00  0.29768571461E+04  0.29768571461E+04  0.50400001928E-02 0. -1.
       -1   -1    0    0    0  501  0.00000000000E+00  0.00000000000E+00 -0.95869313050E+03  0.95869313051E+03  0.50400001928E-02 0.  1.
    10030    2    1    2    0    0  0.00000000000E+00  0.00000000000E+00  0.20181640156E+04  0.39355502766E+04  0.33786935324E+04 0.  0.
        1    1    3    3  502    0  0.10370424540E+04 -0.82588396947E+01  0.25624250938E+04  0.27643349329E+04  0.50400001928E-02 0. -1.
       -1    1    3    3    0  502 -0.10370424540E+04  0.82588396947E+01 -0.54426107826E+03  0.11712153437E+04  0.50400001928E-02 0.  1.
</event>
<event>
 5   0  0.4700769E-07  0.3426419E+04  0.7818609E-02  0.8131453E-01
        1   -1    0    0  501    0  0.00000000000E+00  0.00000000000E+00  0.21843738276E+04  0.21843738276E+04  0.50400001928E-02 0. -1.
       -1   -1    0    0    0  501  0.00000000000E+00  0.00000000000E+00 -0.13436740195E+04  0.13436740195E+04  0.50400001928E-02 0.  1.
    10030    2    1    2    0    0  0.00000000000E+00  0.00000000000E+00  0.84069980809E+03  0.35280478471E+04  0.34264187491E+04 0.  0.
        3    1    3    3  502    0 -0.16779215903E+04  0.93947525328E+02  0.76315006233E+03  0.18457098983E+04  0.10100000352E+00 0. -1.
       -3    1    3    3    0  502  0.16779215903E+04 -0.93947525328E+02  0.77549745765E+02  0.16823379488E+04  0.10100000352E+00 0.  1.
</event>
<event>
 5   0  0.4591195E-07  0.3509715E+04  0.7818609E-02  0.8111491E-01
        1   -1    0    0  501    0  0.00000000000E+00  0.00000000000E+00  0.19330851334E+04  0.19330851334E+04  0.50400001928E-02 0. -1.
       -1   -1    0    0    0  501  0.00000000000E+00  0.00000000000E+00 -0.15930620810E+04  0.15930620810E+04  0.50400001928E-02 0.  1.
    10030    2    1    2    0    0  0.00000000000E+00  0.00000000000E+00  0.34002305237E+03  0.35261472144E+04  0.35097148747E+04 0.  0.
        4    1    3    3  502    0  0.11814383551E+04 -0.62867286794E+03 -0.97042280915E+03  0.16531025991E+04  0.12699999809E+01 0.  1.
       -4    1    3    3    0  502 -0.11814383551E+04  0.62867286794E+03  0.13104458615E+04  0.18730446152E+04  0.12699999809E+01 0. -1.
</event>
<event>
 5   0  0.4409125E-07  0.2815277E+04  0.7818609E-02  0.8298541E-01
        1   -1    0    0  501    0  0.00000000000E+00  0.00000000000E+00  0.10775887373E+04  0.10775887373E+04  0.50400001928E-02 0.  1.
       -1   -1    0    0    0  501  0.00000000000E+00  0.00000000000E+00 -0.18387774526E+04  0.18387774526E+04  0.50400001928E-02 0. -1.
    10030    2    1    2    0    0  0.00000000000E+00  0.00000000000E+00 -0.76118871534E+03  0.29163661899E+04  0.28152768058E+04 0.  0.
        5    1    3    3  502    0  0.12648692003E+03 -0.13990250213E+04 -0.28705339500E+03  0.14337683539E+04  0.46999998093E+01 0.  1.
       -5    1    3    3    0  502 -0.12648692003E+03  0.13990250213E+04 -0.47413532033E+03  0.14825978360E+04  0.46999998093E+01 0. -1.
</event>
<event>
 5   0  0.1361560E-06  0.3457031E+04  0.7818609E-02  0.8124049E-01
        2   -1    0    0  501    0  0.00000000000E+00  0.00000000000E+00  0.16195569258E+04  0.16195569258E+04  0.25500000920E-02 0.  1.
       -2   -1    0    0    0  501  0.00000000000E+00  0.00000000000E+00 -0.18448039976E+04  0.18448039976E+04  0.25500000920E-02 0. -1.
    10030    2    1    2    0    0  0.00000000000E+00  0.00000000000E+00 -0.22524707174E+03  0.34643609234E+04  0.34570305703E+04 0.  0.
        3    1    3    3  502    0  0.15027159340E+03 -0.10470024366E+04 -0.14826249323E+04  0.18212557081E+04  0.10100000352E+00 0. -1.
       -3    1    3    3    0  502 -0.15027159340E+03  0.10470024366E+04  0.12573778606E+04  0.16431052153E+04  0.10100000352E+00 0.  1.
</event>
<event>
 5   0  0.4557237E-07  0.3490101E+04  0.7818609E-02  0.8116140E-01
       -1   -1    0    0    0  501  0.00000000000E+00  0.00000000000E+00  0.14049292821E+04  0.14049292821E+04  0.50400001928E-02 0. -1.
        1   -1    0    0  501    0  0.00000000000E+00  0.00000000000E+00 -0.21675121448E+04  0.21675121448E+04  0.50400001928E-02 0.  1.
    10030    2    1    2    0    0  0.00000000000E+00  0.00000000000E+00 -0.76258286267E+03  0.35724414269E+04  0.34901010195E+04 0.  0.
        2    1    3    3  502    0 -0.76293562301E+03  0.82395750688E+02 -0.19855393642E+04  0.21286677504E+04  0.25500000920E-02 0.  1.
       -2    1    3    3    0  502  0.76293562301E+03 -0.82395750688E+02  0.12229565015E+04  0.14437736766E+04  0.25500000920E-02 0. -1.
</event>
<event>
 5   0  0.4591195E-07  0.3396085E+04  0.7818609E-02  0.8138868E-01
        1   -1    0    0  501    0  0.00000000000E+00  0.00000000000E+00  0.10150601384E+04  0.10150601384E+04  0.50400001928E-02 0.  1.
       -1   -1    0    0    0  501  0.00000000000E+00  0.00000000000E+00 -0.28405694870E+04  0.28405694870E+04  0.50400001928E-02 0. -1.
    10030    2    1    2    0    0  0.00000000000E+00  0.00000000000E+00 -0.18255093486E+04  0.38556296254E+04  0.33960853091E+04 0.  0.
        4    1    3    3  502    0 -0.60750896351E+03 -0.82413111596E+03 -0.24507151192E+04  0.26559867179E+04  0.12699999809E+01 0. -1.
       -4    1    3    3    0  502  0.60750896351E+03  0.82413111596E+03  0.62520577062E+03  0.11996429075E+04  0.12699999809E+01 0.  1.
</event>
<event>
 5   0  0.4700769E-07  0.3373980E+04  0.7818609E-02  0.8144322E-01
        1   -1    0    0  501    0  0.00000000000E+00  0.00000000000E+00  0.20028430828E+04  0.20028430828E+04  0.50400001928E-02 0. -1.
       -1   -1    0    0    0  501  0.00000000000E+00  0.00000000000E+00 -0.14209480261E+04  0.14209480261E+04  0.50400001928E-02 0.  1.
    10030    2    1    2    0    0  0.00000000000E+00  0.00000000000E+00  0.58189505668E+03  0.34237911089E+04  0.33739803942E+04 0.  0.
        3    1    3    3  502    0 -0.33470634725E+03 -0.16102483292E+04 -0.90106378781E+02  0.16471330214E+04  0.10100000352E+00 0.  1.
       -3    1    3    3    0  502  0.33470634725E+03  0.16102483292E+04  0.67200143546E+03  0.17766580875E+04  0.10100000352E+00 0. -1.
</event>
<event>
 5   0  0.4591195E-07  0.3531233E+04  0.7818609E-02  0.8106428E-01
        1   -1    0    0  501    0  0.00000000000E+00  0.00000000000E+00  0.15827390028E+04  0.15827390028E+04  0.50400001928E-02 0.  1.
       -1   -1    0    0    0  501  0.00000000000E+00  0.00000000000E+00 -0.19696240126E+04  0.19696240127E+04  0.50400001928E-02 0. -1.
    10030    2    1    2    0    0  0.00000000000E+00  0.00000000000E+00 -0.38688500987E+03  0.35523630154E+04  0.35312325019E+04 0.  0.
        4    1    3    3  502    0 -0.90228572404E+03 -0.10877630020E+04  0.87121513639E+03  0.16602304970E+04  0.12699999809E+01 0.  1.
       -4    1    3    3    0  502  0.90228572404E+03  0.10877630020E+04 -0.12581001463E+04  0.18921325184E+04  0.12699999809E+01 0. -1.
</event>
<event>
 5   0  0.1378620E-06  0.3366983E+04  0.7818609E-02  0.8146058E-01
        2   -1    0    0  501    0  0.00000000000E+00  0.00000000000E+00  0.19152273949E+04  0.19152273949E+04  0.25500000920E-02 0.  1.
       -2   -1    0    0    0  501  0.00000000000E+00  0.00000000000E+00 -0.14797952230E+04  0.14797952230E+04  0.25500000920E-02 0. -1.
    10030    2    1    2    0    0  0.00000000000E+00  0.00000000000E+00  0.43543217184E+03  0.33950226179E+04  0.33669834273E+04 0.  0.
        2    1    3    3  502    0  0.14091728164E+04 -0.89507331703E+03 -0.13953554654E+01  0.16694089422E+04  0.25500000920E-02 0. -1.
       -2    1    3    3    0  502 -0.14091728164E+04  0.89507331703E+03  0.43682752731E+03  0.17256136757E+04  0.25500000920E-02 0.  1.
</event>
<event>
 5   0  0.1348388E-06  0.3541986E+04  0.7818609E-02  0.8103911E-01
       -2   -1    0    0    0  501  0.00000000000E+00  0.00000000000E+00  0.14359468429E+04  0.14359468429E+04  0.25500000920E-02 0.  1.
        2   -1    0    0  501    0  0.00000000000E+00  0.00000000000E+00 -0.21842151364E+04  0.21842151364E+04  0.25500000920E-02 0. -1.
    10030    2    1    2    0    0  0.00000000000E+00  0.00000000000E+00 -0.74826829346E+03  0.36201619793E+04  0.35419863520E+04 0.  0.
        5    1    3    3  502    0 -0.16873556839E+04 -0.42067032531E+03 -0.31683862095E+02  0.17392983309E+04  0.46999998093E+01 0.  1.
       -5    1    3    3    0  502  0.16873556839E+04  0.42067032531E+03 -0.71658443137E+03  0.18808636484E+04  0.46999998093E+01 0. -1.
</event>
<event>
 5   0  0.1361560E-06  0.3383040E+04  0.7818609E-02  0.8142081E-01
        2   -1    0    0  501    0  0.00000000000E+00  0.00000000000E+00  0.22662549049E+04  0.22662549049E+04  0.25500000920E-02 0.  1.
       -2   -1    0    0    0  501  0.00000000000E+00  0.00000000000E+00 -0.12625410888E+04  0.12625410889E+04  0.25500000920E-02 0. -1.
    10030    2    1    2    0    0  0.00000000000E+00  0.00000000000E+00  0.10037138160E+04  0.35287959938E+04  0.33830400147E+04 0.  0.
        3    1    3    3  502    0  0.11803880105E+04 -0.88292994483E+03  0.13672767451E+04  0.20105538667E+04  0.10100000352E+00 0.  1.
       -3    1    3    3    0  502 -0.11803880105E+04  0.88292994483E+03 -0.36356292906E+03  0.15182421271E+04  0.10100000352E+00 0. -1.
</event>
<event>
 5   0  0.1348388E-06  0.3519095E+04  0.7818609E-02  0.8109280E-01
       -2   -1    0    0    0  501  0.00000000000E+00  0.00000000000E+00  0.14122830437E+04  0.14122830437E+04  0.25500000920E-02 0. -1.
        2   -1    0    0  501    0  0.00000000000E+00  0.00000000000E+00 -0.21922002631E+04  0.21922002631E+04  0.25500000920E-02 0.  1.
    10030    2    1    2    0    0  0.00000000000E+00  0.00000000000E+00 -0.77991721935E+03  0.36044833068E+04  0.35190949178E+04 0.  0.
        5    1    3    3  502    0  0.39910007854E+03 -0.29813254858E+03  0.13385374872E+04  0.14282396801E+04  0.46999998093E+01 0. -1.
       -5    1    3    3    0  502 -0.39910007854E+03  0.29813254858E+03 -0.21184547065E+04  0.21762436267E+04  0.46999998093E+01 0.  1.
</event>
<event>
 5   0  0.4591195E-07  0.3348093E+04  0.7818609E-02  0.8150765E-01
       -1   -1    0    0    0  501  0.00000000000E+00  0.00000000000E+00  0.12284832549E+04  0.12284832549E+04  0.50400001928E-02 0.  1.
        1   -1    0    0  501    0  0.00000000000E+00  0.00000000000E+00 -0.22812125388E+04  0.22812125388E+04  0.50400001928E-02 0. -1.
    10030    2    1    2    0    0  0.00000000000E+00  0.00000000000E+00 -0.10527292838E+04  0.35096957937E+04  0.33480928331E+04 0.  0.
        4    1    3    3  502    0  0.78177425696E+03  0.14771534391E+04 -0.42540110985E+03  0.17245639996E+04  0.12699999809E+01 0. -1.
       -4    1    3    3    0  502 -0.78177425696E+03 -0.14771534391E+04 -0.62732817400E+03  0.17851317941E+04  0.12699999809E+01 0.  1.
</event>
<event>
 5   0  0.4409125E-07  0.3436110E+04  0.7818609E-02  0.8129100E-01
        1   -1    0    0  501    0  0.00000000000E+00  0.00000000000E+00  0.13051891218E+04  0.13051891218E+04  0.50400001928E-02 0.  1.
       -1   -1    0    0    0  501  0.00000000000E+00  0.00000000000E+00 -0.22615214472E+04  0.22615214472E+04  0.50400001928E-02 0. -1.
    10030    2    1    2    0    0  0.00000000000E+00  0.00000000000E+00 -0.95633232540E+03  0.35667105690E+04  0.34361101214E+04 0.  0.
        5    1    3    3  502    0 -0.26594997767E+03 -0.11896806863E+04 -0.17348085937E+04  0.21202953740E+04  0.46999998093E+01 0. -1.
       -5    1    3    3    0  502  0.26594997767E+03  0.11896806863E+04  0.77847626834E+03  0.14464151950E+04  0.46999998093E+01 0.  1.
</event>
<event>
 5   0  0.4700769E-07  0.3499853E+04  0.7818609E-02  0.8113825E-01
       -1   -1    0    0    0  501  0.00000000000E+00  0.00000000000E+00  0.13253044700E+04  0.13253044701E+04  0.50400001928E-02 0.  1.
        1   -1    0    0  501    0  0.00000000000E+00  0.00000000000E+00 -0.23105954604E+04  0.23105954604E+04  0.50400001928E-02 0. -1.
    10030    2    1    2    0    0  0.00000000000E+00  0.00000000000E+00 -0.98529099034E+03  0.36358999305E+04  0.34998528496E+04 0.  0.
        3    1    3    3  502    0  0.76631248967E+03 -0.14628168782E+04  0.10880180151E+03  0.16549640157E+04  0.10100000352E+00 0. -1.
       -3    1    3    3    0  502 -0.76631248967E+03  0.14628168782E+04 -0.10940927919E+04  0.19809359148E+04  0.10100000352E+00 0.  1.
</event>
<event>
 5   0  0.4409125E-07  0.3306633E+04  0.7818609E-02  0.8161210E-01
        1   -1    0    0  501    0  0.00000000000E+00  0.00000000000E+00  0.23428059824E+04  0.23428059824E+04  0.50400001928E-02 0. -1.
       -1   -1    0    0    0  501  0.00000000000E+00  0.00000000000E+00 -0.11667443691E+04  0.11667443691E+04  0.50400001928E-02 0.  1.
    10030    2    1    2    0    0  0.00000000000E+00  0.00000000000E+00  0.11760616133E+04  0.35095503516E+04  0.33066331445E+04 0.  0.
        5    1    3    3  502    0  0.14032395569E+04  0.87380990513E+03  0.61821159972E+03  0.17648888566E+04  0.46999998093E+01 0. -1.
       -5    1    3    3    0  502 -0.14032395569E+04 -0.87380990513E+03  0.55785001356E+03  0.17446614949E+04  0.46999998093E+01 0.  1.
</event>
<event>
 5   0  0.1378620E-06  0.3428430E+04  0.7818609E-02  0.8130964E-01
        2   -1    0    0  501    0  0.00000000000E+00  0.00000000000E+00  0.23430924072E+04  0.23430924072E+04  0.25500000920E-02 0. -1.
       -2   -1    0    0    0  501  0.00000000000E+00  0.00000000000E+00 -0.12541259651E+04  0.12541259651E+04  0.25500000920E-02 0.  1.
    10030    2    1    2    0    0  0.00000000000E+00  0.00000000000E+00  0.10889664421E+04  0.35972183724E+04  0.34284299769E+04 0.  0.
        2    1    3    3  502    0 -0.11968010276E+04 -0.69792989672E+03  0.16036849502E+04  0.21192555910E+04  0.25500000920E-02 0. -1.
       -2    1    3    3    0  502  0.11968010276E+04  0.69792989672E+03 -0.51471850817E+03  0.14779627813E+04  0.25500000920E-02 0.  1.
</event>
<event>
 5   0  0.1361560E-06  0.3529794E+04  0.7818609E-02  0.8106765E-01
        2   -1    0    0  501    0  0.00000000000E+00  0.00000000000E+00  0.13439298966E+04  0.13439298966E+04  0.25500000920E-02 0.  1.
       -2   -1    0    0    0  501  0.00000000000E+00  0.00000000000E+00 -0.23177255477E+04  0.23177255477E+04  0.25500000920E-02 0. -1.
    10030    2    1    2    0    0  0.00000000000E+00  0.00000000000E+00 -0.97379565112E+03  0.36616554444E+04  0.35297935667E+04 0.  0.
        3    1    3    3  502    0  0.12082162948E+04  0.59352142927E+03  0.69714688090E+03  0.15159380218E+04  0.10100000352E+00 0.  1.
       -3    1    3    3    0  502 -0.12082162948E+04 -0.59352142927E+03 -0.16709425320E+04  0.21457174226E+04  0.10100000352E+00 0. -1.
</event>
<event>
 5   0  0.1361560E-06  0.3418824E+04  0.7818609E-02  0.8133302E-01
        2   -1    0    0  501    0  0.00000000000E+00  0.00000000000E+00  0.14000142578E+04  0.14000142578E+04  0.25500000920E-02 0.  1.
       -2   -1    0    0    0  501  0.00000000000E+00  0.00000000000E+00 -0.20871850198E+04  0.20871850198E+04  0.25500000920E-02 0. -1.
    10030    2    1    2    0    0  0.00000000000E+00  0.00000000000E+00 -0.68717076193E+03  0.34871992776E+04  0.34188236494E+04 0.  0.
        3    1    3    3  502    0  0.14453251103E+04  0.87489885067E+03 -0.78236208740E+02  0.16913112038E+04  0.10100000352E+00 0.  1.
       -3    1    3    3    0  502 -0.14453251103E+04 -0.87489885067E+03 -0.60893455319E+03  0.17958880738E+04  0.10100000352E+00 0. -1.
</event>
<event>
 5   0  0.4557237E-07  0.2563244E+04  0.7818609E-02  0.8380795E-01
       -1   -1    0    0    0  501  0.00000000000E+00  0.00000000000E+00  0.84898289487E+03  0.84898289489E+03  0.50400001928E-02 0. -1.
        1   -1    0    0  501    0  0.00000000000E+00  0.00000000000E+00 -0.19347329897E+04  0.19347329898E+04  0.50400001928E-02 0.  1.
    10030    2    1    2    0    0  0.00000000000E+00  0.00000000000E+00 -0.10857500949E+04  0.27837158846E+04  0.25632442057E+04 0.  0.
        2    1    3    3  502    0 -0.29887869386E+03  0.65924372206E+03 -0.16914969099E+04  0.18398621022E+04  0.25500000920E-02 0.  1.
       -2    1    3    3    0  502  0.29887869386E+03 -0.65924372206E+03  0.60574681505E+03  0.94385378247E+03  0.25500000920E-02 0. -1.
</event>
<event>
 5   0  0.1387133E-06  0.3400861E+04  0.7818609E-02  0.8137695E-01
        2   -1    0    0  501    0  0.00000000000E+00  0.00000000000E+00  0.14084481852E+04  0.14084481852E+04  0.25500000920E-02 0.  1.
       -2   -1    0    0    0  501  0.00000000000E+00  0.00000000000E+00 -0.20529427688E+04  0.20529427688E+04  0.25500000920E-02 0. -1.
    10030    2    1    2    0    0  0.00000000000E+00  0.00000000000E+00 -0.64449458366E+03  0.34613909540E+04  0.34008607834E+04 0.  0.
        4    1    3    3  502    0 -0.10255824980E+03  0.37837343720E+03 -0.20063200686E+04  0.20442618431E+04  0.12699999809E+01 0. -1.
       -4    1    3    3    0  502  0.10255824980E+03 -0.37837343720E+03  0.13618254850E+04  0.14171291109E+04  0.12699999809E+01 0.  1.
</event>
<event>
 5   0  0.1361560E-06  0.3467297E+04  0.7818609E-02  0.8121584E-01
       -2   -1    0    0    0  501  0.00000000000E+00  0.00000000000E+00  0.11585189199E+04  0.11585189199E+04  0.25500000920E-02 0.  1.
        2   -1    0    0  501    0  0.00000000000E+00  0.00000000000E+00 -0.25942925536E+04  0.25942925536E+04  0.25500000920E-02 0. -1.
    10030    2    1    2    0    0  0.00000000000E+00  0.00000000000E+00 -0.14357736337E+04  0.37528114735E+04  0.34672969340E+04 0.  0.
        3    1    3    3  502    0  0.13632048419E+03  0.76592182811E+02  0.11508711782E+04  0.11614448398E+04  0.10100000352E+00 0.  1.
       -3    1    3    3    0  502 -0.13632048419E+03 -0.76592182811E+02 -0.25866448119E+04  0.25913666337E+04  0.10100000352E+00 0. -1.
</event>
<event>
 5   0  0.1361560E-06  0.3528693E+04  0.7818609E-02  0.8107023E-01
       -2   -1    0    0    0  501  0.00000000000E+00  0.00000000000E+00  0.14647922339E+04  0.14647922339E+04  0.25500000920E-02 0. -1.
        2   -1    0    0  501    0  0.00000000000E+00  0.00000000000E+00 -0.21251609296E+04  0.21251609296E+04  0.25500000920E-02 0.  1.
    10030    2    1    2    0    0  0.00000000000E+00  0.00000000000E+00 -0.66036869572E+03  0.35899531635E+04  0.35286933703E+04 0.  0.
        3    1    3    3  502    0 -0.87820513033E+03 -0.77111662224E+03 -0.16748925080E+04  0.20423344534E+04  0.10100000352E+00 0.  1.
       -3    1    3    3    0  502  0.87820513033E+03  0.77111662224E+03  0.10145238122E+04  0.15476187101E+04  0.10100000352E+00 0. -1.
</event>
<event>
 5   0  0.1361560E-06  0.3488811E+04  0.7818609E-02  0.8116447E-01
        2   -1    0    0  501    0  0.00000000000E+00  0.00000000000E+00  0.19839780239E+04  0.19839780239E+04  0.25500000920E-02 0. -1.
       -2   -1    0    0    0  501  0.00000000000E+00  0.00000000000E+00 -0.15337624129E+04  0.15337624129E+04  0.25500000920E-02 0.  1.
    10030    2    1    2    0    0  0.00000000000E+00  0.00000000000E+00  0.45021561098E+03  0.35177404368E+04  0.34888112136E+04 0.  0.
        3    1    3    3  502    0  0.16177514104E+04 -0.51517533135E+03  0.62896074009E+03  0.18105570608E+04  0.10100000352E+00 0. -1.
       -3    1    3    3    0  502 -0.16177514104E+04  0.51517533135E+03 -0.17874512910E+03  0.17071833759E+04  0.10100000352E+00 0.  1.
</event>
<event>
 5   0  0.1348388E-06  0.3521393E+04  0.7818609E-02  0.8108739E-01
        2   -1    0    0  501    0  0.00000000000E+00  0.00000000000E+00  0.24673602529E+04  0.24673602529E+04  0.25500000920E-02 0.  1.
       -2   -1    0    0    0  501  0.00000000000E+00  0.00000000000E+00 -0.12564246071E+04  0.12564246071E+04  0.25500000920E-02 0. -1.
    10030    2    1    2    0    0  0.00000000000E+00  0.00000000000E+00  0.12109356458E+04  0.37237848601E+04  0.35213929837E+04 0.  0.
        5    1    3    3  502    0  0.14653834066E+04 -0.22328461962E+03 -0.39931452107E+03  0.15351477865E+04  0.46999998093E+01 0. -1.
       -5    1    3    3    0  502 -0.14653834066E+04  0.22328461962E+03  0.16102501669E+04  0.21886370735E+04  0.46999998093E+01 0.  1.
</event>
<event>
 5   0  0.4700769E-07  0.2933999E+04  0.7818609E-02  0.8262833E-01
       -1   -1    0    0    0  501  0.00000000000E+00  0.00000000000E+00  0.14373725299E+04  0.14373725299E+04  0.50400001928E-02 0.  1.
        1   -1    0    0  501    0  0.00000000000E+00  0.00000000000E+00 -0.14972375769E+04  0.14972375770E+04  0.50400001928E-02 0. -1.
    10030    2    1    2    0    0  0.00000000000E+00  0.00000000000E+00 -0.59865047070E+02  0.29346101068E+04  0.29339994300E+04 0.  0.
        3    1    3    3  502    0 -0.42641458842E+03 -0.13583231271E+04 -0.38386636617E+03  0.14745251833E+04  0.10100000352E+00 0. -1.
       -3    1    3    3    0  502  0.42641458842E+03  0.13583231271E+04  0.32400131910E+03  0.14600849235E+04  0.10100000352E+00 0.  1.
</event>
<event>
 5   0  0.4557237E-07  0.3499169E+04  0.7818609E-02  0.8113987E-01
        1   -1    0    0  501    0  0.00000000000E+00  0.00000000000E+00  0.22344424910E+04  0.22344424910E+04  0.50400001928E-02 0.  1.
       -1   -1    0    0    0  501  0.00000000000E+00  0.00000000000E+00 -0.13699373507E+04  0.13699373507E+04  0.50400001928E-02 0. -1.
    10030    2    1    2    0    0  0.00000000000E+00  0.00000000000E+00  0.86450514035E+03  0.36043798417E+04  0.34991691736E+04 0.  0.
        2    1    3    3  502    0 -0.14565447864E+04  0.93531664403E+03  0.17022990974E+03  0.17393441757E+04  0.25500000920E-02 0. -1.
       -2    1    3    3    0  502  0.14565447864E+04 -0.93531664403E+03  0.69427523061E+03  0.18650356659E+04  0.25500000920E-02 0.  1.
</event>
<event>
 5   0  0.4591195E-07  0.2644989E+04  0.7818609E-02  0.8353078E-01
        1   -1    0    0  501    0  0.00000000000E+00  0.00000000000E+00  0.14501453061E+04  0.14501453061E+04  0.50400001928E-02 0.  1.
       -1   -1    0    0    0  501  0.00000000000E+00  0.00000000000E+00 -0.12060801782E+04  0.12060801782E+04  0.50400001928E-02 0. -1.
    10030    2    1    2    0    0  0.00000000000E+00  0.00000000000E+00  0.24406512796E+03  0.26562254843E+04  0.26449888538E+04 0.  0.
        4    1    3    3  502    0 -0.43680192314E+03  0.70023831081E+03 -0.91573074116E+03  0.12327587011E+04  0.12699999809E+01 0. -1.
       -4    1    3    3    0  502  0.43680192314E+03 -0.70023831081E+03  0.11597958691E+04  0.14234667832E+04  0.12699999809E+01 0.  1.
</event>
<event>
 5   0  0.1361560E-06  0.3477828E+04  0.7818609E-02  0.8119065E-01
        2   -1    0    0  501    0  0.00000000000E+00  0.00000000000E+00  0.18488898116E+04  0.18488898116E+04  0.25500000920E-02 0.  1.
       -2   -1    0    0    0  501  0.00000000000E+00  0.00000000000E+00 -0.16354795156E+04  0.16354795157E+04  0.25500000920E-02 0. -1.
    10030    2    1    2    0    0  0.00000000000E+00  0.00000000000E+00  0.21341029598E+03  0.34843693273E+04  0.34778277206E+04 0.  0.
        3    1    3    3  502    0 -0.48737298266E+03 -0.28550968046E+03  0.17544180588E+04  0.18431036154E+04  0.10100000352E+00 0.  1.
       -3    1    3    3    0  502  0.48737298266E+03  0.28550968046E+03 -0.15410077628E+04  0.16412657119E+04  0.10100000352E+00 0. -1.
</event>
<event>
 5   0  0.1361560E-06  0.2755551E+04  0.7818609E-02  0.8317202E-01
       -2   -1    0    0    0  501  0.00000000000E+00  0.00000000000E+00  0.16512845932E+04  0.16512845932E+04  0.25500000920E-02 0.  1.
        2   -1    0    0  501    0  0.00000000000E+00  0.00000000000E+00 -0.11495692540E+04  0.11495692540E+04  0.25500000920E-02 0. -1.
    10030    2    1    2    0    0  0.00000000000E+00  0.00000000000E+00  0.50171533920E+03  0.28008538473E+04  0.27555514861E+04 0.  0.
        3    1    3    3  502    0  0.76249144201E+02 -0.74420977857E+03 -0.92514404247E+03  0.11897704132E+04  0.10100000352E+00 0. -1.
       -3    1    3    3    0  502 -0.76249144201E+02  0.74420977857E+03  0.14268593817E+04  0.16110834341E+04  0.10100000352E+00 0.  1.
</event>
<event>
 5   0  0.1442864E-06  0.2910402E+04  0.7818609E-02  0.8269789E-01
       -2   -1    0    0    0  501  0.00000000000E+00  0.00000000000E+00  0.92743328100E+03  0.92743328100E+03  0.25500000920E-02 0. -1.
        2   -1    0    0  501    0  0.00000000000E+00  0.00000000000E+00 -0.22833013460E+04  0.22833013460E+04  0.25500000920E-02 0.  1.
    10030    2    1    2    0    0  0.00000000000E+00  0.00000000000E+00 -0.13558680650E+04  0.32107346270E+04  0.29104017996E+04 0.  0.
        1    1    3    3  502    0  0.34478326649E+03  0.56404116769E+03 -0.21080872622E+04  0.22093098119E+04  0.50400001928E-02 0.  1.
       -1    1    3    3    0  502 -0.34478326649E+03 -0.56404116769E+03  0.75221919721E+03  0.10014248151E+04  0.50400001928E-02 0. -1.
</event>
<event>
 5   0  0.4693374E-07  0.3280051E+04  0.7818609E-02  0.8167990E-01
        1   -1    0    0  501    0  0.00000000000E+00  0.00000000000E+00  0.31544846314E+04  0.31544846314E+04  0.50400001928E-02 0. -1.
       -1   -1    0    0    0  501  0.00000000000E+00  0.00000000000E+00 -0.85265400079E+03  0.85265400081E+03  0.50400001928E-02 0.  1.
    10030    2    1    2    0    0  0.00000000000E+00  0.00000000000E+00  0.23018306306E+04  0.40071386322E+04  0.32800511834E+04 0.  0.
        1    1    3    3  502    0  0.61144410294E+03 -0.14662458626E+04  0.65325458389E+03  0.17176968219E+04  0.50400001928E-02 0.  1.
       -1    1    3    3    0  502 -0.61144410294E+03  0.14662458626E+04  0.16485760467E+04  0.22894418102E+04  0.50400001928E-02 0. -1.
</event>
<event>
 5   0  0.1378620E-06  0.3493368E+04  0.7818609E-02  0.8115363E-01
        2   -1    0    0  501    0  0.00000000000E+00  0.00000000000E+00  0.23865980010E+04  0.23865980010E+04  0.25500000920E-02 0. -1.
       -2   -1    0    0    0  501  0.00000000000E+00  0.00000000000E+00 -0.12783488768E+04  0.12783488768E+04  0.25500000920E-02 0.  1.
    10030    2    1    2    0    0  0.00000000000E+00  0.00000000000E+00  0.11082491241E+04  0.36649468778E+04  0.34933679302E+04 0.  0.
        2    1    3    3  502    0 -0.78071575142E+03  0.14036370968E+04  0.12742724734E+04  0.20502401129E+04  0.25500000920E-02 0. -1.
       -2    1    3    3    0  502  0.78071575142E+03 -0.14036370968E+04 -0.16602334929E+03  0.16147067649E+04  0.25500000920E-02 0.  1.
</event>
<event>
 5   0  0.1361560E-06  0.3462168E+04  0.7818609E-02  0.8122815E-01
        2   -1    0    0  501    0  0.00000000000E+00  0.00000000000E+00  0.22738306483E+04  0.22738306483E+04  0.25500000920E-02 0. -1.
       -2   -1    0    0    0  501  0.00000000000E+00  0.00000000000E+00 -0.13178870991E+04  0.13178870991E+04  0.25500000920E-02 0.  1.
    10030    2    1    2    0    0  0.00000000000E+00  0.00000000000E+00  0.95594354923E+03  0.35917177474E+04  0.34621681513E+04 0.  0.
        3    1    3    3  502    0  0.91505622377E+03  0.13458346030E+03  0.19960139019E+04  0.21998891125E+04  0.10100000352E+00 0. -1.
       -3    1    3    3    0  502 -0.91505622377E+03 -0.13458346030E+03 -0.10400703526E+04  0.13918286350E+04  0.10100000352E+00 0.  1.
</event>
<event>
 5   0  0.4693374E-07  0.3544894E+04  0.7818609E-02  0.8103232E-01
       -1   -1    0    0    0  501  0.00000000000E+00  0.00000000000E+00  0.17507301766E+04  0.17507301766E+04  0.50400001928E-02 0.  1.
        1   -1    0    0  501    0  0.00000000000E+00  0.00000000000E+00 -0.17944329659E+04  0.17944329659E+04  0.50400001928E-02 0. -1.
    10030    2    1    2    0    0  0.00000000000E+00  0.00000000000E+00 -0.43702789338E+02  0.35451631425E+04  0.35448937605E+04 0.  0.
        1    1    3    3  502    0  0.45625362224E+02 -0.96243307885E+03 -0.15096501786E+04  0.17909223229E+04  0.50400001928E-02 0. -1.
       -1    1    3    3    0  502 -0.45625362224E+02  0.96243307885E+03  0.14659473893E+04  0.17542408196E+04  0.50400001928E-02 0.  1.
</event>
<event>
 5   0  0.1387133E-06  0.3486950E+04  0.7818609E-02  0.8116890E-01
       -2   -1    0    0    0  501  0.00000000000E+00  0.00000000000E+00  0.16466078697E+04  0.16466078697E+04  0.25500000920E-02 0.  1.
        2   -1    0    0  501    0  0.00000000000E+00  0.00000000000E+00 -0.18460409952E+04  0.18460409952E+04  0.25500000920E-02 0. -1.
    10030    2    1    2    0    0  0.00000000000E+00  0.00000000000E+00 -0.19943312552E+03  0.34926488650E+04  0.34869503183E+04 0.  0.
        4    1    3    3  502    0  0.30789281256E+03 -0.34424449966E+03  0.15842214996E+04  0.16501701828E+04  0.12699999809E+01 0.  1.
       -4    1    3    3    0  502 -0.30789281256E+03  0.34424449966E+03 -0.17836546251E+04  0.18424786821E+04  0.12699999809E+01 0. -1.
</event>
<event>
 5   0  0.4409125E-07  0.3516768E+04  0.7818609E-02  0.8109828E-01
       -3   -1    0    0    0  501  0.00000000000E+00  0.00000000000E+00  0.17060330083E+04  0.17060330113E+04  0.10100000352E+00 0.  1.
        3   -1    0    0  501    0  0.00000000000E+00  0.00000000000E+00 -0.18123415206E+04  0.18123415234E+04  0.10100000352E+00 0. -1.
    10030    2    1    2    0    0  0.00000000000E+00  0.00000000000E+00 -0.10630851226E+03  0.35183745348E+04  0.35167680997E+04 0.  0.
        3    1    3    3  502    0  0.67188367202E+03 -0.70825655778E+03  0.14099977915E+04  0.17149777849E+04  0.10100000352E+00 0.  1.
       -3    1    3    3    0  502 -0.67188367202E+03  0.70825655778E+03 -0.15163063038E+04  0.18033967499E+04  0.10100000352E+00 0. -1.
</event>
<event>
 5   0  0.1348388E-06  0.3467982E+04  0.7818609E-02  0.8121420E-01
       -2   -1    0    0    0  501  0.00000000000E+00  0.00000000000E+00  0.19029797602E+04  0.19029797602E+04  0.25500000920E-02 0.  1.
        2   -1    0    0  501    0  0.00000000000E+00  0.00000000000E+00 -0.15800091552E+04  0.15800091552E+04  0.25500000920E-02 0. -1.
    10030    2    1    2    0    0  0.00000000000E+00  0.00000000000E+00  0.32297060499E+03  0.34829889154E+04  0.34679823778E+04 0.  0.
        5    1    3    3  502    0 -0.10363290157E+04 -0.57928246804E+03  0.14307408262E+04  0.18591899871E+04  0.46999998093E+01 0.  1.
       -5    1    3    3    0  502  0.10363290157E+04  0.57928246804E+03 -0.11077702212E+04  0.16237989283E+04  0.46999998093E+01 0. -1.
</event>
<event>
 5   0  0.1387133E-06  0.3418649E+04  0.7818609E-02  0.8133344E-01
       -2   -1    0    0    0  501  0.00000000000E+00  0.00000000000E+00  0.13382935191E+04  0.13382935191E+04  0.25500000920E-02 0. -1.
        2   -1    0    0  501    0  0.00000000000E+00  0.00000000000E+00 -0.21832206370E+04  0.21832206370E+04  0.25500000920E-02 0.  1.
    10030    2    1    2    0    0  0.00000000000E+00  0.00000000000E+00 -0.84492711789E+03  0.35215141562E+04  0.34186488731E+04 0.  0.
        4    1    3    3  502    0  0.46480587063E+03 -0.33516870396E+03 -0.20813252786E+04  0.21587725878E+04  0.12699999809E+01 0.  1.
       -4    1    3    3    0  502 -0.46480587063E+03  0.33516870396E+03  0.12363981607E+04  0.13627415684E+04  0.12699999809E+01 0. -1.
</event>
<event>
 5   0  0.1361560E-06  0.3190179E+04  0.7818609E-02  0.8191416E-01
       -2   -1    0    0    0  501  0.00000000000E+00  0.00000000000E+00  0.22946050176E+04  0.22946050176E+04  0.25500000920E-02 0.  1.
        2   -1    0    0  501    0  0.00000000000E+00  0.00000000000E+00 -0.11088227092E+04  0.11088227092E+04  0.25500000920E-02 0. -1.
    10030    2    1    2    0    0  0.00000000000E+00  0.00000000000E+00  0.11857823084E+04  0.34034277269E+04  0.31901787738E+04 0.  0.
        3    1    3    3  502    0  0.35337717560E+03  0.50572055093E+03 -0.97638064841E+03  0.11549666163E+04  0.10100000352E+00 0. -1.
       -3    1    3    3    0  502 -0.35337717560E+03 -0.50572055093E+03  0.21621629568E+04  0.22484611106E+04  0.10100000352E+00 0.  1.
</event>
<event>
 5   0  0.1361560E-06  0.3495519E+04  0.7818609E-02  0.8114853E-01
        2   -1    0    0  501    0  0.00000000000E+00  0.00000000000E+00  0.16466259441E+04  0.16466259441E+04  0.25500000920E-02 0.  1.
       -2   -1    0    0    0  501  0.00000000000E+00  0.00000000000E+00 -0.18551041119E+04  0.18551041119E+04  0.25500000920E-02 0. -1.
    10030    2    1    2    0    0  0.00000000000E+00  0.00000000000E+00 -0.20847816784E+03  0.35017300560E+04  0.34955185936E+04 0.  0.
        3    1    3    3  502    0  0.22047345534E+03  0.16605786724E+04 -0.60365527953E+03  0.17805981518E+04  0.10100000352E+00 0. -1.
       -3    1    3    3    0  502 -0.22047345534E+03 -0.16605786724E+04  0.39517711169E+03  0.17211319041E+04  0.10100000352E+00 0.  1.
</event>
<event>
 5   0  0.1387133E-06  0.2973976E+04  0.7818609E-02  0.8251202E-01
       -2   -1    0    0    0  501  0.00000000000E+00  0.00000000000E+00  0.14066518049E+04  0.14066518049E+04  0.25500000920E-02 0. -1.
        2   -1    0    0  501    0  0.00000000000E+00  0.00000000000E+00 -0.15719120342E+04  0.15719120342E+04  0.25500000920E-02 0.  1.
    10030    2    1    2    0    0  0.00000000000E+00  0.00000000000E+00 -0.16526022927E+03  0.29785638391E+04  0.29739757229E+04 0.  0.
        4    1    3    3  502    0  0.25017820261E+03  0.74909497338E+03  0.11792338196E+04  0.14192696807E+04  0.12699999809E+01 0. -1.
       -4    1    3    3    0  502 -0.25017820261E+03 -0.74909497338E+03 -0.13444940489E+04  0.15592941585E+04  0.12699999809E+01 0.  1.
</event>
<event>
 5   0  0.1361560E-06  0.3449173E+04  0.7818609E-02  0.8125942E-01
        2   -1    0    0  501    0  0.00000000000E+00  0.00000000000E+00  0.25259459385E+04  0.25259459385E+04  0.25500000920E-02 0.  1.
       -2   -1    0    0    0  501  0.00000000000E+00  0.00000000000E+00 -0.11774591086E+04  0.11774591086E+04  0.25500000920E-02 0. -1.
    10030    2    1    2    0    0  0.00000000000E+00  0.00000000000E+00  0.13484868299E+04  0.37034050471E+04  0.34491726852E+04 0.  0.
        3    1    3    3  502    0 -0.66166777280E+02  0.18271720440E+03 -0.11656659472E+04  0.11817532440E+04  0.10100000352E+00 0. -1.
       -3    1    3    3    0  502  0.66166777280E+02 -0.18271720440E+03  0.25141527771E+04  0.25216518031E+04  0.10100000352E+00 0.  1.
</event>
<event>
 5   0  0.4409125E-07  0.3558488E+04  0.7818609E-02  0.8100067E-01
        1   -1    0    0  501    0  0.00000000000E+00  0.00000000000E+00  0.19781638193E+04  0.19781638193E+04  0.50400001928E-02 0. -1.
       -1   -1    0    0    0  501  0.00000000000E+00  0.00000000000E+00 -0.16003268444E+04  0.16003268444E+04  0.50400001928E-02 0.  1.
    10030    2    1    2    0    0  0.00000000000E+00  0.00000000000E+00  0.37783697495E+03  0.35784906637E+04  0.35584876915E+04 0.  0.
        5    1    3    3  502    0  0.73278508866E+03 -0.40457188448E+03 -0.13899497681E+04  0.16225396278E+04  0.46999998093E+01 0.  1.
       -5    1    3    3    0  502 -0.73278508866E+03  0.40457188448E+03  0.17677867431E+04  0.19559510359E+04  0.46999998093E+01 0. -1.
</event>
<event>
 5   0  0.1442864E-06  0.3159692E+04  0.7818609E-02  0.8199544E-01
       -2   -1    0    0    0  501  0.00000000000E+00  0.00000000000E+00  0.15972307626E+04  0.15972307626E+04  0.25500000920E-02 0.  1.
        2   -1    0    0  501    0  0.00000000000E+00  0.00000000000E+00 -0.15626509038E+04  0.15626509038E+04  0.25500000920E-02 0. -1.
    10030    2    1    2    0    0  0.00000000000E+00  0.00000000000E+00  0.34579858810E+02  0.31598816664E+04  0.31596924500E+04 0.  0.
        1    1    3    3  502    0 -0.47511910958E+03 -0.72956796354E+02 -0.14877431264E+04  0.15634706498E+04  0.50400001928E-02 0. -1.
       -1    1    3    3    0  502  0.47511910958E+03  0.72956796354E+02  0.15223229853E+04  0.15964110166E+04  0.50400001928E-02 0.  1.
</event>
<event>
 5   0  0.4700769E-07  0.3373411E+04  0.7818609E-02  0.8144463E-01
        1   -1    0    0  501    0  0.00000000000E+00  0.00000000000E+00  0.16251700985E+04  0.16251700986E+04  0.50400001928E-02 0. -1.
       -1   -1    0    0    0  501  0.00000000000E+00  0.00000000000E+00 -0.17505710205E+04  0.17505710205E+04  0.50400001928E-02 0.  1.
    10030    2    1    2    0    0  0.00000000000E+00  0.00000000000E+00 -0.12540092198E+03  0.33757411191E+04  0.33734111389E+04 0.  0.
        3    1    3    3  502    0  0.21941477965E+03 -0.16721040950E+04 -0.32667774231E+02  0.16867549152E+04  0.10100000352E+00 0. -1.
       -3    1    3    3    0  502 -0.21941477965E+03  0.16721040950E+04 -0.92733147752E+02  0.16889862039E+04  0.10100000352E+00 0.  1.
</event>
<event>
 5   0  0.1387133E-06  0.3494566E+04  0.7818609E-02  0.8115079E-01
        2   -1    0    0  501    0  0.00000000000E+00  0.00000000000E+00  0.13224362599E+04  0.13224362599E+04  0.25500000920E-02 0. -1.
       -2   -1    0    0    0  501  0.00000000000E+00  0.00000000000E+00 -0.23086163326E+04  0.23086163326E+04  0.25500000920E-02 0.  1.
    10030    2    1    2    0    0  0.00000000000E+00  0.00000000000E+00 -0.98618007269E+03  0.36310525925E+04  0.34945660380E+04 0.  0.
        4    1    3    3  502    0 -0.63807929458E+03  0.11270011025E+04  0.72563086642E+03  0.14845263347E+04  0.12699999809E+01 0. -1.
       -4    1    3    3    0  502  0.63807929458E+03 -0.11270011025E+04 -0.17118109391E+04  0.21465262578E+04  0.12699999809E+01 0.  1.
</event>
<event>
 5   0  0.1387133E-06  0.2722055E+04  0.7818609E-02  0.8327884E-01
       -2   -1    0    0    0  501  0.00000000000E+00  0.00000000000E+00  0.27145134526E+04  0.27145134526E+04  0.25500000920E-02 0.  1.
        2   -1    0    0  501    0  0.00000000000E+00  0.00000000000E+00 -0.68240446107E+03  0.68240446108E+03  0.25500000920E-02 0. -1.
    10030    2    1    2    0    0  0.00000000000E+00  0.00000000000E+00  0.20321089915E+04  0.33969179137E+04  0.27220551719E+04 0.  0.
        4    1    3    3  502    0  0.72237863405E+03  0.70561166295E+03  0.21547984696E+04  0.23796799716E+04  0.12699999809E+01 0.  1.
       -4    1    3    3    0  502 -0.72237863405E+03 -0.70561166295E+03 -0.12268947809E+03  0.10172379421E+04  0.12699999809E+01 0. -1.
</event>
<event>
 5   0  0.1387133E-06  0.3521271E+04  0.7818609E-02  0.8108767E-01
       -2   -1    0    0    0  501  0.00000000000E+00  0.00000000000E+00  0.25498650642E+04  0.25498650642E+04  0.25500000920E-02 0. -1.
        2   -1    0    0  501    0  0.00000000000E+00  0.00000000000E+00 -0.12156869086E+04  0.12156869086E+04  0.25500000920E-02 0.  1.
    10030    2    1    2    0    0  0.00000000000E+00  0.00000000000E+00  0.13341781556E+04  0.37655519728E+04  0.35212711211E+04 0.  0.
        4    1    3    3  502    0 -0.54513597719E+03 -0.14053214990E+04  0.16400034857E+04  0.22274906948E+04  0.12699999809E+01 0. -1.
       -4    1    3    3    0  502  0.54513597719E+03  0.14053214990E+04 -0.30582533011E+03  0.15380612780E+04  0.12699999809E+01 0.  1.
</event>
<event>
 5   0  0.1442864E-06  0.3460488E+04  0.7818609E-02  0.8123218E-01
       -2   -1    0    0    0  501  0.00000000000E+00  0.00000000000E+00  0.23085593612E+04  0.23085593612E+04  0.25500000920E-02 0. -1.
        2   -1    0    0  501    0  0.00000000000E+00  0.00000000000E+00 -0.12968020602E+04  0.12968020602E+04  0.25500000920E-02 0.  1.
    10030    2    1    2    0    0  0.00000000000E+00  0.00000000000E+00  0.10117573010E+04  0.36053614214E+04  0.34604881364E+04 0.  0.
        1    1    3    3  502    0  0.15910826573E+04  0.50400182181E+03  0.30506498191E+02  0.16692790376E+04  0.50400001928E-02 0. -1.
       -1    1    3    3    0  502 -0.15910826573E+04 -0.50400182181E+03  0.98125080284E+03  0.19360823838E+04  0.50400001928E-02 0.  1.
</event>
<event>
 5   0  0.4591195E-07  0.3489193E+04  0.7818609E-02  0.8116356E-01
        1   -1    0    0  501    0  0.00000000000E+00  0.00000000000E+00  0.15638670524E+04  0.15638670524E+04  0.50400001928E-02 0. -1.
       -1   -1    0    0    0  501  0.00000000000E+00  0.00000000000E+00 -0.19462121654E+04  0.19462121654E+04  0.50400001928E-02 0.  1.
    10030    2    1    2    0    0  0.00000000000E+00  0.00000000000E+00 -0.38234511296E+03  0.35100792178E+04  0.34891930771E+04 0.  0.
        4    1    3    3  502    0 -0.99634531846E+03  0.53983757627E+03 -0.15255691687E+04  0.19003924604E+04  0.12699999809E+01 0.  1.
       -4    1    3    3    0  502  0.99634531846E+03 -0.53983757627E+03  0.11432240557E+04  0.16096867574E+04  0.12699999809E+01 0. -1.
</event>
<event>
 5   0  0.4409125E-07  0.3499240E+04  0.7818609E-02  0.8113970E-01
        1   -1    0    0  501    0  0.00000000000E+00  0.00000000000E+00  0.22391363738E+04  0.22391363738E+04  0.50400001928E-02 0. -1.
       -1   -1    0    0    0  501  0.00000000000E+00  0.00000000000E+00 -0.13671212200E+04  0.13671212200E+04  0.50400001928E-02 0.  1.
    10030    2    1    2    0    0  0.00000000000E+00  0.00000000000E+00  0.87201515379E+03  0.36062575937E+04  0.34992404038E+04 0.  0.
        5    1    3    3  502    0 -0.64488380355E+03 -0.46618206582E+03 -0.11698338161E+04  0.14148265215E+04  0.46999998093E+01 0.  1.
       -5    1    3    3    0  502  0.64488380355E+03  0.46618206582E+03  0.20418489699E+04  0.21914310723E+04  0.46999998093E+01 0. -1.
</event>
<event>
 5   0  0.1387133E-06  0.3080846E+04  0.7818609E-02  0.8221014E-01
        2   -1    0    0  501    0  0.00000000000E+00  0.00000000000E+00  0.17292021163E+04  0.17292021163E+04  0.25500000920E-02 0.  1.
       -2   -1    0    0    0  501  0.00000000000E+00  0.00000000000E+00 -0.13722533210E+04  0.13722533210E+04  0.25500000920E-02 0. -1.
    10030    2    1    2    0    0  0.00000000000E+00  0.00000000000E+00  0.35694879534E+03  0.31014554373E+04  0.30808462129E+04 0.  0.
        4    1    3    3  502    0 -0.10804324446E+04  0.69360848002E+03 -0.67838023690E+03  0.14521116864E+04  0.12699999809E+01 0. -1.
       -4    1    3    3    0  502  0.10804324446E+04 -0.69360848002E+03  0.10353290322E+04  0.16493437510E+04  0.12699999809E+01 0.  1.
</event>
<event>
 5   0  0.1442864E-06  0.3332825E+04  0.7818609E-02  0.8154593E-01
        2   -1    0    0  501    0  0.00000000000E+00  0.00000000000E+00  0.26836161569E+04  0.26836161569E+04  0.25500000920E-02 0.  1.
       -2   -1    0    0    0  501  0.00000000000E+00  0.00000000000E+00 -0.10347720700E+04  0.10347720700E+04  0.25500000920E-02 0. -1.
    10030    2    1    2    0    0  0.00000000000E+00  0.00000000000E+00  0.16488440869E+04  0.37183882270E+04  0.33328252555E+04 0.  0.
        1    1    3    3  502    0  0.10362011882E+04  0.12973904130E+04  0.98218919032E+03  0.19291527653E+04  0.50400001928E-02 0.  1.
       -1    1    3    3    0  502 -0.10362011882E+04 -0.12973904130E+04  0.66665489658E+03  0.17892354617E+04  0.50400001928E-02 0. -1.
</event>
<event>
 5   0  0.1378620E-06  0.3514120E+04  0.7818609E-02  0.8110452E-01
       -2   -1    0    0    0  501  0.00000000000E+00  0.00000000000E+00  0.14845055938E+04  0.14845055938E+04  0.25500000920E-02 0. -1.
        2   -1    0    0  501    0  0.00000000000E+00  0.00000000000E+00 -0.20796557426E+04  0.20796557426E+04  0.25500000920E-02 0.  1.
    10030    2    1    2    0    0  0.00000000000E+00  0.00000000000E+00 -0.59515014886E+03  0.35641613364E+04  0.35141204208E+04 0.  0.
        2    1    3    3  502    0  0.84866273524E+03  0.15149110450E+04 -0.25281073421E+02  0.17366125202E+04  0.25500000920E-02 0.  1.
       -2    1    3    3    0  502 -0.84866273524E+03 -0.15149110450E+04 -0.56986907544E+03  0.18275488162E+04  0.25500000920E-02 0. -1.
</event>
<event>
 5   0  0.1348388E-06  0.2945228E+04  0.7818609E-02  0.8259547E-01
       -2   -1    0    0    0  501  0.00000000000E+00  0.00000000000E+00  0.11325631270E+04  0.11325631270E+04  0.25500000920E-02 0. -1.
        2   -1    0    0  501    0  0.00000000000E+00  0.00000000000E+00 -0.19147644024E+04  0.19147644024E+04  0.25500000920E-02 0.  1.
    10030    2    1    2    0    0  0.00000000000E+00  0.00000000000E+00 -0.78220127543E+03  0.30473275294E+04  0.29452277053E+04 0.  0.
        5    1    3    3  502    0  0.23966280408E+02  0.79532653522E+03  0.89098846495E+03  0.11945715612E+04  0.46999998093E+01 0. -1.
       -5    1    3    3    0  502 -0.23966280408E+02 -0.79532653522E+03 -0.16731897404E+04  0.18527559681E+04  0.46999998093E+01 0.  1.
</event>
<event>
 5   0  0.1378620E-06  0.2593333E+04  0.7818609E-02  0.8370469E-01
        2   -1    0    0  501    0  0.00000000000E+00  0.00000000000E+00  0.15494749609E+04  0.15494749609E+04  0.25500000920E-02 0. -1.
       -2   -1    0    0    0  501  0.00000000000E+00  0.00000000000E+00 -0.10851054751E+04  0.10851054751E+04  0.25500000920E-02 0.  1.
    10030    2    1    2    0    0  0.00000000000E+00  0.00000000000E+00  0.46436948578E+03  0.26345804360E+04  0.25933328082E+04 0.  0.
        2    1    3    3  502    0 -0.59886186772E+03  0.95952097826E+03  0.87632613449E+03  0.14308261733E+04  0.25500000920E-02 0. -1.
       -2    1    3    3    0  502  0.59886186772E+03 -0.95952097826E+03 -0.41195664871E+03  0.12037542626E+04  0.25500000920E-02 0.  1.
</event>
<event>
 5   0  0.4700769E-07  0.3501263E+04  0.7818609E-02  0.8113491E-01
        1   -1    0    0  501    0  0.00000000000E+00  0.00000000000E+00  0.20147696370E+04  0.20147696370E+04  0.50400001928E-02 0.  1.
       -1   -1    0    0    0  501  0.00000000000E+00  0.00000000000E+00 -0.15211220839E+04  0.15211220839E+04  0.50400001928E-02 0. -1.
    10030    2    1    2    0    0  0.00000000000E+00  0.00000000000E+00  0.49364755310E+03  0.35358917210E+04  0.35012629658E+04 0.  0.
        3    1    3    3  502    0  0.11195047940E+04 -0.30871034813E+03 -0.10761393481E+04  0.15832463389E+04  0.10100000352E+00 0. -1.
       -3    1    3    3    0  502 -0.11195047940E+04  0.30871034813E+03  0.15697869012E+04  0.19526453821E+04  0.10100000352E+00 0.  1.
</event>
<event>
 5   0  0.1442864E-06  0.3041455E+04  0.7818609E-02  0.8231991E-01
       -2   -1    0    0    0  501  0.00000000000E+00  0.00000000000E+00  0.13681656566E+04  0.13681656566E+04  0.25500000920E-02 0. -1.
        2   -1    0    0  501    0  0.00000000000E+00  0.00000000000E+00 -0.16903011230E+04  0.16903011230E+04  0.25500000920E-02 0.  1.
    10030    2    1    2    0    0  0.00000000000E+00  0.00000000000E+00 -0.32213546640E+03  0.30584667796E+04  0.30414548793E+04 0.  0.
        1    1    3    3  502    0 -0.65368907877E+03 -0.12324250536E+04 -0.76978904387E+03  0.15933474500E+04  0.50400001928E-02 0.  1.
       -1    1    3    3    0  502  0.65368907877E+03  0.12324250536E+04  0.44765357746E+03  0.14651193296E+04  0.50400001928E-02 0. -1.
</event>
<event>
 5   0  0.4591195E-07  0.3565472E+04  0.7818609E-02  0.8098447E-01
        1   -1    0    0  501    0  0.00000000000E+00  0.00000000000E+00  0.22774875701E+04  0.22774875702E+04  0.50400001928E-02 0. -1.
       -1   -1    0    0    0  501  0.00000000000E+00  0.00000000000E+00 -0.13954620290E+04  0.13954620290E+04  0.50400001928E-02 0.  1.
    10030    2    1    2    0    0  0.00000000000E+00  0.00000000000E+00  0.88202554116E+03  0.36729495991E+04  0.35654718766E+04 0.  0.
        4    1    3    3  502    0 -0.80549136775E+03  0.50476151412E+03 -0.11126088181E+04  0.14633866628E+04  0.12699999809E+01 0.  1.
       -4    1    3    3    0  502  0.80549136775E+03 -0.50476151412E+03  0.19946343593E+04  0.22095629364E+04  0.12699999809E+01 0. -1.
</event>
<event>
 5   0  0.4591195E-07  0.3512095E+04  0.7818609E-02  0.8110930E-01
       -1   -1    0    0    0  501  0.00000000000E+00  0.00000000000E+00  0.16154086799E+04  0.16154086799E+04  0.50400001928E-02 0.  1.
        1   -1    0    0  501    0  0.00000000000E+00  0.00000000000E+00 -0.19089302530E+04  0.19089302530E+04  0.50400001928E-02 0. -1.
    10030    2    1    2    0    0  0.00000000000E+00  0.00000000000E+00 -0.29352157306E+03  0.35243389329E+04  0.35120948165E+04 0.  0.
        4    1    3    3  502    0 -0.14407357571E+04 -0.74606323713E+03  0.52742294322E+03  0.17060206475E+04  0.12699999809E+01 0. -1.
       -4    1    3    3    0  502  0.14407357571E+04  0.74606323713E+03 -0.82094451628E+03  0.18183182855E+04  0.12699999809E+01 0.  1.
</event>
<event>
 5   0  0.1361560E-06  0.3337381E+04  0.7818609E-02  0.8153449E-01
       -2   -1    0    0    0  501  0.00000000000E+00  0.00000000000E+00  0.12835701571E+04  0.12835701571E+04  0.25500000920E-02 0. -1.
        2   -1    0    0  501    0  0.00000000000E+00  0.00000000000E+00 -0.21693610964E+04  0.21693610964E+04  0.25500000920E-02 0.  1.
    10030    2    1    2    0    0  0.00000000000E+00  0.00000000000E+00 -0.88579093930E+03  0.34529312534E+04  0.33373805076E+04 0.  0.
        3    1    3    3  502    0  0.12129610752E+04  0.41286751125E+03  0.66313220205E+03  0.14427329896E+04  0.10100000352E+00 0. -1.
       -3    1    3    3    0  502 -0.12129610752E+04 -0.41286751125E+03 -0.15489231414E+04  0.20101982638E+04  0.10100000352E+00 0.  1.
</event>
<event>
 5   0  0.1348388E-06  0.3468477E+04  0.7818609E-02  0.8121301E-01
       -2   -1    0    0    0  501  0.00000000000E+00  0.00000000000E+00  0.15140521248E+04  0.15140521248E+04  0.25500000920E-02 0. -1.
        2   -1    0    0  501    0  0.00000000000E+00  0.00000000000E+00 -0.19864458889E+04  0.19864458889E+04  0.25500000920E-02 0.  1.
    10030    2    1    2    0    0  0.00000000000E+00  0.00000000000E+00 -0.47239376412E+03  0.35004980137E+04  0.34684766794E+04 0.  0.
        5    1    3    3  502    0 -0.16835710643E+04  0.41325027291E+03 -0.28536225858E+03  0.17568838963E+04  0.46999998093E+01 0. -1.
       -5    1    3    3    0  502  0.16835710643E+04 -0.41325027291E+03 -0.18703150555E+03  0.17436141174E+04  0.46999998093E+01 0.  1.
</event>
<event>
 5   0  0.1348388E-06  0.3516535E+04  0.7818609E-02  0.8109883E-01
       -2   -1    0    0    0  501  0.00000000000E+00  0.00000000000E+00  0.13705578944E+04  0.13705578944E+04  0.25500000920E-02 0. -1.
        2   -1    0    0  501    0  0.00000000000E+00  0.00000000000E+00 -0.22556540331E+04  0.22556540331E+04  0.25500000920E-02 0.  1.
    10030    2    1    2    0    0  0.00000000000E+00  0.00000000000E+00 -0.88509613871E+03  0.36262119275E+04  0.35165349093E+04 0.  0.
        5    1    3    3  502    0 -0.12976310347E+04 -0.62544857618E+03  0.59708787531E+03  0.15593486604E+04  0.46999998093E+01 0. -1.
       -5    1    3    3    0  502  0.12976310347E+04  0.62544857618E+03 -0.14821840140E+04  0.20668632672E+04  0.46999998093E+01 0.  1.
</event>
<event>
 5   0  0.1442864E-06  0.3456008E+04  0.7818609E-02  0.8124295E-01
       -2   -1    0    0    0  501  0.00000000000E+00  0.00000000000E+00  0.16594088750E+04  0.16594088750E+04  0.25500000920E-02 0.  1.
        2   -1    0    0  501    0  0.00000000000E+00  0.00000000000E+00 -0.17994351338E+04  0.17994351338E+04  0.25500000920E-02 0. -1.
    10030    2    1    2    0    0  0.00000000000E+00  0.00000000000E+00 -0.14002625873E+03  0.34588440088E+04  0.34560084670E+04 0.  0.
        1    1    3    3  502    0 -0.71633817951E+03  0.68744260849E+03  0.13454601414E+04  0.16721186320E+04  0.50400001928E-02 0.  1.
       -1    1    3    3    0  502  0.71633817951E+03 -0.68744260849E+03 -0.14854864001E+04  0.17867253768E+04  0.50400001928E-02 0. -1.
</event>
<event>
 5   0  0.4591195E-07  0.3510551E+04  0.7818609E-02  0.8111294E-01
       -1   -1    0    0    0  501  0.00000000000E+00  0.00000000000E+00  0.13562400655E+04  0.13562400656E+04  0.50400001928E-02 0. -1.
        1   -1    0    0  501    0  0.00000000000E+00  0.00000000000E+00 -0.22717158226E+04  0.22717158226E+04  0.50400001928E-02 0.  1.
    10030    2    1    2    0    0  0.00000000000E+00  0.00000000000E+00 -0.91547575706E+03  0.36279558882E+04  0.35105509631E+04 0.  0.
        4    1    3    3  502    0 -0.26072753946E+03 -0.49477205658E+03  0.12616996531E+04  0.13800963247E+04  0.12699999809E+01 0. -1.
       -4    1    3    3    0  502  0.26072753946E+03  0.49477205658E+03 -0.21771754102E+04  0.22478595635E+04  0.12699999809E+01 0.  1.
</event>
<event>
 5   0  0.4409125E-07  0.3524209E+04  0.7818609E-02  0.8108077E-01
       -3   -1    0    0    0  501  0.00000000000E+00  0.00000000000E+00  0.12013913623E+04  0.12013913666E+04  0.10100000352E+00 0. -1.
        3   -1    0    0  501    0  0.00000000000E+00  0.00000000000E+00 -0.25845140313E+04  0.25845140333E+04  0.10100000352E+00 0.  1.
    10030    2    1    2    0    0  0.00000000000E+00  0.00000000000E+00 -0.13831226690E+04  0.37859053999E+04  0.35242093268E+04 0.  0.
        3    1    3    3  502    0 -0.13017758010E+03  0.10841746604E+04 -0.21772361567E+04  0.24357212872E+04  0.10100000352E+00 0.  1.
       -3    1    3    3    0  502  0.13017758010E+03 -0.10841746604E+04  0.79411348771E+03  0.13501841127E+04  0.10100000352E+00 0. -1.
</event>
<event>
 5   0  0.1348388E-06  0.3511845E+04  0.7818609E-02  0.8110989E-01
        2   -1    0    0  501    0  0.00000000000E+00  0.00000000000E+00  0.28023599228E+04  0.28023599228E+04  0.25500000920E-02 0. -1.
       -2   -1    0    0    0  501  0.00000000000E+00  0.00000000000E+00 -0.11002383223E+04  0.11002383223E+04  0.25500000920E-02 0.  1.
    10030    2    1    2    0    0  0.00000000000E+00  0.00000000000E+00  0.17021216005E+04  0.39025982452E+04  0.35118449738E+04 0.  0.
        5    1    3    3  502    0 -0.25175185462E+02  0.13820908780E+04 -0.35220748755E+03  0.14264926180E+04  0.46999998093E+01 0.  1.
       -5    1    3    3    0  502  0.25175185462E+02 -0.13820908780E+04  0.20543290881E+04  0.24761056272E+04  0.46999998093E+01 0. -1.
</event>
<event>
 5   0  0.1378620E-06  0.3548972E+04  0.7818609E-02  0.8102281E-01
       -2   -1    0    0    0  501  0.00000000000E+00  0.00000000000E+00  0.20700341535E+04  0.20700341535E+04  0.25500000920E-02 0. -1.
        2   -1    0    0  501    0  0.00000000000E+00  0.00000000000E+00 -0.15211342304E+04  0.15211342304E+04  0.25500000920E-02 0.  1.
    10030    2    1    2    0    0  0.00000000000E+00  0.00000000000E+00  0.54889992317E+03  0.35911683839E+04  0.35489715744E+04 0.  0.
        2    1    3    3  502    0  0.61629903699E+03 -0.15813266585E+04 -0.24976495927E+03  0.17154594250E+04  0.25500000920E-02 0.  1.
       -2    1    3    3    0  502 -0.61629903699E+03  0.15813266585E+04  0.79866488244E+03  0.18757089589E+04  0.25500000920E-02 0. -1.
</event>
<event>
 5   0  0.1361560E-06  0.3493814E+04  0.7818609E-02  0.8115258E-01
       -2   -1    0    0    0  501  0.00000000000E+00  0.00000000000E+00  0.11155638555E+04  0.11155638555E+04  0.25500000920E-02 0. -1.
        2   -1    0    0  501    0  0.00000000000E+00  0.00000000000E+00 -0.27355522495E+04  0.27355522495E+04  0.25500000920E-02 0.  1.
    10030    2    1    2    0    0  0.00000000000E+00  0.00000000000E+00 -0.16199883940E+04  0.38511161051E+04  0.34938135122E+04 0.  0.
        3    1    3    3  502    0 -0.14289967186E+04  0.57787006079E+03 -0.17160804967E+04  0.23067071141E+04  0.10100000352E+00 0.  1.
       -3    1    3    3    0  502  0.14289967186E+04 -0.57787006079E+03  0.96092102760E+02  0.15444089909E+04  0.10100000352E+00 0. -1.
</event>
<event>
 5   0  0.4693374E-07  0.2658382E+04  0.7818609E-02  0.8348636E-01
       -1   -1    0    0    0  501  0.00000000000E+00  0.00000000000E+00  0.11529405321E+04  0.11529405322E+04  0.50400001928E-02 0.  1.
        1   -1    0    0  501    0  0.00000000000E+00  0.00000000000E+00 -0.15323854683E+04  0.15323854684E+04  0.50400001928E-02 0. -1.
    10030    2    1    2    0    0  0.00000000000E+00  0.00000000000E+00 -0.37944493620E+03  0.26853260005E+04  0.26583824536E+04 0.  0.
        1    1    3    3  502    0 -0.74069788395E+03 -0.46702740437E+03  0.82041353790E+03  0.11999276332E+04  0.50400001928E-02 0.  1.
       -1    1    3    3    0  502  0.74069788395E+03  0.46702740437E+03 -0.11998584741E+04  0.14853983673E+04  0.50400001928E-02 0. -1.
</event>
<event>
 5   0  0.1361560E-06  0.3528334E+04  0.7818609E-02  0.8107108E-01
        2   -1    0    0  501    0  0.00000000000E+00  0.00000000000E+00  0.20290103265E+04  0.20290103265E+04  0.25500000920E-02 0.  1.
       -2   -1    0    0    0  501  0.00000000000E+00  0.00000000000E+00 -0.15338932241E+04  0.15338932241E+04  0.25500000920E-02 0. -1.
    10030    2    1    2    0    0  0.00000000000E+00  0.00000000000E+00  0.49511710244E+03  0.35629035505E+04  0.35283339929E+04 0.  0.
        3    1    3    3  502    0 -0.76721933110E+03 -0.55967273727E+03  0.17488754662E+04  0.19900815263E+04  0.10100000352E+00 0.  1.
       -3    1    3    3    0  502  0.76721933110E+03  0.55967273727E+03 -0.12537583638E+04  0.15728220242E+04  0.10100000352E+00 0. -1.
</event>
<event>
 5   0  0.1348388E-06  0.3483152E+04  0.7818609E-02  0.8117794E-01
        2   -1    0    0  501    0  0.00000000000E+00  0.00000000000E+00  0.25724419399E+04  0.25724419399E+04  0.25500000920E-02 0. -1.
       -2   -1    0    0    0  501  0.00000000000E+00  0.00000000000E+00 -0.11790690085E+04  0.11790690085E+04  0.25500000920E-02 0.  1.
    10030    2    1    2    0    0  0.00000000000E+00  0.00000000000E+00  0.13933729314E+04  0.37515109484E+04  0.34831517725E+04 0.  0.
        5    1    3    3  502    0 -0.80554004399E+03  0.10027551689E+04  0.19613095748E+04  0.23454573178E+04  0.46999998093E+01 0.  1.
       -5    1    3    3    0  502  0.80554004399E+03 -0.10027551689E+04 -0.56793664340E+03  0.14060536306E+04  0.46999998093E+01 0. -1.
</event>
<event>
 5   0  0.4693374E-07  0.3467311E+04  0.7818609E-02  0.8121581E-01
       -1   -1    0    0    0  501  0.00000000000E+00  0.00000000000E+00  0.11789951936E+04  0.11789951936E+04  0.50400001928E-02 0.  1.
        1   -1    0    0  501    0  0.00000000000E+00  0.00000000000E+00 -0.25492562061E+04  0.25492562061E+04  0.50400001928E-02 0. -1.
    10030    2    1    2    0    0  0.00000000000E+00  0.00000000000E+00 -0.13702610125E+04  0.37282513997E+04  0.34673106663E+04 0.  0.
        1    1    3    3  502    0  0.16452651526E+04  0.33836028112E+03 -0.22367629610E+03  0.16945253576E+04  0.50400001928E-02 0.  1.
       -1    1    3    3    0  502 -0.16452651526E+04 -0.33836028112E+03 -0.11465847164E+04  0.20337260420E+04  0.50400001928E-02 0. -1.
</event>
<event>
 5   0  0.4557237E-07  0.3718309E+04  0.7818609E-02  0.8063916E-01
       -1   -1    0    0    0  501  0.00000000000E+00  0.00000000000E+00  0.14991703273E+04  0.14991703273E+04  0.50400001928E-02 0. -1.
        1   -1    0    0  501    0  0.00000000000E+00  0.00000000000E+00 -0.23055792286E+04  0.23055792286E+04  0.50400001928E-02 0.  1.
    10030    2    1    2    0    0  0.00000000000E+00  0.00000000000E+00 -0.80640890137E+03  0.38047495559E+04  0.37183092753E+04 0.  0.
        2    1    3    3  502    0 -0.50403074012E+03 -0.17845722429E+04 -0.53938050723E+03  0.19312370151E+04  0.25500000920E-02 0.  1.
       -2    1    3    3    0  502  0.50403074012E+03  0.17845722429E+04 -0.26702839414E+03  0.18735125408E+04  0.25500000920E-02 0. -1.
</event>
<event>
 5   0  0.1387133E-06  0.3448094E+04  0.7818609E-02  0.8126202E-01
        2   -1    0    0  501    0  0.00000000000E+00  0.00000000000E+00  0.11659295462E+04  0.11659295462E+04  0.25500000920E-02 0. -1.
       -2   -1    0    0    0  501  0.00000000000E+00  0.00000000000E+00 -0.25493296990E+04  0.25493296990E+04  0.25500000920E-02 0.  1.
    10030    2    1    2    0    0  0.00000000000E+00  0.00000000000E+00 -0.13834001528E+04  0.37152592452E+04  0.34480944414E+04 0.  0.
        4    1    3    3  502    0  0.95077661129E+02  0.33649677745E+03  0.11273201730E+04  0.11803059893E+04  0.12699999809E+01 0. -1.
       -4    1    3    3    0  502 -0.95077661129E+02 -0.33649677745E+03 -0.25107203258E+04  0.25349532560E+04  0.12699999809E+01 0.  1.
</event>
<event>
 5   0  0.1387133E-06  0.3503603E+04  0.7818609E-02  0.8112937E-01
        2   -1    0    0  501    0  0.00000000000E+00  0.00000000000E+00  0.21545760435E+04  0.21545760435E+04  0.25500000920E-02 0.  1.
       -2   -1    0    0    0  501  0.00000000000E+00  0.00000000000E+00 -0.14243216430E+04  0.14243216430E+04  0.25500000920E-02 0. -1.
    10030    2    1    2    0    0  0.00000000000E+00  0.00000000000E+00  0.73025440047E+03  0.35788976865E+04  0.35036034538E+04 0.  0.
        4    1    3    3  502    0 -0.10469692034E+04 -0.31880846402E+03 -0.10321225942E+04  0.15043477031E+04  0.12699999809E+01 0. -1.
       -4    1    3    3    0  502  0.10469692034E+04  0.31880846402E+03  0.17623769947E+04  0.20745499834E+04  0.12699999809E+01 0.  1.
</event>
<event>
 5   0  0.1378620E-06  0.3488686E+04  0.7818609E-02  0.8116476E-01
       -2   -1    0    0    0  501  0.00000000000E+00  0.00000000000E+00  0.25276276244E+04  0.25276276244E+04  0.25500000920E-02 0. -1.
        2   -1    0    0  501    0  0.00000000000E+00  0.00000000000E+00 -0.12037899147E+04  0.12037899147E+04  0.25500000920E-02 0.  1.
    10030    2    1    2    0    0  0.00000000000E+00  0.00000000000E+00  0.13238377097E+04  0.37314175391E+04  0.34886860807E+04 0.  0.
        2    1    3    3  502    0 -0.10963668142E+04  0.11014153453E+04  0.15092482591E+04  0.21663255207E+04  0.25500000920E-02 0.  1.
       -2    1    3    3    0  502  0.10963668142E+04 -0.11014153453E+04 -0.18541054942E+03  0.15650920184E+04  0.25500000920E-02 0. -1.
</event>
<event>
 5   0  0.1442864E-06  0.3301139E+04  0.7818609E-02  0.8162606E-01
       -2   -1    0    0    0  501  0.00000000000E+00  0.00000000000E+00  0.16932585262E+04  0.16932585262E+04  0.25500000920E-02 0.  1.
        2   -1    0    0  501    0  0.00000000000E+00  0.00000000000E+00 -0.16089570020E+04  0.16089570020E+04  0.25500000920E-02 0. -1.
    10030    2    1    2    0    0  0.00000000000E+00  0.00000000000E+00  0.84301524157E+02  0.33022155282E+04  0.33011392955E+04 0.  0.
        1    1    3    3  502    0  0.15804668664E+04  0.64248009582E+02 -0.42957146659E+03  0.16390652725E+04  0.50400001928E-02 0. -1.
       -1    1    3    3    0  502 -0.15804668664E+04 -0.64248009582E+02  0.51387299074E+03  0.16631502558E+04  0.50400001928E-02 0.  1.
</event>
<event>
 5   0  0.1387133E-06  0.3527711E+04  0.7818609E-02  0.8107254E-01
        2   -1    0    0  501    0  0.00000000000E+00  0.00000000000E+00  0.24050514243E+04  0.24050514243E+04  0.25500000920E-02 0.  1.
       -2   -1    0    0    0  501  0.00000000000E+00  0.00000000000E+00 -0.12936046756E+04  0.12936046756E+04  0.25500000920E-02 0. -1.
    10030    2    1    2    0    0  0.00000000000E+00  0.00000000000E+00  0.11114467487E+04  0.36986561000E+04  0.35277107408E+04 0.  0.
        4    1    3    3  502    0  0.43273614628E+03  0.89452156298E+03 -0.97220560304E+03  0.13901851482E+04  0.12699999809E+01 0. -1.
       -4    1    3    3    0  502 -0.43273614628E+03 -0.89452156298E+03  0.20836523518E+04  0.23084709517E+04  0.12699999809E+01 0.  1.
</event>
<event>
 5   0  0.1348388E-06  0.3482487E+04  0.7818609E-02  0.8117953E-01
       -2   -1    0    0    0  501  0.00000000000E+00  0.00000000000E+00  0.10475020682E+04  0.10475020682E+04  0.25500000920E-02 0. -1.
        2   -1    0    0  501    0  0.00000000000E+00  0.00000000000E+00 -0.28944364307E+04  0.28944364307E+04  0.25500000920E-02 0.  1.
    10030    2    1    2    0    0  0.00000000000E+00  0.00000000000E+00 -0.18469343626E+04  0.39419384989E+04  0.34824865526E+04 0.  0.
        5    1    3    3  502    0 -0.11451772761E+04  0.27011461891E+03  0.52942986824E+03  0.12902367908E+04  0.46999998093E+01 0. -1.
       -5    1    3    3    0  502  0.11451772761E+04 -0.27011461891E+03 -0.23763642308E+04  0.26517017081E+04  0.46999998093E+01 0.  1.
</event>
<event>
 5   0  0.4700769E-07  0.3497006E+04  0.7818609E-02  0.8114500E-01
        1   -1    0    0  501    0  0.00000000000E+00  0.00000000000E+00  0.21838649927E+04  0.21838649927E+04  0.50400001928E-02 0.  1.
       -1   -1    0    0    0  501  0.00000000000E+00  0.00000000000E+00 -0.13999317955E+04  0.13999317955E+04  0.50400001928E-02 0. -1.
    10030    2    1    2    0    0  0.00000000000E+00  0.00000000000E+00  0.78393319719E+03  0.35837967882E+04  0.34970055993E+04 0.  0.
        3    1    3    3  502    0  0.99767920694E+03  0.14227965548E+04  0.19338382418E+03  0.17484596507E+04  0.10100000352E+00 0. -1.
       -3    1    3    3    0  502 -0.99767920694E+03 -0.14227965548E+04  0.59054937301E+03  0.18353371376E+04  0.10100000352E+00 0.  1.
</event>
<event>
 5   0  0.4700769E-07  0.3516208E+04  0.7818609E-02  0.8109960E-01
       -1   -1    0    0    0  501  0.00000000000E+00  0.00000000000E+00  0.13328272103E+04  0.13328272103E+04  0.50400001928E-02 0.  1.
        1   -1    0    0  501    0  0.00000000000E+00  0.00000000000E+00 -0.23190773735E+04  0.23190773735E+04  0.50400001928E-02 0. -1.
    10030    2    1    2    0    0  0.00000000000E+00  0.00000000000E+00 -0.98625016322E+03  0.36519045839E+04  0.35162078586E+04 0.  0.
        3    1    3    3  502    0 -0.10702681033E+03  0.12395764539E+04  0.79695679599E+03  0.14775468413E+04  0.10100000352E+00 0.  1.
       -3    1    3    3    0  502  0.10702681033E+03 -0.12395764539E+04 -0.17832069592E+04  0.21743577426E+04  0.10100000352E+00 0. -1.
</event>
<event>
 5   0  0.4591195E-07  0.3470611E+04  0.7818609E-02  0.8120790E-01
       -1   -1    0    0    0  501  0.00000000000E+00  0.00000000000E+00  0.14738451760E+04  0.14738451760E+04  0.50400001928E-02 0.  1.
        1   -1    0    0  501    0  0.00000000000E+00  0.00000000000E+00 -0.20431483803E+04  0.20431483803E+04  0.50400001928E-02 0. -1.
    10030    2    1    2    0    0  0.00000000000E+00  0.00000000000E+00 -0.56930320429E+03  0.35169935564E+04  0.34706105424E+04 0.  0.
        4    1    3    3  502    0 -0.15660117572E+04 -0.70798929683E+03 -0.52794584584E+03  0.17978793333E+04  0.12699999809E+01 0. -1.
       -4    1    3    3    0  502  0.15660117572E+04  0.70798929683E+03 -0.41357358455E+02  0.17191142231E+04  0.12699999809E+01 0.  1.
</event>
<event>
 5   0  0.4693374E-07  0.3555149E+04  0.7818609E-02  0.8100843E-01
       -1   -1    0    0    0  501  0.00000000000E+00  0.00000000000E+00  0.12805385813E+04  0.12805385813E+04  0.50400001928E-02 0.  1.
        1   -1    0    0  501    0  0.00000000000E+00  0.00000000000E+00 -0.24675326263E+04  0.24675326263E+04  0.50400001928E-02 0. -1.
    10030    2    1    2    0    0  0.00000000000E+00  0.00000000000E+00 -0.11869940450E+04  0.37480712076E+04  0.35551487893E+04 0.  0.
        1    1    3    3  502    0  0.14723090566E+04  0.80315713832E+03  0.27549900712E+02  0.16773533748E+04  0.50400001928E-02 0. -1.
       -1    1    3    3    0  502 -0.14723090566E+04 -0.80315713832E+03 -0.12145439457E+04  0.20707178328E+04  0.50400001928E-02 0.  1.
</event>
<event>
 5   0  0.1442864E-06  0.3507987E+04  0.7818609E-02  0.8111900E-01
        2   -1    0    0  501    0  0.00000000000E+00  0.00000000000E+00  0.29424393167E+04  0.29424393167E+04  0.25500000920E-02 0. -1.
       -2   -1    0    0    0  501  0.00000000000E+00  0.00000000000E+00 -0.10455586460E+04  0.10455586460E+04  0.25500000920E-02 0.  1.
    10030    2    1    2    0    0  0.00000000000E+00  0.00000000000E+00  0.18968806706E+04  0.39879979627E+04  0.35079868118E+04 0.  0.
        1    1    3    3  502    0  0.42259688536E+03 -0.71895920250E+03  0.27026313934E+04  0.28283753130E+04  0.50400001928E-02 0. -1.
       -1    1    3    3    0  502 -0.42259688536E+03  0.71895920250E+03 -0.80575072281E+03  0.11596226497E+04  0.50400001928E-02 0.  1.
</event>
<event>
 5   0  0.1387133E-06  0.3531785E+04  0.7818609E-02  0.8106298E-01
        2   -1    0    0  501    0  0.00000000000E+00  0.00000000000E+00  0.18239138896E+04  0.18239138896E+04  0.25500000920E-02 0. -1.
       -2   -1    0    0    0  501  0.00000000000E+00  0.00000000000E+00 -0.17097170661E+04  0.17097170661E+04  0.25500000920E-02 0.  1.
    10030    2    1    2    0    0  0.00000000000E+00  0.00000000000E+00  0.11419682348E+03  0.35336309557E+04  0.35317852166E+04 0.  0.
        4    1    3    3  502    0 -0.44105900802E+03  0.10799341758E+04  0.13835303752E+04  0.18096819567E+04  0.12699999809E+01 0. -1.
       -4    1    3    3    0  502  0.44105900802E+03 -0.10799341758E+04 -0.12693335517E+04  0.17239489989E+04  0.12699999809E+01 0.  1.
</event>
<event>
 5   0  0.1378620E-06  0.3520842E+04  0.7818609E-02  0.8108868E-01
       -2   -1    0    0    0  501  0.00000000000E+00  0.00000000000E+00  0.14673024582E+04  0.14673024582E+04  0.25500000920E-02 0. -1.
        2   -1    0    0  501    0  0.00000000000E+00  0.00000000000E+00 -0.21120949530E+04  0.21120949530E+04  0.25500000920E-02 0.  1.
    10030    2    1    2    0    0  0.00000000000E+00  0.00000000000E+00 -0.64479249479E+03  0.35793974111E+04  0.35208420109E+04 0.  0.
        2    1    3    3  502    0  0.10776951182E+03  0.87495265156E+03  0.12267326020E+04  0.15106387017E+04  0.25500000920E-02 0. -1.
       -2    1    3    3    0  502 -0.10776951182E+03 -0.87495265156E+03 -0.18715250968E+04  0.20687587095E+04  0.25500000920E-02 0.  1.
</event>
<event>
 5   0  0.4409125E-07  0.3491561E+04  0.7818609E-02  0.8115793E-01
        3   -1    0    0  501    0  0.00000000000E+00  0.00000000000E+00  0.19185056127E+04  0.19185056154E+04  0.10100000352E+00 0.  1.
       -3   -1    0    0    0  501  0.00000000000E+00  0.00000000000E+00 -0.15886061798E+04  0.15886061830E+04  0.10100000352E+00 0. -1.
    10030    2    1    2    0    0  0.00000000000E+00  0.00000000000E+00  0.32989943294E+03  0.35071117984E+04  0.34915611881E+04 0.  0.
        2    1    3    3  502    0  0.11292563938E+04 -0.89163866254E+03  0.11580443634E+04  0.18469721858E+04  0.25500000920E-02 0.  1.
       -2    1    3    3    0  502 -0.11292563938E+04  0.89163866254E+03 -0.82814493044E+03  0.16601396126E+04  0.25500000920E-02 0. -1.
</event>
<event>
 5   0  0.4700769E-07  0.3170906E+04  0.7818609E-02  0.8196543E-01
       -1   -1    0    0    0  501  0.00000000000E+00  0.00000000000E+00  0.17904191612E+04  0.17904191612E+04  0.50400001928E-02 0.  1.
        1   -1    0    0  501    0  0.00000000000E+00  0.00000000000E+00 -0.14039511295E+04  0.14039511295E+04  0.50400001928E-02 0. -1.
    10030    2    1    2    0    0  0.00000000000E+00  0.00000000000E+00  0.38646803166E+03  0.31943702907E+04  0.31709058666E+04 0.  0.
        3    1    3    3  502    0  0.13906273344E+03 -0.13341702400E+04  0.10446581943E+04  0.17001939378E+04  0.10100000352E+00 0.  1.
       -3    1    3    3    0  502 -0.13906273344E+03  0.13341702400E+04 -0.65819016266E+03  0.14941763529E+04  0.10100000352E+00 0. -1.
</event>
<event>
 5   0  0.1442864E-06  0.2850309E+04  0.7818609E-02  0.8287817E-01
        2   -1    0    0  501    0  0.00000000000E+00  0.00000000000E+00  0.19694232123E+04  0.19694232123E+04  0.25500000920E-02 0.  1.
       -2   -1    0    0    0  501  0.00000000000E+00  0.00000000000E+00 -0.10312995207E+04  0.10312995207E+04  0.25500000920E-02 0. -1.
    10030    2    1    2    0    0  0.00000000000E+00  0.00000000000E+00  0.93812369159E+03  0.30007227331E+04  0.28503089061E+04 0.  0.
        1    1    3    3  502    0  0.10344492940E+04 -0.96696208845E+03  0.29942454606E+03  0.14473272198E+04  0.50400001928E-02 0. -1.
       -1    1    3    3    0  502 -0.10344492940E+04  0.96696208845E+03  0.63869914552E+03  0.15533955133E+04  0.50400001928E-02 0.  1.
</event>
<event>
 5   0  0.4591195E-07  0.3456203E+04  0.7818609E-02  0.8124248E-01
        1   -1    0    0  501    0  0.00000000000E+00  0.00000000000E+00  0.14625923469E+04  0.14625923469E+04  0.50400001928E-02 0. -1.
       -1   -1    0    0    0  501  0.00000000000E+00  0.00000000000E+00 -0.20418095276E+04  0.20418095276E+04  0.50400001928E-02 0.  1.
    10030    2    1    2    0    0  0.00000000000E+00  0.00000000000E+00 -0.57921718073E+03  0.35044018745E+04  0.34562031126E+04 0.  0.
        4    1    3    3  502    0  0.83484270276E+03  0.13672928618E+04  0.36741036113E+03  0.16436070378E+04  0.12699999809E+01 0. -1.
       -4    1    3    3    0  502 -0.83484270276E+03 -0.13672928618E+04 -0.94662754187E+03  0.18607948367E+04  0.12699999809E+01 0.  1.
</event>
<event>
 5   0  0.4700769E-07  0.3222085E+04  0.7818609E-02  0.8183009E-01
       -1   -1    0    0    0  501  0.00000000000E+00  0.00000000000E+00  0.14773076285E+04  0.14773076285E+04  0.50400001928E-02 0.  1.
        1   -1    0    0  501    0  0.00000000000E+00  0.00000000000E+00 -0.17568835048E+04  0.17568835048E+04  0.50400001928E-02 0. -1.
    10030    2    1    2    0    0  0.00000000000E+00  0.00000000000E+00 -0.27957587628E+03  0.32341911333E+04  0.32220846693E+04 0.  0.
        3    1    3    3  502    0 -0.27573970791E+03 -0.15676743705E+04  0.10978674226E+03  0.15955213748E+04  0.10100000352E+00 0.  1.
       -3    1    3    3    0  502  0.27573970791E+03  0.15676743705E+04 -0.38936261854E+03  0.16386697585E+04  0.10100000352E+00 0. -1.
</event>
<event>
 5   0  0.4693374E-07  0.3541363E+04  0.7818609E-02  0.8104057E-01
        1   -1    0    0  501    0  0.00000000000E+00  0.00000000000E+00  0.15266580837E+04  0.15266580837E+04  0.50400001928E-02 0. -1.
       -1   -1    0    0    0  501  0.00000000000E+00  0.00000000000E+00 -0.20537097358E+04  0.20537097358E+04  0.50400001928E-02 0.  1.
    10030    2    1    2    0    0  0.00000000000E+00  0.00000000000E+00 -0.52705165208E+03  0.35803678196E+04  0.35413627715E+04 0.  0.
        1    1    3    3  502    0 -0.14154643689E+04  0.23102220471E+03 -0.13134249081E+04  0.19447353619E+04  0.50400001928E-02 0.  1.
       -1    1    3    3    0  502  0.14154643689E+04 -0.23102220471E+03  0.78637325598E+03  0.16356324576E+04  0.50400001928E-02 0. -1.
</event>
<event>
 5   0  0.4409125E-07  0.3499583E+04  0.7818609E-02  0.8113889E-01
        3   -1    0    0  501    0  0.00000000000E+00  0.00000000000E+00  0.25422836726E+04  0.25422836746E+04  0.10100000352E+00 0. -1.
       -3   -1    0    0    0  501  0.00000000000E+00  0.00000000000E+00 -0.12043385464E+04  0.12043385507E+04  0.10100000352E+00 0.  1.
    10030    2    1    2    0    0  0.00000000000E+00  0.00000000000E+00  0.13379451262E+04  0.37466222253E+04  0.34995829663E+04 0.  0.
        2    1    3    3  502    0  0.73105282432E+03 -0.96819262815E+03 -0.68096381558E+03  0.13912393451E+04  0.25500000920E-02 0.  1.
       -2    1    3    3    0  502 -0.73105282432E+03  0.96819262815E+03  0.20189089418E+04  0.23553828802E+04  0.25500000920E-02 0. -1.
</event>
<event>
 5   0  0.4700769E-07  0.2695079E+04  0.7818609E-02  0.8336603E-01
        1   -1    0    0  501    0  0.00000000000E+00  0.00000000000E+00  0.19521763728E+04  0.19521763728E+04  0.50400001928E-02 0.  1.
       -1   -1    0    0    0  501  0.00000000000E+00  0.00000000000E+00 -0.93017337987E+03  0.93017337988E+03  0.50400001928E-02 0. -1.
    10030    2    1    2    0    0  0.00000000000E+00  0.00000000000E+00  0.10220029929E+04  0.28823497527E+04  0.26950788447E+04 0.  0.
        3    1    3    3  502    0 -0.91640102510E+03 -0.63985825355E+03  0.13160718289E+04  0.17266309660E+04  0.10100000352E+00 0. -1.
       -3    1    3    3    0  502  0.91640102510E+03  0.63985825355E+03 -0.29406883603E+03  0.11557187867E+04  0.10100000352E+00 0.  1.
</event>
<event>
 5   0  0.1387133E-06  0.3466156E+04  0.7818609E-02  0.8121858E-01
       -2   -1    0    0    0  501  0.00000000000E+00  0.00000000000E+00  0.12952513450E+04  0.12952513450E+04  0.25500000920E-02 0.  1.
        2   -1    0    0  501    0  0.00000000000E+00  0.00000000000E+00 -0.23189008051E+04  0.23189008051E+04  0.25500000920E-02 0. -1.
    10030    2    1    2    0    0  0.00000000000E+00  0.00000000000E+00 -0.10236494601E+04  0.36141521502E+04  0.34661560189E+04 0.  0.
        4    1    3    3  502    0 -0.69768408119E+03  0.15672645200E+04 -0.76824484093E+03  0.18797028758E+04  0.12699999809E+01 0. -1.
       -4    1    3    3    0  502  0.69768408119E+03 -0.15672645200E+04 -0.25540461916E+03  0.17344492743E+04  0.12699999809E+01 0.  1.
</event>
<event>
 5   0  0.1442864E-06  0.3477047E+04  0.7818609E-02  0.8119251E-01
       -2   -1    0    0    0  501  0.00000000000E+00  0.00000000000E+00  0.20697481327E+04  0.20697481327E+04  0.25500000920E-02 0.  1.
        2   -1    0    0  501    0  0.00000000000E+00  0.00000000000E+00 -0.14603051098E+04  0.14603051098E+04  0.25500000920E-02 0. -1.
    10030    2    1    2    0    0  0.00000000000E+00  0.00000000000E+00  0.60944302288E+03  0.35300532426E+04  0.34770468932E+04 0.  0.
        1    1    3    3  502    0 -0.63383743215E+03 -0.24367160039E+03  0.19295374001E+04  0.20455415707E+04  0.50400001928E-02 0.  1.
       -1    1    3    3    0  502  0.63383743215E+03  0.24367160039E+03 -0.13200943772E+04  0.14845116719E+04  0.50400001928E-02 0. -1.
</event>
<event>
 5   0  0.4591195E-07  0.3466299E+04  0.7818609E-02  0.8121823E-01
        1   -1    0    0  501    0  0.00000000000E+00  0.00000000000E+00  0.22641333014E+04  0.22641333014E+04  0.50400001928E-02 0.  1.
       -1   -1    0    0    0  501  0.00000000000E+00  0.00000000000E+00 -0.13266916331E+04  0.13266916331E+04  0.50400001928E-02 0. -1.
    10030    2    1    2    0    0  0.00000000000E+00  0.00000000000E+00  0.93744166833E+03  0.35908249345E+04  0.34662987218E+04 0.  0.
        4    1    3    3  502    0 -0.24384740180E+03 -0.15113707786E+04 -0.37293345207E+03  0.15756852980E+04  0.12699999809E+01 0. -1.
       -4    1    3    3    0  502  0.24384740180E+03  0.15113707786E+04  0.13103751204E+04  0.20151396365E+04  0.12699999809E+01 0.  1.
</event>
<event>
 5   0  0.1348388E-06  0.3490396E+04  0.7818609E-02  0.8116070E-01
       -2   -1    0    0    0  501  0.00000000000E+00  0.00000000000E+00  0.15815647790E+04  0.15815647790E+04  0.25500000920E-02 0. -1.
        2   -1    0    0  501    0  0.00000000000E+00  0.00000000000E+00 -0.19257615473E+04  0.19257615473E+04  0.25500000920E-02 0.  1.
    10030    2    1    2    0    0  0.00000000000E+00  0.00000000000E+00 -0.34419676830E+03  0.35073263264E+04  0.34903963306E+04 0.  0.
        5    1    3    3  502    0  0.10762756839E+04  0.13275255383E+04  0.18317152471E+03  0.17187982139E+04  0.46999998093E+01 0. -1.
       -5    1    3    3    0  502 -0.10762756839E+04 -0.13275255383E+04 -0.52736829301E+03  0.17885281125E+04  0.46999998093E+01 0.  1.
</event>
<event>
 5   0  0.4591195E-07  0.3367008E+04  0.7818609E-02  0.8146051E-01
        1   -1    0    0  501    0  0.00000000000E+00  0.00000000000E+00  0.20987738070E+04  0.20987738070E+04  0.50400001928E-02 0. -1.
       -1   -1    0    0    0  501  0.00000000000E+00  0.00000000000E+00 -0.13504008892E+04  0.13504008892E+04  0.50400001928E-02 0.  1.
    10030    2    1    2    0    0  0.00000000000E+00  0.00000000000E+00  0.74837291785E+03  0.34491746962E+04  0.33670081765E+04 0.  0.
        4    1    3    3  502    0 -0.57427919518E+02  0.56492705355E+02  0.20967978038E+04  0.20983450705E+04  0.12699999809E+01 0. -1.
       -4    1    3    3    0  502  0.57427919518E+02 -0.56492705355E+02 -0.13484248860E+04  0.13508296257E+04  0.12699999809E+01 0.  1.
</event>
<event>
 5   0  0.4693374E-07  0.3559834E+04  0.7818609E-02  0.8099755E-01
       -1   -1    0    0    0  501  0.00000000000E+00  0.00000000000E+00  0.11463131476E+04  0.11463131476E+04  0.50400001928E-02 0.  1.
        1   -1    0    0  501    0  0.00000000000E+00  0.00000000000E+00 -0.27637346362E+04  0.27637346362E+04  0.50400001928E-02 0. -1.
    10030    2    1    2    0    0  0.00000000000E+00  0.00000000000E+00 -0.16174214886E+04  0.39100477838E+04  0.35598344624E+04 0.  0.
        1    1    3    3  502    0 -0.10015634225E+04 -0.73642820348E+03 -0.22078618826E+04  0.25337935750E+04  0.50400001928E-02 0. -1.
       -1    1    3    3    0  502  0.10015634225E+04  0.73642820348E+03  0.59044039405E+03  0.13762542087E+04  0.50400001928E-02 0.  1.
</event>
<event>
 5   0  0.4700769E-07  0.2978068E+04  0.7818609E-02  0.8250021E-01
       -1   -1    0    0    0  501  0.00000000000E+00  0.00000000000E+00  0.18487307906E+04  0.18487307906E+04  0.50400001928E-02 0. -1.
        1   -1    0    0  501    0  0.00000000000E+00  0.00000000000E+00 -0.11993214662E+04  0.11993214662E+04  0.50400001928E-02 0.  1.
    10030    2    1    2    0    0  0.00000000000E+00  0.00000000000E+00  0.64940932441E+03  0.30480522568E+04  0.29780681809E+04 0.  0.
        3    1    3    3  502    0 -0.13525363072E+04  0.59220237098E+03  0.52201568408E+03  0.15660646522E+04  0.10100000352E+00 0. -1.
       -3    1    3    3    0  502  0.13525363072E+04 -0.59220237098E+03  0.12739364033E+03  0.14819876046E+04  0.10100000352E+00 0.  1.
</event>
<event>
 5   0  0.4700769E-07  0.3571821E+04  0.7818609E-02  0.8096977E-01
       -1   -1    0    0    0  501  0.00000000000E+00  0.00000000000E+00  0.21683860693E+04  0.21683860693E+04  0.50400001928E-02 0.  1.
        1   -1    0    0  501    0  0.00000000000E+00  0.00000000000E+00 -0.14708985872E+04  0.14708985872E+04  0.50400001928E-02 0. -1.
    10030    2    1    2    0    0  0.00000000000E+00  0.00000000000E+00  0.69748748211E+03  0.36392846565E+04  0.35718208275E+04 0.  0.
        3    1    3    3  502    0 -0.22025919943E+03  0.14548316215E+04 -0.68251307983E+03  0.16219966942E+04  0.10100000352E+00 0. -1.
       -3    1    3    3    0  502  0.22025919943E+03 -0.14548316215E+04  0.13800005619E+04  0.20172879623E+04  0.10100000352E+00 0.  1.
</event>
<event>
 5   0  0.1348388E-06  0.3420570E+04  0.7818609E-02  0.8132876E-01
       -2   -1    0    0    0  501  0.00000000000E+00  0.00000000000E+00  0.13918816324E+04  0.13918816324E+04  0.25500000920E-02 0.  1.
        2   -1    0    0  501    0  0.00000000000E+00  0.00000000000E+00 -0.21015250775E+04  0.21015250775E+04  0.25500000920E-02 0. -1.
    10030    2    1    2    0    0  0.00000000000E+00  0.00000000000E+00 -0.70964344519E+03  0.34934067099E+04  0.34205696341E+04 0.  0.
        5    1    3    3  502    0  0.43048815097E+03 -0.98212009421E+03  0.10059051152E+04  0.14702881072E+04  0.46999998093E+01 0.  1.
       -5    1    3    3    0  502 -0.43048815097E+03  0.98212009421E+03 -0.17155485603E+04  0.20231186027E+04  0.46999998093E+01 0. -1.
</event>
<event>
 5   0  0.1442864E-06  0.3456168E+04  0.7818609E-02  0.8124257E-01
        2   -1    0    0  501    0  0.00000000000E+00  0.00000000000E+00  0.18681319007E+04  0.18681319007E+04  0.25500000920E-02 0. -1.
       -2   -1    0    0    0  501  0.00000000000E+00  0.00000000000E+00 -0.15985353777E+04  0.15985353777E+04  0.25500000920E-02 0.  1.
    10030    2    1    2    0    0  0.00000000000E+00  0.00000000000E+00  0.26959652305E+03  0.34666672784E+04  0.34561683602E+04 0.  0.
        1    1    3    3  502    0  0.43475447213E+02 -0.44051235972E+03  0.18103017705E+04  0.18636345548E+04  0.50400001928E-02 0. -1.
       -1    1    3    3    0  502 -0.43475447213E+02  0.44051235972E+03 -0.15407052474E+04  0.16030327236E+04  0.50400001928E-02 0.  1.
</event>
<event>
 5   0  0.4591195E-07  0.3496297E+04  0.7818609E-02  0.8114668E-01
        1   -1    0    0  501    0  0.00000000000E+00  0.00000000000E+00  0.15019796921E+04  0.15019796921E+04  0.50400001928E-02 0.  1.
       -1   -1    0    0    0  501  0.00000000000E+00  0.00000000000E+00 -0.20346638201E+04  0.20346638202E+04  0.50400001928E-02 0. -1.
    10030    2    1    2    0    0  0.00000000000E+00  0.00000000000E+00 -0.53268412801E+03  0.35366435123E+04  0.34962973204E+04 0.  0.
        4    1    3    3  502    0  0.38342185269E+03  0.23820070076E+03  0.14420134879E+04  0.15110117151E+04  0.12699999809E+01 0.  1.
       -4    1    3    3    0  502 -0.38342185269E+03 -0.23820070076E+03 -0.19746976159E+04  0.20256317972E+04  0.12699999809E+01 0. -1.
</event>
<event>
 5   0  0.4700769E-07  0.3526826E+04  0.7818609E-02  0.8107462E-01
       -1   -1    0    0    0  501  0.00000000000E+00  0.00000000000E+00  0.17201359551E+04  0.17201359551E+04  0.50400001928E-02 0.  1.
        1   -1    0    0  501    0  0.00000000000E+00  0.00000000000E+00 -0.18077787380E+04  0.18077787380E+04  0.50400001928E-02 0. -1.
    10030    2    1    2    0    0  0.00000000000E+00  0.00000000000E+00 -0.87642782934E+02  0.35279146931E+04  0.35268258852E+04 0.  0.
        3    1    3    3  502    0  0.68922947158E+03  0.16225754365E+04 -0.94927431462E+00  0.17628922891E+04  0.10100000352E+00 0.  1.
       -3    1    3    3    0  502 -0.68922947158E+03 -0.16225754365E+04 -0.86693508619E+02  0.17650224039E+04  0.10100000352E+00 0. -1.
</event>
<event>
 5   0  0.1348388E-06  0.3561026E+04  0.7818609E-02  0.8099478E-01
        2   -1    0    0  501    0  0.00000000000E+00  0.00000000000E+00  0.23714186207E+04  0.23714186207E+04  0.25500000920E-02 0.  1.
       -2   -1    0    0    0  501  0.00000000000E+00  0.00000000000E+00 -0.13368484485E+04  0.13368484485E+04  0.25500000920E-02 0. -1.
    10030    2    1    2    0    0  0.00000000000E+00  0.00000000000E+00  0.10345701723E+04  0.37082670692E+04  0.35610264272E+04 0.  0.
        5    1    3    3  502    0 -0.63850606204E+03 -0.10537389374E+03  0.22446082099E+04  0.23360397588E+04  0.46999998093E+01 0.  1.
       -5    1    3    3    0  502  0.63850606204E+03  0.10537389374E+03 -0.12100380376E+04  0.13722273104E+04  0.46999998093E+01 0. -1.
</event>
<event>
 5   0  0.4409125E-07  0.3574417E+04  0.7818609E-02  0.8096377E-01
       -1   -1    0    0    0  501  0.00000000000E+00  0.00000000000E+00  0.20910977300E+04  0.20910977300E+04  0.50400001928E-02 0. -1.
        1   -1    0    0  501    0  0.00000000000E+00  0.00000000000E+00 -0.15274822262E+04  0.15274822262E+04  0.50400001928E-02 0.  1.
    10030    2    1    2    0    0  0.00000000000E+00  0.00000000000E+00  0.56361550385E+03  0.36185799562E+04  0.35744172201E+04 0.  0.
        5    1    3    3  502    0  0.10901521386E+04  0.94817316338E+03  0.13467691192E+04  0.19751640903E+04  0.46999998093E+01 0. -1.
       -5    1    3    3    0  502 -0.10901521386E+04 -0.94817316338E+03 -0.78315361536E+03  0.16434158659E+04  0.46999998093E+01 0.  1.
</event>
<event>
 5   0  0.4700769E-07  0.3286195E+04  0.7818609E-02  0.8166417E-01
       -1   -1    0    0    0  501  0.00000000000E+00  0.00000000000E+00  0.21108712255E+04  0.21108712255E+04  0.50400001928E-02 0. -1.
        1   -1    0    0  501    0  0.00000000000E+00  0.00000000000E+00 -0.12789831537E+04  0.12789831537E+04  0.50400001928E-02 0.  1.
    10030    2    1    2    0    0  0.00000000000E+00  0.00000000000E+00  0.83188807187E+03  0.33898543792E+04  0.32861945998E+04 0.  0.
        3    1    3    3  502    0  0.10938360621E+04  0.57291141134E+03  0.15341415147E+04  0.19693387249E+04  0.10100000352E+00 0. -1.
       -3    1    3    3    0  502 -0.10938360621E+04 -0.57291141134E+03 -0.70225344287E+03  0.14205156543E+04  0.10100000352E+00 0.  1.
</event>
<event>
 5   0  0.1387133E-06  0.3494536E+04  0.7818609E-02  0.8115086E-01
       -2   -1    0    0    0  501  0.00000000000E+00  0.00000000000E+00  0.15868392834E+04  0.15868392834E+04  0.25500000920E-02 0. -1.
        2   -1    0    0  501    0  0.00000000000E+00  0.00000000000E+00 -0.19239158512E+04  0.19239158512E+04  0.25500000920E-02 0.  1.
    10030    2    1    2    0    0  0.00000000000E+00  0.00000000000E+00 -0.33707656788E+03  0.35107551346E+04  0.34945358780E+04 0.  0.
        4    1    3    3  502    0 -0.87737715544E+03  0.20319704120E+03  0.13356966158E+04  0.16109521324E+04  0.12699999809E+01 0. -1.
       -4    1    3    3    0  502  0.87737715544E+03 -0.20319704120E+03 -0.16727731837E+04  0.18998030023E+04  0.12699999809E+01 0.  1.
</event>
<event>
 5   0  0.1378620E-06  0.3502689E+04  0.7818609E-02  0.8113153E-01
        2   -1    0    0  501    0  0.00000000000E+00  0.00000000000E+00  0.19579846275E+04  0.19579846275E+04  0.25500000920E-02 0.  1.
       -2   -1    0    0    0  501  0.00000000000E+00  0.00000000000E+00 -0.15665125360E+04  0.15665125360E+04  0.25500000920E-02 0. -1.
    10030    2    1    2    0    0  0.00000000000E+00  0.00000000000E+00  0.39147209153E+03  0.35244971635E+04  0.35026889467E+04 0.  0.
        2    1    3    3  502    0 -0.12473562419E+04  0.98926647472E+03 -0.53864478798E+03  0.16806796125E+04  0.25500000920E-02 0. -1.
       -2    1    3    3    0  502  0.12473562419E+04 -0.98926647472E+03  0.93011687950E+03  0.18438175511E+04  0.25500000920E-02 0.  1.
</event>
<event>
 5   0  0.4557237E-07  0.3521787E+04  0.7818609E-02  0.8108646E-01
        1   -1    0    0  501    0  0.00000000000E+00  0.00000000000E+00  0.24477013246E+04  0.24477013246E+04  0.50400001928E-02 0. -1.
       -1   -1    0    0    0  501  0.00000000000E+00  0.00000000000E+00 -0.12667988618E+04  0.12667988618E+04  0.50400001928E-02 0.  1.
    10030    2    1    2    0    0  0.00000000000E+00  0.00000000000E+00  0.11809024628E+04  0.37145001864E+04  0.35217866216E+04 0.  0.
        2    1    3    3  502    0  0.65058130262E+03  0.31918316562E+03 -0.11022390798E+04  0.13191152010E+04  0.25500000920E-02 0.  1.
       -2    1    3    3    0  502 -0.65058130262E+03 -0.31918316562E+03  0.22831415426E+04  0.23953849854E+04  0.25500000920E-02 0. -1.
</event>
<event>
 5   0  0.1378620E-06  0.3533306E+04  0.7818609E-02  0.8105942E-01
       -2   -1    0    0    0  501  0.00000000000E+00  0.00000000000E+00  0.13867421124E+04  0.13867421124E+04  0.25500000920E-02 0. -1.
        2   -1    0    0  501    0  0.00000000000E+00  0.00000000000E+00 -0.22506444750E+04  0.22506444750E+04  0.25500000920E-02 0.  1.
    10030    2    1    2    0    0  0.00000000000E+00  0.00000000000E+00 -0.86390236257E+03  0.36373865873E+04  0.35333063685E+04 0.  0.
        2    1    3    3  502    0  0.73758322661E+03 -0.14629658254E+03 -0.20776763226E+04  0.22095634428E+04  0.25500000920E-02 0.  1.
       -2    1    3    3    0  502 -0.73758322661E+03  0.14629658254E+03  0.12137739600E+04  0.14278231446E+04  0.25500000920E-02 0. -1.
</event>
<event>
 5   0  0.4557237E-07  0.3475831E+04  0.7818609E-02  0.8119542E-01
       -1   -1    0    0    0  501  0.00000000000E+00  0.00000000000E+00  0.15833919144E+04  0.15833919144E+04  0.50400001928E-02 0. -1.
        1   -1    0    0  501    0  0.00000000000E+00  0.00000000000E+00 -0.19075187402E+04  0.19075187402E+04  0.50400001928E-02 0.  1.
    10030    2    1    2    0    0  0.00000000000E+00  0.00000000000E+00 -0.32412682580E+03  0.34909106545E+04  0.34758306919E+04 0.  0.
        2    1    3    3  502    0 -0.33997808978E+03  0.86565801982E+03  0.13124344382E+04  0.16085499878E+04  0.25500000920E-02 0. -1.
       -2    1    3    3    0  502  0.33997808978E+03 -0.86565801982E+03 -0.16365612640E+04  0.18823606667E+04  0.25500000920E-02 0.  1.
</event>
<event>
 5   0  0.4693374E-07  0.3529559E+04  0.7818609E-02  0.8106820E-01
       -1   -1    0    0    0  501  0.00000000000E+00  0.00000000000E+00  0.20091858987E+04  0.20091858987E+04  0.50400001928E-02 0. -1.
        1   -1    0    0  501    0  0.00000000000E+00  0.00000000000E+00 -0.15501039670E+04  0.15501039670E+04  0.50400001928E-02 0.  1.
    10030    2    1    2    0    0  0.00000000000E+00  0.00000000000E+00  0.45908193170E+03  0.35592898658E+04  0.35295591975E+04 0.  0.
        1    1    3    3  502    0  0.80343044857E+03 -0.13411523268E+04  0.10551293263E+04  0.18861304156E+04  0.50400001928E-02 0. -1.
       -1    1    3    3    0  502 -0.80343044857E+03  0.13411523268E+04 -0.59604739460E+03  0.16731594502E+04  0.50400001928E-02 0.  1.
</event>
<event>
 5   0  0.1378620E-06  0.3583575E+04  0.7818609E-02  0.8094264E-01
        2   -1    0    0  501    0  0.00000000000E+00  0.00000000000E+00  0.23887823224E+04  0.23887823224E+04  0.25500000920E-02 0.  1.
       -2   -1    0    0    0  501  0.00000000000E+00  0.00000000000E+00 -0.13439910865E+04  0.13439910865E+04  0.25500000920E-02 0. -1.
    10030    2    1    2    0    0  0.00000000000E+00  0.00000000000E+00  0.10447912359E+04  0.37327734089E+04  0.35835748346E+04 0.  0.
        2    1    3    3  502    0 -0.16575579674E+04 -0.54174967025E+03  0.93537012591E+02  0.17463505642E+04  0.25500000920E-02 0. -1.
       -2    1    3    3    0  502  0.16575579674E+04  0.54174967025E+03  0.95125422329E+03  0.19864228447E+04  0.25500000920E-02 0.  1.
</event>
<event>
 5   0  0.1387133E-06  0.3537190E+04  0.7818609E-02  0.8105033E-01
       -2   -1    0    0    0  501  0.00000000000E+00  0.00000000000E+00  0.16655529136E+04  0.16655529136E+04  0.25500000920E-02 0. -1.
        2   -1    0    0  501    0  0.00000000000E+00  0.00000000000E+00 -0.18780118319E+04  0.18780118319E+04  0.25500000920E-02 0.  1.
    10030    2    1    2    0    0  0.00000000000E+00  0.00000000000E+00 -0.21245891827E+03  0.35435647455E+04  0.35371898894E+04 0.  0.
        4    1    3    3  502    0  0.17808835590E+03  0.17015969809E+04 -0.55512039427E+03  0.17986961981E+04  0.12699999809E+01 0.  1.
       -4    1    3    3    0  502 -0.17808835590E+03 -0.17015969809E+04  0.34266147599E+03  0.17448685475E+04  0.12699999809E+01 0. -1.
</event>
<event>
 5   0  0.1442864E-06  0.3522544E+04  0.7818609E-02  0.8108468E-01
       -2   -1    0    0    0  501  0.00000000000E+00  0.00000000000E+00  0.11080535840E+04  0.11080535840E+04  0.25500000920E-02 0. -1.
        2   -1    0    0  501    0  0.00000000000E+00  0.00000000000E+00 -0.27995751995E+04  0.27995751995E+04  0.25500000920E-02 0.  1.
    10030    2    1    2    0    0  0.00000000000E+00  0.00000000000E+00 -0.16915216155E+04  0.39076287836E+04  0.35225441565E+04 0.  0.
        1    1    3    3  502    0 -0.15685628064E+04  0.91085624459E+02  0.37102856821E+02  0.15716432453E+04  0.50400001928E-02 0.  1.
       -1    1    3    3    0  502  0.15685628064E+04 -0.91085624459E+02 -0.17286244723E+04  0.23359855383E+04  0.50400001928E-02 0. -1.
</event>
<event>
 5   0  0.1442864E-06  0.3507199E+04  0.7818609E-02  0.8112086E-01
        2   -1    0    0  501    0  0.00000000000E+00  0.00000000000E+00  0.25228093074E+04  0.25228093074E+04  0.25500000920E-02 0.  1.
       -2   -1    0    0    0  501  0.00000000000E+00  0.00000000000E+00 -0.12189236920E+04  0.12189236920E+04  0.25500000920E-02 0. -1.
    10030    2    1    2    0    0  0.00000000000E+00  0.00000000000E+00  0.13038856154E+04  0.37417329994E+04  0.35071994727E+04 0.  0.
        1    1    3    3  502    0  0.10864006611E+04 -0.35120525491E+02  0.21200502728E+04  0.23824594450E+04  0.50400001928E-02 0.  1.
       -1    1    3    3    0  502 -0.10864006611E+04  0.35120525491E+02 -0.81616465739E+03  0.13592735545E+04  0.50400001928E-02 0. -1.
</event>
<event>
 5   0  0.4557237E-07  0.3328289E+04  0.7818609E-02  0.8155734E-01
       -1   -1    0    0    0  501  0.00000000000E+00  0.00000000000E+00  0.12287945431E+04  0.12287945431E+04  0.50400001928E-02 0. -1.
        1   -1    0    0  501    0  0.00000000000E+00  0.00000000000E+00 -0.22537344834E+04  0.22537344834E+04  0.50400001928E-02 0.  1.
    10030    2    1    2    0    0  0.00000000000E+00  0.00000000000E+00 -0.10249399403E+04  0.34825290265E+04  0.33282888305E+04 0.  0.
        2    1    3    3  502    0 -0.30426183902E+03  0.79603173304E+03  0.98315343553E+03  0.13010889533E+04  0.25500000920E-02 0. -1.
       -2    1    3    3    0  502  0.30426183902E+03 -0.79603173304E+03 -0.20080933758E+04  0.21814400731E+04  0.25500000920E-02 0.  1.
</event>
<event>
 5   0  0.4557237E-07  0.3481505E+04  0.7818609E-02  0.8118187E-01
       -1   -1    0    0    0  501  0.00000000000E+00  0.00000000000E+00  0.11353451155E+04  0.11353451155E+04  0.50400001928E-02 0. -1.
        1   -1    0    0  501    0  0.00000000000E+00  0.00000000000E+00 -0.26689844615E+04  0.26689844615E+04  0.50400001928E-02 0.  1.
    10030    2    1    2    0    0  0.00000000000E+00  0.00000000000E+00 -0.15336393460E+04  0.38043295770E+04  0.34815045436E+04 0.  0.
        2    1    3    3  502    0  0.14956492053E+04  0.84918063433E+03 -0.47331717079E+03  0.17838451276E+04  0.25500000920E-02 0. -1.
       -2    1    3    3    0  502 -0.14956492053E+04 -0.84918063433E+03 -0.10603221752E+04  0.20204844494E+04  0.25500000920E-02 0.  1.
</event>
<event>
 5   0  0.1442864E-06  0.3405707E+04  0.7818609E-02  0.8136507E-01
       -2   -1    0    0    0  501  0.00000000000E+00  0.00000000000E+00  0.11567263265E+04  0.11567263265E+04  0.25500000920E-02 0. -1.
        2   -1    0    0  501    0  0.00000000000E+00  0.00000000000E+00 -0.25068249817E+04  0.25068249817E+04  0.25500000920E-02 0.  1.
    10030    2    1    2    0    0  0.00000000000E+00  0.00000000000E+00 -0.13500986551E+04  0.36635513082E+04  0.34057072407E+04 0.  0.
        1    1    3    3  502    0 -0.14233702285E+04 -0.72804087745E+03 -0.13056794367E+04  0.20641766199E+04  0.50400001928E-02 0.  1.
       -1    1    3    3    0  502  0.14233702285E+04  0.72804087745E+03 -0.44419218404E+02  0.15993746883E+04  0.50400001928E-02 0. -1.
</event>
<event>
 5   0  0.1348388E-06  0.3497303E+04  0.7818609E-02  0.8114429E-01
        2   -1    0    0  501    0  0.00000000000E+00  0.00000000000E+00  0.26668140717E+04  0.26668140717E+04  0.25500000920E-02 0.  1.
       -2   -1    0    0    0  501  0.00000000000E+00  0.00000000000E+00 -0.11466050901E+04  0.11466050901E+04  0.25500000920E-02 0. -1.
    10030    2    1    2    0    0  0.00000000000E+00  0.00000000000E+00  0.15202089816E+04  0.38134191618E+04  0.34973032976E+04 0.  0.
        5    1    3    3  502    0  0.92053136036E+03 -0.12133119605E+04  0.16969865364E+04  0.22801950122E+04  0.46999998093E+01 0. -1.
       -5    1    3    3    0  502 -0.92053136036E+03  0.12133119605E+04 -0.17677755480E+03  0.15332241496E+04  0.46999998093E+01 0.  1.
</event>
<event>
 5   0  0.1387133E-06  0.3420811E+04  0.7818609E-02  0.8132817E-01
       -2   -1    0    0    0  501  0.00000000000E+00  0.00000000000E+00  0.14077971481E+04  0.14077971481E+04  0.25500000920E-02 0.  1.
        2   -1    0    0  501    0  0.00000000000E+00  0.00000000000E+00 -0.20780599400E+04  0.20780599400E+04  0.25500000920E-02 0. -1.
    10030    2    1    2    0    0  0.00000000000E+00  0.00000000000E+00 -0.67026279190E+03  0.34858570880E+04  0.34208109313E+04 0.  0.
        4    1    3    3  502    0  0.11040862354E+03  0.11749272773E+04 -0.15967528662E+04  0.19855139133E+04  0.12699999809E+01 0. -1.
       -4    1    3    3    0  502 -0.11040862354E+03 -0.11749272773E+04  0.92649007433E+03  0.15003431747E+04  0.12699999809E+01 0.  1.
</event>
<event>
 5   0  0.4693374E-07  0.3514224E+04  0.7818609E-02  0.8110427E-01
       -1   -1    0    0    0  501  0.00000000000E+00  0.00000000000E+00  0.16863464954E+04  0.16863464954E+04  0.50400001928E-02 0.  1.
        1   -1    0    0  501    0  0.00000000000E+00  0.00000000000E+00 -0.18308474365E+04  0.18308474365E+04  0.50400001928E-02 0. -1.
    10030    2    1    2    0    0  0.00000000000E+00  0.00000000000E+00 -0.14450094112E+03  0.35171939319E+04  0.35142243287E+04 0.  0.
        1    1    3    3  502    0  0.16044473836E+04  0.71623177392E+03 -0.86538301436E+02  0.17591839694E+04  0.50400001928E-02 0. -1.
       -1    1    3    3    0  502 -0.16044473836E+04 -0.71623177392E+03 -0.57962639687E+02  0.17580099625E+04  0.50400001928E-02 0.  1.
</event>
<event>
 5   0  0.1361560E-06  0.2935270E+04  0.7818609E-02  0.8262460E-01
       -2   -1    0    0    0  501  0.00000000000E+00  0.00000000000E+00  0.13910082479E+04  0.13910082479E+04  0.25500000920E-02 0. -1.
        2   -1    0    0  501    0  0.00000000000E+00  0.00000000000E+00 -0.15484829584E+04  0.15484829584E+04  0.25500000920E-02 0.  1.
    10030    2    1    2    0    0  0.00000000000E+00  0.00000000000E+00 -0.15747471048E+03  0.29394912063E+04  0.29352700502E+04 0.  0.
        3    1    3    3  502    0 -0.10988916696E+03  0.14032545771E+04  0.33749664631E+03  0.14474470745E+04  0.10100000352E+00 0. -1.
       -3    1    3    3    0  502  0.10988916696E+03 -0.14032545771E+04 -0.49497135679E+03  0.14920441318E+04  0.10100000352E+00 0.  1.
</event>
<event>
 5   0  0.1442864E-06  0.3490337E+04  0.7818609E-02  0.8116084E-01
        2   -1    0    0  501    0  0.00000000000E+00  0.00000000000E+00  0.11594942624E+04  0.11594942624E+04  0.25500000920E-02 0.  1.
       -2   -1    0    0    0  501  0.00000000000E+00  0.00000000000E+00 -0.26266736079E+04  0.26266736079E+04  0.25500000920E-02 0. -1.
    10030    2    1    2    0    0  0.00000000000E+00  0.00000000000E+00 -0.14671793455E+04  0.37861678703E+04  0.34903369336E+04 0.  0.
        1    1    3    3  502    0 -0.71982997996E+03 -0.11988593265E+04  0.39903084600E+03  0.14541817289E+04  0.50400001928E-02 0.  1.
       -1    1    3    3    0  502  0.71982997996E+03  0.11988593265E+04 -0.18662101915E+04  0.23319861413E+04  0.50400001928E-02 0. -1.
</event>
<event>
 5   0  0.4591195E-07  0.2886072E+04  0.7818609E-02  0.8277033E-01
       -1   -1    0    0    0  501  0.00000000000E+00  0.00000000000E+00  0.72090615577E+03  0.72090615578E+03  0.50400001928E-02 0. -1.
        1   -1    0    0  501    0  0.00000000000E+00  0.00000000000E+00 -0.28885223771E+04  0.28885223771E+04  0.50400001928E-02 0.  1.
    10030    2    1    2    0    0  0.00000000000E+00  0.00000000000E+00 -0.21676162214E+04  0.36094285329E+04  0.28860724612E+04 0.  0.
        4    1    3    3  502    0  0.82872987941E+03  0.51462845392E+03  0.24605837410E+03  0.10060725595E+04  0.12699999809E+01 0. -1.
       -4    1    3    3    0  502 -0.82872987941E+03 -0.51462845392E+03 -0.24136745955E+04  0.26033559734E+04  0.12699999809E+01 0.  1.
</event>
<event>
 5   0  0.1361560E-06  0.3603847E+04  0.7818609E-02  0.8089611E-01
        2   -1    0    0  501    0  0.00000000000E+00  0.00000000000E+00  0.18538785808E+04  0.18538785808E+04  0.25500000920E-02 0. -1.
       -2   -1    0    0    0  501  0.00000000000E+00  0.00000000000E+00 -0.17514242061E+04  0.17514242061E+04  0.25500000920E-02 0.  1.
    10030    2    1    2    0    0  0.00000000000E+00  0.00000000000E+00  0.10245437478E+03  0.36053027869E+04  0.36038467346E+04 0.  0.
        3    1    3    3  502    0  0.16118795403E+03 -0.16026886697E+02  0.18465801923E+04  0.18536711775E+04  0.10100000352E+00 0. -1.
       -3    1    3    3    0  502 -0.16118795403E+03  0.16026886697E+02 -0.17441258175E+04  0.17516316094E+04  0.10100000352E+00 0.  1.
</event>
<event>
 5   0  0.1442864E-06  0.3534043E+04  0.7818609E-02  0.8105769E-01
       -2   -1    0    0    0  501  0.00000000000E+00  0.00000000000E+00  0.25297077044E+04  0.25297077044E+04  0.25500000920E-02 0. -1.
        2   -1    0    0  501    0  0.00000000000E+00  0.00000000000E+00 -0.12342792374E+04  0.12342792374E+04  0.25500000920E-02 0.  1.
    10030    2    1    2    0    0  0.00000000000E+00  0.00000000000E+00  0.12954284670E+04  0.37639869418E+04  0.35340434045E+04 0.  0.
        1    1    3    3  502    0  0.23384186523E+02 -0.77521575562E+03  0.23387412322E+04  0.24639839364E+04  0.50400001928E-02 0. -1.
       -1    1    3    3    0  502 -0.23384186523E+02  0.77521575562E+03 -0.10433127652E+04  0.13000030054E+04  0.50400001928E-02 0.  1.
</event>
<event>
 5   0  0.4557237E-07  0.2997157E+04  0.7818609E-02  0.8244543E-01
       -1   -1    0    0    0  501  0.00000000000E+00  0.00000000000E+00  0.29987847428E+04  0.29987847428E+04  0.50400001928E-02 0. -1.
        1   -1    0    0  501    0  0.00000000000E+00  0.00000000000E+00 -0.74888255151E+03  0.74888255153E+03  0.50400001928E-02 0.  1.
    10030    2    1    2    0    0  0.00000000000E+00  0.00000000000E+00  0.22499021913E+04  0.37476672943E+04  0.29971570327E+04 0.  0.
        2    1    3    3  502    0 -0.55749718439E+03  0.76973239388E+03 -0.32382083923E+03  0.10040672312E+04  0.25500000920E-02 0.  1.
       -2    1    3    3    0  502  0.55749718439E+03 -0.76973239388E+03  0.25737230305E+04  0.27436000632E+04  0.25500000920E-02 0. -1.
</event>
<event>
 5   0  0.1348388E-06  0.3471507E+04  0.7818609E-02  0.8120576E-01
        2   -1    0    0  501    0  0.00000000000E+00  0.00000000000E+00  0.19066685531E+04  0.19066685531E+04  0.25500000920E-02 0. -1.
       -2   -1    0    0    0  501  0.00000000000E+00  0.00000000000E+00 -0.15801594402E+04  0.15801594402E+04  0.25500000920E-02 0.  1.
    10030    2    1    2    0    0  0.00000000000E+00  0.00000000000E+00  0.32650911282E+03  0.34868279933E+04  0.34715070581E+04 0.  0.
        5    1    3    3  502    0  0.80603698026E+03 -0.14693412171E+04 -0.29057913512E+03  0.17009166792E+04  0.46999998093E+01 0.  1.
       -5    1    3    3    0  502 -0.80603698026E+03  0.14693412171E+04  0.61708824794E+03  0.17859113141E+04  0.46999998093E+01 0. -1.
</event>
<event>
 5   0  0.4693374E-07  0.3299099E+04  0.7818609E-02  0.8163125E-01
        1   -1    0    0  501    0  0.00000000000E+00  0.00000000000E+00  0.21356465018E+04  0.21356465018E+04  0.50400001928E-02 0. -1.
       -1   -1    0    0    0  501  0.00000000000E+00  0.00000000000E+00 -0.12740933382E+04  0.12740933382E+04  0.50400001928E-02 0.  1.
    10030    2    1    2    0    0  0.00000000000E+00  0.00000000000E+00  0.86155316357E+03  0.34097398401E+04  0.32990986532E+04 0.  0.
        1    1    3    3  502    0 -0.53799114506E+03 -0.12017964595E+04  0.14577106066E+04  0.19643496162E+04  0.50400001928E-02 0. -1.
       -1    1    3    3    0  502  0.53799114506E+03  0.12017964595E+04 -0.59615744299E+03  0.14453902238E+04  0.50400001928E-02 0.  1.
</event>
<event>
 5   0  0.1442864E-06  0.3563977E+04  0.7818609E-02  0.8098793E-01
        2   -1    0    0  501    0  0.00000000000E+00  0.00000000000E+00  0.13649815048E+04  0.13649815048E+04  0.25500000920E-02 0.  1.
       -2   -1    0    0    0  501  0.00000000000E+00  0.00000000000E+00 -0.23263922461E+04  0.23263922461E+04  0.25500000920E-02 0. -1.
    10030    2    1    2    0    0  0.00000000000E+00  0.00000000000E+00 -0.96141074131E+03  0.36913737510E+04  0.35639766492E+04 0.  0.
        1    1    3    3  502    0 -0.29263726665E+03 -0.13075962440E+04 -0.16974478588E+04  0.21625849672E+04  0.50400001928E-02 0. -1.
       -1    1    3    3    0  502  0.29263726665E+03  0.13075962440E+04  0.73603711745E+03  0.15287887838E+04  0.50400001928E-02 0.  1.
</event>
<event>
 5   0  0.1378620E-06  0.3448872E+04  0.7818609E-02  0.8126015E-01
        2   -1    0    0  501    0  0.00000000000E+00  0.00000000000E+00  0.15994793462E+04  0.15994793462E+04  0.25500000920E-02 0.  1.
       -2   -1    0    0    0  501  0.00000000000E+00  0.00000000000E+00 -0.18591545052E+04  0.18591545052E+04  0.25500000920E-02 0. -1.
    10030    2    1    2    0    0  0.00000000000E+00  0.00000000000E+00 -0.25967515900E+03  0.34586338514E+04  0.34488718344E+04 0.  0.
        2    1    3    3  502    0 -0.72028866411E+02  0.11567451736E+03  0.15940716442E+04  0.15998853579E+04  0.25500000920E-02 0.  1.
       -2    1    3    3    0  502  0.72028866411E+02 -0.11567451736E+03 -0.18537468032E+04  0.18587484935E+04  0.25500000920E-02 0. -1.
</event>
<event>
 5   0  0.4409125E-07  0.3654998E+04  0.7818609E-02  0.8078009E-01
        3   -1    0    0  501    0  0.00000000000E+00  0.00000000000E+00  0.19450126320E+04  0.19450126347E+04  0.10100000352E+00 0. -1.
       -3   -1    0    0    0  501  0.00000000000E+00  0.00000000000E+00 -0.17170856354E+04  0.17170856384E+04  0.10100000352E+00 0.  1.
    10030    2    1    2    0    0  0.00000000000E+00  0.00000000000E+00  0.22792699663E+03  0.36620982730E+04  0.36549983647E+04 0.  0.
        4    1    3    3  502    0 -0.84161945790E+03  0.16186165420E+04  0.64759071779E+01  0.18243591675E+04  0.12699999809E+01 0.  1.
       -4    1    3    3    0  502  0.84161945790E+03 -0.16186165420E+04  0.22145108945E+03  0.18377391055E+04  0.12699999809E+01 0. -1.
</event>
<event>
 5   0  0.4700769E-07  0.2745647E+04  0.7818609E-02  0.8320344E-01
        1   -1    0    0  501    0  0.00000000000E+00  0.00000000000E+00  0.14983955771E+04  0.14983955771E+04  0.50400001928E-02 0.  1.
       -1   -1    0    0    0  501  0.00000000000E+00  0.00000000000E+00 -0.12577750228E+04  0.12577750228E+04  0.50400001928E-02 0. -1.
    10030    2    1    2    0    0  0.00000000000E+00  0.00000000000E+00  0.24062055426E+03  0.27561705999E+04  0.27456471231E+04 0.  0.
        3    1    3    3  502    0  0.49890544394E+03 -0.41659915986E+03  0.13341525102E+04  0.14840567485E+04  0.10100000352E+00 0.  1.
       -3    1    3    3    0  502 -0.49890544394E+03  0.41659915986E+03 -0.10935319560E+04  0.12721138514E+04  0.10100000352E+00 0. -1.
</event>
<event>
 5   0  0.1361560E-06  0.3405951E+04  0.7818609E-02  0.8136447E-01
        2   -1    0    0  501    0  0.00000000000E+00  0.00000000000E+00  0.19683474035E+04  0.19683474035E+04  0.25500000920E-02 0.  1.
       -2   -1    0    0    0  501  0.00000000000E+00  0.00000000000E+00 -0.14733811465E+04  0.14733811465E+04  0.25500000920E-02 0. -1.
    10030    2    1    2    0    0  0.00000000000E+00  0.00000000000E+00  0.49496625702E+03  0.34417285500E+04  0.34059512352E+04 0.  0.
        3    1    3    3  502    0  0.81150069367E+03 -0.47728959497E+03  0.16814693485E+04  0.19270905307E+04  0.10100000352E+00 0.  1.
       -3    1    3    3    0  502 -0.81150069367E+03  0.47728959497E+03 -0.11865030915E+04  0.15146380193E+04  0.10100000352E+00 0. -1.
</event>
<event>
 5   0  0.1348388E-06  0.3522963E+04  0.7818609E-02  0.8108369E-01
       -2   -1    0    0    0  501  0.00000000000E+00  0.00000000000E+00  0.11361770319E+04  0.11361770319E+04  0.25500000920E-02 0. -1.
        2   -1    0    0  501    0  0.00000000000E+00  0.00000000000E+00 -0.27309276774E+04  0.27309276774E+04  0.25500000920E-02 0.  1.
    10030    2    1    2    0    0  0.00000000000E+00  0.00000000000E+00 -0.15947506456E+04  0.38671047093E+04  0.35229631294E+04 0.  0.
        5    1    3    3  502    0 -0.10269509474E+04 -0.14289459127E+04 -0.88436674480E+03  0.19694266422E+04  0.46999998093E+01 0. -1.
       -5    1    3    3    0  502  0.10269509474E+04  0.14289459127E+04 -0.71038390077E+03  0.18976780671E+04  0.46999998093E+01 0.  1.
</event>
<event>
 5   0  0.4409125E-07  0.3506743E+04  0.7818609E-02  0.8112194E-01
       -3   -1    0    0    0  501  0.00000000000E+00  0.00000000000E+00  0.24942091996E+04  0.24942092017E+04  0.10100000352E+00 0. -1.
        3   -1    0    0  501    0  0.00000000000E+00  0.00000000000E+00 -0.12325798251E+04  0.12325798293E+04  0.10100000352E+00 0.  1.
    10030    2    1    2    0    0  0.00000000000E+00  0.00000000000E+00  0.12616293745E+04  0.37267890309E+04  0.35067431903E+04 0.  0.
        2    1    3    3  502    0 -0.87790487059E+03  0.13171095197E+04  0.14323401465E+04  0.21347348182E+04  0.25500000920E-02 0. -1.
       -2    1    3    3    0  502  0.87790487059E+03 -0.13171095197E+04 -0.17071077197E+03  0.15920542128E+04  0.25500000920E-02 0.  1.
</event>
<event>
 5   0  0.1442864E-06  0.2630828E+04  0.7818609E-02  0.8357805E-01
       -2   -1    0    0    0  501  0.00000000000E+00  0.00000000000E+00  0.19630580096E+04  0.19630580096E+04  0.25500000920E-02 0.  1.
        2   -1    0    0  501    0  0.00000000000E+00  0.00000000000E+00 -0.88143780050E+03  0.88143780051E+03  0.25500000920E-02 0. -1.
    10030    2    1    2    0    0  0.00000000000E+00  0.00000000000E+00  0.10816202091E+04  0.28444958101E+04  0.26308276525E+04 0.  0.
        1    1    3    3  502    0  0.84869077459E+03  0.16539520146E+03 -0.53100379690E+03  0.10146904138E+04  0.50400001928E-02 0. -1.
       -1    1    3    3    0  502 -0.84869077459E+03 -0.16539520146E+03  0.16126240060E+04  0.18298053963E+04  0.50400001928E-02 0.  1.
</event>
<event>
 5   0  0.4693374E-07  0.3471735E+04  0.7818609E-02  0.8120521E-01
       -1   -1    0    0    0  501  0.00000000000E+00  0.00000000000E+00  0.28717863940E+04  0.28717863940E+04  0.50400001928E-02 0. -1.
        1   -1    0    0  501    0  0.00000000000E+00  0.00000000000E+00 -0.10492552104E+04  0.10492552105E+04  0.50400001928E-02 0.  1.
    10030    2    1    2    0    0  0.00000000000E+00  0.00000000000E+00  0.18225311835E+04  0.39210416044E+04  0.34717354952E+04 0.  0.
        1    1    3    3  502    0  0.13648897510E+04 -0.91803177195E+03  0.28494181753E+03  0.16694005529E+04  0.50400001928E-02 0. -1.
       -1    1    3    3    0  502 -0.13648897510E+04  0.91803177195E+03  0.15375893660E+04  0.22516410515E+04  0.50400001928E-02 0.  1.
</event>
<event>
 5   0  0.1361560E-06  0.3486930E+04  0.7818609E-02  0.8116894E-01
       -2   -1    0    0    0  501  0.00000000000E+00  0.00000000000E+00  0.14550722026E+04  0.14550722026E+04  0.25500000920E-02 0.  1.
        2   -1    0    0  501    0  0.00000000000E+00  0.00000000000E+00 -0.20890170498E+04  0.20890170498E+04  0.25500000920E-02 0. -1.
    10030    2    1    2    0    0  0.00000000000E+00  0.00000000000E+00 -0.63394484717E+03  0.35440892524E+04  0.34869302487E+04 0.  0.
        3    1    3    3  502    0 -0.10448547279E+04  0.67150543429E+03 -0.15605606324E+04  0.19944900221E+04  0.10100000352E+00 0. -1.
       -3    1    3    3    0  502  0.10448547279E+04 -0.67150543429E+03  0.92661578526E+03  0.15495992302E+04  0.10100000352E+00 0.  1.
</event>
<event>
 5   0  0.1387133E-06  0.3278167E+04  0.7818609E-02  0.8168473E-01
       -2   -1    0    0    0  501  0.00000000000E+00  0.00000000000E+00  0.17210581436E+04  0.17210581436E+04  0.25500000920E-02 0. -1.
        2   -1    0    0  501    0  0.00000000000E+00  0.00000000000E+00 -0.15610136721E+04  0.15610136721E+04  0.25500000920E-02 0.  1.
    10030    2    1    2    0    0  0.00000000000E+00  0.00000000000E+00  0.16004447146E+03  0.32820718157E+04  0.32781673494E+04 0.  0.
        4    1    3    3  502    0 -0.98176827698E+03  0.12553864317E+03 -0.12280425053E+04  0.15772504267E+04  0.12699999809E+01 0.  1.
       -4    1    3    3    0  502  0.98176827698E+03 -0.12553864317E+03  0.13880869768E+04  0.17048213891E+04  0.12699999809E+01 0. -1.
</event>
<event>
 5   0  0.1378620E-06  0.3520803E+04  0.7818609E-02  0.8108878E-01
        2   -1    0    0  501    0  0.00000000000E+00  0.00000000000E+00  0.13573278567E+04  0.13573278567E+04  0.25500000920E-02 0. -1.
       -2   -1    0    0    0  501  0.00000000000E+00  0.00000000000E+00 -0.22831719705E+04  0.22831719705E+04  0.25500000920E-02 0.  1.
    10030    2    1    2    0    0  0.00000000000E+00  0.00000000000E+00 -0.92584411379E+03  0.36404998272E+04  0.35208027024E+04 0.  0.
        2    1    3    3  502    0  0.14703350185E+04 -0.95420279200E+03 -0.63164073948E+03  0.18631580874E+04  0.25500000920E-02 0.  1.
       -2    1    3    3    0  502 -0.14703350185E+04  0.95420279200E+03 -0.29420337431E+03  0.17773417399E+04  0.25500000920E-02 0. -1.
</event>
<event>
 5   0  0.1378620E-06  0.3454694E+04  0.7818609E-02  0.8124612E-01
        2   -1    0    0  501    0  0.00000000000E+00  0.00000000000E+00  0.21982090075E+04  0.21982090075E+04  0.25500000920E-02 0.  1.
       -2   -1    0    0    0  501  0.00000000000E+00  0.00000000000E+00 -0.13573448637E+04  0.13573448637E+04  0.25500000920E-02 0. -1.
    10030    2    1    2    0    0  0.00000000000E+00  0.00000000000E+00  0.84086414383E+03  0.35555538712E+04  0.34546940273E+04 0.  0.
        2    1    3    3  502    0 -0.17787982210E+03 -0.21147238978E+03 -0.13344483158E+04  0.13627597405E+04  0.25500000920E-02 0. -1.
       -2    1    3    3    0  502  0.17787982210E+03  0.21147238978E+03  0.21753124596E+04  0.21927941307E+04  0.25500000920E-02 0.  1.
</event>
<event>
 5   0  0.1442864E-06  0.3410185E+04  0.7818609E-02  0.8135411E-01
       -2   -1    0    0    0  501  0.00000000000E+00  0.00000000000E+00  0.16267768917E+04  0.16267768917E+04  0.25500000920E-02 0.  1.
        2   -1    0    0  501    0  0.00000000000E+00  0.00000000000E+00 -0.17871782636E+04  0.17871782636E+04  0.25500000920E-02 0. -1.
    10030    2    1    2    0    0  0.00000000000E+00  0.00000000000E+00 -0.16040137193E+03  0.34139551553E+04  0.34101849220E+04 0.  0.
        1    1    3    3  502    0 -0.94445786293E+03  0.11470143716E+04 -0.91760481558E+03  0.17463221985E+04  0.50400001928E-02 0. -1.
       -1    1    3    3    0  502  0.94445786293E+03 -0.11470143716E+04  0.75720344364E+03  0.16676329568E+04  0.50400001928E-02 0.  1.
</event>
<event>
 5   0  0.4409125E-07  0.3579614E+04  0.7818609E-02  0.8095177E-01
       -3   -1    0    0    0  501  0.00000000000E+00  0.00000000000E+00  0.29880341212E+04  0.29880341229E+04  0.10100000352E+00 0.  1.
        3   -1    0    0  501    0  0.00000000000E+00  0.00000000000E+00 -0.10720788543E+04  0.10720788590E+04  0.10100000352E+00 0. -1.
    10030    2    1    2    0    0  0.00000000000E+00  0.00000000000E+00  0.19159552670E+04  0.40601129820E+04  0.35796135044E+04 0.  0.
        4    1    3    3  502    0 -0.95082692099E+03 -0.50802243229E+03  0.25784807265E+04  0.27947670914E+04  0.12699999809E+01 0.  1.
       -4    1    3    3    0  502  0.95082692099E+03  0.50802243229E+03 -0.66252545950E+03  0.12653458906E+04  0.12699999809E+01 0. -1.
</event>
<event>
 5   0  0.4693374E-07  0.3170618E+04  0.7818609E-02  0.8196620E-01
       -1   -1    0    0    0  501  0.00000000000E+00  0.00000000000E+00  0.12503935505E+04  0.12503935506E+04  0.50400001928E-02 0. -1.
        1   -1    0    0  501    0  0.00000000000E+00  0.00000000000E+00 -0.20099309328E+04  0.20099309328E+04  0.50400001928E-02 0.  1.
    10030    2    1    2    0    0  0.00000000000E+00  0.00000000000E+00 -0.75953738225E+03  0.32603244834E+04  0.31706180315E+04 0.  0.
        1    1    3    3  502    0  0.69054278419E+03 -0.13800212573E+04 -0.75321985094E+03  0.17171628202E+04  0.50400001928E-02 0.  1.
       -1    1    3    3    0  502 -0.69054278419E+03  0.13800212573E+04 -0.63175313087E+01  0.15431616631E+04  0.50400001928E-02 0. -1.
</event>
<event>
 5   0  0.1442864E-06  0.3398626E+04  0.7818609E-02  0.8138244E-01
       -2   -1    0    0    0  501  0.00000000000E+00  0.00000000000E+00  0.13168872338E+04  0.13168872338E+04  0.25500000920E-02 0. -1.
        2   -1    0    0  501    0  0.00000000000E+00  0.00000000000E+00 -0.21927956056E+04  0.21927956056E+04  0.25500000920E-02 0.  1.
    10030    2    1    2    0    0  0.00000000000E+00  0.00000000000E+00 -0.87590837175E+03  0.35096828394E+04  0.33986259220E+04 0.  0.
        1    1    3    3  502    0 -0.14955737764E+04  0.53089439745E+03 -0.10653211967E+04  0.19114128371E+04  0.50400001928E-02 0.  1.
       -1    1    3    3    0  502  0.14955737764E+04 -0.53089439745E+03  0.18941282491E+03  0.15982700023E+04  0.50400001928E-02 0. -1.
</event>
<event>
 5   0  0.4557237E-07  0.3466351E+04  0.7818609E-02  0.8121811E-01
        1   -1    0    0  501    0  0.00000000000E+00  0.00000000000E+00  0.27693476935E+04  0.27693476935E+04  0.50400001928E-02 0. -1.
       -1   -1    0    0    0  501  0.00000000000E+00  0.00000000000E+00 -0.10846949449E+04  0.10846949449E+04  0.50400001928E-02 0.  1.
    10030    2    1    2    0    0  0.00000000000E+00  0.00000000000E+00  0.16846527486E+04  0.38540426385E+04  0.34663510751E+04 0.  0.
        2    1    3    3  502    0  0.74127197606E+03 -0.11467897378E+04 -0.34442696709E+03  0.14082758184E+04  0.25500000920E-02 0.  1.
       -2    1    3    3    0  502 -0.74127197606E+03  0.11467897378E+04  0.20290797157E+04  0.24457668200E+04  0.25500000920E-02 0. -1.
</event>
<event>
 5   0  0.4700769E-07  0.3519493E+04  0.7818609E-02  0.8109186E-01
        1   -1    0    0  501    0  0.00000000000E+00  0.00000000000E+00  0.25765360757E+04  0.25765360757E+04  0.50400001928E-02 0.  1.
       -1   -1    0    0    0  501  0.00000000000E+00  0.00000000000E+00 -0.12018882134E+04  0.12018882134E+04  0.50400001928E-02 0. -1.
    10030    2    1    2    0    0  0.00000000000E+00  0.00000000000E+00  0.13746478623E+04  0.37784242891E+04  0.35194933390E+04 0.  0.
        3    1    3    3  502    0 -0.55529753487E+03  0.12734071145E+04 -0.47232470963E+03  0.14673144425E+04  0.10100000352E+00 0. -1.
       -3    1    3    3    0  502  0.55529753487E+03 -0.12734071145E+04  0.18469725720E+04  0.23111098467E+04  0.10100000352E+00 0.  1.
</event>
<event>
 5   0  0.4591195E-07  0.3581807E+04  0.7818609E-02  0.8094672E-01
        1   -1    0    0  501    0  0.00000000000E+00  0.00000000000E+00  0.12141046365E+04  0.12141046365E+04  0.50400001928E-02 0. -1.
       -1   -1    0    0    0  501  0.00000000000E+00  0.00000000000E+00 -0.26417293127E+04  0.26417293127E+04  0.50400001928E-02 0.  1.
    10030    2    1    2    0    0  0.00000000000E+00  0.00000000000E+00 -0.14276246762E+04  0.38558339492E+04  0.35818072573E+04 0.  0.
        4    1    3    3  502    0 -0.97164559786E+03 -0.40932204748E+03 -0.22722164890E+04  0.25049169831E+04  0.12699999809E+01 0.  1.
       -4    1    3    3    0  502  0.97164559786E+03  0.40932204748E+03  0.84459181280E+03  0.13509169662E+04  0.12699999809E+01 0. -1.
</event>
<event>
 5   0  0.1442864E-06  0.3515108E+04  0.7818609E-02  0.8110219E-01
        2   -1    0    0  501    0  0.00000000000E+00  0.00000000000E+00  0.26412012816E+04  0.26412012816E+04  0.25500000920E-02 0. -1.
       -2   -1    0    0    0  501  0.00000000000E+00  0.00000000000E+00 -0.11695418751E+04  0.11695418751E+04  0.25500000920E-02 0.  1.
    10030    2    1    2    0    0  0.00000000000E+00  0.00000000000E+00  0.14716594065E+04  0.38107431567E+04  0.35151076794E+04 0.  0.
        1    1    3    3  502    0  0.17257447647E+04 -0.95263481537E+02  0.10815984185E+04  0.20389029557E+04  0.50400001928E-02 0. -1.
       -1    1    3    3    0  502 -0.17257447647E+04  0.95263481537E+02  0.39006098800E+03  0.17718402011E+04  0.50400001928E-02 0.  1.
</event>
<event>
 5   0  0.4557237E-07  0.3486930E+04  0.7818609E-02  0.8116894E-01
       -1   -1    0    0    0  501  0.00000000000E+00  0.00000000000E+00  0.14711932715E+04  0.14711932715E+04  0.50400001928E-02 0. -1.
        1   -1    0    0  501    0  0.00000000000E+00  0.00000000000E+00 -0.20661256942E+04  0.20661256942E+04  0.50400001928E-02 0.  1.
    10030    2    1    2    0    0  0.00000000000E+00  0.00000000000E+00 -0.59493242262E+03  0.35373189657E+04  0.34869300076E+04 0.  0.
        2    1    3    3  502    0  0.16070865619E+04 -0.36783742037E+03  0.27786124104E+03  0.16718966638E+04  0.25500000920E-02 0.  1.
       -2    1    3    3    0  502 -0.16070865619E+04  0.36783742037E+03 -0.87279366366E+03  0.18654223019E+04  0.25500000920E-02 0. -1.
</event>
<event>
 5   0  0.4409125E-07  0.3438854E+04  0.7818609E-02  0.8128436E-01
       -1   -1    0    0    0  501  0.00000000000E+00  0.00000000000E+00  0.99253929864E+03  0.99253929865E+03  0.50400001928E-02 0. -1.
        1   -1    0    0  501    0  0.00000000000E+00  0.00000000000E+00 -0.29786513170E+04  0.29786513170E+04  0.50400001928E-02 0.  1.
    10030    2    1    2    0    0  0.00000000000E+00  0.00000000000E+00 -0.19861120184E+04  0.39711906157E+04  0.34388535817E+04 0.  0.
        5    1    3    3  502    0 -0.13253528005E+04 -0.48382176990E+03 -0.21279160275E+04  0.25531729790E+04  0.46999998093E+01 0.  1.
       -5    1    3    3    0  502  0.13253528005E+04  0.48382176990E+03  0.14180400913E+03  0.14180176366E+04  0.46999998093E+01 0. -1.
</event>
<event>
 5   0  0.4409125E-07  0.3446447E+04  0.7818609E-02  0.8126600E-01
       -1   -1    0    0    0  501  0.00000000000E+00  0.00000000000E+00  0.11605459454E+04  0.11605459454E+04  0.50400001928E-02 0.  1.
        1   -1    0    0  501    0  0.00000000000E+00  0.00000000000E+00 -0.25587095738E+04  0.25587095739E+04  0.50400001928E-02 0. -1.
    10030    2    1    2    0    0  0.00000000000E+00  0.00000000000E+00 -0.13981636284E+04  0.37192555193E+04  0.34464474587E+04 0.  0.
        5    1    3    3  502    0 -0.28610946381E+03 -0.10812629085E+04  0.71559695900E+03  0.13278136919E+04  0.46999998093E+01 0.  1.
       -5    1    3    3    0  502  0.28610946381E+03  0.10812629085E+04 -0.21137605874E+04  0.23914418274E+04  0.46999998093E+01 0. -1.
</event>
<event>
 5   0  0.1442864E-06  0.3542657E+04  0.7818609E-02  0.8103755E-01
        2   -1    0    0  501    0  0.00000000000E+00  0.00000000000E+00  0.15093672394E+04  0.15093672394E+04  0.25500000920E-02 0. -1.
       -2   -1    0    0    0  501  0.00000000000E+00  0.00000000000E+00 -0.20787543904E+04  0.20787543904E+04  0.25500000920E-02 0.  1.
    10030    2    1    2    0    0  0.00000000000E+00  0.00000000000E+00 -0.56938715101E+03  0.35881216297E+04  0.35426565035E+04 0.  0.
        1    1    3    3  502    0  0.14324116332E+03 -0.98126603015E+03  0.12018628430E+04  0.15581640947E+04  0.50400001928E-02 0. -1.
       -1    1    3    3    0  502 -0.14324116332E+03  0.98126603015E+03 -0.17712499940E+04  0.20299575350E+04  0.50400001928E-02 0.  1.
</event>
<event>
 5   0  0.4409125E-07  0.3516077E+04  0.7818609E-02  0.8109990E-01
       -1   -1    0    0    0  501  0.00000000000E+00  0.00000000000E+00  0.17602349871E+04  0.17602349871E+04  0.50400001928E-02 0. -1.
        1   -1    0    0  501    0  0.00000000000E+00  0.00000000000E+00 -0.17558450758E+04  0.17558450758E+04  0.50400001928E-02 0.  1.
    10030    2    1    2    0    0  0.00000000000E+00  0.00000000000E+00  0.43899113092E+01  0.35160800628E+04  0.35160773224E+04 0.  0.
        5    1    3    3  502    0  0.10328320967E+04  0.10586242671E+04  0.95259054341E+03  0.17592266234E+04  0.46999998093E+01 0. -1.
       -5    1    3    3    0  502 -0.10328320967E+04 -0.10586242671E+04 -0.94820063210E+03  0.17568534395E+04  0.46999998093E+01 0.  1.
</event>
<event>
 5   0  0.1378620E-06  0.3018119E+04  0.7818609E-02  0.8238576E-01
        2   -1    0    0  501    0  0.00000000000E+00  0.00000000000E+00  0.96289627996E+03  0.96289627997E+03  0.25500000920E-02 0.  1.
       -2   -1    0    0    0  501  0.00000000000E+00  0.00000000000E+00 -0.23650117174E+04  0.23650117174E+04  0.25500000920E-02 0. -1.
    10030    2    1    2    0    0  0.00000000000E+00  0.00000000000E+00 -0.14021154374E+04  0.33279079973E+04  0.30181192718E+04 0.  0.
        2    1    3    3  502    0  0.33259840977E+03  0.81640672913E+03 -0.20515677590E+04  0.22329513920E+04  0.25500000920E-02 0. -1.
       -2    1    3    3    0  502 -0.33259840977E+03 -0.81640672913E+03  0.64945232155E+03  0.10949566053E+04  0.25500000920E-02 0.  1.
</event>
<event>
 5   0  0.4557237E-07  0.3451753E+04  0.7818609E-02  0.8125320E-01
       -1   -1    0    0    0  501  0.00000000000E+00  0.00000000000E+00  0.13005867777E+04  0.13005867777E+04  0.50400001928E-02 0.  1.
        1   -1    0    0  501    0  0.00000000000E+00  0.00000000000E+00 -0.22902350455E+04  0.22902350455E+04  0.50400001928E-02 0. -1.
    10030    2    1    2    0    0  0.00000000000E+00  0.00000000000E+00 -0.98964826782E+03  0.35908218233E+04  0.34517528406E+04 0.  0.
        2    1    3    3  502    0 -0.44928068555E+03  0.16433269940E+04 -0.78212613637E+03  0.18745927656E+04  0.25500000920E-02 0. -1.
       -2    1    3    3    0  502  0.44928068555E+03 -0.16433269940E+04 -0.20752213145E+03  0.17162290577E+04  0.25500000920E-02 0.  1.
</event>
<event>
 5   0  0.1348388E-06  0.3509311E+04  0.7818609E-02  0.8111587E-01
        2   -1    0    0  501    0  0.00000000000E+00  0.00000000000E+00  0.13351860158E+04  0.13351860158E+04  0.25500000920E-02 0. -1.
       -2   -1    0    0    0  501  0.00000000000E+00  0.00000000000E+00 -0.23059079933E+04  0.23059079933E+04  0.25500000920E-02 0.  1.
    10030    2    1    2    0    0  0.00000000000E+00  0.00000000000E+00 -0.97072197752E+03  0.36410940090E+04  0.35093111040E+04 0.  0.
        5    1    3    3  502    0 -0.53857569426E+02 -0.11500969817E+04  0.88843446631E+03  0.14542907536E+04  0.46999998093E+01 0. -1.
       -5    1    3    3    0  502  0.53857569426E+02  0.11500969817E+04 -0.18591564438E+04  0.21868032554E+04  0.46999998093E+01 0.  1.
</event>
<event>
 5   0  0.1387133E-06  0.3523895E+04  0.7818609E-02  0.8108150E-01
        2   -1    0    0  501    0  0.00000000000E+00  0.00000000000E+00  0.14131193046E+04  0.14131193046E+04  0.25500000920E-02 0.  1.
       -2   -1    0    0    0  501  0.00000000000E+00  0.00000000000E+00 -0.21968835932E+04  0.21968835932E+04  0.25500000920E-02 0. -1.
    10030    2    1    2    0    0  0.00000000000E+00  0.00000000000E+00 -0.78376428859E+03  0.36100028979E+04  0.35238947860E+04 0.  0.
        4    1    3    3  502    0  0.79291822505E+03 -0.12581934566E+04  0.57602612981E+03  0.15948598060E+04  0.12699999809E+01 0.  1.
       -4    1    3    3    0  502 -0.79291822505E+03  0.12581934566E+04 -0.13597904184E+04  0.20151430918E+04  0.12699999809E+01 0. -1.
</event>
<event>
 5   0  0.1387133E-06  0.3521578E+04  0.7818609E-02  0.8108695E-01
        2   -1    0    0  501    0  0.00000000000E+00  0.00000000000E+00  0.18413259750E+04  0.18413259750E+04  0.25500000920E-02 0.  1.
       -2   -1    0    0    0  501  0.00000000000E+00  0.00000000000E+00 -0.16837744115E+04  0.16837744115E+04  0.25500000920E-02 0. -1.
    10030    2    1    2    0    0  0.00000000000E+00  0.00000000000E+00  0.15755156350E+03  0.35251003864E+04  0.35215778053E+04 0.  0.
        4    1    3    3  502    0  0.10978135896E+04  0.84379533767E+02  0.14542176930E+04  0.18240244776E+04  0.12699999809E+01 0.  1.
       -4    1    3    3    0  502 -0.10978135896E+04 -0.84379533767E+02 -0.12966661295E+04  0.17010759088E+04  0.12699999809E+01 0. -1.
</event>
<event>
 5   0  0.4409125E-07  0.3007058E+04  0.7818609E-02  0.8241718E-01
        3   -1    0    0  501    0  0.00000000000E+00  0.00000000000E+00  0.12317919281E+04  0.12317919322E+04  0.10100000352E+00 0. -1.
       -3   -1    0    0    0  501  0.00000000000E+00  0.00000000000E+00 -0.18352123747E+04  0.18352123775E+04  0.10100000352E+00 0.  1.
    10030    2    1    2    0    0  0.00000000000E+00  0.00000000000E+00 -0.60342044662E+03  0.30670043097E+04  0.30070582303E+04 0.  0.
        4    1    3    3  502    0 -0.13980086747E+04 -0.54922405503E+03 -0.37030319165E+03  0.15469975384E+04  0.12699999809E+01 0.  1.
       -4    1    3    3    0  502  0.13980086747E+04  0.54922405503E+03 -0.23311725497E+03  0.15200067713E+04  0.12699999809E+01 0. -1.
</event>
<event>
 5   0  0.4409125E-07  0.3476282E+04  0.7818609E-02  0.8119434E-01
       -3   -1    0    0    0  501  0.00000000000E+00  0.00000000000E+00  0.13621125048E+04  0.13621125086E+04  0.10100000352E+00 0.  1.
        3   -1    0    0  501    0  0.00000000000E+00  0.00000000000E+00 -0.22179773426E+04  0.22179773449E+04  0.10100000352E+00 0. -1.
    10030    2    1    2    0    0  0.00000000000E+00  0.00000000000E+00 -0.85586483778E+03  0.35800898535E+04  0.34762823157E+04 0.  0.
        5    1    3    3  502    0  0.95116776321E+03 -0.14527863047E+04 -0.34947052047E+03  0.17712876378E+04  0.46999998093E+01 0.  1.
       -5    1    3    3    0  502 -0.95116776321E+03  0.14527863047E+04 -0.50639431731E+03  0.18088022157E+04  0.46999998093E+01 0. -1.
</event>
<event>
 5   0  0.4409125E-07  0.3500500E+04  0.7818609E-02  0.8113672E-01
        1   -1    0    0  501    0  0.00000000000E+00  0.00000000000E+00  0.15316725270E+04  0.15316725270E+04  0.50400001928E-02 0. -1.
       -1   -1    0    0    0  501  0.00000000000E+00  0.00000000000E+00 -0.20000190321E+04  0.20000190321E+04  0.50400001928E-02 0.  1.
    10030    2    1    2    0    0  0.00000000000E+00  0.00000000000E+00 -0.46834650509E+03  0.35316915592E+04  0.35004995101E+04 0.  0.
        5    1    3    3  502    0  0.26397469665E+03 -0.16841309818E+04 -0.63440995061E+03  0.18189221753E+04  0.46999998093E+01 0.  1.
       -5    1    3    3    0  502 -0.26397469665E+03  0.16841309818E+04  0.16606344551E+03  0.17127693839E+04  0.46999998093E+01 0. -1.
</event>
<event>
 5   0  0.1387133E-06  0.2829782E+04  0.7818609E-02  0.8294081E-01
        2   -1    0    0  501    0  0.00000000000E+00  0.00000000000E+00  0.17934937473E+04  0.17934937473E+04  0.25500000920E-02 0.  1.
       -2   -1    0    0    0  501  0.00000000000E+00  0.00000000000E+00 -0.11162106815E+04  0.11162106815E+04  0.25500000920E-02 0. -1.
    10030    2    1    2    0    0  0.00000000000E+00  0.00000000000E+00  0.67728306576E+03  0.29097044288E+04  0.28297822376E+04 0.  0.
        4    1    3    3  502    0 -0.11147281559E+04  0.31411126225E+03 -0.49710613836E+03  0.12603177664E+04  0.12699999809E+01 0. -1.
       -4    1    3    3    0  502  0.11147281559E+04 -0.31411126225E+03  0.11743892041E+04  0.16493866624E+04  0.12699999809E+01 0.  1.
</event>
<event>
 5   0  0.1348388E-06  0.3508944E+04  0.7818609E-02  0.8111674E-01
        2   -1    0    0  501    0  0.00000000000E+00  0.00000000000E+00  0.15396646464E+04  0.15396646464E+04  0.25500000920E-02 0. -1.
       -2   -1    0    0    0  501  0.00000000000E+00  0.00000000000E+00 -0.19992485210E+04  0.19992485210E+04  0.25500000920E-02 0.  1.
    10030    2    1    2    0    0  0.00000000000E+00  0.00000000000E+00 -0.45958387464E+03  0.35389131674E+04  0.35089441530E+04 0.  0.
        5    1    3    3  502    0  0.15850509605E+04  0.10958135296E+03 -0.98029505248E+03  0.18669212892E+04  0.46999998093E+01 0.  1.
       -5    1    3    3    0  502 -0.15850509605E+04 -0.10958135296E+03  0.52071117784E+03  0.16719918782E+04  0.46999998093E+01 0. -1.
</event>
<event>
 5   0  0.4409125E-07  0.3509742E+04  0.7818609E-02  0.8111485E-01
       -1   -1    0    0    0  501  0.00000000000E+00  0.00000000000E+00  0.18472757024E+04  0.18472757024E+04  0.50400001928E-02 0.  1.
        1   -1    0    0  501    0  0.00000000000E+00  0.00000000000E+00 -0.16670890291E+04  0.16670890291E+04  0.50400001928E-02 0. -1.
    10030    2    1    2    0    0  0.00000000000E+00  0.00000000000E+00  0.18018667330E+03  0.35143647316E+04  0.35097424734E+04 0.  0.
        5    1    3    3  502    0 -0.26020956421E+03  0.11736493576E+04 -0.11900226282E+04  0.16915489285E+04  0.46999998093E+01 0. -1.
       -5    1    3    3    0  502  0.26020956421E+03 -0.11736493576E+04  0.13702093015E+04  0.18228158031E+04  0.46999998093E+01 0.  1.
</event>
<event>
 5   0  0.1387133E-06  0.3448554E+04  0.7818609E-02  0.8126091E-01
       -2   -1    0    0    0  501  0.00000000000E+00  0.00000000000E+00  0.91018565188E+03  0.91018565188E+03  0.25500000920E-02 0.  1.
        2   -1    0    0  501    0  0.00000000000E+00  0.00000000000E+00 -0.32665105165E+04  0.32665105165E+04  0.25500000920E-02 0. -1.
    10030    2    1    2    0    0  0.00000000000E+00  0.00000000000E+00 -0.23563248646E+04  0.41766961684E+04  0.34485539020E+04 0.  0.
        4    1    3    3  502    0  0.67947227460E+02 -0.94933231449E+03  0.56322574934E+03  0.11059265467E+04  0.12699999809E+01 0.  1.
       -4    1    3    3    0  502 -0.67947227460E+02  0.94933231449E+03 -0.29195506139E+04  0.30707696217E+04  0.12699999809E+01 0. -1.
</event>
<event>
 5   0  0.1442864E-06  0.3262721E+04  0.7818609E-02  0.8172446E-01
       -2   -1    0    0    0  501  0.00000000000E+00  0.00000000000E+00  0.15289778504E+04  0.15289778505E+04  0.25500000920E-02 0. -1.
        2   -1    0    0  501    0  0.00000000000E+00  0.00000000000E+00 -0.17405990059E+04  0.17405990059E+04  0.25500000920E-02 0.  1.
    10030    2    1    2    0    0  0.00000000000E+00  0.00000000000E+00 -0.21162115546E+03  0.32695768564E+04  0.32627211505E+04 0.  0.
        1    1    3    3  502    0  0.44966161289E+03 -0.23622802968E+03 -0.16593383662E+04  0.17353394658E+04  0.50400001928E-02 0.  1.
       -1    1    3    3    0  502 -0.44966161289E+03  0.23622802968E+03  0.14477172108E+04  0.15342373905E+04  0.50400001928E-02 0. -1.
</event>
<event>
 5   0  0.4700769E-07  0.3474568E+04  0.7818609E-02  0.8119843E-01
       -1   -1    0    0    0  501  0.00000000000E+00  0.00000000000E+00  0.19988142763E+04  0.19988142763E+04  0.50400001928E-02 0. -1.
        1   -1    0    0  501    0  0.00000000000E+00  0.00000000000E+00 -0.15099733527E+04  0.15099733527E+04  0.50400001928E-02 0.  1.
    10030    2    1    2    0    0  0.00000000000E+00  0.00000000000E+00  0.48884092353E+03  0.35087876290E+04  0.34745683440E+04 0.  0.
        3    1    3    3  502    0 -0.98175583340E+03 -0.79904335065E+03 -0.95718956103E+03  0.15869866599E+04  0.10100000352E+00 0. -1.
       -3    1    3    3    0  502  0.98175583340E+03  0.79904335065E+03  0.14460304846E+04  0.19218009692E+04  0.10100000352E+00 0.  1.
</event>
<event>
 5   0  0.1361560E-06  0.3366835E+04  0.7818609E-02  0.8146094E-01
        2   -1    0    0  501    0  0.00000000000E+00  0.00000000000E+00  0.20441210935E+04  0.20441210935E+04  0.25500000920E-02 0. -1.
       -2   -1    0    0    0  501  0.00000000000E+00  0.00000000000E+00 -0.13863636127E+04  0.13863636127E+04  0.25500000920E-02 0.  1.
    10030    2    1    2    0    0  0.00000000000E+00  0.00000000000E+00  0.65775748079E+03  0.34304847062E+04  0.33668353711E+04 0.  0.
        3    1    3    3  502    0  0.13129555373E+04  0.34419412477E+03 -0.68572394770E+03  0.15207035152E+04  0.10100000352E+00 0.  1.
       -3    1    3    3    0  502 -0.13129555373E+04 -0.34419412477E+03  0.13434814285E+04  0.19097811910E+04  0.10100000352E+00 0. -1.
</event>
<event>
 5   0  0.4700769E-07  0.3485294E+04  0.7818609E-02  0.8117284E-01
       -1   -1    0    0    0  501  0.00000000000E+00  0.00000000000E+00  0.22308766041E+04  0.22308766041E+04  0.50400001928E-02 0.  1.
        1   -1    0    0  501    0  0.00000000000E+00  0.00000000000E+00 -0.13612667547E+04  0.13612667548E+04  0.50400001928E-02 0. -1.
    10030    2    1    2    0    0  0.00000000000E+00  0.00000000000E+00  0.86960984937E+03  0.35921433589E+04  0.34852937639E+04 0.  0.
        3    1    3    3  502    0 -0.10377106466E+04  0.10861989364E+04  0.13451423334E+04  0.20164521871E+04  0.10100000352E+00 0.  1.
       -3    1    3    3    0  502  0.10377106466E+04 -0.10861989364E+04 -0.47553248404E+03  0.15756911718E+04  0.10100000352E+00 0. -1.
</event>
<event>
 5   0  0.4409125E-07  0.3451572E+04  0.7818609E-02  0.8125363E-01
       -1   -1    0    0    0  501  0.00000000000E+00  0.00000000000E+00  0.15049317714E+04  0.15049317714E+04  0.50400001928E-02 0. -1.
        1   -1    0    0  501    0  0.00000000000E+00  0.00000000000E+00 -0.19790519138E+04  0.19790519138E+04  0.50400001928E-02 0.  1.
    10030    2    1    2    0    0  0.00000000000E+00  0.00000000000E+00 -0.47412014241E+03  0.34839836853E+04  0.34515724547E+04 0.  0.
        5    1    3    3  502    0  0.12177566145E+03 -0.32620627806E+03  0.14691009947E+04  0.15098078255E+04  0.46999998093E+01 0. -1.
       -5    1    3    3    0  502 -0.12177566145E+03  0.32620627806E+03 -0.19432211371E+04  0.19741758597E+04  0.46999998093E+01 0.  1.
</event>
<event>
 5   0  0.4693374E-07  0.3580443E+04  0.7818609E-02  0.8094986E-01
       -1   -1    0    0    0  501  0.00000000000E+00  0.00000000000E+00  0.13235576469E+04  0.13235576469E+04  0.50400001928E-02 0. -1.
        1   -1    0    0  501    0  0.00000000000E+00  0.00000000000E+00 -0.24214225809E+04  0.24214225809E+04  0.50400001928E-02 0.  1.
    10030    2    1    2    0    0  0.00000000000E+00  0.00000000000E+00 -0.10978649340E+04  0.37449802278E+04  0.35804426393E+04 0.  0.
        1    1    3    3  502    0  0.89742027141E+03 -0.47910076623E+03 -0.20897167636E+04  0.23241808966E+04  0.50400001928E-02 0.  1.
       -1    1    3    3    0  502 -0.89742027141E+03  0.47910076623E+03  0.99185182962E+03  0.14207993312E+04  0.50400001928E-02 0. -1.
</event>
<event>
 5   0  0.4693374E-07  0.3482927E+04  0.7818609E-02  0.8117848E-01
        1   -1    0    0  501    0  0.00000000000E+00  0.00000000000E+00  0.17848824582E+04  0.17848824582E+04  0.50400001928E-02 0. -1.
       -1   -1    0    0    0  501  0.00000000000E+00  0.00000000000E+00 -0.16991003748E+04  0.16991003748E+04  0.50400001928E-02 0.  1.
    10030    2    1    2    0    0  0.00000000000E+00  0.00000000000E+00  0.85782083440E+02  0.34839828330E+04  0.34829266163E+04 0.  0.
        1    1    3    3  502    0 -0.86624256304E+03 -0.14880999430E+04 -0.21771979743E+03  0.17355746969E+04  0.50400001928E-02 0.  1.
       -1    1    3    3    0  502  0.86624256304E+03  0.14880999430E+04  0.30350188087E+03  0.17484081360E+04  0.50400001928E-02 0. -1.
</event>
<event>
 5   0  0.1361560E-06  0.3013316E+04  0.7818609E-02  0.8239939E-01
        2   -1    0    0  501    0  0.00000000000E+00  0.00000000000E+00  0.18975704108E+04  0.18975704108E+04  0.25500000920E-02 0.  1.
       -2   -1    0    0    0  501  0.00000000000E+00  0.00000000000E+00 -0.11962761638E+04  0.11962761638E+04  0.25500000920E-02 0. -1.
    10030    2    1    2    0    0  0.00000000000E+00  0.00000000000E+00  0.70129424699E+03  0.30938465747E+04  0.30133159487E+04 0.  0.
        3    1    3    3  502    0 -0.14742078274E+04 -0.15408963705E+03  0.62802614229E+03  0.16097978693E+04  0.10100000352E+00 0.  1.
       -3    1    3    3    0  502  0.14742078274E+04  0.15408963705E+03  0.73268104702E+02  0.14840487054E+04  0.10100000352E+00 0. -1.
</event>
<event>
 5   0  0.4693374E-07  0.3499873E+04  0.7818609E-02  0.8113820E-01
        1   -1    0    0  501    0  0.00000000000E+00  0.00000000000E+00  0.16810266793E+04  0.16810266793E+04  0.50400001928E-02 0. -1.
       -1   -1    0    0    0  501  0.00000000000E+00  0.00000000000E+00 -0.18216714830E+04  0.18216714830E+04  0.50400001928E-02 0.  1.
    10030    2    1    2    0    0  0.00000000000E+00  0.00000000000E+00 -0.14064480367E+03  0.35026981623E+04  0.34998733485E+04 0.  0.
        1    1    3    3  502    0 -0.41553259585E+03 -0.12215407410E+03  0.16265369655E+04  0.16832146198E+04  0.50400001928E-02 0. -1.
       -1    1    3    3    0  502  0.41553259585E+03  0.12215407410E+03 -0.17671817692E+04  0.18194835425E+04  0.50400001928E-02 0.  1.
</event>
<event>
 5   0  0.4557237E-07  0.3532471E+04  0.7818609E-02  0.8106137E-01
        1   -1    0    0  501    0  0.00000000000E+00  0.00000000000E+00  0.14066541566E+04  0.14066541566E+04  0.50400001928E-02 0.  1.
       -1   -1    0    0    0  501  0.00000000000E+00  0.00000000000E+00 -0.22177368223E+04  0.22177368223E+04  0.50400001928E-02 0. -1.
    10030    2    1    2    0    0  0.00000000000E+00  0.00000000000E+00 -0.81108266569E+03  0.36243909789E+04  0.35324714970E+04 0.  0.
        2    1    3    3  502    0 -0.30850103597E+03  0.16905975012E+04 -0.82394662615E+03  0.19058281253E+04  0.25500000920E-02 0.  1.
       -2    1    3    3    0  502  0.30850103597E+03 -0.16905975012E+04  0.12863960457E+02  0.17185628536E+04  0.25500000920E-02 0. -1.
</event>
<event>
 5   0  0.4409125E-07  0.3483155E+04  0.7818609E-02  0.8117794E-01
        1   -1    0    0  501    0  0.00000000000E+00  0.00000000000E+00  0.15675217178E+04  0.15675217178E+04  0.50400001928E-02 0. -1.
       -1   -1    0    0    0  501  0.00000000000E+00  0.00000000000E+00 -0.19349605312E+04  0.19349605312E+04  0.50400001928E-02 0.  1.
    10030    2    1    2    0    0  0.00000000000E+00  0.00000000000E+00 -0.36743881338E+03  0.35024822490E+04  0.34831552683E+04 0.  0.
        5    1    3    3  502    0 -0.79755354399E+03 -0.97653108037E+03  0.10243484741E+04  0.16245049994E+04  0.46999998093E+01 0. -1.
       -5    1    3    3    0  502  0.79755354399E+03  0.97653108037E+03 -0.13917872875E+04  0.18779772496E+04  0.46999998093E+01 0.  1.
</event>
<event>
 5   0  0.1442864E-06  0.3592149E+04  0.7818609E-02  0.8092292E-01
       -2   -1    0    0    0  501  0.00000000000E+00  0.00000000000E+00  0.13889525981E+04  0.13889525981E+04  0.25500000920E-02 0.  1.
        2   -1    0    0  501    0  0.00000000000E+00  0.00000000000E+00 -0.23225299398E+04  0.23225299398E+04  0.25500000920E-02 0. -1.
    10030    2    1    2    0    0  0.00000000000E+00  0.00000000000E+00 -0.93357734172E+03  0.37114825379E+04  0.35921492141E+04 0.  0.
        1    1    3    3  502    0 -0.75999785917E+03 -0.97229305008E+03  0.88152796852E+03  0.15165889623E+04  0.50400001928E-02 0.  1.
       -1    1    3    3    0  502  0.75999785917E+03  0.97229305008E+03 -0.18151053102E+04  0.21948935757E+04  0.50400001928E-02 0. -1.
</event>
<event>
 5   0  0.1361560E-06  0.3614823E+04  0.7818609E-02  0.8087105E-01
       -2   -1    0    0    0  501  0.00000000000E+00  0.00000000000E+00  0.16143133059E+04  0.16143133059E+04  0.25500000920E-02 0. -1.
        2   -1    0    0  501    0  0.00000000000E+00  0.00000000000E+00 -0.20236076705E+04  0.20236076705E+04  0.25500000920E-02 0.  1.
    10030    2    1    2    0    0  0.00000000000E+00  0.00000000000E+00 -0.40929436458E+03  0.36379209764E+04  0.36148232534E+04 0.  0.
        3    1    3    3  502    0  0.12882286181E+04 -0.42187151132E+03  0.99849509319E+03  0.16835976377E+04  0.10100000352E+00 0.  1.
       -3    1    3    3    0  502 -0.12882286181E+04  0.42187151132E+03 -0.14077894578E+04  0.19543233387E+04  0.10100000352E+00 0. -1.
</event>
<event>
 5   0  0.4693374E-07  0.3496949E+04  0.7818609E-02  0.8114513E-01
       -1   -1    0    0    0  501  0.00000000000E+00  0.00000000000E+00  0.11720929580E+04  0.11720929580E+04  0.50400001928E-02 0.  1.
        1   -1    0    0  501    0  0.00000000000E+00  0.00000000000E+00 -0.26082943857E+04  0.26082943857E+04  0.50400001928E-02 0. -1.
    10030    2    1    2    0    0  0.00000000000E+00  0.00000000000E+00 -0.14362014277E+04  0.37803873437E+04  0.34969492315E+04 0.  0.
        1    1    3    3  502    0 -0.17424959300E+04  0.22877616038E+01 -0.87426023515E+03  0.19495200073E+04  0.50400001928E-02 0.  1.
       -1    1    3    3    0  502  0.17424959300E+04 -0.22877616038E+01 -0.56194119252E+03  0.18308673365E+04  0.50400001928E-02 0. -1.
</event>
<event>
 5   0  0.4557237E-07  0.3475808E+04  0.7818609E-02  0.8119547E-01
       -1   -1    0    0    0  501  0.00000000000E+00  0.00000000000E+00  0.11091674358E+04  0.11091674359E+04  0.50400001928E-02 0.  1.
        1   -1    0    0  501    0  0.00000000000E+00  0.00000000000E+00 -0.27230423722E+04  0.27230423722E+04  0.50400001928E-02 0. -1.
    10030    2    1    2    0    0  0.00000000000E+00  0.00000000000E+00 -0.16138749363E+04  0.38322098080E+04  0.34758077770E+04 0.  0.
        2    1    3    3  502    0  0.13426433008E+04 -0.10122779352E+04 -0.12911917372E+04  0.21200409792E+04  0.25500000920E-02 0. -1.
       -2    1    3    3    0  502 -0.13426433008E+04  0.10122779352E+04 -0.32268319918E+03  0.17121688288E+04  0.25500000920E-02 0.  1.
</event>
<event>
 5   0  0.4591195E-07  0.2633294E+04  0.7818609E-02  0.8356979E-01
        1   -1    0    0  501    0  0.00000000000E+00  0.00000000000E+00  0.86112552952E+03  0.86112552953E+03  0.50400001928E-02 0.  1.
       -1   -1    0    0    0  501  0.00000000000E+00  0.00000000000E+00 -0.20131320894E+04  0.20131320894E+04  0.50400001928E-02 0. -1.
    10030    2    1    2    0    0  0.00000000000E+00  0.00000000000E+00 -0.11520065599E+04  0.28742576190E+04  0.26332940865E+04 0.  0.
        4    1    3    3  502    0  0.14742258858E+03 -0.12082568492E+04 -0.11238697338E+04  0.16567144669E+04  0.12699999809E+01 0. -1.
       -4    1    3    3    0  502 -0.14742258858E+03  0.12082568492E+04 -0.28136826078E+02  0.12175431521E+04  0.12699999809E+01 0.  1.
</event>
<event>
 5   0  0.4700769E-07  0.3512182E+04  0.7818609E-02  0.8110909E-01
       -1   -1    0    0    0  501  0.00000000000E+00  0.00000000000E+00  0.15972036813E+04  0.15972036813E+04  0.50400001928E-02 0. -1.
        1   -1    0    0  501    0  0.00000000000E+00  0.00000000000E+00 -0.19307845323E+04  0.19307845323E+04  0.50400001928E-02 0.  1.
    10030    2    1    2    0    0  0.00000000000E+00  0.00000000000E+00 -0.33358085102E+03  0.35279882136E+04  0.35121823203E+04 0.  0.
        3    1    3    3  502    0  0.68908972098E+03  0.84153188130E+03 -0.15517029789E+04  0.18949413436E+04  0.10100000352E+00 0.  1.
       -3    1    3    3    0  502 -0.68908972098E+03 -0.84153188130E+03  0.12181221279E+04  0.16330468699E+04  0.10100000352E+00 0. -1.
</event>
<event>
 5   0  0.4693374E-07  0.3406400E+04  0.7818609E-02  0.8136337E-01
        1   -1    0    0  501    0  0.00000000000E+00  0.00000000000E+00  0.21649367650E+04  0.21649367650E+04  0.50400001928E-02 0.  1.
       -1   -1    0    0    0  501  0.00000000000E+00  0.00000000000E+00 -0.13399424776E+04  0.13399424776E+04  0.50400001928E-02 0. -1.
    10030    2    1    2    0    0  0.00000000000E+00  0.00000000000E+00  0.82499428741E+03  0.35048792427E+04  0.34064002894E+04 0.  0.
        1    1    3    3  502    0  0.17992710077E+03 -0.16816215411E+04  0.20500917809E+03  0.17036001680E+04  0.50400001928E-02 0.  1.
       -1    1    3    3    0  502 -0.17992710077E+03  0.16816215411E+04  0.61998510932E+03  0.18012790747E+04  0.50400001928E-02 0. -1.
</event>
<event>
 5   0  0.1387133E-06  0.3381286E+04  0.7818609E-02  0.8142515E-01
        2   -1    0    0  501    0  0.00000000000E+00  0.00000000000E+00  0.30612725283E+04  0.30612725283E+04  0.25500000920E-02 0. -1.
       -2   -1    0    0    0  501  0.00000000000E+00  0.00000000000E+00 -0.93368825250E+03  0.93368825250E+03  0.25500000920E-02 0.  1.
    10030    2    1    2    0    0  0.00000000000E+00  0.00000000000E+00  0.21275842758E+04  0.39949607808E+04  0.33812862626E+04 0.  0.
        4    1    3    3  502    0 -0.13305398305E+04 -0.10056402755E+04  0.13908412195E+04  0.21716559384E+04  0.12699999809E+01 0.  1.
       -4    1    3    3    0  502  0.13305398305E+04  0.10056402755E+04  0.73674305625E+03  0.18233048423E+04  0.12699999809E+01 0. -1.
</event>
<event>
 5   0  0.1387133E-06  0.3488680E+04  0.7818609E-02  0.8116478E-01
        2   -1    0    0  501    0  0.00000000000E+00  0.00000000000E+00  0.24007628349E+04  0.24007628349E+04  0.25500000920E-02 0.  1.
       -2   -1    0    0    0  501  0.00000000000E+00  0.00000000000E+00 -0.12673982980E+04  0.12673982980E+04  0.25500000920E-02 0. -1.
    10030    2    1    2    0    0  0.00000000000E+00  0.00000000000E+00  0.11333645369E+04  0.36681611329E+04  0.34886803986E+04 0.  0.
        4    1    3    3  502    0  0.60194307408E+03  0.10181117728E+04  0.19147639541E+04  0.22506020659E+04  0.12699999809E+01 0.  1.
       -4    1    3    3    0  502 -0.60194307408E+03 -0.10181117728E+04 -0.78139941716E+03  0.14175590670E+04  0.12699999809E+01 0. -1.
</event>
<event>
 5   0  0.4700769E-07  0.3420826E+04  0.7818609E-02  0.8132814E-01
       -1   -1    0    0    0  501  0.00000000000E+00  0.00000000000E+00  0.16221678835E+04  0.16221678835E+04  0.50400001928E-02 0.  1.
        1   -1    0    0  501    0  0.00000000000E+00  0.00000000000E+00 -0.18034585311E+04  0.18034585311E+04  0.50400001928E-02 0. -1.
    10030    2    1    2    0    0  0.00000000000E+00  0.00000000000E+00 -0.18129064759E+03  0.34256264146E+04  0.34208259286E+04 0.  0.
        3    1    3    3  502    0  0.36187076774E+02 -0.17074719251E+04  0.29878596411E+01  0.17078579616E+04  0.10100000352E+00 0.  1.
       -3    1    3    3    0  502 -0.36187076774E+02  0.17074719251E+04 -0.18427850723E+03  0.17177684530E+04  0.10100000352E+00 0. -1.
</event>
<event>
 5   0  0.4591195E-07  0.3555718E+04  0.7818609E-02  0.8100711E-01
        1   -1    0    0  501    0  0.00000000000E+00  0.00000000000E+00  0.11576859822E+04  0.11576859823E+04  0.50400001928E-02 0. -1.
       -1   -1    0    0    0  501  0.00000000000E+00  0.00000000000E+00 -0.27302587600E+04  0.27302587600E+04  0.50400001928E-02 0.  1.
    10030    2    1    2    0    0  0.00000000000E+00  0.00000000000E+00 -0.15725727777E+04  0.38879447422E+04  0.35557178147E+04 0.  0.
        4    1    3    3  502    0  0.12529464998E+04  0.36390746485E+03  0.53422637850E+03  0.14098592167E+04  0.12699999809E+01 0. -1.
       -4    1    3    3    0  502 -0.12529464998E+04 -0.36390746485E+03 -0.21067991562E+04  0.24780855256E+04  0.12699999809E+01 0.  1.
</event>
<event>
 5   0  0.1387133E-06  0.3508719E+04  0.7818609E-02  0.8111727E-01
        2   -1    0    0  501    0  0.00000000000E+00  0.00000000000E+00  0.17465731328E+04  0.17465731328E+04  0.25500000920E-02 0.  1.
       -2   -1    0    0    0  501  0.00000000000E+00  0.00000000000E+00 -0.17621801752E+04  0.17621801752E+04  0.25500000920E-02 0. -1.
    10030    2    1    2    0    0  0.00000000000E+00  0.00000000000E+00 -0.15607042419E+02  0.35087533081E+04  0.35087185976E+04 0.  0.
        4    1    3    3  502    0 -0.72480083669E+03  0.31504091565E+03  0.15584775654E+04  0.17474097877E+04  0.12699999809E+01 0.  1.
       -4    1    3    3    0  502  0.72480083669E+03 -0.31504091565E+03 -0.15740846078E+04  0.17613435204E+04  0.12699999809E+01 0. -1.
</event>
<event>
 5   0  0.1387133E-06  0.3501528E+04  0.7818609E-02  0.8113428E-01
        2   -1    0    0  501    0  0.00000000000E+00  0.00000000000E+00  0.16828264321E+04  0.16828264321E+04  0.25500000920E-02 0. -1.
       -2   -1    0    0    0  501  0.00000000000E+00  0.00000000000E+00 -0.18214440410E+04  0.18214440410E+04  0.25500000920E-02 0.  1.
    10030    2    1    2    0    0  0.00000000000E+00  0.00000000000E+00 -0.13861760890E+03  0.35042704731E+04  0.35015277675E+04 0.  0.
        4    1    3    3  502    0 -0.15742435389E+04 -0.68901232037E+03  0.26590410158E+03  0.17388752979E+04  0.12699999809E+01 0. -1.
       -4    1    3    3    0  502  0.15742435389E+04  0.68901232037E+03 -0.40452171049E+03  0.17653951752E+04  0.12699999809E+01 0.  1.
</event>
<event>
 5   0  0.1348388E-06  0.3436312E+04  0.7818609E-02  0.8129051E-01
        2   -1    0    0  501    0  0.00000000000E+00  0.00000000000E+00  0.14985449709E+04  0.14985449709E+04  0.25500000920E-02 0.  1.
       -2   -1    0    0    0  501  0.00000000000E+00  0.00000000000E+00 -0.19699503744E+04  0.19699503744E+04  0.25500000920E-02 0. -1.
    10030    2    1    2    0    0  0.00000000000E+00  0.00000000000E+00 -0.47140540355E+03  0.34684953453E+04  0.34363115263E+04 0.  0.
        5    1    3    3  502    0  0.24608375364E+03  0.16311445935E+04 -0.72066829560E+03  0.18001596543E+04  0.46999998093E+01 0. -1.
       -5    1    3    3    0  502 -0.24608375364E+03 -0.16311445935E+04  0.24926289205E+03  0.16683356910E+04  0.46999998093E+01 0.  1.
</event>
<event>
 5   0  0.1442864E-06  0.3446003E+04  0.7818609E-02  0.8126707E-01
        2   -1    0    0  501    0  0.00000000000E+00  0.00000000000E+00  0.25709987078E+04  0.25709987078E+04  0.25500000920E-02 0.  1.
       -2   -1    0    0    0  501  0.00000000000E+00  0.00000000000E+00 -0.11547005295E+04  0.11547005295E+04  0.25500000920E-02 0. -1.
    10030    2    1    2    0    0  0.00000000000E+00  0.00000000000E+00  0.14162981784E+04  0.37256992373E+04  0.34460026519E+04 0.  0.
        1    1    3    3  502    0  0.92976247162E+03  0.11957258315E+04 -0.17979988156E+03  0.15253021062E+04  0.50400001928E-02 0. -1.
       -1    1    3    3    0  502 -0.92976247162E+03 -0.11957258315E+04  0.15960980599E+04  0.22003971311E+04  0.50400001928E-02 0.  1.
</event>
<event>
 5   0  0.4409125E-07  0.2983938E+04  0.7818609E-02  0.8248332E-01
       -3   -1    0    0    0  501  0.00000000000E+00  0.00000000000E+00  0.17085363630E+04  0.17085363660E+04  0.10100000352E+00 0. -1.
        3   -1    0    0  501    0  0.00000000000E+00  0.00000000000E+00 -0.13028527938E+04  0.13028527977E+04  0.10100000352E+00 0.  1.
    10030    2    1    2    0    0  0.00000000000E+00  0.00000000000E+00  0.40568356926E+03  0.30113891637E+04  0.29839379244E+04 0.  0.
        4    1    3    3  502    0  0.55423191900E+03 -0.30939789257E+03 -0.11597906904E+04  0.13221256122E+04  0.12699999809E+01 0.  1.
       -4    1    3    3    0  502 -0.55423191900E+03  0.30939789257E+03  0.15654742596E+04  0.16892635515E+04  0.12699999809E+01 0. -1.
</event>
<event>
 5   0  0.1348388E-06  0.3424608E+04  0.7818609E-02  0.8131893E-01
       -2   -1    0    0    0  501  0.00000000000E+00  0.00000000000E+00  0.16801928524E+04  0.16801928524E+04  0.25500000920E-02 0. -1.
        2   -1    0    0  501    0  0.00000000000E+00  0.00000000000E+00 -0.17450292322E+04  0.17450292322E+04  0.25500000920E-02 0.  1.
    10030    2    1    2    0    0  0.00000000000E+00  0.00000000000E+00 -0.64836379842E+02  0.34252220846E+04  0.34246083824E+04 0.  0.
        5    1    3    3  502    0 -0.34674705416E+03 -0.16003114562E+04  0.46840428302E+03  0.17031309224E+04  0.46999998093E+01 0. -1.
       -5    1    3    3    0  502  0.34674705416E+03  0.16003114562E+04 -0.53324066286E+03  0.17220911622E+04  0.46999998093E+01 0.  1.
</event>
<event>
 5   0  0.4557237E-07  0.3562602E+04  0.7818609E-02  0.8099112E-01
        1   -1    0    0  501    0  0.00000000000E+00  0.00000000000E+00  0.19752113112E+04  0.19752113112E+04  0.50400001928E-02 0.  1.
       -1   -1    0    0    0  501  0.00000000000E+00  0.00000000000E+00 -0.16064272364E+04  0.16064272364E+04  0.50400001928E-02 0. -1.
    10030    2    1    2    0    0  0.00000000000E+00  0.00000000000E+00  0.36878407476E+03  0.35816385476E+04  0.35626019974E+04 0.  0.
        2    1    3    3  502    0 -0.34076421958E+03 -0.17437909821E+04  0.31197960811E+03  0.18039563516E+04  0.25500000920E-02 0. -1.
       -2    1    3    3    0  502  0.34076421958E+03  0.17437909821E+04  0.56804466657E+02  0.17776821960E+04  0.25500000920E-02 0.  1.
</event>
<event>
 5   0  0.1348388E-06  0.3534123E+04  0.7818609E-02  0.8105751E-01
        2   -1    0    0  501    0  0.00000000000E+00  0.00000000000E+00  0.25221628233E+04  0.25221628233E+04  0.25500000920E-02 0. -1.
       -2   -1    0    0    0  501  0.00000000000E+00  0.00000000000E+00 -0.12380272702E+04  0.12380272702E+04  0.25500000920E-02 0.  1.
    10030    2    1    2    0    0  0.00000000000E+00  0.00000000000E+00  0.12841355531E+04  0.37601900936E+04  0.35341230059E+04 0.  0.
        5    1    3    3  502    0 -0.38237042190E+03 -0.36363380557E+03 -0.11522384686E+04  0.12673248449E+04  0.46999998093E+01 0.  1.
       -5    1    3    3    0  502  0.38237042190E+03  0.36363380557E+03  0.24363740217E+04  0.24928652486E+04  0.46999998093E+01 0. -1.
</event>
<event>
 5   0  0.4700769E-07  0.3496086E+04  0.7818609E-02  0.8114718E-01
        1   -1    0    0  501    0  0.00000000000E+00  0.00000000000E+00  0.16258831061E+04  0.16258831061E+04  0.50400001928E-02 0. -1.
       -1   -1    0    0    0  501  0.00000000000E+00  0.00000000000E+00 -0.18793817013E+04  0.18793817013E+04  0.50400001928E-02 0.  1.
    10030    2    1    2    0    0  0.00000000000E+00  0.00000000000E+00 -0.25349859517E+03  0.35052648074E+04  0.34960863593E+04 0.  0.
        3    1    3    3  502    0  0.12650757833E+04 -0.36689697653E+03  0.10254521277E+04  0.16693059052E+04  0.10100000352E+00 0. -1.
       -3    1    3    3    0  502 -0.12650757833E+04  0.36689697653E+03 -0.12789507228E+04  0.18359589022E+04  0.10100000352E+00 0.  1.
</event>
<event>
 5   0  0.4591195E-07  0.3456063E+04  0.7818609E-02  0.8124282E-01
        1   -1    0    0  501    0  0.00000000000E+00  0.00000000000E+00  0.12130705565E+04  0.12130705565E+04  0.50400001928E-02 0. -1.
       -1   -1    0    0    0  501  0.00000000000E+00  0.00000000000E+00 -0.24615985451E+04  0.24615985451E+04  0.50400001928E-02 0.  1.
    10030    2    1    2    0    0  0.00000000000E+00  0.00000000000E+00 -0.12485279886E+04  0.36746691016E+04  0.34560629143E+04 0.  0.
        4    1    3    3  502    0  0.89280288567E+03  0.12266124386E+04  0.25535922802E+03  0.15384683993E+04  0.12699999809E+01 0. -1.
       -4    1    3    3    0  502 -0.89280288567E+03 -0.12266124386E+04 -0.15038872166E+04  0.21362007023E+04  0.12699999809E+01 0.  1.
</event>
<event>
 5   0  0.4700769E-07  0.3524182E+04  0.7818609E-02  0.8108083E-01
        1   -1    0    0  501    0  0.00000000000E+00  0.00000000000E+00  0.21719029420E+04  0.21719029420E+04  0.50400001928E-02 0.  1.
       -1   -1    0    0    0  501  0.00000000000E+00  0.00000000000E+00 -0.14296053448E+04  0.14296053448E+04  0.50400001928E-02 0. -1.
    10030    2    1    2    0    0  0.00000000000E+00  0.00000000000E+00  0.74229759715E+03  0.36015082868E+04  0.35241816379E+04 0.  0.
        3    1    3    3  502    0  0.60413098127E+03 -0.14875494112E+04 -0.37085870218E+03  0.16478208885E+04  0.10100000352E+00 0. -1.
       -3    1    3    3    0  502 -0.60413098127E+03  0.14875494112E+04  0.11131562993E+04  0.19536873983E+04  0.10100000352E+00 0.  1.
</event>
<event>
 5   0  0.4700769E-07  0.2508943E+04  0.7818609E-02  0.8399806E-01
        1   -1    0    0  501    0  0.00000000000E+00  0.00000000000E+00  0.95991315139E+03  0.95991315140E+03  0.50400001928E-02 0. -1.
       -1   -1    0    0    0  501  0.00000000000E+00  0.00000000000E+00 -0.16394178948E+04  0.16394178948E+04  0.50400001928E-02 0.  1.
    10030    2    1    2    0    0  0.00000000000E+00  0.00000000000E+00 -0.67950474340E+03  0.25993310462E+04  0.25089430427E+04 0.  0.
        3    1    3    3  502    0 -0.65744192337E+03  0.63773684883E+02  0.76515978437E+03  0.10108246491E+04  0.10100000352E+00 0. -1.
       -3    1    3    3    0  502  0.65744192337E+03 -0.63773684883E+02 -0.14446645278E+04  0.15885063971E+04  0.10100000352E+00 0.  1.
</event>
<event>
 5   0  0.1378620E-06  0.3568433E+04  0.7818609E-02  0.8097761E-01
       -2   -1    0    0    0  501  0.00000000000E+00  0.00000000000E+00  0.19076668797E+04  0.19076668797E+04  0.25500000920E-02 0. -1.
        2   -1    0    0  501    0  0.00000000000E+00  0.00000000000E+00 -0.16687551613E+04  0.16687551613E+04  0.25500000920E-02 0.  1.
    10030    2    1    2    0    0  0.00000000000E+00  0.00000000000E+00  0.23891171847E+03  0.35764220410E+04  0.35684332425E+04 0.  0.
        2    1    3    3  502    0 -0.30415765530E+03  0.22889508558E+03 -0.16275828579E+04  0.16715055486E+04  0.25500000920E-02 0.  1.
       -2    1    3    3    0  502  0.30415765530E+03 -0.22889508558E+03  0.18664945764E+04  0.19049164924E+04  0.25500000920E-02 0. -1.
</event>
<event>
 5   0  0.4409125E-07  0.3591377E+04  0.7818609E-02  0.8092470E-01
        1   -1    0    0  501    0  0.00000000000E+00  0.00000000000E+00  0.23796663453E+04  0.23796663453E+04  0.50400001928E-02 0. -1.
       -1   -1    0    0    0  501  0.00000000000E+00  0.00000000000E+00 -0.13550208568E+04  0.13550208568E+04  0.50400001928E-02 0.  1.
    10030    2    1    2    0    0  0.00000000000E+00  0.00000000000E+00  0.10246454885E+04  0.37346872021E+04  0.35913771899E+04 0.  0.
        5    1    3    3  502    0 -0.14968117088E+04 -0.10053502400E+03  0.15385782326E+04  0.21489061521E+04  0.46999998093E+01 0.  1.
       -5    1    3    3    0  502  0.14968117088E+04  0.10053502400E+03 -0.51393274415E+03  0.15857810499E+04  0.46999998093E+01 0. -1.
</event>
<event>
 5   0  0.4557237E-07  0.3522192E+04  0.7818609E-02  0.8108551E-01
        1   -1    0    0  501    0  0.00000000000E+00  0.00000000000E+00  0.15015550275E+04  0.15015550275E+04  0.50400001928E-02 0.  1.
       -1   -1    0    0    0  501  0.00000000000E+00  0.00000000000E+00 -0.20654981079E+04  0.20654981079E+04  0.50400001928E-02 0. -1.
    10030    2    1    2    0    0  0.00000000000E+00  0.00000000000E+00 -0.56394308039E+03  0.35670531354E+04  0.35221919699E+04 0.  0.
        2    1    3    3  502    0 -0.17335957078E+03 -0.16735632640E+04  0.24483802812E+03  0.17002391594E+04  0.25500000920E-02 0.  1.
       -2    1    3    3    0  502  0.17335957078E+03  0.16735632640E+04 -0.80878110851E+03  0.18668139759E+04  0.25500000920E-02 0. -1.
</event>
<event>
 5   0  0.4700769E-07  0.3526281E+04  0.7818609E-02  0.8107590E-01
       -1   -1    0    0    0  501  0.00000000000E+00  0.00000000000E+00  0.14343324324E+04  0.14343324324E+04  0.50400001928E-02 0. -1.
        1   -1    0    0  501    0  0.00000000000E+00  0.00000000000E+00 -0.21673247968E+04  0.21673247968E+04  0.50400001928E-02 0.  1.
    10030    2    1    2    0    0  0.00000000000E+00  0.00000000000E+00 -0.73299236442E+03  0.36016572292E+04  0.35262809006E+04 0.  0.
        3    1    3    3  502    0  0.13686950553E+03  0.17563295012E+04 -0.44041484049E+03  0.18158721928E+04  0.10100000352E+00 0. -1.
       -3    1    3    3    0  502 -0.13686950553E+03 -0.17563295012E+04 -0.29257752393E+03  0.17857850364E+04  0.10100000352E+00 0.  1.
</event>
<event>
 5   0  0.1442864E-06  0.3377918E+04  0.7818609E-02  0.8143347E-01
       -2   -1    0    0    0  501  0.00000000000E+00  0.00000000000E+00  0.20995294575E+04  0.20995294575E+04  0.25500000920E-02 0.  1.
        2   -1    0    0  501    0  0.00000000000E+00  0.00000000000E+00 -0.13586767480E+04  0.13586767480E+04  0.25500000920E-02 0. -1.
    10030    2    1    2    0    0  0.00000000000E+00  0.00000000000E+00  0.74085270947E+03  0.34582062056E+04  0.33779176164E+04 0.  0.
        1    1    3    3  502    0  0.16832226044E+04  0.13899367230E+03  0.37547082460E+03  0.17301837813E+04  0.50400001928E-02 0. -1.
       -1    1    3    3    0  502 -0.16832226044E+04 -0.13899367230E+03  0.36538188487E+03  0.17280224243E+04  0.50400001928E-02 0.  1.
</event>
<event>
 5   0  0.1378620E-06  0.3494659E+04  0.7818609E-02  0.8115057E-01
        2   -1    0    0  501    0  0.00000000000E+00  0.00000000000E+00  0.17122371114E+04  0.17122371114E+04  0.25500000920E-02 0.  1.
       -2   -1    0    0    0  501  0.00000000000E+00  0.00000000000E+00 -0.17831410248E+04  0.17831410248E+04  0.25500000920E-02 0. -1.
    10030    2    1    2    0    0  0.00000000000E+00  0.00000000000E+00 -0.70903913424E+02  0.34953781362E+04  0.34946589176E+04 0.  0.
        2    1    3    3  502    0 -0.76747843585E+03 -0.75879729716E+03  0.13390083373E+04  0.17198080750E+04  0.25500000920E-02 0.  1.
       -2    1    3    3    0  502  0.76747843585E+03  0.75879729716E+03 -0.14099122507E+04  0.17755700612E+04  0.25500000920E-02 0. -1.
</event>
<event>
 5   0  0.4700769E-07  0.3537861E+04  0.7818609E-02  0.8104876E-01
       -1   -1    0    0    0  501  0.00000000000E+00  0.00000000000E+00  0.13194222827E+04  0.13194222827E+04  0.50400001928E-02 0. -1.
        1   -1    0    0  501    0  0.00000000000E+00  0.00000000000E+00 -0.23715795015E+04  0.23715795015E+04  0.50400001928E-02 0.  1.
    10030    2    1    2    0    0  0.00000000000E+00  0.00000000000E+00 -0.10521572188E+04  0.36910017842E+04  0.35378608449E+04 0.  0.
        3    1    3    3  502    0 -0.13732531049E+04  0.11107429743E+04 -0.42417359824E+03  0.18164518427E+04  0.10100000352E+00 0.  1.
       -3    1    3    3    0  502  0.13732531049E+04 -0.11107429743E+04 -0.62798362057E+03  0.18745499415E+04  0.10100000352E+00 0. -1.
</event>
<event>
 5   0  0.1442864E-06  0.3555727E+04  0.7818609E-02  0.8100709E-01
       -2   -1    0    0    0  501  0.00000000000E+00  0.00000000000E+00  0.17331857276E+04  0.17331857276E+04  0.25500000920E-02 0. -1.
        2   -1    0    0  501    0  0.00000000000E+00  0.00000000000E+00 -0.18236928292E+04  0.18236928292E+04  0.25500000920E-02 0.  1.
    10030    2    1    2    0    0  0.00000000000E+00  0.00000000000E+00 -0.90507101582E+02  0.35568785568E+04  0.35557268641E+04 0.  0.
        1    1    3    3  502    0  0.17622687581E+04 -0.22918619018E+03  0.65406050269E+01  0.17771213422E+04  0.50400001928E-02 0.  1.
       -1    1    3    3    0  502 -0.17622687581E+04  0.22918619018E+03 -0.97047706609E+02  0.17797572146E+04  0.50400001928E-02 0. -1.
</event>
<event>
 5   0  0.4693374E-07  0.3607865E+04  0.7818609E-02  0.8088693E-01
        1   -1    0    0  501    0  0.00000000000E+00  0.00000000000E+00  0.21190403224E+04  0.21190403224E+04  0.50400001928E-02 0.  1.
       -1   -1    0    0    0  501  0.00000000000E+00  0.00000000000E+00 -0.15356820931E+04  0.15356820931E+04  0.50400001928E-02 0. -1.
    10030    2    1    2    0    0  0.00000000000E+00  0.00000000000E+00  0.58335822935E+03  0.36547224155E+04  0.36078648964E+04 0.  0.
        1    1    3    3  502    0  0.88867544415E+03 -0.35493938358E+03  0.18407376471E+04  0.20746183014E+04  0.50400001928E-02 0.  1.
       -1    1    3    3    0  502 -0.88867544415E+03  0.35493938358E+03 -0.12573794178E+04  0.15801041141E+04  0.50400001928E-02 0. -1.
</event>
<event>
 5   0  0.4700769E-07  0.3368725E+04  0.7818609E-02  0.8145625E-01
       -1   -1    0    0    0  501  0.00000000000E+00  0.00000000000E+00  0.14658315475E+04  0.14658315475E+04  0.50400001928E-02 0.  1.
        1   -1    0    0  501    0  0.00000000000E+00  0.00000000000E+00 -0.19354725971E+04  0.19354725971E+04  0.50400001928E-02 0. -1.
    10030    2    1    2    0    0  0.00000000000E+00  0.00000000000E+00 -0.46964104961E+03  0.34013041446E+04  0.33687248580E+04 0.  0.
        3    1    3    3  502    0 -0.72812277604E+03  0.85457820567E+03  0.10329541692E+04  0.15256018526E+04  0.10100000352E+00 0.  1.
       -3    1    3    3    0  502  0.72812277604E+03 -0.85457820567E+03 -0.15025952188E+04  0.18757022921E+04  0.10100000352E+00 0. -1.
</event>
<event>
 5   0  0.1387133E-06  0.3158212E+04  0.7818609E-02  0.8199941E-01
       -2   -1    0    0    0  501  0.00000000000E+00  0.00000000000E+00  0.90119123073E+03  0.90119123074E+03  0.25500000920E-02 0. -1.
        2   -1    0    0  501    0  0.00000000000E+00  0.00000000000E+00 -0.27669781352E+04  0.27669781352E+04  0.25500000920E-02 0.  1.
    10030    2    1    2    0    0  0.00000000000E+00  0.00000000000E+00 -0.18657869044E+04  0.36681693659E+04  0.31582124254E+04 0.  0.
        4    1    3    3  502    0  0.10061035336E+04  0.86879947655E+03 -0.19228843951E+04  0.23376361694E+04  0.12699999809E+01 0.  1.
       -4    1    3    3    0  502 -0.10061035336E+04 -0.86879947655E+03  0.57097490620E+02  0.13305331965E+04  0.12699999809E+01 0. -1.
</event>
<event>
 5   0  0.4409125E-07  0.3516666E+04  0.7818609E-02  0.8109852E-01
       -4   -1    0    0    0  501  0.00000000000E+00  0.00000000000E+00  0.24955122934E+04  0.24955126166E+04  0.12699999809E+01 0. -1.
        4   -1    0    0  501    0  0.00000000000E+00  0.00000000000E+00 -0.12389173855E+04  0.12389180364E+04  0.12699999809E+01 0.  1.
    10030    2    1    2    0    0  0.00000000000E+00  0.00000000000E+00  0.12565949079E+04  0.37344306530E+04  0.35166662536E+04 0.  0.
        3    1    3    3  502    0  0.12789796125E+04  0.90685797338E+03 -0.21695308267E+03  0.15827978024E+04  0.10100000352E+00 0. -1.
       -3    1    3    3    0  502 -0.12789796125E+04 -0.90685797338E+03  0.14735479906E+04  0.21516328506E+04  0.10100000352E+00 0.  1.
</event>
<event>
 5   0  0.1442864E-06  0.3491012E+04  0.7818609E-02  0.8115923E-01
        2   -1    0    0  501    0  0.00000000000E+00  0.00000000000E+00  0.23221583428E+04  0.23221583428E+04  0.25500000920E-02 0. -1.
       -2   -1    0    0    0  501  0.00000000000E+00  0.00000000000E+00 -0.13120513835E+04  0.13120513835E+04  0.25500000920E-02 0.  1.
    10030    2    1    2    0    0  0.00000000000E+00  0.00000000000E+00  0.10101069593E+04  0.36342097263E+04  0.34910119257E+04 0.  0.
        1    1    3    3  502    0  0.10185941331E+04  0.63939469367E+03  0.18220274675E+04  0.21831499432E+04  0.50400001928E-02 0. -1.
       -1    1    3    3    0  502 -0.10185941331E+04 -0.63939469367E+03 -0.81192050824E+03  0.14510597830E+04  0.50400001928E-02 0.  1.
</event>
<event>
 5   0  0.1348388E-06  0.3609949E+04  0.7818609E-02  0.8088217E-01
       -2   -1    0    0    0  501  0.00000000000E+00  0.00000000000E+00  0.16210924163E+04  0.16210924164E+04  0.25500000920E-02 0.  1.
        2   -1    0    0  501    0  0.00000000000E+00  0.00000000000E+00 -0.20097141767E+04  0.20097141767E+04  0.25500000920E-02 0. -1.
    10030    2    1    2    0    0  0.00000000000E+00  0.00000000000E+00 -0.38862176040E+03  0.36308065931E+04  0.36099487038E+04 0.  0.
        5    1    3    3  502    0  0.63028363206E+03  0.15603334141E+04 -0.85077841959E+03  0.18856680061E+04  0.46999998093E+01 0. -1.
       -5    1    3    3    0  502 -0.63028363206E+03 -0.15603334141E+04  0.46215665920E+03  0.17451385870E+04  0.46999998093E+01 0.  1.
</event>
<event>
 5   0  0.1387133E-06  0.3525699E+04  0.7818609E-02  0.8107727E-01
        2   -1    0    0  501    0  0.00000000000E+00  0.00000000000E+00  0.14269658394E+04  0.14269658394E+04  0.25500000920E-02 0.  1.
       -2   -1    0    0    0  501  0.00000000000E+00  0.00000000000E+00 -0.21777940322E+04  0.21777940322E+04  0.25500000920E-02 0. -1.
    10030    2    1    2    0    0  0.00000000000E+00  0.00000000000E+00 -0.75082819282E+03  0.36047598716E+04  0.35256986197E+04 0.  0.
        4    1    3    3  502    0 -0.16932461125E+04 -0.17303345953E+03  0.93803018985E+02  0.17046476453E+04  0.12699999809E+01 0.  1.
       -4    1    3    3    0  502  0.16932461125E+04  0.17303345953E+03 -0.84463121180E+03  0.19001122262E+04  0.12699999809E+01 0. -1.
</event>
<event>
 5   0  0.4700769E-07  0.3547643E+04  0.7818609E-02  0.8102591E-01
       -1   -1    0    0    0  501  0.00000000000E+00  0.00000000000E+00  0.15134451526E+04  0.15134451526E+04  0.50400001928E-02 0. -1.
        1   -1    0    0  501    0  0.00000000000E+00  0.00000000000E+00 -0.20789930787E+04  0.20789930787E+04  0.50400001928E-02 0.  1.
    10030    2    1    2    0    0  0.00000000000E+00  0.00000000000E+00 -0.56554792617E+03  0.35924382313E+04  0.35476425960E+04 0.  0.
        3    1    3    3  502    0  0.81235126121E+03  0.11153339403E+04 -0.14115498330E+04  0.19739192767E+04  0.10100000352E+00 0.  1.
       -3    1    3    3    0  502 -0.81235126121E+03 -0.11153339403E+04  0.84600190680E+03  0.16185189546E+04  0.10100000352E+00 0. -1.
</event>
<event>
 5   0  0.4700769E-07  0.2592237E+04  0.7818609E-02  0.8370843E-01
        1   -1    0    0  501    0  0.00000000000E+00  0.00000000000E+00  0.16735509186E+04  0.16735509186E+04  0.50400001928E-02 0. -1.
       -1   -1    0    0    0  501  0.00000000000E+00  0.00000000000E+00 -0.10038077585E+04  0.10038077585E+04  0.50400001928E-02 0.  1.
    10030    2    1    2    0    0  0.00000000000E+00  0.00000000000E+00  0.66974316006E+03  0.26773586771E+04  0.25922371777E+04 0.  0.
        3    1    3    3  502    0 -0.54377571184E+03  0.21851177708E+03  0.15288973427E+04  0.16373657246E+04  0.10100000352E+00 0. -1.
       -3    1    3    3    0  502  0.54377571184E+03 -0.21851177708E+03 -0.85915418262E+03  0.10399929525E+04  0.10100000352E+00 0.  1.
</event>
<event>
 5   0  0.1361560E-06  0.3520206E+04  0.7818609E-02  0.8109018E-01
       -2   -1    0    0    0  501  0.00000000000E+00  0.00000000000E+00  0.13510668156E+04  0.13510668156E+04  0.25500000920E-02 0. -1.
        2   -1    0    0  501    0  0.00000000000E+00  0.00000000000E+00 -0.22929747313E+04  0.22929747313E+04  0.25500000920E-02 0.  1.
    10030    2    1    2    0    0  0.00000000000E+00  0.00000000000E+00 -0.94190791578E+03  0.36440415469E+04  0.35202057147E+04 0.  0.
        3    1    3    3  502    0  0.79682565367E+03 -0.61545419067E+03  0.10235252477E+04  0.14357294056E+04  0.10100000352E+00 0. -1.
       -3    1    3    3    0  502 -0.79682565367E+03  0.61545419067E+03 -0.19654331635E+04  0.22083121413E+04  0.10100000352E+00 0.  1.
</event>
<event>
 5   0  0.1387133E-06  0.3298434E+04  0.7818609E-02  0.8163294E-01
       -2   -1    0    0    0  501  0.00000000000E+00  0.00000000000E+00  0.11981150098E+04  0.11981150099E+04  0.25500000920E-02 0. -1.
        2   -1    0    0  501    0  0.00000000000E+00  0.00000000000E+00 -0.22701629257E+04  0.22701629257E+04  0.25500000920E-02 0.  1.
    10030    2    1    2    0    0  0.00000000000E+00  0.00000000000E+00 -0.10720479159E+04  0.34682779356E+04  0.32984337350E+04 0.  0.
        4    1    3    3  502    0 -0.51838816822E+03  0.11228089386E+04 -0.16833021119E+04  0.20887637057E+04  0.12699999809E+01 0.  1.
       -4    1    3    3    0  502  0.51838816822E+03 -0.11228089386E+04  0.61125419597E+03  0.13795142299E+04  0.12699999809E+01 0. -1.
</event>
<event>
 5   0  0.4591195E-07  0.3515779E+04  0.7818609E-02  0.8110061E-01
       -1   -1    0    0    0  501  0.00000000000E+00  0.00000000000E+00  0.27908581148E+04  0.27908581148E+04  0.50400001928E-02 0.  1.
        1   -1    0    0  501    0  0.00000000000E+00  0.00000000000E+00 -0.11072491277E+04  0.11072491277E+04  0.50400001928E-02 0. -1.
    10030    2    1    2    0    0  0.00000000000E+00  0.00000000000E+00  0.16836089871E+04  0.38981072425E+04  0.35157788402E+04 0.  0.
        4    1    3    3  502    0  0.52268893059E+03  0.11380788377E+04 -0.52593498438E+03  0.13583211622E+04  0.12699999809E+01 0. -1.
       -4    1    3    3    0  502 -0.52268893059E+03 -0.11380788377E+04  0.22095439715E+04  0.25397860803E+04  0.12699999809E+01 0.  1.
</event>
<event>
 5   0  0.4693374E-07  0.3512338E+04  0.7818609E-02  0.8110872E-01
        1   -1    0    0  501    0  0.00000000000E+00  0.00000000000E+00  0.22236511815E+04  0.22236511815E+04  0.50400001928E-02 0. -1.
       -1   -1    0    0    0  501  0.00000000000E+00  0.00000000000E+00 -0.13869664891E+04  0.13869664891E+04  0.50400001928E-02 0.  1.
    10030    2    1    2    0    0  0.00000000000E+00  0.00000000000E+00  0.83668469233E+03  0.36106176706E+04  0.35123380658E+04 0.  0.
        1    1    3    3  502    0  0.14558169615E+03 -0.97886268895E+03  0.19097172902E+04  0.21509036061E+04  0.50400001928E-02 0. -1.
       -1    1    3    3    0  502 -0.14558169615E+03  0.97886268895E+03 -0.10730325979E+04  0.14597140645E+04  0.50400001928E-02 0.  1.
</event>
<event>
 5   0  0.4557237E-07  0.3480827E+04  0.7818609E-02  0.8118349E-01
       -1   -1    0    0    0  501  0.00000000000E+00  0.00000000000E+00  0.11521369311E+04  0.11521369311E+04  0.50400001928E-02 0.  1.
        1   -1    0    0  501    0  0.00000000000E+00  0.00000000000E+00 -0.26290613347E+04  0.26290613347E+04  0.50400001928E-02 0. -1.
    10030    2    1    2    0    0  0.00000000000E+00  0.00000000000E+00 -0.14769244036E+04  0.37811982659E+04  0.34808267167E+04 0.  0.
        2    1    3    3  502    0 -0.77522236511E+03  0.94305702156E+03 -0.20859528901E+04  0.24169248480E+04  0.25500000920E-02 0. -1.
       -2    1    3    3    0  502  0.77522236511E+03 -0.94305702156E+03  0.60902848648E+03  0.13642734178E+04  0.25500000920E-02 0.  1.
</event>
<event>
 5   0  0.1387133E-06  0.3497028E+04  0.7818609E-02  0.8114495E-01
       -2   -1    0    0    0  501  0.00000000000E+00  0.00000000000E+00  0.12247436553E+04  0.12247436553E+04  0.25500000920E-02 0.  1.
        2   -1    0    0  501    0  0.00000000000E+00  0.00000000000E+00 -0.24962778789E+04  0.24962778789E+04  0.25500000920E-02 0. -1.
    10030    2    1    2    0    0  0.00000000000E+00  0.00000000000E+00 -0.12715342236E+04  0.37210215343E+04  0.34970275916E+04 0.  0.
        4    1    3    3  502    0 -0.15238928299E+04 -0.70722797931E+03 -0.12008223431E+03  0.16842927678E+04  0.12699999809E+01 0.  1.
       -4    1    3    3    0  502  0.15238928299E+04  0.70722797931E+03 -0.11514519893E+04  0.20367287665E+04  0.12699999809E+01 0. -1.
</event>
<event>
 5   0  0.1387133E-06  0.3471086E+04  0.7818609E-02  0.8120677E-01
       -2   -1    0    0    0  501  0.00000000000E+00  0.00000000000E+00  0.18952572881E+04  0.18952572881E+04  0.25500000920E-02 0. -1.
        2   -1    0    0  501    0  0.00000000000E+00  0.00000000000E+00 -0.15892878033E+04  0.15892878033E+04  0.25500000920E-02 0.  1.
    10030    2    1    2    0    0  0.00000000000E+00  0.00000000000E+00  0.30596948481E+03  0.34845450914E+04  0.34710858774E+04 0.  0.
        4    1    3    3  502    0 -0.76555692373E+03 -0.12001795076E+04  0.11496078468E+04  0.18297836124E+04  0.12699999809E+01 0. -1.
       -4    1    3    3    0  502  0.76555692373E+03  0.12001795076E+04 -0.84363836198E+03  0.16547614791E+04  0.12699999809E+01 0.  1.
</event>
<event>
 5   0  0.1348388E-06  0.3642173E+04  0.7818609E-02  0.8080899E-01
       -2   -1    0    0    0  501  0.00000000000E+00  0.00000000000E+00  0.16128644707E+04  0.16128644707E+04  0.25500000920E-02 0. -1.
        2   -1    0    0  501    0  0.00000000000E+00  0.00000000000E+00 -0.20561902117E+04  0.20561902117E+04  0.25500000920E-02 0.  1.
    10030    2    1    2    0    0  0.00000000000E+00  0.00000000000E+00 -0.44332574102E+03  0.36690546824E+04  0.36421730533E+04 0.  0.
        5    1    3    3  502    0  0.37090631090E+02  0.75625118006E+03 -0.18901001094E+04  0.20361218224E+04  0.46999998093E+01 0.  1.
       -5    1    3    3    0  502 -0.37090631090E+02 -0.75625118006E+03  0.14467743684E+04  0.16329328600E+04  0.46999998093E+01 0. -1.
</event>
<event>
 5   0  0.4700769E-07  0.3433402E+04  0.7818609E-02  0.8129757E-01
       -1   -1    0    0    0  501  0.00000000000E+00  0.00000000000E+00  0.21041447414E+04  0.21041447414E+04  0.50400001928E-02 0. -1.
        1   -1    0    0  501    0  0.00000000000E+00  0.00000000000E+00 -0.14005983941E+04  0.14005983941E+04  0.50400001928E-02 0.  1.
    10030    2    1    2    0    0  0.00000000000E+00  0.00000000000E+00  0.70354634734E+03  0.35047431355E+04  0.34334016635E+04 0.  0.
        3    1    3    3  502    0 -0.31340586394E+03  0.51181913019E+03  0.19935710710E+04  0.20819480500E+04  0.10100000352E+00 0. -1.
       -3    1    3    3    0  502  0.31340586394E+03 -0.51181913019E+03 -0.12900247236E+04  0.14227950855E+04  0.10100000352E+00 0.  1.
</event>
<event>
 5   0  0.4557237E-07  0.3529440E+04  0.7818609E-02  0.8106848E-01
       -1   -1    0    0    0  501  0.00000000000E+00  0.00000000000E+00  0.20737392531E+04  0.20737392531E+04  0.50400001928E-02 0. -1.
        1   -1    0    0  501    0  0.00000000000E+00  0.00000000000E+00 -0.15017494366E+04  0.15017494367E+04  0.50400001928E-02 0.  1.
    10030    2    1    2    0    0  0.00000000000E+00  0.00000000000E+00  0.57198981647E+03  0.35754886898E+04  0.35294400435E+04 0.  0.
        2    1    3    3  502    0  0.14261292805E+04 -0.65595078347E+03 -0.53082546922E+03  0.16570732735E+04  0.25500000920E-02 0.  1.
       -2    1    3    3    0  502 -0.14261292805E+04  0.65595078347E+03  0.11028152857E+04  0.19184154163E+04  0.25500000920E-02 0. -1.
</event>
<event>
 5   0  0.1442864E-06  0.3503619E+04  0.7818609E-02  0.8112933E-01
       -2   -1    0    0    0  501  0.00000000000E+00  0.00000000000E+00  0.19725059032E+04  0.19725059032E+04  0.25500000920E-02 0. -1.
        2   -1    0    0  501    0  0.00000000000E+00  0.00000000000E+00 -0.15558056496E+04  0.15558056496E+04  0.25500000920E-02 0.  1.
    10030    2    1    2    0    0  0.00000000000E+00  0.00000000000E+00  0.41670025357E+03  0.35283115528E+04  0.35036186026E+04 0.  0.
        1    1    3    3  502    0  0.32849166722E+03 -0.11710783599E+04  0.14779912710E+04  0.19141027918E+04  0.50400001928E-02 0. -1.
       -1    1    3    3    0  502 -0.32849166722E+03  0.11710783599E+04 -0.10612910174E+04  0.16142087610E+04  0.50400001928E-02 0.  1.
</event>
<event>
 5   0  0.4591195E-07  0.3629052E+04  0.7818609E-02  0.8083869E-01
        1   -1    0    0  501    0  0.00000000000E+00  0.00000000000E+00  0.19798109148E+04  0.19798109148E+04  0.50400001928E-02 0. -1.
       -1   -1    0    0    0  501  0.00000000000E+00  0.00000000000E+00 -0.16630397848E+04  0.16630397849E+04  0.50400001928E-02 0.  1.
    10030    2    1    2    0    0  0.00000000000E+00  0.00000000000E+00  0.31677112996E+03  0.36428506997E+04  0.36290518419E+04 0.  0.
        4    1    3    3  502    0  0.52329476975E+03 -0.55486849697E+03  0.18110924498E+04  0.19651396743E+04  0.12699999809E+01 0. -1.
       -4    1    3    3    0  502 -0.52329476975E+03  0.55486849697E+03 -0.14943213198E+04  0.16777110254E+04  0.12699999809E+01 0.  1.
</event>
<event>
 5   0  0.1387133E-06  0.3443617E+04  0.7818609E-02  0.8127284E-01
        2   -1    0    0  501    0  0.00000000000E+00  0.00000000000E+00  0.20819609250E+04  0.20819609250E+04  0.25500000920E-02 0. -1.
       -2   -1    0    0    0  501  0.00000000000E+00  0.00000000000E+00 -0.14239576664E+04  0.14239576664E+04  0.25500000920E-02 0.  1.
    10030    2    1    2    0    0  0.00000000000E+00  0.00000000000E+00  0.65800325855E+03  0.35059185914E+04  0.34436168314E+04 0.  0.
        4    1    3    3  502    0  0.71450811352E+03  0.15071487228E+04 -0.10605074503E+03  0.16713071202E+04  0.12699999809E+01 0.  1.
       -4    1    3    3    0  502 -0.71450811352E+03 -0.15071487228E+04  0.76405400358E+03  0.18346114711E+04  0.12699999809E+01 0. -1.
</event>
<event>
 5   0  0.1378620E-06  0.3437625E+04  0.7818609E-02  0.8128733E-01
       -2   -1    0    0    0  501  0.00000000000E+00  0.00000000000E+00  0.21959991316E+04  0.21959991316E+04  0.25500000920E-02 0. -1.
        2   -1    0    0  501    0  0.00000000000E+00  0.00000000000E+00 -0.13453179448E+04  0.13453179448E+04  0.25500000920E-02 0.  1.
    10030    2    1    2    0    0  0.00000000000E+00  0.00000000000E+00  0.85068118684E+03  0.35413170764E+04  0.34376253655E+04 0.  0.
        2    1    3    3  502    0 -0.13444733638E+04  0.59134368214E+03  0.13450299647E+04  0.19915826828E+04  0.25500000920E-02 0.  1.
       -2    1    3    3    0  502  0.13444733638E+04 -0.59134368214E+03 -0.49434877787E+03  0.15497343936E+04  0.25500000920E-02 0. -1.
</event>
<event>
 5   0  0.4693374E-07  0.3460280E+04  0.7818609E-02  0.8123268E-01
        1   -1    0    0  501    0  0.00000000000E+00  0.00000000000E+00  0.20975608857E+04  0.20975608857E+04  0.50400001928E-02 0. -1.
       -1   -1    0    0    0  501  0.00000000000E+00  0.00000000000E+00 -0.14270785417E+04  0.14270785417E+04  0.50400001928E-02 0.  1.
    10030    2    1    2    0    0  0.00000000000E+00  0.00000000000E+00  0.67048234402E+03  0.35246394275E+04  0.34602798326E+04 0.  0.
        1    1    3    3  502    0  0.86026789160E+03  0.69530751382E+03  0.16903502320E+04  0.20200983370E+04  0.50400001928E-02 0. -1.
       -1    1    3    3    0  502 -0.86026789160E+03 -0.69530751382E+03 -0.10198678880E+04  0.15045410905E+04  0.50400001928E-02 0.  1.
</event>
<event>
 5   0  0.1387133E-06  0.3443120E+04  0.7818609E-02  0.8127404E-01
        2   -1    0    0  501    0  0.00000000000E+00  0.00000000000E+00  0.12151963247E+04  0.12151963247E+04  0.25500000920E-02 0. -1.
       -2   -1    0    0    0  501  0.00000000000E+00  0.00000000000E+00 -0.24389214634E+04  0.24389214634E+04  0.25500000920E-02 0.  1.
    10030    2    1    2    0    0  0.00000000000E+00  0.00000000000E+00 -0.12237251388E+04  0.36541177881E+04  0.34431197473E+04 0.  0.
        4    1    3    3  502    0 -0.32990306302E+03 -0.16890190351E+04 -0.66102009270E+03  0.18435212252E+04  0.12699999809E+01 0.  1.
       -4    1    3    3    0  502  0.32990306302E+03  0.16890190351E+04 -0.56270504609E+03  0.18105965629E+04  0.12699999809E+01 0. -1.
</event>
<event>
 5   0  0.4700769E-07  0.2991582E+04  0.7818609E-02  0.8246139E-01
        1   -1    0    0  501    0  0.00000000000E+00  0.00000000000E+00  0.14551756217E+04  0.14551756217E+04  0.50400001928E-02 0.  1.
       -1   -1    0    0    0  501  0.00000000000E+00  0.00000000000E+00 -0.15375395691E+04  0.15375395691E+04  0.50400001928E-02 0. -1.
    10030    2    1    2    0    0  0.00000000000E+00  0.00000000000E+00 -0.82363947388E+02  0.29927151908E+04  0.29915815873E+04 0.  0.
        3    1    3    3  502    0  0.11968715277E+04 -0.29453688045E+03 -0.88893253388E+03  0.15196889444E+04  0.10100000352E+00 0. -1.
       -3    1    3    3    0  502 -0.11968715277E+04  0.29453688045E+03  0.80656858649E+03  0.14730262464E+04  0.10100000352E+00 0.  1.
</event>
<event>
 5   0  0.1348388E-06  0.3104641E+04  0.7818609E-02  0.8214465E-01
       -2   -1    0    0    0  501  0.00000000000E+00  0.00000000000E+00  0.11107352792E+04  0.11107352792E+04  0.25500000920E-02 0.  1.
        2   -1    0    0  501    0  0.00000000000E+00  0.00000000000E+00 -0.21694632213E+04  0.21694632213E+04  0.25500000920E-02 0. -1.
    10030    2    1    2    0    0  0.00000000000E+00  0.00000000000E+00 -0.10587279421E+04  0.32801985005E+04  0.31046412590E+04 0.  0.
        5    1    3    3  502    0  0.33512043881E+03  0.13197541308E+04 -0.13169134705E+04  0.18942913855E+04  0.46999998093E+01 0. -1.
       -5    1    3    3    0  502 -0.33512043881E+03 -0.13197541308E+04  0.25818552834E+03  0.13859071150E+04  0.46999998093E+01 0.  1.
</event>
<event>
 5   0  0.1348388E-06  0.3464532E+04  0.7818609E-02  0.8122247E-01
       -2   -1    0    0    0  501  0.00000000000E+00  0.00000000000E+00  0.91866848615E+03  0.91866848615E+03  0.25500000920E-02 0. -1.
        2   -1    0    0  501    0  0.00000000000E+00  0.00000000000E+00 -0.32664065160E+04  0.32664065160E+04  0.25500000920E-02 0.  1.
    10030    2    1    2    0    0  0.00000000000E+00  0.00000000000E+00 -0.23477380299E+04  0.41850750022E+04  0.34645315581E+04 0.  0.
        5    1    3    3  502    0 -0.16142299118E+04  0.62446880354E+03 -0.10882546660E+04  0.20445096730E+04  0.46999998093E+01 0.  1.
       -5    1    3    3    0  502  0.16142299118E+04 -0.62446880354E+03 -0.12594833639E+04  0.21405653292E+04  0.46999998093E+01 0. -1.
</event>
<event>
 5   0  0.1442864E-06  0.3494836E+04  0.7818609E-02  0.8115015E-01
       -2   -1    0    0    0  501  0.00000000000E+00  0.00000000000E+00  0.16356231207E+04  0.16356231207E+04  0.25500000920E-02 0.  1.
        2   -1    0    0  501    0  0.00000000000E+00  0.00000000000E+00 -0.18668545256E+04  0.18668545256E+04  0.25500000920E-02 0. -1.
    10030    2    1    2    0    0  0.00000000000E+00  0.00000000000E+00 -0.23123140495E+03  0.35024776463E+04  0.34948364340E+04 0.  0.
        1    1    3    3  502    0  0.10979483191E+04 -0.47319648052E+03  0.11615587470E+04  0.16669205570E+04  0.50400001928E-02 0.  1.
       -1    1    3    3    0  502 -0.10979483191E+04  0.47319648052E+03 -0.13927901520E+04  0.18355570893E+04  0.50400001928E-02 0. -1.
</event>
<event>
 5   0  0.4591195E-07  0.3072562E+04  0.7818609E-02  0.8223309E-01
        1   -1    0    0  501    0  0.00000000000E+00  0.00000000000E+00  0.18952037987E+04  0.18952037987E+04  0.50400001928E-02 0.  1.
       -1   -1    0    0    0  501  0.00000000000E+00  0.00000000000E+00 -0.12453327664E+04  0.12453327664E+04  0.50400001928E-02 0. -1.
    10030    2    1    2    0    0  0.00000000000E+00  0.00000000000E+00  0.64987103233E+03  0.31405365652E+04  0.30725620512E+04 0.  0.
        4    1    3    3  502    0 -0.13313875493E+04 -0.38909752944E+03  0.99997648765E+03  0.17099544680E+04  0.12699999809E+01 0.  1.
       -4    1    3    3    0  502  0.13313875493E+04  0.38909752944E+03 -0.35010545533E+03  0.14305820972E+04  0.12699999809E+01 0. -1.
</event>
<event>
 5   0  0.4700769E-07  0.3465017E+04  0.7818609E-02  0.8122131E-01
       -1   -1    0    0    0  501  0.00000000000E+00  0.00000000000E+00  0.18289413533E+04  0.18289413533E+04  0.50400001928E-02 0. -1.
        1   -1    0    0  501    0  0.00000000000E+00  0.00000000000E+00 -0.16411605040E+04  0.16411605040E+04  0.50400001928E-02 0.  1.
    10030    2    1    2    0    0  0.00000000000E+00  0.00000000000E+00  0.18778084931E+03  0.34701018572E+04  0.34650173524E+04 0.  0.
        3    1    3    3  502    0  0.51367995449E+03  0.11009183000E+04 -0.11431135987E+04  0.16681117794E+04  0.10100000352E+00 0.  1.
       -3    1    3    3    0  502 -0.51367995449E+03 -0.11009183000E+04  0.13308944480E+04  0.18019900779E+04  0.10100000352E+00 0. -1.
</event>
<event>
 5   0  0.4700769E-07  0.3541094E+04  0.7818609E-02  0.8104120E-01
       -1   -1    0    0    0  501  0.00000000000E+00  0.00000000000E+00  0.20401868583E+04  0.20401868583E+04  0.50400001928E-02 0.  1.
        1   -1    0    0  501    0  0.00000000000E+00  0.00000000000E+00 -0.15365441716E+04  0.15365441716E+04  0.50400001928E-02 0. -1.
    10030    2    1    2    0    0  0.00000000000E+00  0.00000000000E+00  0.50364268674E+03  0.35767310299E+04  0.35410943089E+04 0.  0.
        3    1    3    3  502    0  0.11828570095E+04  0.83252361684E+03  0.12831706052E+04  0.19335907245E+04  0.10100000352E+00 0.  1.
       -3    1    3    3    0  502 -0.11828570095E+04 -0.83252361684E+03 -0.77952791844E+03  0.16431403055E+04  0.10100000352E+00 0. -1.
</event>
<event>
 5   0  0.1387133E-06  0.3208947E+04  0.7818609E-02  0.8186458E-01
       -2   -1    0    0    0  501  0.00000000000E+00  0.00000000000E+00  0.12827166395E+04  0.12827166395E+04  0.25500000920E-02 0. -1.
        2   -1    0    0  501    0  0.00000000000E+00  0.00000000000E+00 -0.20069402009E+04  0.20069402009E+04  0.25500000920E-02 0.  1.
    10030    2    1    2    0    0  0.00000000000E+00  0.00000000000E+00 -0.72422356145E+03  0.32896568404E+04  0.32089472356E+04 0.  0.
        4    1    3    3  502    0 -0.92708405045E+03 -0.28696614462E+03 -0.16719406523E+04  0.19331894792E+04  0.12699999809E+01 0.  1.
       -4    1    3    3    0  502  0.92708405045E+03  0.28696614462E+03  0.94771709090E+03  0.13564673612E+04  0.12699999809E+01 0. -1.
</event>
<event>
 5   0  0.4409125E-07  0.3531540E+04  0.7818609E-02  0.8106356E-01
       -1   -1    0    0    0  501  0.00000000000E+00  0.00000000000E+00  0.17888904417E+04  0.17888904417E+04  0.50400001928E-02 0.  1.
        1   -1    0    0  501    0  0.00000000000E+00  0.00000000000E+00 -0.17429484228E+04  0.17429484228E+04  0.50400001928E-02 0. -1.
    10030    2    1    2    0    0  0.00000000000E+00  0.00000000000E+00  0.45942018922E+02  0.35318388645E+04  0.35315400459E+04 0.  0.
        5    1    3    3  502    0 -0.96041996552E+03  0.75405162890E+02  0.15029033837E+04  0.17851703335E+04  0.46999998093E+01 0.  1.
       -5    1    3    3    0  502  0.96041996552E+03 -0.75405162890E+02 -0.14569613648E+04  0.17466685310E+04  0.46999998093E+01 0. -1.
</event>
<event>
 5   0  0.4693374E-07  0.3274636E+04  0.7818609E-02  0.8169379E-01
       -1   -1    0    0    0  501  0.00000000000E+00  0.00000000000E+00  0.14872175442E+04  0.14872175442E+04  0.50400001928E-02 0. -1.
        1   -1    0    0  501    0  0.00000000000E+00  0.00000000000E+00 -0.18025673025E+04  0.18025673025E+04  0.50400001928E-02 0.  1.
    10030    2    1    2    0    0  0.00000000000E+00  0.00000000000E+00 -0.31534975830E+03  0.32897848467E+04  0.32746356847E+04 0.  0.
        1    1    3    3  502    0 -0.12912483964E+04 -0.95960196323E+03  0.14812015139E+03  0.16155797499E+04  0.50400001928E-02 0.  1.
       -1    1    3    3    0  502  0.12912483964E+04  0.95960196323E+03 -0.46346990970E+03  0.16742050968E+04  0.50400001928E-02 0. -1.
</event>
<event>
 5   0  0.4557237E-07  0.3482831E+04  0.7818609E-02  0.8117871E-01
        1   -1    0    0  501    0  0.00000000000E+00  0.00000000000E+00  0.12351884055E+04  0.12351884055E+04  0.50400001928E-02 0.  1.
       -1   -1    0    0    0  501  0.00000000000E+00  0.00000000000E+00 -0.24551137605E+04  0.24551137605E+04  0.50400001928E-02 0. -1.
    10030    2    1    2    0    0  0.00000000000E+00  0.00000000000E+00 -0.12199253550E+04  0.36903021660E+04  0.34828310618E+04 0.  0.
        2    1    3    3  502    0  0.60294596500E+03 -0.15292240389E+04 -0.12190614008E+04  0.20465045069E+04  0.25500000920E-02 0. -1.
       -2    1    3    3    0  502 -0.60294596500E+03  0.15292240389E+04 -0.86395413122E+00  0.16437976591E+04  0.25500000920E-02 0.  1.
</event>
<event>
 5   0  0.1361560E-06  0.3515142E+04  0.7818609E-02  0.8110211E-01
        2   -1    0    0  501    0  0.00000000000E+00  0.00000000000E+00  0.22314459961E+04  0.22314459961E+04  0.25500000920E-02 0. -1.
       -2   -1    0    0    0  501  0.00000000000E+00  0.00000000000E+00 -0.13843289084E+04  0.13843289084E+04  0.25500000920E-02 0.  1.
    10030    2    1    2    0    0  0.00000000000E+00  0.00000000000E+00  0.84711708770E+03  0.36157749046E+04  0.35151416473E+04 0.  0.
        3    1    3    3  502    0 -0.24503186932E+03  0.71611429407E+02 -0.13651570378E+04  0.13888205650E+04  0.10100000352E+00 0.  1.
       -3    1    3    3    0  502  0.24503186932E+03 -0.71611429407E+02  0.22122741255E+04  0.22269543395E+04  0.10100000352E+00 0. -1.
</event>
<event>
 5   0  0.1387133E-06  0.3472943E+04  0.7818609E-02  0.8120232E-01
        2   -1    0    0  501    0  0.00000000000E+00  0.00000000000E+00  0.17665586791E+04  0.17665586791E+04  0.25500000920E-02 0. -1.
       -2   -1    0    0    0  501  0.00000000000E+00  0.00000000000E+00 -0.17068970624E+04  0.17068970624E+04  0.25500000920E-02 0.  1.
    10030    2    1    2    0    0  0.00000000000E+00  0.00000000000E+00  0.59661616663E+02  0.34734557415E+04  0.34729433165E+04 0.  0.
        4    1    3    3  502    0 -0.14324146593E+04  0.17590528869E+02  0.10114087646E+04  0.17535878891E+04  0.12699999809E+01 0. -1.
       -4    1    3    3    0  502  0.14324146593E+04 -0.17590528869E+02 -0.95174714791E+03  0.17198678523E+04  0.12699999809E+01 0.  1.
</event>
<event>
 5   0  0.1442864E-06  0.3467795E+04  0.7818609E-02  0.8121465E-01
        2   -1    0    0  501    0  0.00000000000E+00  0.00000000000E+00  0.12088982049E+04  0.12088982049E+04  0.25500000920E-02 0.  1.
       -2   -1    0    0    0  501  0.00000000000E+00  0.00000000000E+00 -0.24868925447E+04  0.24868925447E+04  0.25500000920E-02 0. -1.
    10030    2    1    2    0    0  0.00000000000E+00  0.00000000000E+00 -0.12779943398E+04  0.36957907496E+04  0.34677946497E+04 0.  0.
        1    1    3    3  502    0 -0.50923810294E+03  0.10508260921E+04 -0.20050005371E+04  0.23202556056E+04  0.50400001928E-02 0. -1.
       -1    1    3    3    0  502  0.50923810294E+03 -0.10508260921E+04  0.72700619737E+03  0.13755351440E+04  0.50400001928E-02 0.  1.
</event>
<event>
 5   0  0.1361560E-06  0.3554206E+04  0.7818609E-02  0.8101063E-01
       -2   -1    0    0    0  501  0.00000000000E+00  0.00000000000E+00  0.16986770023E+04  0.16986770023E+04  0.25500000920E-02 0. -1.
        2   -1    0    0  501    0  0.00000000000E+00  0.00000000000E+00 -0.18591496774E+04  0.18591496774E+04  0.25500000920E-02 0.  1.
    10030    2    1    2    0    0  0.00000000000E+00  0.00000000000E+00 -0.16047267511E+03  0.35578266796E+04  0.35542058470E+04 0.  0.
        3    1    3    3  502    0 -0.80443328955E+03 -0.96409132236E+03 -0.13390984229E+04  0.18356932183E+04  0.10100000352E+00 0.  1.
       -3    1    3    3    0  502  0.80443328955E+03  0.96409132236E+03  0.11786257478E+04  0.17221334614E+04  0.10100000352E+00 0. -1.
</event>
<event>
 5   0  0.4409125E-07  0.3453035E+04  0.7818609E-02  0.8125011E-01
        1   -1    0    0  501    0  0.00000000000E+00  0.00000000000E+00  0.95692139797E+03  0.95692139799E+03  0.50400001928E-02 0. -1.
       -1   -1    0    0    0  501  0.00000000000E+00  0.00000000000E+00 -0.31150543847E+04  0.31150543847E+04  0.50400001928E-02 0.  1.
    10030    2    1    2    0    0  0.00000000000E+00  0.00000000000E+00 -0.21581329868E+04  0.40719757827E+04  0.34530347213E+04 0.  0.
        5    1    3    3  502    0  0.16627514994E+04  0.43893276723E+03 -0.12595934785E+04  0.21316665649E+04  0.46999998093E+01 0. -1.
       -5    1    3    3    0  502 -0.16627514994E+04 -0.43893276723E+03 -0.89853950823E+03  0.19403092178E+04  0.46999998093E+01 0.  1.
</event>
<event>
 5   0  0.4591195E-07  0.3416178E+04  0.7818609E-02  0.8133947E-01
       -1   -1    0    0    0  501  0.00000000000E+00  0.00000000000E+00  0.17282195021E+04  0.17282195021E+04  0.50400001928E-02 0. -1.
        1   -1    0    0  501    0  0.00000000000E+00  0.00000000000E+00 -0.16881931324E+04  0.16881931324E+04  0.50400001928E-02 0.  1.
    10030    2    1    2    0    0  0.00000000000E+00  0.00000000000E+00  0.40026369735E+02  0.34164126345E+04  0.34161781539E+04 0.  0.
        4    1    3    3  502    0 -0.42047127764E+03 -0.20839196066E+03 -0.16224586329E+04  0.16889632716E+04  0.12699999809E+01 0.  1.
       -4    1    3    3    0  502  0.42047127764E+03  0.20839196066E+03  0.16624850026E+04  0.17274493629E+04  0.12699999809E+01 0. -1.
</event>
<event>
 5   0  0.4409125E-07  0.3531815E+04  0.7818609E-02  0.8106291E-01
        1   -1    0    0  501    0  0.00000000000E+00  0.00000000000E+00  0.22106623827E+04  0.22106623827E+04  0.50400001928E-02 0. -1.
       -1   -1    0    0    0  501  0.00000000000E+00  0.00000000000E+00 -0.14106310673E+04  0.14106310673E+04  0.50400001928E-02 0.  1.
    10030    2    1    2    0    0  0.00000000000E+00  0.00000000000E+00  0.80003131540E+03  0.36212934499E+04  0.35318148515E+04 0.  0.
        5    1    3    3  502    0  0.45668601307E+02  0.11158646238E+04 -0.10025465081E+04  0.15007868172E+04  0.46999998093E+01 0.  1.
       -5    1    3    3    0  502 -0.45668601307E+02 -0.11158646238E+04  0.18025778235E+04  0.21205066328E+04  0.46999998093E+01 0. -1.
</event>
<event>
 5   0  0.4700769E-07  0.3459081E+04  0.7818609E-02  0.8123556E-01
       -1   -1    0    0    0  501  0.00000000000E+00  0.00000000000E+00  0.13478750379E+04  0.13478750379E+04  0.50400001928E-02 0. -1.
        1   -1    0    0  501    0  0.00000000000E+00  0.00000000000E+00 -0.22192784565E+04  0.22192784566E+04  0.50400001928E-02 0.  1.
    10030    2    1    2    0    0  0.00000000000E+00  0.00000000000E+00 -0.87140341865E+03  0.35671534945E+04  0.34590808223E+04 0.  0.
        3    1    3    3  502    0 -0.11768686491E+03  0.17111731158E+04 -0.66478256402E+03  0.18395378491E+04  0.10100000352E+00 0.  1.
       -3    1    3    3    0  502  0.11768686491E+03 -0.17111731158E+04 -0.20662085463E+03  0.17276156454E+04  0.10100000352E+00 0. -1.
</event>
<event>
 5   0  0.1387133E-06  0.3493565E+04  0.7818609E-02  0.8115317E-01
       -2   -1    0    0    0  501  0.00000000000E+00  0.00000000000E+00  0.15093592098E+04  0.15093592098E+04  0.25500000920E-02 0.  1.
        2   -1    0    0  501    0  0.00000000000E+00  0.00000000000E+00 -0.20215528110E+04  0.20215528110E+04  0.25500000920E-02 0. -1.
    10030    2    1    2    0    0  0.00000000000E+00  0.00000000000E+00 -0.51219360124E+03  0.35309120208E+04  0.34935651438E+04 0.  0.
        4    1    3    3  502    0  0.73318332513E+03 -0.85012281996E+03  0.10964850550E+04  0.15692506766E+04  0.12699999809E+01 0.  1.
       -4    1    3    3    0  502 -0.73318332513E+03  0.85012281996E+03 -0.16086786563E+04  0.19616613442E+04  0.12699999809E+01 0. -1.
</event>
<event>
 5   0  0.1442864E-06  0.3434001E+04  0.7818609E-02  0.8129611E-01
       -2   -1    0    0    0  501  0.00000000000E+00  0.00000000000E+00  0.11485379307E+04  0.11485379307E+04  0.25500000920E-02 0. -1.
        2   -1    0    0  501    0  0.00000000000E+00  0.00000000000E+00 -0.25668202405E+04  0.25668202405E+04  0.25500000920E-02 0.  1.
    10030    2    1    2    0    0  0.00000000000E+00  0.00000000000E+00 -0.14182823099E+04  0.37153581712E+04  0.34340008197E+04 0.  0.
        1    1    3    3  502    0 -0.15525607403E+03  0.63847581457E+03  0.10071244020E+04  0.12025204262E+04  0.50400001928E-02 0. -1.
       -1    1    3    3    0  502  0.15525607403E+03 -0.63847581457E+03 -0.24254067119E+04  0.25128377449E+04  0.50400001928E-02 0.  1.
</event>
<event>
 5   0  0.1378620E-06  0.3514430E+04  0.7818609E-02  0.8110379E-01
       -2   -1    0    0    0  501  0.00000000000E+00  0.00000000000E+00  0.20830400922E+04  0.20830400922E+04  0.25500000920E-02 0. -1.
        2   -1    0    0  501    0  0.00000000000E+00  0.00000000000E+00 -0.14823550210E+04  0.14823550210E+04  0.25500000920E-02 0.  1.
    10030    2    1    2    0    0  0.00000000000E+00  0.00000000000E+00  0.60068507119E+03  0.35653951132E+04  0.35144302182E+04 0.  0.
        2    1    3    3  502    0 -0.11823863059E+04  0.52005500520E+03 -0.90828205470E+03  0.15790727899E+04  0.25500000920E-02 0. -1.
       -2    1    3    3    0  502  0.11823863059E+04 -0.52005500520E+03  0.15089671259E+04  0.19863223233E+04  0.25500000920E-02 0.  1.
</event>
<event>
 5   0  0.4700769E-07  0.3480346E+04  0.7818609E-02  0.8118464E-01
       -1   -1    0    0    0  501  0.00000000000E+00  0.00000000000E+00  0.21180244979E+04  0.21180244979E+04  0.50400001928E-02 0. -1.
        1   -1    0    0  501    0  0.00000000000E+00  0.00000000000E+00 -0.14297295812E+04  0.14297295812E+04  0.50400001928E-02 0.  1.
    10030    2    1    2    0    0  0.00000000000E+00  0.00000000000E+00  0.68829491678E+03  0.35477540791E+04  0.34803461198E+04 0.  0.
        3    1    3    3  502    0 -0.14102580449E+04 -0.21183766760E+03  0.13607081589E+04  0.19710985907E+04  0.10100000352E+00 0. -1.
       -3    1    3    3    0  502  0.14102580449E+04  0.21183766760E+03 -0.67241324211E+03  0.15766554884E+04  0.10100000352E+00 0.  1.
</event>
<event>
 5   0  0.1361560E-06  0.3560436E+04  0.7818609E-02  0.8099615E-01
       -2   -1    0    0    0  501  0.00000000000E+00  0.00000000000E+00  0.17886860583E+04  0.17886860583E+04  0.25500000920E-02 0.  1.
        2   -1    0    0  501    0  0.00000000000E+00  0.00000000000E+00 -0.17717899898E+04  0.17717899898E+04  0.25500000920E-02 0. -1.
    10030    2    1    2    0    0  0.00000000000E+00  0.00000000000E+00  0.16896068530E+02  0.35604760481E+04  0.35604359581E+04 0.  0.
        3    1    3    3  502    0  0.13492533466E+04 -0.10714379167E+04  0.45646227525E+03  0.17823640542E+04  0.10100000352E+00 0.  1.
       -3    1    3    3    0  502 -0.13492533466E+04  0.10714379167E+04 -0.43956620672E+03  0.17781119939E+04  0.10100000352E+00 0. -1.
</event>
<event>
 5   0  0.1348388E-06  0.3514342E+04  0.7818609E-02  0.8110399E-01
       -2   -1    0    0    0  501  0.00000000000E+00  0.00000000000E+00  0.13267769386E+04  0.13267769386E+04  0.25500000920E-02 0. -1.
        2   -1    0    0  501    0  0.00000000000E+00  0.00000000000E+00 -0.23271813080E+04  0.23271813080E+04  0.25500000920E-02 0.  1.
    10030    2    1    2    0    0  0.00000000000E+00  0.00000000000E+00 -0.10004043694E+04  0.36539582466E+04  0.35143423233E+04 0.  0.
        5    1    3    3  502    0  0.28801481607E+03  0.92572596295E+03 -0.20239288408E+04  0.22441548822E+04  0.46999998093E+01 0.  1.
       -5    1    3    3    0  502 -0.28801481607E+03 -0.92572596295E+03  0.10235244714E+04  0.14098033644E+04  0.46999998093E+01 0. -1.
</event>
<event>
 5   0  0.1442864E-06  0.3503665E+04  0.7818609E-02  0.8112922E-01
        2   -1    0    0  501    0  0.00000000000E+00  0.00000000000E+00  0.30724443099E+04  0.30724443099E+04  0.25500000920E-02 0. -1.
       -2   -1    0    0    0  501  0.00000000000E+00  0.00000000000E+00 -0.99885186538E+03  0.99885186539E+03  0.25500000920E-02 0.  1.
    10030    2    1    2    0    0  0.00000000000E+00  0.00000000000E+00  0.20735924445E+04  0.40712961753E+04  0.35036647843E+04 0.  0.
        1    1    3    3  502    0  0.77526309933E+02 -0.16509984052E+04  0.36211845834E+03  0.16920212294E+04  0.50400001928E-02 0. -1.
       -1    1    3    3    0  502 -0.77526309933E+02  0.16509984052E+04  0.17114739862E+04  0.23792749459E+04  0.50400001928E-02 0.  1.
</event>
<event>
 5   0  0.4700769E-07  0.2706719E+04  0.7818609E-02  0.8332828E-01
       -1   -1    0    0    0  501  0.00000000000E+00  0.00000000000E+00  0.89358054008E+03  0.89358054009E+03  0.50400001928E-02 0.  1.
        1   -1    0    0  501    0  0.00000000000E+00  0.00000000000E+00 -0.20497107542E+04  0.20497107543E+04  0.50400001928E-02 0. -1.
    10030    2    1    2    0    0  0.00000000000E+00  0.00000000000E+00 -0.11561302142E+04  0.29432912943E+04  0.27067187832E+04 0.  0.
        3    1    3    3  502    0  0.11102887986E+04  0.63166203057E+03 -0.91954477474E+02  0.12807005010E+04  0.10100000352E+00 0.  1.
       -3    1    3    3    0  502 -0.11102887986E+04 -0.63166203057E+03 -0.10641757367E+04  0.16625907933E+04  0.10100000352E+00 0. -1.
</event>
<event>
 5   0  0.4591195E-07  0.3511393E+04  0.7818609E-02  0.8111095E-01
       -1   -1    0    0    0  501  0.00000000000E+00  0.00000000000E+00  0.11695264169E+04  0.11695264169E+04  0.50400001928E-02 0. -1.
        1   -1    0    0  501    0  0.00000000000E+00  0.00000000000E+00 -0.26356573589E+04  0.26356573589E+04  0.50400001928E-02 0.  1.
    10030    2    1    2    0    0  0.00000000000E+00  0.00000000000E+00 -0.14661309420E+04  0.38051837758E+04  0.35113934027E+04 0.  0.
        4    1    3    3  502    0  0.12633082072E+04  0.94036462835E+03 -0.15740335592E+04  0.22266154852E+04  0.12699999809E+01 0.  1.
       -4    1    3    3    0  502 -0.12633082072E+04 -0.94036462835E+03  0.10790261716E+03  0.15785682907E+04  0.12699999809E+01 0. -1.
</event>
<event>
 5   0  0.4409125E-07  0.3355489E+04  0.7818609E-02  0.8148918E-01
       -1   -1    0    0    0  501  0.00000000000E+00  0.00000000000E+00  0.11332385336E+04  0.11332385336E+04  0.50400001928E-02 0.  1.
        1   -1    0    0  501    0  0.00000000000E+00  0.00000000000E+00 -0.24838777035E+04  0.24838777035E+04  0.50400001928E-02 0. -1.
    10030    2    1    2    0    0  0.00000000000E+00  0.00000000000E+00 -0.13506391699E+04  0.36171162371E+04  0.33554885941E+04 0.  0.
        5    1    3    3  502    0 -0.15112049807E+04  0.67923127127E+03 -0.39071053675E+03  0.17022844731E+04  0.46999998093E+01 0.  1.
       -5    1    3    3    0  502  0.15112049807E+04 -0.67923127127E+03 -0.95992863312E+03  0.19148317640E+04  0.46999998093E+01 0. -1.
</event>
<event>
 5   0  0.1387133E-06  0.3527992E+04  0.7818609E-02  0.8107188E-01
       -2   -1    0    0    0  501  0.00000000000E+00  0.00000000000E+00  0.18551079287E+04  0.18551079287E+04  0.25500000920E-02 0.  1.
        2   -1    0    0  501    0  0.00000000000E+00  0.00000000000E+00 -0.16773590534E+04  0.16773590534E+04  0.25500000920E-02 0. -1.
    10030    2    1    2    0    0  0.00000000000E+00  0.00000000000E+00  0.17774887529E+03  0.35324669822E+04  0.35279921085E+04 0.  0.
        4    1    3    3  502    0 -0.46413868409E+03 -0.10896015386E+03  0.17893758714E+04  0.18518003821E+04  0.12699999809E+01 0.  1.
       -4    1    3    3    0  502  0.46413868409E+03  0.10896015386E+03 -0.16116269961E+04  0.16806666001E+04  0.12699999809E+01 0. -1.
</event>
<event>
 5   0  0.1348388E-06  0.3510834E+04  0.7818609E-02  0.8111227E-01
       -2   -1    0    0    0  501  0.00000000000E+00  0.00000000000E+00  0.29698673913E+04  0.29698673913E+04  0.25500000920E-02 0.  1.
        2   -1    0    0  501    0  0.00000000000E+00  0.00000000000E+00 -0.10375847182E+04  0.10375847182E+04  0.25500000920E-02 0. -1.
    10030    2    1    2    0    0  0.00000000000E+00  0.00000000000E+00  0.19322826731E+04  0.40074521095E+04  0.35108341005E+04 0.  0.
        5    1    3    3  502    0 -0.15639010349E+04 -0.54948524904E+03  0.30671489563E+03  0.16857688463E+04  0.46999998093E+01 0. -1.
       -5    1    3    3    0  502  0.15639010349E+04  0.54948524904E+03  0.16255677774E+04  0.23216832633E+04  0.46999998093E+01 0.  1.
</event>
<event>
 5   0  0.1378620E-06  0.3548294E+04  0.7818609E-02  0.8102439E-01
       -2   -1    0    0    0  501  0.00000000000E+00  0.00000000000E+00  0.17177097398E+04  0.17177097398E+04  0.25500000920E-02 0.  1.
        2   -1    0    0  501    0  0.00000000000E+00  0.00000000000E+00 -0.18324385121E+04  0.18324385121E+04  0.25500000920E-02 0. -1.
    10030    2    1    2    0    0  0.00000000000E+00  0.00000000000E+00 -0.11472877238E+03  0.35501482519E+04  0.35482939449E+04 0.  0.
        2    1    3    3  502    0  0.16305282867E+04  0.44010631735E+03 -0.60104638808E+03  0.17926440876E+04  0.25500000920E-02 0. -1.
       -2    1    3    3    0  502 -0.16305282867E+04 -0.44010631735E+03  0.48631761570E+03  0.17575041643E+04  0.25500000920E-02 0.  1.
</event>
<event>
 5   0  0.1361560E-06  0.3627916E+04  0.7818609E-02  0.8084127E-01
       -2   -1    0    0    0  501  0.00000000000E+00  0.00000000000E+00  0.12139940758E+04  0.12139940758E+04  0.25500000920E-02 0.  1.
        2   -1    0    0  501    0  0.00000000000E+00  0.00000000000E+00 -0.27104277863E+04  0.27104277863E+04  0.25500000920E-02 0. -1.
    10030    2    1    2    0    0  0.00000000000E+00  0.00000000000E+00 -0.14964337106E+04  0.39244218621E+04  0.36279158068E+04 0.  0.
        3    1    3    3  502    0 -0.14334136642E+04 -0.31815585398E+02 -0.19502297098E+04  0.24205542538E+04  0.10100000352E+00 0. -1.
       -3    1    3    3    0  502  0.14334136642E+04  0.31815585398E+02  0.45379599927E+03  0.15038676083E+04  0.10100000352E+00 0.  1.
</event>
<event>
 5   0  0.1378620E-06  0.3430609E+04  0.7818609E-02  0.8130435E-01
       -2   -1    0    0    0  501  0.00000000000E+00  0.00000000000E+00  0.24875942226E+04  0.24875942226E+04  0.25500000920E-02 0.  1.
        2   -1    0    0  501    0  0.00000000000E+00  0.00000000000E+00 -0.11827768241E+04  0.11827768241E+04  0.25500000920E-02 0. -1.
    10030    2    1    2    0    0  0.00000000000E+00  0.00000000000E+00  0.13048173985E+04  0.36703710466E+04  0.34306085723E+04 0.  0.
        2    1    3    3  502    0 -0.17784023834E+03  0.38771926039E+03 -0.11251262873E+04  0.12032715976E+04  0.25500000920E-02 0. -1.
       -2    1    3    3    0  502  0.17784023834E+03 -0.38771926039E+03  0.24299436858E+04  0.24670994490E+04  0.25500000920E-02 0.  1.
</event>
<event>
 5   0  0.1361560E-06  0.3494957E+04  0.7818609E-02  0.8114986E-01
       -2   -1    0    0    0  501  0.00000000000E+00  0.00000000000E+00  0.11333913855E+04  0.11333913855E+04  0.25500000920E-02 0.  1.
        2   -1    0    0  501    0  0.00000000000E+00  0.00000000000E+00 -0.26942868126E+04  0.26942868126E+04  0.25500000920E-02 0. -1.
    10030    2    1    2    0    0  0.00000000000E+00  0.00000000000E+00 -0.15608954270E+04  0.38276781981E+04  0.34949572035E+04 0.  0.
        3    1    3    3  502    0 -0.61423867322E+03 -0.16295329466E+04 -0.62168264224E+03  0.18490960196E+04  0.10100000352E+00 0. -1.
       -3    1    3    3    0  502  0.61423867322E+03  0.16295329466E+04 -0.93921278481E+03  0.19785821785E+04  0.10100000352E+00 0.  1.
</event>
<event>
 5   0  0.1361560E-06  0.3499028E+04  0.7818609E-02  0.8114020E-01
        2   -1    0    0  501    0  0.00000000000E+00  0.00000000000E+00  0.16837972613E+04  0.16837972613E+04  0.25500000920E-02 0. -1.
       -2   -1    0    0    0  501  0.00000000000E+00  0.00000000000E+00 -0.18177953582E+04  0.18177953582E+04  0.25500000920E-02 0.  1.
    10030    2    1    2    0    0  0.00000000000E+00  0.00000000000E+00 -0.13399809689E+03  0.35015926196E+04  0.34990277769E+04 0.  0.
        3    1    3    3  502    0 -0.12527878394E+04 -0.11636228345E+04 -0.43781534939E+03  0.17649866180E+04  0.10100000352E+00 0.  1.
       -3    1    3    3    0  502  0.12527878394E+04  0.11636228345E+04  0.30381725250E+03  0.17366060015E+04  0.10100000352E+00 0. -1.
</event>
<event>
 5   0  0.1387133E-06  0.3582116E+04  0.7818609E-02  0.8094601E-01
       -2   -1    0    0    0  501  0.00000000000E+00  0.00000000000E+00  0.13703345759E+04  0.13703345759E+04  0.25500000920E-02 0. -1.
        2   -1    0    0  501    0  0.00000000000E+00  0.00000000000E+00 -0.23409523887E+04  0.23409523887E+04  0.25500000920E-02 0.  1.
    10030    2    1    2    0    0  0.00000000000E+00  0.00000000000E+00 -0.97061781279E+03  0.37112869646E+04  0.35821155753E+04 0.  0.
        4    1    3    3  502    0 -0.11584689716E+04 -0.54134916027E+02 -0.18994096396E+04  0.22254751266E+04  0.12699999809E+01 0.  1.
       -4    1    3    3    0  502  0.11584689716E+04  0.54134916027E+02  0.92879182681E+03  0.14858118379E+04  0.12699999809E+01 0. -1.
</event>
<event>
 5   0  0.4409125E-07  0.3580006E+04  0.7818609E-02  0.8095087E-01
        1   -1    0    0  501    0  0.00000000000E+00  0.00000000000E+00  0.18456168404E+04  0.18456168404E+04  0.50400001928E-02 0.  1.
       -1   -1    0    0    0  501  0.00000000000E+00  0.00000000000E+00 -0.17360647784E+04  0.17360647784E+04  0.50400001928E-02 0. -1.
    10030    2    1    2    0    0  0.00000000000E+00  0.00000000000E+00  0.10955206202E+03  0.35816816187E+04  0.35800058050E+04 0.  0.
        5    1    3    3  502    0 -0.75145903450E+03  0.58679388354E+03 -0.14608821505E+04  0.17444817253E+04  0.46999998093E+01 0. -1.
       -5    1    3    3    0  502  0.75145903450E+03 -0.58679388354E+03  0.15704342126E+04  0.18371998934E+04  0.46999998093E+01 0.  1.
</event>
<event>
 5   0  0.4557237E-07  0.3427244E+04  0.7818609E-02  0.8131252E-01
        1   -1    0    0  501    0  0.00000000000E+00  0.00000000000E+00  0.22118184968E+04  0.22118184968E+04  0.50400001928E-02 0.  1.
       -1   -1    0    0    0  501  0.00000000000E+00  0.00000000000E+00 -0.13276409381E+04  0.13276409381E+04  0.50400001928E-02 0. -1.
    10030    2    1    2    0    0  0.00000000000E+00  0.00000000000E+00  0.88417755874E+03  0.35394594349E+04  0.34272442480E+04 0.  0.
        2    1    3    3  502    0 -0.15249496505E+04  0.63118401269E+03 -0.34134226034E+02  0.16507664401E+04  0.25500000920E-02 0. -1.
       -2    1    3    3    0  502  0.15249496505E+04 -0.63118401269E+03  0.91831178477E+03  0.18886929948E+04  0.25500000920E-02 0.  1.
</event>
<event>
 5   0  0.4557237E-07  0.3478762E+04  0.7818609E-02  0.8118842E-01
       -1   -1    0    0    0  501  0.00000000000E+00  0.00000000000E+00  0.17374358766E+04  0.17374358766E+04  0.50400001928E-02 0.  1.
        1   -1    0    0  501    0  0.00000000000E+00  0.00000000000E+00 -0.17413279396E+04  0.17413279396E+04  0.50400001928E-02 0. -1.
    10030    2    1    2    0    0  0.00000000000E+00  0.00000000000E+00 -0.38920629773E+01  0.34787638162E+04  0.34787616390E+04 0.  0.
        2    1    3    3  502    0 -0.48793336158E+02  0.11821684383E+04 -0.12769145267E+04  0.17408083509E+04  0.25500000920E-02 0. -1.
       -2    1    3    3    0  502  0.48793336158E+02 -0.11821684383E+04  0.12730224637E+04  0.17379554653E+04  0.25500000920E-02 0.  1.
</event>
<event>
 5   0  0.4700769E-07  0.3522859E+04  0.7818609E-02  0.8108394E-01
       -1   -1    0    0    0  501  0.00000000000E+00  0.00000000000E+00  0.21034808799E+04  0.21034808799E+04  0.50400001928E-02 0. -1.
        1   -1    0    0  501    0  0.00000000000E+00  0.00000000000E+00 -0.14750001024E+04  0.14750001024E+04  0.50400001928E-02 0.  1.
    10030    2    1    2    0    0  0.00000000000E+00  0.00000000000E+00  0.62848077744E+03  0.35784809823E+04  0.35228593575E+04 0.  0.
        3    1    3    3  502    0  0.14162381706E+04 -0.53854789515E+03  0.12266822936E+04  0.19494906645E+04  0.10100000352E+00 0. -1.
       -3    1    3    3    0  502 -0.14162381706E+04  0.53854789515E+03 -0.59820151613E+03  0.16289903178E+04  0.10100000352E+00 0.  1.
</event>
<event>
 5   0  0.1442864E-06  0.3464830E+04  0.7818609E-02  0.8122176E-01
        2   -1    0    0  501    0  0.00000000000E+00  0.00000000000E+00  0.11454684051E+04  0.11454684051E+04  0.25500000920E-02 0. -1.
       -2   -1    0    0    0  501  0.00000000000E+00  0.00000000000E+00 -0.26201181118E+04  0.26201181118E+04  0.25500000920E-02 0.  1.
    10030    2    1    2    0    0  0.00000000000E+00  0.00000000000E+00 -0.14746497067E+04  0.37655865169E+04  0.34648304517E+04 0.  0.
        1    1    3    3  502    0 -0.94268863935E+03  0.17344794317E+03  0.83103191843E+03  0.12686055767E+04  0.50400001928E-02 0. -1.
       -1    1    3    3    0  502  0.94268863935E+03 -0.17344794317E+03 -0.23056816251E+04  0.24969809403E+04  0.50400001928E-02 0.  1.
</event>
<event>
 5   0  0.4700769E-07  0.3505018E+04  0.7818609E-02  0.8112602E-01
       -1   -1    0    0    0  501  0.00000000000E+00  0.00000000000E+00  0.29804609003E+04  0.29804609003E+04  0.50400001928E-02 0.  1.
        1   -1    0    0  501    0  0.00000000000E+00  0.00000000000E+00 -0.10304741912E+04  0.10304741912E+04  0.50400001928E-02 0. -1.
    10030    2    1    2    0    0  0.00000000000E+00  0.00000000000E+00  0.19499867091E+04  0.40109350915E+04  0.35050181373E+04 0.  0.
        3    1    3    3  502    0 -0.13001551234E+04 -0.13751966333E+03 -0.36049349830E+03  0.13561971004E+04  0.10100000352E+00 0. -1.
       -3    1    3    3    0  502  0.13001551234E+04  0.13751966333E+03  0.23104802074E+04  0.26547379911E+04  0.10100000352E+00 0.  1.
</event>
<event>
 5   0  0.1361560E-06  0.3518779E+04  0.7818609E-02  0.8109354E-01
        2   -1    0    0  501    0  0.00000000000E+00  0.00000000000E+00  0.16390683424E+04  0.16390683424E+04  0.25500000920E-02 0.  1.
       -2   -1    0    0    0  501  0.00000000000E+00  0.00000000000E+00 -0.18885427675E+04  0.18885427675E+04  0.25500000920E-02 0. -1.
    10030    2    1    2    0    0  0.00000000000E+00  0.00000000000E+00 -0.24947442509E+03  0.35276111099E+04  0.35187785742E+04 0.  0.
        3    1    3    3  502    0  0.57068276641E+03 -0.16150175389E+04  0.27812990903E+03  0.17353145903E+04  0.10100000352E+00 0.  1.
       -3    1    3    3    0  502 -0.57068276641E+03  0.16150175389E+04 -0.52760433412E+03  0.17922965196E+04  0.10100000352E+00 0. -1.
</event>
<event>
 5   0  0.4693374E-07  0.3457683E+04  0.7818609E-02  0.8123892E-01
       -1   -1    0    0    0  501  0.00000000000E+00  0.00000000000E+00  0.31477669760E+04  0.31477669760E+04  0.50400001928E-02 0. -1.
        1   -1    0    0  501    0  0.00000000000E+00  0.00000000000E+00 -0.94952799541E+03  0.94952799542E+03  0.50400001928E-02 0.  1.
    10030    2    1    2    0    0  0.00000000000E+00  0.00000000000E+00  0.21982389806E+04  0.40972949715E+04  0.34576829622E+04 0.  0.
        1    1    3    3  502    0  0.30167880741E+03 -0.16021550852E+04  0.41738675504E+03  0.16828911798E+04  0.50400001928E-02 0.  1.
       -1    1    3    3    0  502 -0.30167880741E+03  0.16021550852E+04  0.17808522256E+04  0.24144037916E+04  0.50400001928E-02 0. -1.
</event>
<event>
 5   0  0.1387133E-06  0.3628413E+04  0.7818609E-02  0.8084014E-01
        2   -1    0    0  501    0  0.00000000000E+00  0.00000000000E+00  0.20479099602E+04  0.20479099602E+04  0.25500000920E-02 0.  1.
       -2   -1    0    0    0  501  0.00000000000E+00  0.00000000000E+00 -0.16071729041E+04  0.16071729041E+04  0.25500000920E-02 0. -1.
    10030    2    1    2    0    0  0.00000000000E+00  0.00000000000E+00  0.44073705609E+03  0.36550828643E+04  0.36284130956E+04 0.  0.
        4    1    3    3  502    0 -0.13872171003E+04 -0.50447570640E+03  0.12828612794E+04  0.19556588907E+04  0.12699999809E+01 0.  1.
       -4    1    3    3    0  502  0.13872171003E+04  0.50447570640E+03 -0.84212422329E+03  0.16994239736E+04  0.12699999809E+01 0. -1.
</event>
<event>
 5   0  0.1387133E-06  0.3557880E+04  0.7818609E-02  0.8100209E-01
       -2   -1    0    0    0  501  0.00000000000E+00  0.00000000000E+00  0.28935415286E+04  0.28935415286E+04  0.25500000920E-02 0.  1.
        2   -1    0    0  501    0  0.00000000000E+00  0.00000000000E+00 -0.10936862761E+04  0.10936862761E+04  0.25500000920E-02 0. -1.
    10030    2    1    2    0    0  0.00000000000E+00  0.00000000000E+00  0.17998552524E+04  0.39872278047E+04  0.35578795141E+04 0.  0.
        4    1    3    3  502    0  0.68319474587E+03  0.66075379780E+03 -0.78529175745E+03  0.12328971568E+04  0.12699999809E+01 0. -1.
       -4    1    3    3    0  502 -0.68319474587E+03 -0.66075379780E+03  0.25851470099E+04  0.27543306479E+04  0.12699999809E+01 0.  1.
</event>
<event>
 5   0  0.4409125E-07  0.3549633E+04  0.7818609E-02  0.8102127E-01
        1   -1    0    0  501    0  0.00000000000E+00  0.00000000000E+00  0.20167921870E+04  0.20167921870E+04  0.50400001928E-02 0. -1.
       -1   -1    0    0    0  501  0.00000000000E+00  0.00000000000E+00 -0.15618729821E+04  0.15618729821E+04  0.50400001928E-02 0.  1.
    10030    2    1    2    0    0  0.00000000000E+00  0.00000000000E+00  0.45491920487E+03  0.35786651691E+04  0.35496327851E+04 0.  0.
        5    1    3    3  502    0  0.12611796612E+04  0.34605051464E+03 -0.98219807542E+03  0.16355611410E+04  0.46999998093E+01 0.  1.
       -5    1    3    3    0  502 -0.12611796612E+04 -0.34605051464E+03  0.14371172803E+04  0.19431040281E+04  0.46999998093E+01 0. -1.
</event>
<event>
 5   0  0.4700769E-07  0.3373182E+04  0.7818609E-02  0.8144520E-01
       -1   -1    0    0    0  501  0.00000000000E+00  0.00000000000E+00  0.20707932801E+04  0.20707932801E+04  0.50400001928E-02 0.  1.
        1   -1    0    0  501    0  0.00000000000E+00  0.00000000000E+00 -0.13736709335E+04  0.13736709335E+04  0.50400001928E-02 0. -1.
    10030    2    1    2    0    0  0.00000000000E+00  0.00000000000E+00  0.69712234653E+03  0.34444642136E+04  0.33731816069E+04 0.  0.
        3    1    3    3  502    0  0.31586253266E+03 -0.14179326927E+04 -0.52645213134E+03  0.15451388667E+04  0.10100000352E+00 0.  1.
       -3    1    3    3    0  502 -0.31586253266E+03  0.14179326927E+04  0.12235744779E+04  0.18993253469E+04  0.10100000352E+00 0. -1.
</event>
<event>
 5   0  0.4557237E-07  0.3309889E+04  0.7818609E-02  0.8160384E-01
        1   -1    0    0  501    0  0.00000000000E+00  0.00000000000E+00  0.99159516511E+03  0.99159516513E+03  0.50400001928E-02 0.  1.
       -1   -1    0    0    0  501  0.00000000000E+00  0.00000000000E+00 -0.27620553499E+04  0.27620553499E+04  0.50400001928E-02 0. -1.
    10030    2    1    2    0    0  0.00000000000E+00  0.00000000000E+00 -0.17704601848E+04  0.37536505150E+04  0.33098886572E+04 0.  0.
        2    1    3    3  502    0 -0.15611516815E+04 -0.31682595813E+03 -0.37645335680E+03  0.16368538085E+04  0.25500000920E-02 0.  1.
       -2    1    3    3    0  502  0.15611516815E+04  0.31682595813E+03 -0.13940068280E+04  0.21167967066E+04  0.25500000920E-02 0. -1.
</event>
<event>
 5   0  0.1387133E-06  0.3477881E+04  0.7818609E-02  0.8119052E-01
        2   -1    0    0  501    0  0.00000000000E+00  0.00000000000E+00  0.31073478449E+04  0.31073478449E+04  0.25500000920E-02 0. -1.
       -2   -1    0    0    0  501  0.00000000000E+00  0.00000000000E+00 -0.97314976823E+03  0.97314976824E+03  0.25500000920E-02 0.  1.
    10030    2    1    2    0    0  0.00000000000E+00  0.00000000000E+00  0.21341980767E+04  0.40804976131E+04  0.34778814443E+04 0.  0.
        4    1    3    3  502    0  0.10500805057E+04 -0.86315181646E+03 -0.20535281866E+03  0.13747259799E+04  0.12699999809E+01 0.  1.
       -4    1    3    3    0  502 -0.10500805057E+04  0.86315181646E+03  0.23395508953E+04  0.27057716333E+04  0.12699999809E+01 0. -1.
</event>
<event>
 5   0  0.4700769E-07  0.3249130E+04  0.7818609E-02  0.8175961E-01
       -1   -1    0    0    0  501  0.00000000000E+00  0.00000000000E+00  0.18323376750E+04  0.18323376750E+04  0.50400001928E-02 0.  1.
        1   -1    0    0  501    0  0.00000000000E+00  0.00000000000E+00 -0.14403525154E+04  0.14403525154E+04  0.50400001928E-02 0. -1.
    10030    2    1    2    0    0  0.00000000000E+00  0.00000000000E+00  0.39198515957E+03  0.32726901904E+04  0.32491304556E+04 0.  0.
        3    1    3    3  502    0  0.51136164593E+03  0.10161211246E+03  0.17457839508E+04  0.18219707373E+04  0.10100000352E+00 0.  1.
       -3    1    3    3    0  502 -0.51136164593E+03 -0.10161211246E+03 -0.13537987913E+04  0.14507194531E+04  0.10100000352E+00 0. -1.
</event>
<event>
 5   0  0.1378620E-06  0.3431848E+04  0.7818609E-02  0.8130134E-01
       -2   -1    0    0    0  501  0.00000000000E+00  0.00000000000E+00  0.98636898342E+03  0.98636898342E+03  0.25500000920E-02 0.  1.
        2   -1    0    0  501    0  0.00000000000E+00  0.00000000000E+00 -0.29850840705E+04  0.29850840705E+04  0.25500000920E-02 0. -1.
    10030    2    1    2    0    0  0.00000000000E+00  0.00000000000E+00 -0.19987150871E+04  0.39714530539E+04  0.34318475141E+04 0.  0.
        2    1    3    3  502    0  0.10836953070E+04 -0.12831984774E+04 -0.14058756472E+04  0.21903150883E+04  0.25500000920E-02 0. -1.
       -2    1    3    3    0  502 -0.10836953070E+04  0.12831984774E+04 -0.59283943990E+03  0.17811379656E+04  0.25500000920E-02 0.  1.
</event>
<event>
 5   0  0.1387133E-06  0.3502419E+04  0.7818609E-02  0.8113217E-01
        2   -1    0    0  501    0  0.00000000000E+00  0.00000000000E+00  0.16156419683E+04  0.16156419683E+04  0.25500000920E-02 0.  1.
       -2   -1    0    0    0  501  0.00000000000E+00  0.00000000000E+00 -0.18981523423E+04  0.18981523423E+04  0.25500000920E-02 0. -1.
    10030    2    1    2    0    0  0.00000000000E+00  0.00000000000E+00 -0.28251037403E+03  0.35137943105E+04  0.35024189277E+04 0.  0.
        4    1    3    3  502    0 -0.45344066267E+02 -0.84754329126E+02  0.16129929414E+04  0.16158549510E+04  0.12699999809E+01 0.  1.
       -4    1    3    3    0  502  0.45344066267E+02  0.84754329126E+02 -0.18955033155E+04  0.18979393595E+04  0.12699999809E+01 0. -1.
</event>
<event>
 5   0  0.4409125E-07  0.3532498E+04  0.7818609E-02  0.8106131E-01
       -1   -1    0    0    0  501  0.00000000000E+00  0.00000000000E+00  0.17705668014E+04  0.17705668015E+04  0.50400001928E-02 0.  1.
        1   -1    0    0  501    0  0.00000000000E+00  0.00000000000E+00 -0.17619418115E+04  0.17619418115E+04  0.50400001928E-02 0. -1.
    10030    2    1    2    0    0  0.00000000000E+00  0.00000000000E+00  0.86249899411E+01  0.35325086130E+04  0.35324980835E+04 0.  0.
        5    1    3    3  502    0  0.17390206656E+04  0.17163597084E+03 -0.25251857602E+03  0.17656272265E+04  0.46999998093E+01 0. -1.
       -5    1    3    3    0  502 -0.17390206656E+04 -0.17163597084E+03  0.26114356596E+03  0.17668813865E+04  0.46999998093E+01 0.  1.
</event>
<event>
 5   0  0.4557237E-07  0.3450114E+04  0.7818609E-02  0.8125715E-01
        1   -1    0    0  501    0  0.00000000000E+00  0.00000000000E+00  0.15935339215E+04  0.15935339215E+04  0.50400001928E-02 0. -1.
       -1   -1    0    0    0  501  0.00000000000E+00  0.00000000000E+00 -0.18674354158E+04  0.18674354158E+04  0.50400001928E-02 0.  1.
    10030    2    1    2    0    0  0.00000000000E+00  0.00000000000E+00 -0.27390149432E+03  0.34609693373E+04  0.34501140163E+04 0.  0.
        2    1    3    3  502    0  0.74166533881E+03  0.86841619950E+03  0.11600238235E+04  0.16278419584E+04  0.25500000920E-02 0. -1.
       -2    1    3    3    0  502 -0.74166533881E+03 -0.86841619950E+03 -0.14339253178E+04  0.18331273789E+04  0.25500000920E-02 0.  1.
</event>
<event>
 5   0  0.1378620E-06  0.3574081E+04  0.7818609E-02  0.8096455E-01
        2   -1    0    0  501    0  0.00000000000E+00  0.00000000000E+00  0.19152685108E+04  0.19152685108E+04  0.25500000920E-02 0. -1.
       -2   -1    0    0    0  501  0.00000000000E+00  0.00000000000E+00 -0.16673976996E+04  0.16673976996E+04  0.25500000920E-02 0.  1.
    10030    2    1    2    0    0  0.00000000000E+00  0.00000000000E+00  0.24787081116E+03  0.35826662104E+04  0.35740813136E+04 0.  0.
        2    1    3    3  502    0  0.51351394810E+03  0.88035865763E+03  0.15953803885E+04  0.18931366895E+04  0.25500000920E-02 0. -1.
       -2    1    3    3    0  502 -0.51351394810E+03 -0.88035865763E+03 -0.13475095774E+04  0.16895295209E+04  0.25500000920E-02 0.  1.
</event>
<event>
 5   0  0.1361560E-06  0.3489923E+04  0.7818609E-02  0.8116182E-01
        2   -1    0    0  501    0  0.00000000000E+00  0.00000000000E+00  0.11755397776E+04  0.11755397776E+04  0.25500000920E-02 0.  1.
       -2   -1    0    0    0  501  0.00000000000E+00  0.00000000000E+00 -0.25902067767E+04  0.25902067767E+04  0.25500000920E-02 0. -1.
    10030    2    1    2    0    0  0.00000000000E+00  0.00000000000E+00 -0.14146669991E+04  0.37657465544E+04  0.34899232647E+04 0.  0.
        3    1    3    3  502    0 -0.61430415728E+03  0.13909441542E+04 -0.16310244954E+04  0.22298735732E+04  0.10100000352E+00 0. -1.
       -3    1    3    3    0  502  0.61430415728E+03 -0.13909441542E+04  0.21635749627E+03  0.15358729812E+04  0.10100000352E+00 0.  1.
</event>
<event>
 5   0  0.1348388E-06  0.3506619E+04  0.7818609E-02  0.8112223E-01
        2   -1    0    0  501    0  0.00000000000E+00  0.00000000000E+00  0.20740158850E+04  0.20740158850E+04  0.25500000920E-02 0. -1.
       -2   -1    0    0    0  501  0.00000000000E+00  0.00000000000E+00 -0.14821942147E+04  0.14821942147E+04  0.25500000920E-02 0.  1.
    10030    2    1    2    0    0  0.00000000000E+00  0.00000000000E+00  0.59182167025E+03  0.35562100997E+04  0.35066190817E+04 0.  0.
        5    1    3    3  502    0  0.10441437745E+04 -0.14049690824E+04  0.19501561194E+03  0.17613141467E+04  0.46999998093E+01 0.  1.
       -5    1    3    3    0  502 -0.10441437745E+04  0.14049690824E+04  0.39680605832E+03  0.17948959530E+04  0.46999998093E+01 0. -1.
</event>
<event>
 5   0  0.4557237E-07  0.3571973E+04  0.7818609E-02  0.8096942E-01
       -1   -1    0    0    0  501  0.00000000000E+00  0.00000000000E+00  0.17199150910E+04  0.17199150910E+04  0.50400001928E-02 0.  1.
        1   -1    0    0  501    0  0.00000000000E+00  0.00000000000E+00 -0.18545957200E+04  0.18545957200E+04  0.50400001928E-02 0. -1.
    10030    2    1    2    0    0  0.00000000000E+00  0.00000000000E+00 -0.13468062906E+03  0.35745108110E+04  0.35719726576E+04 0.  0.
        2    1    3    3  502    0  0.23927204677E+03 -0.13532765237E+04 -0.12088255199E+04  0.18302643524E+04  0.25500000920E-02 0. -1.
       -2    1    3    3    0  502 -0.23927204677E+03  0.13532765237E+04  0.10741448909E+04  0.17442464587E+04  0.25500000920E-02 0.  1.
</event>
<event>
 5   0  0.1378620E-06  0.3622634E+04  0.7818609E-02  0.8085327E-01
       -2   -1    0    0    0  501  0.00000000000E+00  0.00000000000E+00  0.12471431218E+04  0.12471431218E+04  0.25500000920E-02 0. -1.
        2   -1    0    0  501    0  0.00000000000E+00  0.00000000000E+00 -0.26307074219E+04  0.26307074219E+04  0.25500000920E-02 0.  1.
    10030    2    1    2    0    0  0.00000000000E+00  0.00000000000E+00 -0.13835643000E+04  0.38778505437E+04  0.36226336645E+04 0.  0.
        2    1    3    3  502    0 -0.16848222485E+04  0.62636547178E+03 -0.93092416227E+03  0.20242478873E+04  0.25500000920E-02 0.  1.
       -2    1    3    3    0  502  0.16848222485E+04 -0.62636547178E+03 -0.45264013777E+03  0.18536026564E+04  0.25500000920E-02 0. -1.
</event>
<event>
 5   0  0.4557237E-07  0.3499741E+04  0.7818609E-02  0.8113851E-01
       -1   -1    0    0    0  501  0.00000000000E+00  0.00000000000E+00  0.15787058594E+04  0.15787058594E+04  0.50400001928E-02 0.  1.
        1   -1    0    0  501    0  0.00000000000E+00  0.00000000000E+00 -0.19395926078E+04  0.19395926079E+04  0.50400001928E-02 0. -1.
    10030    2    1    2    0    0  0.00000000000E+00  0.00000000000E+00 -0.36088674845E+03  0.35182984673E+04  0.34997406846E+04 0.  0.
        2    1    3    3  502    0  0.12276301808E+04  0.48204792296E+03 -0.13365851585E+04  0.18777395844E+04  0.25500000920E-02 0. -1.
       -2    1    3    3    0  502 -0.12276301808E+04 -0.48204792296E+03  0.97569841008E+03  0.16405588829E+04  0.25500000920E-02 0.  1.
</event>
<event>
 5   0  0.1348388E-06  0.3387381E+04  0.7818609E-02  0.8141010E-01
        2   -1    0    0  501    0  0.00000000000E+00  0.00000000000E+00  0.17881211767E+04  0.17881211767E+04  0.25500000920E-02 0.  1.
       -2   -1    0    0    0  501  0.00000000000E+00  0.00000000000E+00 -0.16042465166E+04  0.16042465166E+04  0.25500000920E-02 0. -1.
    10030    2    1    2    0    0  0.00000000000E+00  0.00000000000E+00  0.18387466006E+03  0.33923676933E+04  0.33873807987E+04 0.  0.
        5    1    3    3  502    0 -0.76923605914E+02 -0.46614303451E+03 -0.15369129469E+04  0.16078961614E+04  0.46999998093E+01 0. -1.
       -5    1    3    3    0  502  0.76923605914E+02  0.46614303451E+03  0.17207876069E+04  0.17844715318E+04  0.46999998093E+01 0.  1.
</event>
<event>
 5   0  0.4693374E-07  0.3481823E+04  0.7818609E-02  0.8118111E-01
        1   -1    0    0  501    0  0.00000000000E+00  0.00000000000E+00  0.11447595173E+04  0.11447595173E+04  0.50400001928E-02 0. -1.
       -1   -1    0    0    0  501  0.00000000000E+00  0.00000000000E+00 -0.26475194367E+04  0.26475194367E+04  0.50400001928E-02 0.  1.
    10030    2    1    2    0    0  0.00000000000E+00  0.00000000000E+00 -0.15027599194E+04  0.37922789540E+04  0.34818231273E+04 0.  0.
        1    1    3    3  502    0 -0.15247558009E+04  0.82369921650E+03 -0.93170966163E+03  0.19675984207E+04  0.50400001928E-02 0.  1.
       -1    1    3    3    0  502  0.15247558009E+04 -0.82369921650E+03 -0.57105025778E+03  0.18246805333E+04  0.50400001928E-02 0. -1.
</event>
<event>
 5   0  0.4591195E-07  0.3589685E+04  0.7818609E-02  0.8092859E-01
       -1   -1    0    0    0  501  0.00000000000E+00  0.00000000000E+00  0.11702409835E+04  0.11702409835E+04  0.50400001928E-02 0. -1.
        1   -1    0    0  501    0  0.00000000000E+00  0.00000000000E+00 -0.27528172432E+04  0.27528172432E+04  0.50400001928E-02 0.  1.
    10030    2    1    2    0    0  0.00000000000E+00  0.00000000000E+00 -0.15825762597E+04  0.39230582267E+04  0.35896849768E+04 0.  0.
        4    1    3    3  502    0  0.11586557663E+04  0.90084595231E+03 -0.19204142603E+04  0.24170227882E+04  0.12699999809E+01 0.  1.
       -4    1    3    3    0  502 -0.11586557663E+04 -0.90084595231E+03  0.33783800054E+03  0.15060354386E+04  0.12699999809E+01 0. -1.
</event>
<event>
 5   0  0.4693374E-07  0.3494688E+04  0.7818609E-02  0.8115050E-01
       -1   -1    0    0    0  501  0.00000000000E+00  0.00000000000E+00  0.19519356862E+04  0.19519356862E+04  0.50400001928E-02 0. -1.
        1   -1    0    0  501    0  0.00000000000E+00  0.00000000000E+00 -0.15641961524E+04  0.15641961525E+04  0.50400001928E-02 0.  1.
    10030    2    1    2    0    0  0.00000000000E+00  0.00000000000E+00  0.38773953378E+03  0.35161318387E+04  0.34946875627E+04 0.  0.
        1    1    3    3  502    0  0.15911252573E+04  0.51766579566E+03  0.70049991216E+03  0.18139342842E+04  0.50400001928E-02 0.  1.
       -1    1    3    3    0  502 -0.15911252573E+04 -0.51766579566E+03 -0.31276037838E+03  0.17021975545E+04  0.50400001928E-02 0. -1.
</event>
<event>
 5   0  0.1348388E-06  0.3518666E+04  0.7818609E-02  0.8109381E-01
        2   -1    0    0  501    0  0.00000000000E+00  0.00000000000E+00  0.22165482893E+04  0.22165482893E+04  0.25500000920E-02 0.  1.
       -2   -1    0    0    0  501  0.00000000000E+00  0.00000000000E+00 -0.13964288160E+04  0.13964288160E+04  0.25500000920E-02 0. -1.
    10030    2    1    2    0    0  0.00000000000E+00  0.00000000000E+00  0.82011947336E+03  0.36129771053E+04  0.35186656011E+04 0.  0.
        5    1    3    3  502    0 -0.15287437789E+04 -0.42998495873E+03 -0.36739046735E+03  0.16300130220E+04  0.46999998093E+01 0. -1.
       -5    1    3    3    0  502  0.15287437789E+04  0.42998495873E+03  0.11875099407E+04  0.19829640833E+04  0.46999998093E+01 0.  1.
</event>
<event>
 5   0  0.4409125E-07  0.3477760E+04  0.7818609E-02  0.8119081E-01
       -1   -1    0    0    0  501  0.00000000000E+00  0.00000000000E+00  0.15306034519E+04  0.15306034519E+04  0.50400001928E-02 0. -1.
        1   -1    0    0  501    0  0.00000000000E+00  0.00000000000E+00 -0.19754979315E+04  0.19754979315E+04  0.50400001928E-02 0.  1.
    10030    2    1    2    0    0  0.00000000000E+00  0.00000000000E+00 -0.44489447960E+03  0.35061013834E+04  0.34777601719E+04 0.  0.
        5    1    3    3  502    0  0.33164855384E+03 -0.19352277783E+03  0.14873216243E+04  0.15360955481E+04  0.46999998093E+01 0. -1.
       -5    1    3    3    0  502 -0.33164855384E+03  0.19352277783E+03 -0.19322161039E+04  0.19700058353E+04  0.46999998093E+01 0.  1.
</event>
<event>
 5   0  0.4700769E-07  0.3530479E+04  0.7818609E-02  0.8106605E-01
       -1   -1    0    0    0  501  0.00000000000E+00  0.00000000000E+00  0.16097720827E+04  0.16097720827E+04  0.50400001928E-02 0.  1.
        1   -1    0    0  501    0  0.00000000000E+00  0.00000000000E+00 -0.19357214203E+04  0.19357214203E+04  0.50400001928E-02 0. -1.
    10030    2    1    2    0    0  0.00000000000E+00  0.00000000000E+00 -0.32594933758E+03  0.35454935029E+04  0.35304788923E+04 0.  0.
        3    1    3    3  502    0 -0.10647162739E+04 -0.26086604843E+02 -0.15767148249E+04  0.19027167167E+04  0.10100000352E+00 0. -1.
       -3    1    3    3    0  502  0.10647162739E+04  0.26086604843E+02  0.12507654873E+04  0.16427767862E+04  0.10100000352E+00 0.  1.
</event>
<event>
 5   0  0.1442864E-06  0.3513580E+04  0.7818609E-02  0.8110579E-01
       -2   -1    0    0    0  501  0.00000000000E+00  0.00000000000E+00  0.13336777716E+04  0.13336777716E+04  0.25500000920E-02 0.  1.
        2   -1    0    0  501    0  0.00000000000E+00  0.00000000000E+00 -0.23141356606E+04  0.23141356606E+04  0.25500000920E-02 0. -1.
    10030    2    1    2    0    0  0.00000000000E+00  0.00000000000E+00 -0.98045788904E+03  0.36478134322E+04  0.35135801063E+04 0.  0.
        1    1    3    3  502    0 -0.11349904737E+04  0.44804145059E+03 -0.18023837704E+04  0.21765871847E+04  0.50400001928E-02 0. -1.
       -1    1    3    3    0  502  0.11349904737E+04 -0.44804145059E+03  0.82192588136E+03  0.14712262475E+04  0.50400001928E-02 0.  1.
</event>
<event>
 5   0  0.4700769E-07  0.3417275E+04  0.7818609E-02  0.8133680E-01
       -1   -1    0    0    0  501  0.00000000000E+00  0.00000000000E+00  0.31460178374E+04  0.31460178374E+04  0.50400001928E-02 0.  1.
        1   -1    0    0  501    0  0.00000000000E+00  0.00000000000E+00 -0.92797998235E+03  0.92797998237E+03  0.50400001928E-02 0. -1.
    10030    2    1    2    0    0  0.00000000000E+00  0.00000000000E+00  0.22180378550E+04  0.40739978198E+04  0.34172746903E+04 0.  0.
        3    1    3    3  502    0 -0.80131142072E+03  0.12695121662E+04  0.20817074656E+04  0.25665671851E+04  0.10100000352E+00 0.  1.
       -3    1    3    3    0  502  0.80131142072E+03 -0.12695121662E+04  0.13633038945E+03  0.15074306347E+04  0.10100000352E+00 0. -1.
</event>
<event>
 5   0  0.1361560E-06  0.3481662E+04  0.7818609E-02  0.8118150E-01
       -2   -1    0    0    0  501  0.00000000000E+00  0.00000000000E+00  0.10169011634E+04  0.10169011634E+04  0.25500000920E-02 0.  1.
        2   -1    0    0  501    0  0.00000000000E+00  0.00000000000E+00 -0.29801243916E+04  0.29801243916E+04  0.25500000920E-02 0. -1.
    10030    2    1    2    0    0  0.00000000000E+00  0.00000000000E+00 -0.19632232282E+04  0.39970255550E+04  0.34816616498E+04 0.  0.
        3    1    3    3  502    0 -0.29384564058E+03  0.14764153476E+04 -0.19852907782E+04  0.24914909237E+04  0.10100000352E+00 0. -1.
       -3    1    3    3    0  502  0.29384564058E+03 -0.14764153476E+04  0.22067549960E+02  0.15055346313E+04  0.10100000352E+00 0.  1.
</event>
<event>
 5   0  0.4693374E-07  0.3971586E+04  0.7818609E-02  0.8010303E-01
       -1   -1    0    0    0  501  0.00000000000E+00  0.00000000000E+00  0.16189884948E+04  0.16189884948E+04  0.50400001928E-02 0. -1.
        1   -1    0    0  501    0  0.00000000000E+00  0.00000000000E+00 -0.24357018367E+04  0.24357018367E+04  0.50400001928E-02 0.  1.
    10030    2    1    2    0    0  0.00000000000E+00  0.00000000000E+00 -0.81671334197E+03  0.40546903315E+04  0.39715857037E+04 0.  0.
        1    1    3    3  502    0  0.32954335823E+03 -0.57651587069E+03  0.15022745283E+04  0.16424975290E+04  0.50400001928E-02 0. -1.
       -1    1    3    3    0  502 -0.32954335823E+03  0.57651587069E+03 -0.23189878703E+04  0.24121928026E+04  0.50400001928E-02 0.  1.
</event>
<event>
 5   0  0.4693374E-07  0.3472788E+04  0.7818609E-02  0.8120269E-01
        1   -1    0    0  501    0  0.00000000000E+00  0.00000000000E+00  0.14399664848E+04  0.14399664848E+04  0.50400001928E-02 0. -1.
       -1   -1    0    0    0  501  0.00000000000E+00  0.00000000000E+00 -0.20938432956E+04  0.20938432956E+04  0.50400001928E-02 0.  1.
    10030    2    1    2    0    0  0.00000000000E+00  0.00000000000E+00 -0.65387681081E+03  0.35338097804E+04  0.34727880270E+04 0.  0.
        1    1    3    3  502    0 -0.13053415908E+04  0.31142944771E+03 -0.14481890622E+04  0.19743749718E+04  0.50400001928E-02 0.  1.
       -1    1    3    3    0  502  0.13053415908E+04 -0.31142944771E+03  0.79431225137E+03  0.15594348086E+04  0.50400001928E-02 0. -1.
</event>
<event>
 5   0  0.1442864E-06  0.3259824E+04  0.7818609E-02  0.8173194E-01
       -2   -1    0    0    0  501  0.00000000000E+00  0.00000000000E+00  0.11555810942E+04  0.11555810942E+04  0.25500000920E-02 0.  1.
        2   -1    0    0  501    0  0.00000000000E+00  0.00000000000E+00 -0.22989408701E+04  0.22989408701E+04  0.25500000920E-02 0. -1.
    10030    2    1    2    0    0  0.00000000000E+00  0.00000000000E+00 -0.11433597758E+04  0.34545219643E+04  0.32598236800E+04 0.  0.
        1    1    3    3  502    0  0.79959268859E+03  0.52391026976E+02 -0.20757897761E+04  0.22250834775E+04  0.50400001928E-02 0. -1.
       -1    1    3    3    0  502 -0.79959268859E+03 -0.52391026976E+02  0.93243000025E+03  0.12294384868E+04  0.50400001928E-02 0.  1.
</event>
<event>
 5   0  0.4700769E-07  0.3586020E+04  0.7818609E-02  0.8093701E-01
       -1   -1    0    0    0  501  0.00000000000E+00  0.00000000000E+00  0.20141248717E+04  0.20141248717E+04  0.50400001928E-02 0. -1.
        1   -1    0    0  501    0  0.00000000000E+00  0.00000000000E+00 -0.15961696474E+04  0.15961696474E+04  0.50400001928E-02 0.  1.
    10030    2    1    2    0    0  0.00000000000E+00  0.00000000000E+00  0.41795522432E+03  0.36102945191E+04  0.35860200704E+04 0.  0.
        3    1    3    3  502    0  0.62360772094E+03  0.22406227040E+03  0.18863271388E+04  0.19993300316E+04  0.10100000352E+00 0. -1.
       -3    1    3    3    0  502 -0.62360772094E+03 -0.22406227040E+03 -0.14683719145E+04  0.16109644875E+04  0.10100000352E+00 0.  1.
</event>
<event>
 5   0  0.4700769E-07  0.2832013E+04  0.7818609E-02  0.8293398E-01
        1   -1    0    0  501    0  0.00000000000E+00  0.00000000000E+00  0.17599413690E+04  0.17599413690E+04  0.50400001928E-02 0. -1.
       -1   -1    0    0    0  501  0.00000000000E+00  0.00000000000E+00 -0.11392845722E+04  0.11392845722E+04  0.50400001928E-02 0.  1.
    10030    2    1    2    0    0  0.00000000000E+00  0.00000000000E+00  0.62065679683E+03  0.28992259412E+04  0.28320127469E+04 0.  0.
        3    1    3    3  502    0 -0.78426769236E+03  0.99714669134E+03  0.95430201312E+03  0.15874727335E+04  0.10100000352E+00 0. -1.
       -3    1    3    3    0  502  0.78426769236E+03 -0.99714669134E+03 -0.33364521629E+03  0.13117532077E+04  0.10100000352E+00 0.  1.
</event>
<event>
 5   0  0.1361560E-06  0.3464863E+04  0.7818609E-02  0.8122168E-01
       -2   -1    0    0    0  501  0.00000000000E+00  0.00000000000E+00  0.15634518501E+04  0.15634518501E+04  0.25500000920E-02 0.  1.
        2   -1    0    0  501    0  0.00000000000E+00  0.00000000000E+00 -0.19196747449E+04  0.19196747449E+04  0.25500000920E-02 0. -1.
    10030    2    1    2    0    0  0.00000000000E+00  0.00000000000E+00 -0.35622289478E+03  0.34831265950E+04  0.34648630747E+04 0.  0.
        3    1    3    3  502    0  0.90373184064E+03  0.13279569338E+04  0.47424531607E+03  0.16748461087E+04  0.10100000352E+00 0. -1.
       -3    1    3    3    0  502 -0.90373184064E+03 -0.13279569338E+04 -0.83046821086E+03  0.18082804863E+04  0.10100000352E+00 0.  1.
</event>
<event>
 5   0  0.1348388E-06  0.3574043E+04  0.7818609E-02  0.8096463E-01
       -2   -1    0    0    0  501  0.00000000000E+00  0.00000000000E+00  0.13399891653E+04  0.13399891653E+04  0.25500000920E-02 0. -1.
        2   -1    0    0  501    0  0.00000000000E+00  0.00000000000E+00 -0.23831880698E+04  0.23831880698E+04  0.25500000920E-02 0.  1.
    10030    2    1    2    0    0  0.00000000000E+00  0.00000000000E+00 -0.10431989045E+04  0.37231772350E+04  0.35740431963E+04 0.  0.
        5    1    3    3  502    0  0.49798370028E+03 -0.88887421801E+03  0.10077675062E+04  0.14330745192E+04  0.46999998093E+01 0. -1.
       -5    1    3    3    0  502 -0.49798370028E+03  0.88887421801E+03 -0.20509664107E+04  0.22901027158E+04  0.46999998093E+01 0.  1.
</event>
<event>
 5   0  0.1378620E-06  0.3511083E+04  0.7818609E-02  0.8111168E-01
       -2   -1    0    0    0  501  0.00000000000E+00  0.00000000000E+00  0.27965349089E+04  0.27965349089E+04  0.25500000920E-02 0. -1.
        2   -1    0    0  501    0  0.00000000000E+00  0.00000000000E+00 -0.11020519139E+04  0.11020519139E+04  0.25500000920E-02 0.  1.
    10030    2    1    2    0    0  0.00000000000E+00  0.00000000000E+00  0.16944829950E+04  0.38985868227E+04  0.35110833932E+04 0.  0.
        2    1    3    3  502    0  0.24814402570E+03 -0.48690772831E+02 -0.10817231721E+04  0.11108876045E+04  0.25500000920E-02 0.  1.
       -2    1    3    3    0  502 -0.24814402570E+03  0.48690772831E+02  0.27762061671E+04  0.27876992182E+04  0.25500000920E-02 0. -1.
</event>
<event>
 5   0  0.1378620E-06  0.3504013E+04  0.7818609E-02  0.8112840E-01
       -2   -1    0    0    0  501  0.00000000000E+00  0.00000000000E+00  0.14041521681E+04  0.14041521681E+04  0.25500000920E-02 0. -1.
        2   -1    0    0  501    0  0.00000000000E+00  0.00000000000E+00 -0.21860353113E+04  0.21860353113E+04  0.25500000920E-02 0.  1.
    10030    2    1    2    0    0  0.00000000000E+00  0.00000000000E+00 -0.78188314316E+03  0.35901874793E+04  0.35040126837E+04 0.  0.
        2    1    3    3  502    0  0.44151364680E+03 -0.40153729362E+03  0.12967968820E+04  0.14275323645E+04  0.25500000920E-02 0. -1.
       -2    1    3    3    0  502 -0.44151364680E+03  0.40153729362E+03 -0.20786800252E+04  0.21626551148E+04  0.25500000920E-02 0.  1.
</event>
<event>
 5   0  0.1361560E-06  0.3503348E+04  0.7818609E-02  0.8112997E-01
        2   -1    0    0  501    0  0.00000000000E+00  0.00000000000E+00  0.12788097105E+04  0.12788097105E+04  0.25500000920E-02 0. -1.
       -2   -1    0    0    0  501  0.00000000000E+00  0.00000000000E+00 -0.23993883847E+04  0.23993883847E+04  0.25500000920E-02 0.  1.
    10030    2    1    2    0    0  0.00000000000E+00  0.00000000000E+00 -0.11205786742E+04  0.36781980952E+04  0.35033476365E+04 0.  0.
        3    1    3    3  502    0 -0.17430245706E+04  0.16427605529E+03 -0.50052855248E+03  0.18208926707E+04  0.10100000352E+00 0. -1.
       -3    1    3    3    0  502  0.17430245706E+04 -0.16427605529E+03 -0.62005012177E+03  0.18573054245E+04  0.10100000352E+00 0.  1.
</event>
<event>
 5   0  0.4557237E-07  0.3496710E+04  0.7818609E-02  0.8114570E-01
       -1   -1    0    0    0  501  0.00000000000E+00  0.00000000000E+00  0.22218409471E+04  0.22218409471E+04  0.50400001928E-02 0. -1.
        1   -1    0    0  501    0  0.00000000000E+00  0.00000000000E+00 -0.13757715061E+04  0.13757715061E+04  0.50400001928E-02 0.  1.
    10030    2    1    2    0    0  0.00000000000E+00  0.00000000000E+00  0.84606944101E+03  0.35976124532E+04  0.34967101488E+04 0.  0.
        2    1    3    3  502    0  0.41645204521E+03  0.92737992096E+03 -0.10404314906E+04  0.14546351812E+04  0.25500000920E-02 0.  1.
       -2    1    3    3    0  502 -0.41645204521E+03 -0.92737992096E+03  0.18865009316E+04  0.21429772721E+04  0.25500000920E-02 0. -1.
</event>
<event>
 5   0  0.1442864E-06  0.3447147E+04  0.7818609E-02  0.8126431E-01
        2   -1    0    0  501    0  0.00000000000E+00  0.00000000000E+00  0.24198066638E+04  0.24198066638E+04  0.25500000920E-02 0. -1.
       -2   -1    0    0    0  501  0.00000000000E+00  0.00000000000E+00 -0.12276627228E+04  0.12276627228E+04  0.25500000920E-02 0.  1.
    10030    2    1    2    0    0  0.00000000000E+00  0.00000000000E+00  0.11921439410E+04  0.36474693866E+04  0.34471474802E+04 0.  0.
        1    1    3    3  502    0  0.12808256438E+04  0.50571559059E+03 -0.50071846161E+03  0.14652581909E+04  0.50400001928E-02 0.  1.
       -1    1    3    3    0  502 -0.12808256438E+04 -0.50571559059E+03  0.16928624026E+04  0.21822111957E+04  0.50400001928E-02 0. -1.
</event>
<event>
 5   0  0.4700769E-07  0.3544226E+04  0.7818609E-02  0.8103388E-01
       -1   -1    0    0    0  501  0.00000000000E+00  0.00000000000E+00  0.27591726718E+04  0.27591726718E+04  0.50400001928E-02 0. -1.
        1   -1    0    0  501    0  0.00000000000E+00  0.00000000000E+00 -0.11381617418E+04  0.11381617418E+04  0.50400001928E-02 0.  1.
    10030    2    1    2    0    0  0.00000000000E+00  0.00000000000E+00  0.16210109300E+04  0.38973344136E+04  0.35442261632E+04 0.  0.
        3    1    3    3  502    0  0.12294763908E+04  0.10020007973E+04  0.16796765619E+04  0.23101798969E+04  0.10100000352E+00 0. -1.
       -3    1    3    3    0  502 -0.12294763908E+04 -0.10020007973E+04 -0.58665631866E+02  0.15871545167E+04  0.10100000352E+00 0.  1.
</event>
<event>
 5   0  0.4700769E-07  0.3599497E+04  0.7818609E-02  0.8090607E-01
       -1   -1    0    0    0  501  0.00000000000E+00  0.00000000000E+00  0.17743531843E+04  0.17743531843E+04  0.50400001928E-02 0. -1.
        1   -1    0    0  501    0  0.00000000000E+00  0.00000000000E+00 -0.18255068221E+04  0.18255068221E+04  0.50400001928E-02 0.  1.
    10030    2    1    2    0    0  0.00000000000E+00  0.00000000000E+00 -0.51153637765E+02  0.35998600064E+04  0.35994965441E+04 0.  0.
        3    1    3    3  502    0 -0.52689983092E+03 -0.13930222734E+04  0.98495053918E+03  0.17855705141E+04  0.10100000352E+00 0. -1.
       -3    1    3    3    0  502  0.52689983092E+03  0.13930222734E+04 -0.10361041769E+04  0.18142894923E+04  0.10100000352E+00 0.  1.
</event>
<event>
 5   0  0.4591195E-07  0.3489877E+04  0.7818609E-02  0.8116193E-01
       -1   -1    0    0    0  501  0.00000000000E+00  0.00000000000E+00  0.29714123531E+04  0.29714123531E+04  0.50400001928E-02 0.  1.
        1   -1    0    0  501    0  0.00000000000E+00  0.00000000000E+00 -0.10247016595E+04  0.10247016595E+04  0.50400001928E-02 0. -1.
    10030    2    1    2    0    0  0.00000000000E+00  0.00000000000E+00  0.19467106936E+04  0.39961140126E+04  0.34898774588E+04 0.  0.
        4    1    3    3  502    0  0.87406831282E+02 -0.17357430540E+04  0.79461741997E+03  0.19109846574E+04  0.12699999809E+01 0.  1.
       -4    1    3    3    0  502 -0.87406831282E+02  0.17357430540E+04  0.11520932737E+04  0.20851293552E+04  0.12699999809E+01 0. -1.
</event>
<event>
 5   0  0.1387133E-06  0.3493030E+04  0.7818609E-02  0.8115444E-01
        2   -1    0    0  501    0  0.00000000000E+00  0.00000000000E+00  0.15237983051E+04  0.15237983051E+04  0.25500000920E-02 0.  1.
       -2   -1    0    0    0  501  0.00000000000E+00  0.00000000000E+00 -0.20017832746E+04  0.20017832746E+04  0.25500000920E-02 0. -1.
    10030    2    1    2    0    0  0.00000000000E+00  0.00000000000E+00 -0.47798496958E+03  0.35255815797E+04  0.34930296082E+04 0.  0.
        4    1    3    3  502    0 -0.85638694903E+03  0.86809452216E+03 -0.15009746787E+04  0.19338855460E+04  0.12699999809E+01 0. -1.
       -4    1    3    3    0  502  0.85638694903E+03 -0.86809452216E+03  0.10229897091E+04  0.15916960337E+04  0.12699999809E+01 0.  1.
</event>
<event>
 5   0  0.4700769E-07  0.3484411E+04  0.7818609E-02  0.8117494E-01
        1   -1    0    0  501    0  0.00000000000E+00  0.00000000000E+00  0.21778129253E+04  0.21778129253E+04  0.50400001928E-02 0. -1.
       -1   -1    0    0    0  501  0.00000000000E+00  0.00000000000E+00 -0.13937284933E+04  0.13937284933E+04  0.50400001928E-02 0.  1.
    10030    2    1    2    0    0  0.00000000000E+00  0.00000000000E+00  0.78408443201E+03  0.35715414186E+04  0.34844109557E+04 0.  0.
        3    1    3    3  502    0 -0.68479995381E+03  0.51190225394E+03  0.19479878519E+04  0.21273578861E+04  0.10100000352E+00 0. -1.
       -3    1    3    3    0  502  0.68479995381E+03 -0.51190225394E+03 -0.11639034199E+04  0.14441835325E+04  0.10100000352E+00 0.  1.
</event>
<event>
 5   0  0.1348388E-06  0.3473312E+04  0.7818609E-02  0.8120144E-01
       -2   -1    0    0    0  501  0.00000000000E+00  0.00000000000E+00  0.16078003961E+04  0.16078003961E+04  0.25500000920E-02 0.  1.
        2   -1    0    0  501    0  0.00000000000E+00  0.00000000000E+00 -0.18758391269E+04  0.18758391269E+04  0.25500000920E-02 0. -1.
    10030    2    1    2    0    0  0.00000000000E+00  0.00000000000E+00 -0.26803873074E+03  0.34836395230E+04  0.34733124773E+04 0.  0.
        5    1    3    3  502    0  0.13948300500E+04  0.34190576853E+03 -0.11133971373E+04  0.18171751974E+04  0.46999998093E+01 0.  1.
       -5    1    3    3    0  502 -0.13948300500E+04 -0.34190576853E+03  0.84535840656E+03  0.16664643256E+04  0.46999998093E+01 0. -1.
</event>
<event>
 5   0  0.4700769E-07  0.3530477E+04  0.7818609E-02  0.8106605E-01
        1   -1    0    0  501    0  0.00000000000E+00  0.00000000000E+00  0.21212146463E+04  0.21212146463E+04  0.50400001928E-02 0. -1.
       -1   -1    0    0    0  501  0.00000000000E+00  0.00000000000E+00 -0.14690010958E+04  0.14690010958E+04  0.50400001928E-02 0.  1.
    10030    2    1    2    0    0  0.00000000000E+00  0.00000000000E+00  0.65221355053E+03  0.35902157421E+04  0.35304768175E+04 0.  0.
        3    1    3    3  502    0  0.47184236844E+03 -0.13110123439E+04 -0.77605820614E+03  0.15948839883E+04  0.10100000352E+00 0.  1.
       -3    1    3    3    0  502 -0.47184236844E+03  0.13110123439E+04  0.14282717567E+04  0.19953317538E+04  0.10100000352E+00 0. -1.
</event>
<event>
 5   0  0.1442864E-06  0.3477785E+04  0.7818609E-02  0.8119075E-01
       -2   -1    0    0    0  501  0.00000000000E+00  0.00000000000E+00  0.12248257863E+04  0.12248257863E+04  0.25500000920E-02 0. -1.
        2   -1    0    0  501    0  0.00000000000E+00  0.00000000000E+00 -0.24687163236E+04  0.24687163236E+04  0.25500000920E-02 0.  1.
    10030    2    1    2    0    0  0.00000000000E+00  0.00000000000E+00 -0.12438905373E+04  0.36935421099E+04  0.34777851643E+04 0.  0.
        1    1    3    3  502    0 -0.46032304993E+03  0.75454841895E+03 -0.22123482719E+04  0.23823781192E+04  0.50400001928E-02 0.  1.
       -1    1    3    3    0  502  0.46032304993E+03 -0.75454841895E+03  0.96845773454E+03  0.13111639907E+04  0.50400001928E-02 0. -1.
</event>
<event>
 5   0  0.4700769E-07  0.3636065E+04  0.7818609E-02  0.8082280E-01
       -1   -1    0    0    0  501  0.00000000000E+00  0.00000000000E+00  0.14126991013E+04  0.14126991013E+04  0.50400001928E-02 0. -1.
        1   -1    0    0  501    0  0.00000000000E+00  0.00000000000E+00 -0.23396646720E+04  0.23396646720E+04  0.50400001928E-02 0.  1.
    10030    2    1    2    0    0  0.00000000000E+00  0.00000000000E+00 -0.92696557073E+03  0.37523637734E+04  0.36360650047E+04 0.  0.
        3    1    3    3  502    0  0.12668574267E+04 -0.12265194739E+04 -0.92032044479E+03  0.19890368249E+04  0.10100000352E+00 0.  1.
       -3    1    3    3    0  502 -0.12668574267E+04  0.12265194739E+04 -0.66451259379E+01  0.17633269485E+04  0.10100000352E+00 0. -1.
</event>
<event>
 5   0  0.1348388E-06  0.3511995E+04  0.7818609E-02  0.8110953E-01
       -2   -1    0    0    0  501  0.00000000000E+00  0.00000000000E+00  0.14095603382E+04  0.14095603382E+04  0.25500000920E-02 0.  1.
        2   -1    0    0  501    0  0.00000000000E+00  0.00000000000E+00 -0.21875811606E+04  0.21875811606E+04  0.25500000920E-02 0. -1.
    10030    2    1    2    0    0  0.00000000000E+00  0.00000000000E+00 -0.77802082240E+03  0.35971414988E+04  0.35119952395E+04 0.  0.
        5    1    3    3  502    0 -0.73870518119E+03  0.60602154362E+03  0.11199898337E+04  0.14721911472E+04  0.46999998093E+01 0.  1.
       -5    1    3    3    0  502  0.73870518119E+03 -0.60602154362E+03 -0.18980106561E+04  0.21249503516E+04  0.46999998093E+01 0. -1.
</event>
<event>
 5   0  0.1361560E-06  0.3467684E+04  0.7818609E-02  0.8121491E-01
       -2   -1    0    0    0  501  0.00000000000E+00  0.00000000000E+00  0.91693351503E+03  0.91693351503E+03  0.25500000920E-02 0.  1.
        2   -1    0    0  501    0  0.00000000000E+00  0.00000000000E+00 -0.32785448284E+04  0.32785448284E+04  0.25500000920E-02 0. -1.
    10030    2    1    2    0    0  0.00000000000E+00  0.00000000000E+00 -0.23616113134E+04  0.41954783434E+04  0.34676837420E+04 0.  0.
        3    1    3    3  502    0 -0.47609876922E+03 -0.35521780889E+03 -0.31515936959E+04  0.32070847454E+04  0.10100000352E+00 0. -1.
       -3    1    3    3    0  502  0.47609876922E+03  0.35521780889E+03  0.78998238252E+03  0.98839359807E+03  0.10100000352E+00 0.  1.
</event>
<event>
 5   0  0.1361560E-06  0.3084118E+04  0.7818609E-02  0.8220110E-01
       -2   -1    0    0    0  501  0.00000000000E+00  0.00000000000E+00  0.11968369581E+04  0.11968369581E+04  0.25500000920E-02 0.  1.
        2   -1    0    0  501    0  0.00000000000E+00  0.00000000000E+00 -0.19868588720E+04  0.19868588720E+04  0.25500000920E-02 0. -1.
    10030    2    1    2    0    0  0.00000000000E+00  0.00000000000E+00 -0.79002191387E+03  0.31836958301E+04  0.30841181096E+04 0.  0.
        3    1    3    3  502    0  0.10299146866E+04  0.66685200492E+03  0.56924163729E+03  0.13525723308E+04  0.10100000352E+00 0.  1.
       -3    1    3    3    0  502 -0.10299146866E+04 -0.66685200492E+03 -0.13592635512E+04  0.18311234993E+04  0.10100000352E+00 0. -1.
</event>
<event>
 5   0  0.4693374E-07  0.3478944E+04  0.7818609E-02  0.8118798E-01
       -1   -1    0    0    0  501  0.00000000000E+00  0.00000000000E+00  0.22648761102E+04  0.22648761102E+04  0.50400001928E-02 0. -1.
        1   -1    0    0  501    0  0.00000000000E+00  0.00000000000E+00 -0.13359508640E+04  0.13359508640E+04  0.50400001928E-02 0.  1.
    10030    2    1    2    0    0  0.00000000000E+00  0.00000000000E+00  0.92892524619E+03  0.36008269742E+04  0.34789442055E+04 0.  0.
        1    1    3    3  502    0  0.89947069441E+03 -0.14864809798E+04  0.55161450467E+03  0.18228965399E+04  0.50400001928E-02 0. -1.
       -1    1    3    3    0  502 -0.89947069441E+03  0.14864809798E+04  0.37731074152E+03  0.17779304343E+04  0.50400001928E-02 0.  1.
</event>
<event>
 5   0  0.4591195E-07  0.3459928E+04  0.7818609E-02  0.8123353E-01
       -1   -1    0    0    0  501  0.00000000000E+00  0.00000000000E+00  0.18491703624E+04  0.18491703624E+04  0.50400001928E-02 0.  1.
        1   -1    0    0  501    0  0.00000000000E+00  0.00000000000E+00 -0.16184426292E+04  0.16184426292E+04  0.50400001928E-02 0. -1.
    10030    2    1    2    0    0  0.00000000000E+00  0.00000000000E+00  0.23072773319E+03  0.34676129916E+04  0.34599284057E+04 0.  0.
        4    1    3    3  502    0 -0.88456653904E+03  0.14369221030E+04  0.49774952493E+03  0.17592496396E+04  0.12699999809E+01 0.  1.
       -4    1    3    3    0  502  0.88456653904E+03 -0.14369221030E+04 -0.26702179173E+03  0.17083633519E+04  0.12699999809E+01 0. -1.
</event>
<event>
 5   0  0.4693374E-07  0.3491825E+04  0.7818609E-02  0.8115730E-01
       -1   -1    0    0    0  501  0.00000000000E+00  0.00000000000E+00  0.21640555926E+04  0.21640555926E+04  0.50400001928E-02 0.  1.
        1   -1    0    0  501    0  0.00000000000E+00  0.00000000000E+00 -0.14085638689E+04  0.14085638689E+04  0.50400001928E-02 0. -1.
    10030    2    1    2    0    0  0.00000000000E+00  0.00000000000E+00  0.75549172369E+03  0.35726194615E+04  0.34918250346E+04 0.  0.
        1    1    3    3  502    0  0.36737351815E+03  0.13739722968E+04  0.14138203204E+04  0.20054054634E+04  0.50400001928E-02 0.  1.
       -1    1    3    3    0  502 -0.36737351815E+03 -0.13739722968E+04 -0.65832859675E+03  0.15672139980E+04  0.50400001928E-02 0. -1.
</event>
<event>
 5   0  0.4409125E-07  0.2648933E+04  0.7818609E-02  0.8351767E-01
       -3   -1    0    0    0  501  0.00000000000E+00  0.00000000000E+00  0.60329279403E+03  0.60329280249E+03  0.10100000352E+00 0. -1.
        3   -1    0    0  501    0  0.00000000000E+00  0.00000000000E+00 -0.29077285375E+04  0.29077285392E+04  0.10100000352E+00 0.  1.
    10030    2    1    2    0    0  0.00000000000E+00  0.00000000000E+00 -0.23044357434E+04  0.35110213417E+04  0.26489331374E+04 0.  0.
        5    1    3    3  502    0  0.68192524978E+03  0.10344966931E+04 -0.53196496071E+03  0.13484117560E+04  0.46999998093E+01 0. -1.
       -5    1    3    3    0  502 -0.68192524978E+03 -0.10344966931E+04 -0.17724707827E+04  0.21626095857E+04  0.46999998093E+01 0.  1.
</event>
<event>
 5   0  0.4409125E-07  0.3097721E+04  0.7818609E-02  0.8216364E-01
       -1   -1    0    0    0  501  0.00000000000E+00  0.00000000000E+00  0.15704737168E+04  0.15704737168E+04  0.50400001928E-02 0. -1.
        1   -1    0    0  501    0  0.00000000000E+00  0.00000000000E+00 -0.15275451032E+04  0.15275451032E+04  0.50400001928E-02 0.  1.
    10030    2    1    2    0    0  0.00000000000E+00  0.00000000000E+00  0.42928613581E+02  0.30980188199E+04  0.30977213792E+04 0.  0.
        5    1    3    3  502    0 -0.13395013648E+04 -0.10484413411E+03 -0.74912323786E+03  0.15383315359E+04  0.46999998093E+01 0.  1.
       -5    1    3    3    0  502  0.13395013648E+04  0.10484413411E+03  0.79205185144E+03  0.15596872841E+04  0.46999998093E+01 0. -1.
</event>
<event>
 5   0  0.4591195E-07  0.3527757E+04  0.7818609E-02  0.8107243E-01
        1   -1    0    0  501    0  0.00000000000E+00  0.00000000000E+00  0.13573798677E+04  0.13573798677E+04  0.50400001928E-02 0.  1.
       -1   -1    0    0    0  501  0.00000000000E+00  0.00000000000E+00 -0.22921122684E+04  0.22921122684E+04  0.50400001928E-02 0. -1.
    10030    2    1    2    0    0  0.00000000000E+00  0.00000000000E+00 -0.93473240071E+03  0.36494921361E+04  0.35277568214E+04 0.  0.
        4    1    3    3  502    0 -0.67822398850E+03 -0.14931728692E+04 -0.11391692909E+04  0.19968127810E+04  0.12699999809E+01 0. -1.
       -4    1    3    3    0  502  0.67822398850E+03  0.14931728692E+04  0.20443689019E+03  0.16526793552E+04  0.12699999809E+01 0.  1.
</event>
<event>
 5   0  0.4557237E-07  0.3490869E+04  0.7818609E-02  0.8115957E-01
        1   -1    0    0  501    0  0.00000000000E+00  0.00000000000E+00  0.18364102303E+04  0.18364102303E+04  0.50400001928E-02 0. -1.
       -1   -1    0    0    0  501  0.00000000000E+00  0.00000000000E+00 -0.16589657256E+04  0.16589657256E+04  0.50400001928E-02 0.  1.
    10030    2    1    2    0    0  0.00000000000E+00  0.00000000000E+00  0.17744450475E+03  0.34953759559E+04  0.34908690209E+04 0.  0.
        2    1    3    3  502    0  0.25793590318E+03  0.18879928549E+03  0.18068529709E+04  0.18349097413E+04  0.25500000920E-02 0. -1.
       -2    1    3    3    0  502 -0.25793590318E+03 -0.18879928549E+03 -0.16294084661E+04  0.16604662146E+04  0.25500000920E-02 0.  1.
</event>
<event>
 5   0  0.1378620E-06  0.3472719E+04  0.7818609E-02  0.8120286E-01
        2   -1    0    0  501    0  0.00000000000E+00  0.00000000000E+00  0.20512120853E+04  0.20512120853E+04  0.25500000920E-02 0. -1.
       -2   -1    0    0    0  501  0.00000000000E+00  0.00000000000E+00 -0.14698350950E+04  0.14698350950E+04  0.25500000920E-02 0.  1.
    10030    2    1    2    0    0  0.00000000000E+00  0.00000000000E+00  0.58137699031E+03  0.35210471803E+04  0.34727185376E+04 0.  0.
        2    1    3    3  502    0 -0.14594534764E+04  0.23172413955E+03  0.12151019444E+04  0.19131579291E+04  0.25500000920E-02 0. -1.
       -2    1    3    3    0  502  0.14594534764E+04 -0.23172413955E+03 -0.63372495407E+03  0.16078892512E+04  0.25500000920E-02 0.  1.
</event>
<event>
 5   0  0.4409125E-07  0.3464936E+04  0.7818609E-02  0.8122150E-01
        1   -1    0    0  501    0  0.00000000000E+00  0.00000000000E+00  0.14817767046E+04  0.14817767046E+04  0.50400001928E-02 0.  1.
       -1   -1    0    0    0  501  0.00000000000E+00  0.00000000000E+00 -0.20255721269E+04  0.20255721269E+04  0.50400001928E-02 0. -1.
    10030    2    1    2    0    0  0.00000000000E+00  0.00000000000E+00 -0.54379542226E+03  0.35073488315E+04  0.34649361271E+04 0.  0.
        5    1    3    3  502    0 -0.38934940363E+02 -0.22468359526E+03  0.14665130287E+04  0.14841432548E+04  0.46999998093E+01 0.  1.
       -5    1    3    3    0  502  0.38934940363E+02  0.22468359526E+03 -0.20103084509E+04  0.20232055767E+04  0.46999998093E+01 0. -1.
</event>
<event>
 5   0  0.4700769E-07  0.3582290E+04  0.7818609E-02  0.8094561E-01
        1   -1    0    0  501    0  0.00000000000E+00  0.00000000000E+00  0.27234526738E+04  0.27234526738E+04  0.50400001928E-02 0. -1.
       -1   -1    0    0    0  501  0.00000000000E+00  0.00000000000E+00 -0.11779899217E+04  0.11779899217E+04  0.50400001928E-02 0.  1.
    10030    2    1    2    0    0  0.00000000000E+00  0.00000000000E+00  0.15454627521E+04  0.39014425955E+04  0.35822896599E+04 0.  0.
        3    1    3    3  502    0 -0.32506052615E+03  0.16672036468E+04  0.15379800904E+03  0.17055457143E+04  0.10100000352E+00 0.  1.
       -3    1    3    3    0  502  0.32506052615E+03 -0.16672036468E+04  0.13916647431E+04  0.21958968812E+04  0.10100000352E+00 0. -1.
</event>
<event>
 5   0  0.1378620E-06  0.2644097E+04  0.7818609E-02  0.8353375E-01
       -2   -1    0    0    0  501  0.00000000000E+00  0.00000000000E+00  0.10119393703E+04  0.10119393703E+04  0.25500000920E-02 0. -1.
        2   -1    0    0  501    0  0.00000000000E+00  0.00000000000E+00 -0.17271909679E+04  0.17271909679E+04  0.25500000920E-02 0.  1.
    10030    2    1    2    0    0  0.00000000000E+00  0.00000000000E+00 -0.71525159766E+03  0.27391303382E+04  0.26440972300E+04 0.  0.
        2    1    3    3  502    0 -0.88161323819E+03 -0.93741266977E+03 -0.67154879872E+03  0.14515378756E+04  0.25500000920E-02 0.  1.
       -2    1    3    3    0  502  0.88161323819E+03  0.93741266977E+03 -0.43702798938E+02  0.12875924626E+04  0.25500000920E-02 0. -1.
</event>
<event>
 5   0  0.4557237E-07  0.3555546E+04  0.7818609E-02  0.8100751E-01
       -1   -1    0    0    0  501  0.00000000000E+00  0.00000000000E+00  0.11130085629E+04  0.11130085629E+04  0.50400001928E-02 0. -1.
        1   -1    0    0  501    0  0.00000000000E+00  0.00000000000E+00 -0.28395799592E+04  0.28395799592E+04  0.50400001928E-02 0.  1.
    10030    2    1    2    0    0  0.00000000000E+00  0.00000000000E+00 -0.17265713963E+04  0.39525885221E+04  0.35555459832E+04 0.  0.
        2    1    3    3  502    0 -0.84948235352E+03 -0.22640124309E+02  0.87260665580E+03  0.12180210261E+04  0.25500000920E-02 0. -1.
       -2    1    3    3    0  502  0.84948235352E+03  0.22640124309E+02 -0.25991780521E+04  0.27345674961E+04  0.25500000920E-02 0.  1.
</event>
<event>
 5   0  0.4409125E-07  0.3462428E+04  0.7818609E-02  0.8122752E-01
       -1   -1    0    0    0  501  0.00000000000E+00  0.00000000000E+00  0.17823132678E+04  0.17823132678E+04  0.50400001928E-02 0. -1.
        1   -1    0    0  501    0  0.00000000000E+00  0.00000000000E+00 -0.16815796084E+04  0.16815796084E+04  0.50400001928E-02 0.  1.
    10030    2    1    2    0    0  0.00000000000E+00  0.00000000000E+00  0.10073365945E+03  0.34638928762E+04  0.34624278458E+04 0.  0.
        5    1    3    3  502    0  0.12706363380E+04  0.99120945480E+03 -0.58240903580E+03  0.17135446483E+04  0.46999998093E+01 0.  1.
       -5    1    3    3    0  502 -0.12706363380E+04 -0.99120945480E+03  0.68314269525E+03  0.17503482279E+04  0.46999998093E+01 0. -1.
</event>
<event>
 5   0  0.1442864E-06  0.3168387E+04  0.7818609E-02  0.8197216E-01
       -2   -1    0    0    0  501  0.00000000000E+00  0.00000000000E+00  0.29086905810E+04  0.29086905810E+04  0.25500000920E-02 0. -1.
        2   -1    0    0  501    0  0.00000000000E+00  0.00000000000E+00 -0.86281741539E+03  0.86281741539E+03  0.25500000920E-02 0.  1.
    10030    2    1    2    0    0  0.00000000000E+00  0.00000000000E+00  0.20458731656E+04  0.37715079963E+04  0.31683869014E+04 0.  0.
        1    1    3    3  502    0 -0.54764131277E+03  0.11550952626E+04  0.21367387987E+04  0.24899415188E+04  0.50400001928E-02 0. -1.
       -1    1    3    3    0  502  0.54764131277E+03 -0.11550952626E+04 -0.90865633122E+02  0.12815664776E+04  0.50400001928E-02 0.  1.
</event>
<event>
 5   0  0.1378620E-06  0.3573187E+04  0.7818609E-02  0.8096661E-01
        2   -1    0    0  501    0  0.00000000000E+00  0.00000000000E+00  0.19229354014E+04  0.19229354014E+04  0.25500000920E-02 0.  1.
       -2   -1    0    0    0  501  0.00000000000E+00  0.00000000000E+00 -0.16599184302E+04  0.16599184303E+04  0.25500000920E-02 0. -1.
    10030    2    1    2    0    0  0.00000000000E+00  0.00000000000E+00  0.26301697114E+03  0.35828538316E+04  0.35731867642E+04 0.  0.
        2    1    3    3  502    0  0.85668621365E+03 -0.83188510520E+03 -0.12009855025E+04  0.16936086544E+04  0.25500000920E-02 0. -1.
       -2    1    3    3    0  502 -0.85668621365E+03  0.83188510520E+03  0.14640024737E+04  0.18892451773E+04  0.25500000920E-02 0.  1.
</event>
<event>
 5   0  0.1387133E-06  0.3506552E+04  0.7818609E-02  0.8112239E-01
       -2   -1    0    0    0  501  0.00000000000E+00  0.00000000000E+00  0.16854959955E+04  0.16854959955E+04  0.25500000920E-02 0.  1.
        2   -1    0    0  501    0  0.00000000000E+00  0.00000000000E+00 -0.18237813840E+04  0.18237813840E+04  0.25500000920E-02 0. -1.
    10030    2    1    2    0    0  0.00000000000E+00  0.00000000000E+00 -0.13828538851E+03  0.35092773794E+04  0.35065517075E+04 0.  0.
        4    1    3    3  502    0  0.92242477514E+03  0.55925023565E+03  0.13140844473E+04  0.17001317124E+04  0.12699999809E+01 0.  1.
       -4    1    3    3    0  502 -0.92242477514E+03 -0.55925023565E+03 -0.14523698358E+04  0.18091456671E+04  0.12699999809E+01 0. -1.
</event>
<event>
 5   0  0.1348388E-06  0.3526200E+04  0.7818609E-02  0.8107609E-01
       -2   -1    0    0    0  501  0.00000000000E+00  0.00000000000E+00  0.11267544259E+04  0.11267544259E+04  0.25500000920E-02 0.  1.
        2   -1    0    0  501    0  0.00000000000E+00  0.00000000000E+00 -0.27588280463E+04  0.27588280463E+04  0.25500000920E-02 0. -1.
    10030    2    1    2    0    0  0.00000000000E+00  0.00000000000E+00 -0.16320736204E+04  0.38855824721E+04  0.35262000575E+04 0.  0.
        5    1    3    3  502    0 -0.49855697730E+03 -0.93398308374E+03  0.73747816076E+03  0.12902633793E+04  0.46999998093E+01 0.  1.
       -5    1    3    3    0  502  0.49855697730E+03  0.93398308374E+03 -0.23695517811E+04  0.25953190929E+04  0.46999998093E+01 0. -1.
</event>
<event>
 5   0  0.1387133E-06  0.3496252E+04  0.7818609E-02  0.8114679E-01
       -2   -1    0    0    0  501  0.00000000000E+00  0.00000000000E+00  0.17089591426E+04  0.17089591426E+04  0.25500000920E-02 0.  1.
        2   -1    0    0  501    0  0.00000000000E+00  0.00000000000E+00 -0.17881907963E+04  0.17881907963E+04  0.25500000920E-02 0. -1.
    10030    2    1    2    0    0  0.00000000000E+00  0.00000000000E+00 -0.79231653692E+02  0.34971499389E+04  0.34962522850E+04 0.  0.
        4    1    3    3  502    0  0.56020652041E+03 -0.96341690609E+03  0.13075558345E+04  0.17180533617E+04  0.12699999809E+01 0.  1.
       -4    1    3    3    0  502 -0.56020652041E+03  0.96341690609E+03 -0.13867874882E+04  0.17790965772E+04  0.12699999809E+01 0. -1.
</event>
<event>
 5   0  0.1442864E-06  0.3732204E+04  0.7818609E-02  0.8060862E-01
        2   -1    0    0  501    0  0.00000000000E+00  0.00000000000E+00  0.21067056975E+04  0.21067056975E+04  0.25500000920E-02 0.  1.
       -2   -1    0    0    0  501  0.00000000000E+00  0.00000000000E+00 -0.16529768978E+04  0.16529768978E+04  0.25500000920E-02 0. -1.
    10030    2    1    2    0    0  0.00000000000E+00  0.00000000000E+00  0.45372879963E+03  0.37596825953E+04  0.37322035574E+04 0.  0.
        1    1    3    3  502    0 -0.11776059189E+03 -0.17674915583E+04  0.81807721151E+03  0.19511904801E+04  0.50400001928E-02 0.  1.
       -1    1    3    3    0  502  0.11776059189E+03  0.17674915583E+04 -0.36434841188E+03  0.18084921152E+04  0.50400001928E-02 0. -1.
</event>
<event>
 5   0  0.4591195E-07  0.3369124E+04  0.7818609E-02  0.8145526E-01
       -1   -1    0    0    0  501  0.00000000000E+00  0.00000000000E+00  0.18467370209E+04  0.18467370209E+04  0.50400001928E-02 0.  1.
        1   -1    0    0  501    0  0.00000000000E+00  0.00000000000E+00 -0.15366283830E+04  0.15366283830E+04  0.50400001928E-02 0. -1.
    10030    2    1    2    0    0  0.00000000000E+00  0.00000000000E+00  0.31010863787E+03  0.33833654039E+04  0.33691236382E+04 0.  0.
        4    1    3    3  502    0 -0.62774748124E+03 -0.14222436954E+04 -0.49645840840E+03  0.16319670933E+04  0.12699999809E+01 0.  1.
       -4    1    3    3    0  502  0.62774748124E+03  0.14222436954E+04  0.80656704627E+03  0.17513983106E+04  0.12699999809E+01 0. -1.
</event>
<event>
 5   0  0.1378620E-06  0.3189794E+04  0.7818609E-02  0.8191518E-01
        2   -1    0    0  501    0  0.00000000000E+00  0.00000000000E+00  0.20450329373E+04  0.20450329373E+04  0.25500000920E-02 0. -1.
       -2   -1    0    0    0  501  0.00000000000E+00  0.00000000000E+00 -0.12438414592E+04  0.12438414592E+04  0.25500000920E-02 0.  1.
    10030    2    1    2    0    0  0.00000000000E+00  0.00000000000E+00  0.80119147813E+03  0.32888743964E+04  0.31897941957E+04 0.  0.
        2    1    3    3  502    0  0.30171299997E+03 -0.15533080088E+04  0.19464069957E+03  0.15942651933E+04  0.25500000920E-02 0.  1.
       -2    1    3    3    0  502 -0.30171299997E+03  0.15533080088E+04  0.60655077856E+03  0.16946092032E+04  0.25500000920E-02 0. -1.
</event>
<event>
 5   0  0.1361560E-06  0.3381912E+04  0.7818609E-02  0.8142360E-01
        2   -1    0    0  501    0  0.00000000000E+00  0.00000000000E+00  0.31465886426E+04  0.31465886426E+04  0.25500000920E-02 0. -1.
       -2   -1    0    0    0  501  0.00000000000E+00  0.00000000000E+00 -0.90870866861E+03  0.90870866861E+03  0.25500000920E-02 0.  1.
    10030    2    1    2    0    0  0.00000000000E+00  0.00000000000E+00  0.22378799740E+04  0.40552973112E+04  0.33819121077E+04 0.  0.
        3    1    3    3  502    0  0.11919011014E+04  0.32092598546E+03 -0.26691113017E+03  0.12628789670E+04  0.10100000352E+00 0.  1.
       -3    1    3    3    0  502 -0.11919011014E+04 -0.32092598546E+03  0.25047911042E+04  0.27924183442E+04  0.10100000352E+00 0. -1.
</event>
<event>
 5   0  0.4409125E-07  0.3536507E+04  0.7818609E-02  0.8105192E-01
        4   -1    0    0  501    0  0.00000000000E+00  0.00000000000E+00  0.20365381417E+04  0.20365385377E+04  0.12699999809E+01 0.  1.
       -4   -1    0    0    0  501  0.00000000000E+00  0.00000000000E+00 -0.15353109201E+04  0.15353114453E+04  0.12699999809E+01 0. -1.
    10030    2    1    2    0    0  0.00000000000E+00  0.00000000000E+00  0.50122722164E+03  0.35718499830E+04  0.35365072562E+04 0.  0.
        2    1    3    3  502    0 -0.61966588368E+02  0.16984121640E+04 -0.24240108054E+03  0.17167416873E+04  0.25500000920E-02 0. -1.
       -2    1    3    3    0  502  0.61966588368E+02 -0.16984121640E+04  0.74362830218E+03  0.18551082957E+04  0.25500000920E-02 0.  1.
</event>
<event>
 5   0  0.1442864E-06  0.3348177E+04  0.7818609E-02  0.8150744E-01
        2   -1    0    0  501    0  0.00000000000E+00  0.00000000000E+00  0.19425896386E+04  0.19425896386E+04  0.25500000920E-02 0. -1.
       -2   -1    0    0    0  501  0.00000000000E+00  0.00000000000E+00 -0.14426988230E+04  0.14426988230E+04  0.25500000920E-02 0.  1.
    10030    2    1    2    0    0  0.00000000000E+00  0.00000000000E+00  0.49989081561E+03  0.33852884617E+04  0.33481766891E+04 0.  0.
        1    1    3    3  502    0  0.10239538604E+04 -0.75759508891E+03  0.13483290849E+04  0.18548377687E+04  0.50400001928E-02 0. -1.
       -1    1    3    3    0  502 -0.10239538604E+04  0.75759508891E+03 -0.84843826924E+03  0.15304506930E+04  0.50400001928E-02 0.  1.
</event>
<event>
 5   0  0.4693374E-07  0.3476990E+04  0.7818609E-02  0.8119265E-01
       -1   -1    0    0    0  501  0.00000000000E+00  0.00000000000E+00  0.15406979441E+04  0.15406979441E+04  0.50400001928E-02 0. -1.
        1   -1    0    0  501    0  0.00000000000E+00  0.00000000000E+00 -0.19616852289E+04  0.19616852289E+04  0.50400001928E-02 0.  1.
    10030    2    1    2    0    0  0.00000000000E+00  0.00000000000E+00 -0.42098728479E+03  0.35023831730E+04  0.34769897320E+04 0.  0.
        1    1    3    3  502    0 -0.22209416028E+03  0.12895646608E+04 -0.13634320389E+04  0.18897750541E+04  0.50400001928E-02 0.  1.
       -1    1    3    3    0  502  0.22209416028E+03 -0.12895646608E+04  0.94244475408E+03  0.16126081189E+04  0.50400001928E-02 0. -1.
</event>
<event>
 5   0  0.1378620E-06  0.3543376E+04  0.7818609E-02  0.8103587E-01
       -2   -1    0    0    0  501  0.00000000000E+00  0.00000000000E+00  0.27291200411E+04  0.27291200411E+04  0.25500000920E-02 0.  1.
        2   -1    0    0  501    0  0.00000000000E+00  0.00000000000E+00 -0.11501432035E+04  0.11501432035E+04  0.25500000920E-02 0. -1.
    10030    2    1    2    0    0  0.00000000000E+00  0.00000000000E+00  0.15789768375E+04  0.38792632446E+04  0.35433762808E+04 0.  0.
        2    1    3    3  502    0 -0.90810334520E+03 -0.69918596142E+03  0.22686205688E+04  0.25416829030E+04  0.25500000920E-02 0.  1.
       -2    1    3    3    0  502  0.90810334520E+03  0.69918596142E+03 -0.68964373128E+03  0.13375803416E+04  0.25500000920E-02 0. -1.
</event>
<event>
 5   0  0.4409125E-07  0.3455673E+04  0.7818609E-02  0.8124376E-01
       -1   -1    0    0    0  501  0.00000000000E+00  0.00000000000E+00  0.15149377253E+04  0.15149377253E+04  0.50400001928E-02 0. -1.
        1   -1    0    0  501    0  0.00000000000E+00  0.00000000000E+00 -0.19706550013E+04  0.19706550013E+04  0.50400001928E-02 0.  1.
    10030    2    1    2    0    0  0.00000000000E+00  0.00000000000E+00 -0.45571727604E+03  0.34855927266E+04  0.34556733671E+04 0.  0.
        5    1    3    3  502    0  0.31492484384E+03  0.11815785950E+04  0.10034033701E+04  0.15818173240E+04  0.46999998093E+01 0. -1.
       -5    1    3    3    0  502 -0.31492484384E+03 -0.11815785950E+04 -0.14591206461E+04  0.19037754026E+04  0.46999998093E+01 0.  1.
</event>
<event>
 5   0  0.1348388E-06  0.3491452E+04  0.7818609E-02  0.8115819E-01
       -2   -1    0    0    0  501  0.00000000000E+00  0.00000000000E+00  0.16978052226E+04  0.16978052226E+04  0.25500000920E-02 0.  1.
        2   -1    0    0  501    0  0.00000000000E+00  0.00000000000E+00 -0.17949988472E+04  0.17949988472E+04  0.25500000920E-02 0. -1.
    10030    2    1    2    0    0  0.00000000000E+00  0.00000000000E+00 -0.97193624600E+02  0.34928040697E+04  0.34914515132E+04 0.  0.
        5    1    3    3  502    0  0.11958962229E+04  0.10980494333E+04  0.59325597349E+03  0.17285413140E+04  0.46999998093E+01 0.  1.
       -5    1    3    3    0  502 -0.11958962229E+04 -0.10980494333E+04 -0.69044959809E+03  0.17642627558E+04  0.46999998093E+01 0. -1.
</event>
<event>
 5   0  0.4591195E-07  0.3555727E+04  0.7818609E-02  0.8100709E-01
        1   -1    0    0  501    0  0.00000000000E+00  0.00000000000E+00  0.20956684249E+04  0.20956684249E+04  0.50400001928E-02 0.  1.
       -1   -1    0    0    0  501  0.00000000000E+00  0.00000000000E+00 -0.15082534424E+04  0.15082534424E+04  0.50400001928E-02 0. -1.
    10030    2    1    2    0    0  0.00000000000E+00  0.00000000000E+00  0.58741498256E+03  0.36039218673E+04  0.35557272763E+04 0.  0.
        4    1    3    3  502    0  0.82483447833E+03  0.15665231685E+04  0.12886623675E+03  0.17750929198E+04  0.12699999809E+01 0. -1.
       -4    1    3    3    0  502 -0.82483447833E+03 -0.15665231685E+04  0.45854874581E+03  0.18288289475E+04  0.12699999809E+01 0.  1.
</event>
<event>
 5   0  0.1387133E-06  0.3014218E+04  0.7818609E-02  0.8239682E-01
       -2   -1    0    0    0  501  0.00000000000E+00  0.00000000000E+00  0.22046933287E+04  0.22046933287E+04  0.25500000920E-02 0.  1.
        2   -1    0    0  501    0  0.00000000000E+00  0.00000000000E+00 -0.10302466233E+04  0.10302466233E+04  0.25500000920E-02 0. -1.
    10030    2    1    2    0    0  0.00000000000E+00  0.00000000000E+00  0.11744467054E+04  0.32349399520E+04  0.30142182119E+04 0.  0.
        4    1    3    3  502    0 -0.78765376247E+03  0.64396280461E+02  0.19644836860E+04  0.21174850875E+04  0.12699999809E+01 0.  1.
       -4    1    3    3    0  502  0.78765376247E+03 -0.64396280461E+02 -0.79003698059E+03  0.11174548644E+04  0.12699999809E+01 0. -1.
</event>
<event>
 5   0  0.4693374E-07  0.3484166E+04  0.7818609E-02  0.8117553E-01
        1   -1    0    0  501    0  0.00000000000E+00  0.00000000000E+00  0.16105253725E+04  0.16105253725E+04  0.50400001928E-02 0. -1.
       -1   -1    0    0    0  501  0.00000000000E+00  0.00000000000E+00 -0.18843868041E+04  0.18843868041E+04  0.50400001928E-02 0.  1.
    10030    2    1    2    0    0  0.00000000000E+00  0.00000000000E+00 -0.27386143160E+03  0.34949121766E+04  0.34841657593E+04 0.  0.
        1    1    3    3  502    0 -0.15118089753E+04 -0.70945294389E+03  0.36054543193E+03  0.17084738412E+04  0.50400001928E-02 0. -1.
       -1    1    3    3    0  502  0.15118089753E+04  0.70945294389E+03 -0.63440686353E+03  0.17864383354E+04  0.50400001928E-02 0.  1.
</event>
<event>
 5   0  0.1442864E-06  0.3513375E+04  0.7818609E-02  0.8110627E-01
        2   -1    0    0  501    0  0.00000000000E+00  0.00000000000E+00  0.17266107632E+04  0.17266107632E+04  0.25500000920E-02 0.  1.
       -2   -1    0    0    0  501  0.00000000000E+00  0.00000000000E+00 -0.17872884730E+04  0.17872884731E+04  0.25500000920E-02 0. -1.
    10030    2    1    2    0    0  0.00000000000E+00  0.00000000000E+00 -0.60677709820E+02  0.35138992363E+04  0.35133753085E+04 0.  0.
        1    1    3    3  502    0  0.57516209831E+03  0.44932563361E+03  0.15677875814E+04  0.17293533083E+04  0.50400001928E-02 0.  1.
       -1    1    3    3    0  502 -0.57516209831E+03 -0.44932563361E+03 -0.16284652912E+04  0.17845459280E+04  0.50400001928E-02 0. -1.
</event>
<event>
 5   0  0.4591195E-07  0.3464360E+04  0.7818609E-02  0.8122289E-01
        1   -1    0    0  501    0  0.00000000000E+00  0.00000000000E+00  0.26437565523E+04  0.26437565524E+04  0.50400001928E-02 0. -1.
       -1   -1    0    0    0  501  0.00000000000E+00  0.00000000000E+00 -0.11349179841E+04  0.11349179841E+04  0.50400001928E-02 0.  1.
    10030    2    1    2    0    0  0.00000000000E+00  0.00000000000E+00  0.15088385683E+04  0.37786745364E+04  0.34643595984E+04 0.  0.
        4    1    3    3  502    0 -0.48838216501E+03 -0.13483427042E+04  0.18141109724E+04  0.23124760367E+04  0.12699999809E+01 0. -1.
       -4    1    3    3    0  502  0.48838216501E+03  0.13483427042E+04 -0.30527240411E+03  0.14661984998E+04  0.12699999809E+01 0.  1.
</event>
<event>
 5   0  0.1361560E-06  0.3520604E+04  0.7818609E-02  0.8108924E-01
       -2   -1    0    0    0  501  0.00000000000E+00  0.00000000000E+00  0.18763150163E+04  0.18763150163E+04  0.25500000920E-02 0.  1.
        2   -1    0    0  501    0  0.00000000000E+00  0.00000000000E+00 -0.16514622476E+04  0.16514622476E+04  0.25500000920E-02 0. -1.
    10030    2    1    2    0    0  0.00000000000E+00  0.00000000000E+00  0.22485276876E+03  0.35277772639E+04  0.35206041606E+04 0.  0.
        3    1    3    3  502    0 -0.89871184265E+03 -0.11584497816E+04  0.10885644242E+04  0.18261055251E+04  0.10100000352E+00 0.  1.
       -3    1    3    3    0  502  0.89871184265E+03  0.11584497816E+04 -0.86371165549E+03  0.17016717388E+04  0.10100000352E+00 0. -1.
</event>
<event>
 5   0  0.4700769E-07  0.3566910E+04  0.7818609E-02  0.8098114E-01
        1   -1    0    0  501    0  0.00000000000E+00  0.00000000000E+00  0.23371765532E+04  0.23371765532E+04  0.50400001928E-02 0.  1.
       -1   -1    0    0    0  501  0.00000000000E+00  0.00000000000E+00 -0.13609204134E+04  0.13609204134E+04  0.50400001928E-02 0. -1.
    10030    2    1    2    0    0  0.00000000000E+00  0.00000000000E+00  0.97625613988E+03  0.36980969666E+04  0.35669097443E+04 0.  0.
        3    1    3    3  502    0  0.56483266023E+03 -0.16812758524E+04  0.29420094300E+03  0.17978538959E+04  0.10100000352E+00 0. -1.
       -3    1    3    3    0  502 -0.56483266023E+03  0.16812758524E+04  0.68205519688E+03  0.19002430707E+04  0.10100000352E+00 0.  1.
</event>
<event>
 5   0  0.1442864E-06  0.3503175E+04  0.7818609E-02  0.8113038E-01
       -2   -1    0    0    0  501  0.00000000000E+00  0.00000000000E+00  0.17163760271E+04  0.17163760271E+04  0.25500000920E-02 0.  1.
        2   -1    0    0  501    0  0.00000000000E+00  0.00000000000E+00 -0.17875211856E+04  0.17875211856E+04  0.25500000920E-02 0. -1.
    10030    2    1    2    0    0  0.00000000000E+00  0.00000000000E+00 -0.71145158438E+02  0.35038972127E+04  0.35031748520E+04 0.  0.
        1    1    3    3  502    0 -0.75581942578E+03 -0.53750213008E+03 -0.15217749883E+04  0.17821253208E+04  0.50400001928E-02 0. -1.
       -1    1    3    3    0  502  0.75581942578E+03  0.53750213008E+03  0.14506298298E+04  0.17217718918E+04  0.50400001928E-02 0.  1.
</event>
<event>
 5   0  0.4591195E-07  0.3482826E+04  0.7818609E-02  0.8117872E-01
       -1   -1    0    0    0  501  0.00000000000E+00  0.00000000000E+00  0.20267939949E+04  0.20267939950E+04  0.50400001928E-02 0. -1.
        1   -1    0    0  501    0  0.00000000000E+00  0.00000000000E+00 -0.14962145384E+04  0.14962145384E+04  0.50400001928E-02 0.  1.
    10030    2    1    2    0    0  0.00000000000E+00  0.00000000000E+00  0.53057945658E+03  0.35230085333E+04  0.34828256583E+04 0.  0.
        4    1    3    3  502    0 -0.16990424187E+04 -0.18009651989E+03  0.60582967846E+03  0.18127909723E+04  0.12699999809E+01 0. -1.
       -4    1    3    3    0  502  0.16990424187E+04  0.18009651989E+03 -0.75250221879E+02  0.17102175610E+04  0.12699999809E+01 0.  1.
</event>
<event>
 5   0  0.1361560E-06  0.2636558E+04  0.7818609E-02  0.8355888E-01
        2   -1    0    0  501    0  0.00000000000E+00  0.00000000000E+00  0.13544538297E+04  0.13544538297E+04  0.25500000920E-02 0.  1.
       -2   -1    0    0    0  501  0.00000000000E+00  0.00000000000E+00 -0.12830703262E+04  0.12830703262E+04  0.25500000920E-02 0. -1.
    10030    2    1    2    0    0  0.00000000000E+00  0.00000000000E+00  0.71383503468E+02  0.26375241560E+04  0.26365579965E+04 0.  0.
        3    1    3    3  502    0 -0.43746989721E+03  0.18520609349E+02 -0.12082013087E+04  0.12850966253E+04  0.10100000352E+00 0. -1.
       -3    1    3    3    0  502  0.43746989721E+03 -0.18520609349E+02  0.12795848121E+04  0.13524275306E+04  0.10100000352E+00 0.  1.
</event>
<event>
 5   0  0.4591195E-07  0.3551887E+04  0.7818609E-02  0.8101602E-01
       -1   -1    0    0    0  501  0.00000000000E+00  0.00000000000E+00  0.16190264718E+04  0.16190264718E+04  0.50400001928E-02 0. -1.
        1   -1    0    0  501    0  0.00000000000E+00  0.00000000000E+00 -0.19480687945E+04  0.19480687945E+04  0.50400001928E-02 0.  1.
    10030    2    1    2    0    0  0.00000000000E+00  0.00000000000E+00 -0.32904232266E+03  0.35670952663E+04  0.35518867927E+04 0.  0.
        4    1    3    3  502    0 -0.11921686801E+04  0.11740562682E+04  0.43325774727E+03  0.17284062517E+04  0.12699999809E+01 0. -1.
       -4    1    3    3    0  502  0.11921686801E+04 -0.11740562682E+04 -0.76230006993E+03  0.18386890145E+04  0.12699999809E+01 0.  1.
</event>
<event>
 5   0  0.4409125E-07  0.3541988E+04  0.7818609E-02  0.8103911E-01
        3   -1    0    0  501    0  0.00000000000E+00  0.00000000000E+00  0.18508357818E+04  0.18508357846E+04  0.10100000352E+00 0. -1.
       -3   -1    0    0    0  501  0.00000000000E+00  0.00000000000E+00 -0.16945962542E+04  0.16945962572E+04  0.10100000352E+00 0.  1.
    10030    2    1    2    0    0  0.00000000000E+00  0.00000000000E+00  0.15623952765E+03  0.35454320418E+04  0.35419877996E+04 0.  0.
        5    1    3    3  502    0  0.46805365715E+03  0.14251666505E+04 -0.86418988099E+03  0.17311904714E+04  0.46999998093E+01 0.  1.
       -5    1    3    3    0  502 -0.46805365715E+03 -0.14251666505E+04  0.10204294086E+04  0.18142415704E+04  0.46999998093E+01 0. -1.
</event>
<event>
 5   0  0.4591195E-07  0.3445184E+04  0.7818609E-02  0.8126905E-01
        1   -1    0    0  501    0  0.00000000000E+00  0.00000000000E+00  0.22407607155E+04  0.22407607155E+04  0.50400001928E-02 0.  1.
       -1   -1    0    0    0  501  0.00000000000E+00  0.00000000000E+00 -0.13242482934E+04  0.13242482935E+04  0.50400001928E-02 0. -1.
    10030    2    1    2    0    0  0.00000000000E+00  0.00000000000E+00  0.91651242201E+03  0.35650090089E+04  0.34451842061E+04 0.  0.
        4    1    3    3  502    0 -0.17703522847E+03 -0.12120485109E+03  0.22268801911E+04  0.22371922327E+04  0.12699999809E+01 0.  1.
       -4    1    3    3    0  502  0.17703522847E+03  0.12120485109E+03 -0.13103677690E+04  0.13278167762E+04  0.12699999809E+01 0. -1.
</event>
<event>
 5   0  0.4409125E-07  0.3491539E+04  0.7818609E-02  0.8115798E-01
       -1   -1    0    0    0  501  0.00000000000E+00  0.00000000000E+00  0.17289086686E+04  0.17289086686E+04  0.50400001928E-02 0. -1.
        1   -1    0    0  501    0  0.00000000000E+00  0.00000000000E+00 -0.17627951399E+04  0.17627951399E+04  0.50400001928E-02 0.  1.
    10030    2    1    2    0    0  0.00000000000E+00  0.00000000000E+00 -0.33886471272E+02  0.34917038086E+04  0.34915393731E+04 0.  0.
        5    1    3    3  502    0 -0.13378714604E+04  0.41692768549E+03  0.10242402595E+04  0.17357473718E+04  0.46999998093E+01 0. -1.
       -5    1    3    3    0  502  0.13378714604E+04 -0.41692768549E+03 -0.10581267308E+04  0.17559564368E+04  0.46999998093E+01 0.  1.
</event>
<event>
 5   0  0.1378620E-06  0.3510487E+04  0.7818609E-02  0.8111309E-01
       -2   -1    0    0    0  501  0.00000000000E+00  0.00000000000E+00  0.24243522389E+04  0.24243522389E+04  0.25500000920E-02 0.  1.
        2   -1    0    0  501    0  0.00000000000E+00  0.00000000000E+00 -0.12708052070E+04  0.12708052070E+04  0.25500000920E-02 0. -1.
    10030    2    1    2    0    0  0.00000000000E+00  0.00000000000E+00  0.11535470319E+04  0.36951574459E+04  0.35104868316E+04 0.  0.
        2    1    3    3  502    0  0.10346684340E+04 -0.61791202956E+03 -0.76649510125E+03  0.14282397505E+04  0.25500000920E-02 0. -1.
       -2    1    3    3    0  502 -0.10346684340E+04  0.61791202956E+03  0.19200421332E+04  0.22669176954E+04  0.25500000920E-02 0.  1.
</event>
<event>
 5   0  0.1387133E-06  0.3482183E+04  0.7818609E-02  0.8118025E-01
        2   -1    0    0  501    0  0.00000000000E+00  0.00000000000E+00  0.23580599144E+04  0.23580599144E+04  0.25500000920E-02 0. -1.
       -2   -1    0    0    0  501  0.00000000000E+00  0.00000000000E+00 -0.12855483745E+04  0.12855483745E+04  0.25500000920E-02 0.  1.
    10030    2    1    2    0    0  0.00000000000E+00  0.00000000000E+00  0.10725115400E+04  0.36436082889E+04  0.34821832749E+04 0.  0.
        4    1    3    3  502    0 -0.24240321338E+03  0.14375751333E+04  0.15322302358E+04  0.21149734490E+04  0.12699999809E+01 0. -1.
       -4    1    3    3    0  502  0.24240321338E+03 -0.14375751333E+04 -0.45971869583E+03  0.15286348399E+04  0.12699999809E+01 0.  1.
</event>
<event>
 5   0  0.1348388E-06  0.4115581E+04  0.7818609E-02  0.7981628E-01
        2   -1    0    0  501    0  0.00000000000E+00  0.00000000000E+00  0.20060981072E+04  0.20060981072E+04  0.25500000920E-02 0.  1.
       -2   -1    0    0    0  501  0.00000000000E+00  0.00000000000E+00 -0.21108153878E+04  0.21108153878E+04  0.25500000920E-02 0. -1.
    10030    2    1    2    0    0  0.00000000000E+00  0.00000000000E+00 -0.10471728064E+03  0.41169134950E+04  0.41155814919E+04 0.  0.
        5    1    3    3  502    0  0.96900943458E+03 -0.37190266345E+03 -0.18297819891E+04  0.21036670585E+04  0.46999998093E+01 0. -1.
       -5    1    3    3    0  502 -0.96900943458E+03  0.37190266345E+03  0.17250647085E+04  0.20132464364E+04  0.46999998093E+01 0.  1.
</event>
<event>
 5   0  0.1348388E-06  0.3395904E+04  0.7818609E-02  0.8138912E-01
        2   -1    0    0  501    0  0.00000000000E+00  0.00000000000E+00  0.21101751708E+04  0.21101751708E+04  0.25500000920E-02 0. -1.
       -2   -1    0    0    0  501  0.00000000000E+00  0.00000000000E+00 -0.13662564156E+04  0.13662564156E+04  0.25500000920E-02 0.  1.
    10030    2    1    2    0    0  0.00000000000E+00  0.00000000000E+00  0.74391875519E+03  0.34764315864E+04  0.33959036295E+04 0.  0.
        5    1    3    3  502    0  0.31598622338E+03  0.49560134624E+03  0.20027028878E+04  0.20871772647E+04  0.46999998093E+01 0. -1.
       -5    1    3    3    0  502 -0.31598622338E+03 -0.49560134624E+03 -0.12587841326E+04  0.13892543216E+04  0.46999998093E+01 0.  1.
</event>
<event>
 5   0  0.4591195E-07  0.3420125E+04  0.7818609E-02  0.8132985E-01
       -1   -1    0    0    0  501  0.00000000000E+00  0.00000000000E+00  0.16246784753E+04  0.16246784753E+04  0.50400001928E-02 0. -1.
        1   -1    0    0  501    0  0.00000000000E+00  0.00000000000E+00 -0.17999336505E+04  0.17999336505E+04  0.50400001928E-02 0.  1.
    10030    2    1    2    0    0  0.00000000000E+00  0.00000000000E+00 -0.17525517523E+03  0.34246121258E+04  0.34201248275E+04 0.  0.
        4    1    3    3  502    0  0.29660843157E+03 -0.48603179454E+03  0.15269731937E+04  0.16296785616E+04  0.12699999809E+01 0. -1.
       -4    1    3    3    0  502 -0.29660843157E+03  0.48603179454E+03 -0.17022283689E+04  0.17949335642E+04  0.12699999809E+01 0.  1.
</event>
<event>
 5   0  0.4693374E-07  0.3511721E+04  0.7818609E-02  0.8111018E-01
       -1   -1    0    0    0  501  0.00000000000E+00  0.00000000000E+00  0.10489685481E+04  0.10489685481E+04  0.50400001928E-02 0.  1.
        1   -1    0    0  501    0  0.00000000000E+00  0.00000000000E+00 -0.29391213168E+04  0.29391213168E+04  0.50400001928E-02 0. -1.
    10030    2    1    2    0    0  0.00000000000E+00  0.00000000000E+00 -0.18901527688E+04  0.39880898649E+04  0.35117208433E+04 0.  0.
        1    1    3    3  502    0 -0.41552211214E+03 -0.15018238940E+04 -0.26031998891E+02  0.15584644043E+04  0.50400001928E-02 0.  1.
       -1    1    3    3    0  502  0.41552211214E+03  0.15018238940E+04 -0.18641207699E+04  0.24296254607E+04  0.50400001928E-02 0. -1.
</event>
<event>
 5   0  0.1361560E-06  0.3502747E+04  0.7818609E-02  0.8113139E-01
       -2   -1    0    0    0  501  0.00000000000E+00  0.00000000000E+00  0.15696815216E+04  0.15696815216E+04  0.25500000920E-02 0.  1.
        2   -1    0    0  501    0  0.00000000000E+00  0.00000000000E+00 -0.19540959516E+04  0.19540959516E+04  0.25500000920E-02 0. -1.
    10030    2    1    2    0    0  0.00000000000E+00  0.00000000000E+00 -0.38441443003E+03  0.35237774732E+04  0.35027465262E+04 0.  0.
        3    1    3    3  502    0  0.88417382171E+03  0.13271883720E+04 -0.92051250151E+03  0.18413407065E+04  0.10100000352E+00 0. -1.
       -3    1    3    3    0  502 -0.88417382171E+03 -0.13271883720E+04  0.53609807148E+03  0.16824367668E+04  0.10100000352E+00 0.  1.
</event>
<event>
 5   0  0.1442864E-06  0.3535161E+04  0.7818609E-02  0.8105507E-01
       -2   -1    0    0    0  501  0.00000000000E+00  0.00000000000E+00  0.13094906704E+04  0.13094906704E+04  0.25500000920E-02 0. -1.
        2   -1    0    0  501    0  0.00000000000E+00  0.00000000000E+00 -0.23859206827E+04  0.23859206827E+04  0.25500000920E-02 0.  1.
    10030    2    1    2    0    0  0.00000000000E+00  0.00000000000E+00 -0.10764300122E+04  0.36954113531E+04  0.35351610285E+04 0.  0.
        1    1    3    3  502    0  0.10110450631E+04 -0.57951352393E+03  0.85104950200E+03  0.14430292093E+04  0.50400001928E-02 0. -1.
       -1    1    3    3    0  502 -0.10110450631E+04  0.57951352393E+03 -0.19274795142E+04  0.22523821438E+04  0.50400001928E-02 0.  1.
</event>
<event>
 5   0  0.1348388E-06  0.3497913E+04  0.7818609E-02  0.8114285E-01
       -2   -1    0    0    0  501  0.00000000000E+00  0.00000000000E+00  0.16738213074E+04  0.16738213074E+04  0.25500000920E-02 0.  1.
        2   -1    0    0  501    0  0.00000000000E+00  0.00000000000E+00 -0.18274646277E+04  0.18274646277E+04  0.25500000920E-02 0. -1.
    10030    2    1    2    0    0  0.00000000000E+00  0.00000000000E+00 -0.15364332030E+03  0.35012859351E+04  0.34979132250E+04 0.  0.
        5    1    3    3  502    0  0.26474942331E+03  0.77789622981E+03 -0.16222054782E+04  0.18184574521E+04  0.46999998093E+01 0. -1.
       -5    1    3    3    0  502 -0.26474942331E+03 -0.77789622981E+03  0.14685621579E+04  0.16828284830E+04  0.46999998093E+01 0.  1.
</event>
<event>
 5   0  0.4409125E-07  0.3539146E+04  0.7818609E-02  0.8104575E-01
        1   -1    0    0  501    0  0.00000000000E+00  0.00000000000E+00  0.26656558672E+04  0.26656558672E+04  0.50400001928E-02 0.  1.
       -1   -1    0    0    0  501  0.00000000000E+00  0.00000000000E+00 -0.11747162807E+04  0.11747162807E+04  0.50400001928E-02 0. -1.
    10030    2    1    2    0    0  0.00000000000E+00  0.00000000000E+00  0.14909395865E+04  0.38403721479E+04  0.35391464202E+04 0.  0.
        5    1    3    3  502    0  0.81826917718E+02 -0.10643572916E+04  0.22769073675E+04  0.25147328563E+04  0.46999998093E+01 0.  1.
       -5    1    3    3    0  502 -0.81826917718E+02  0.10643572916E+04 -0.78596778095E+03  0.13256392915E+04  0.46999998093E+01 0. -1.
</event>
<event>
 5   0  0.1378620E-06  0.3182903E+04  0.7818609E-02  0.8193347E-01
        2   -1    0    0  501    0  0.00000000000E+00  0.00000000000E+00  0.14195526565E+04  0.14195526565E+04  0.25500000920E-02 0.  1.
       -2   -1    0    0    0  501  0.00000000000E+00  0.00000000000E+00 -0.17841663226E+04  0.17841663226E+04  0.25500000920E-02 0. -1.
    10030    2    1    2    0    0  0.00000000000E+00  0.00000000000E+00 -0.36461366618E+03  0.32037189791E+04  0.31829031043E+04 0.  0.
        2    1    3    3  502    0  0.56400212128E+03 -0.14630664431E+03 -0.16729424795E+04  0.17715079923E+04  0.25500000920E-02 0. -1.
       -2    1    3    3    0  502 -0.56400212128E+03  0.14630664431E+03  0.13083288133E+04  0.14322109868E+04  0.25500000920E-02 0.  1.
</event>
<event>
 5   0  0.4693374E-07  0.3444206E+04  0.7818609E-02  0.8127141E-01
       -1   -1    0    0    0  501  0.00000000000E+00  0.00000000000E+00  0.14054525021E+04  0.14054525021E+04  0.50400001928E-02 0.  1.
        1   -1    0    0  501    0  0.00000000000E+00  0.00000000000E+00 -0.21100948917E+04  0.21100948917E+04  0.50400001928E-02 0. -1.
    10030    2    1    2    0    0  0.00000000000E+00  0.00000000000E+00 -0.70464238957E+03  0.35155473938E+04  0.34442056531E+04 0.  0.
        1    1    3    3  502    0 -0.13829384992E+04  0.10150514077E+04 -0.50641139458E+03  0.17886589260E+04  0.50400001928E-02 0. -1.
       -1    1    3    3    0  502  0.13829384992E+04 -0.10150514077E+04 -0.19823099498E+03  0.17268884678E+04  0.50400001928E-02 0.  1.
</event>
<event>
 5   0  0.1361560E-06  0.3553632E+04  0.7818609E-02  0.8101196E-01
        2   -1    0    0  501    0  0.00000000000E+00  0.00000000000E+00  0.19223490581E+04  0.19223490581E+04  0.25500000920E-02 0.  1.
       -2   -1    0    0    0  501  0.00000000000E+00  0.00000000000E+00 -0.16423010881E+04  0.16423010881E+04  0.25500000920E-02 0. -1.
    10030    2    1    2    0    0  0.00000000000E+00  0.00000000000E+00  0.28004797001E+03  0.35646501463E+04  0.35536324796E+04 0.  0.
        3    1    3    3  502    0  0.11226407785E+04  0.12008924772E+04 -0.53631483351E+03  0.17291901776E+04  0.10100000352E+00 0. -1.
       -3    1    3    3    0  502 -0.11226407785E+04 -0.12008924772E+04  0.81636280352E+03  0.18354599687E+04  0.10100000352E+00 0.  1.
</event>
<event>
 5   0  0.1378620E-06  0.3489005E+04  0.7818609E-02  0.8116401E-01
        2   -1    0    0  501    0  0.00000000000E+00  0.00000000000E+00  0.14433404506E+04  0.14433404506E+04  0.25500000920E-02 0. -1.
       -2   -1    0    0    0  501  0.00000000000E+00  0.00000000000E+00 -0.21085039808E+04  0.21085039808E+04  0.25500000920E-02 0.  1.
    10030    2    1    2    0    0  0.00000000000E+00  0.00000000000E+00 -0.66516353018E+03  0.35518444314E+04  0.34890050649E+04 0.  0.
        2    1    3    3  502    0 -0.96808467893E+03 -0.13679825888E+04 -0.82579168530E+03  0.18682869738E+04  0.25500000920E-02 0.  1.
       -2    1    3    3    0  502  0.96808467893E+03  0.13679825888E+04  0.16062815512E+03  0.16835574576E+04  0.25500000920E-02 0. -1.
</event>
<event>
 5   0  0.4700769E-07  0.3446977E+04  0.7818609E-02  0.8126472E-01
        1   -1    0    0  501    0  0.00000000000E+00  0.00000000000E+00  0.25300969390E+04  0.25300969390E+04  0.50400001928E-02 0.  1.
       -1   -1    0    0    0  501  0.00000000000E+00  0.00000000000E+00 -0.11740313281E+04  0.11740313281E+04  0.50400001928E-02 0. -1.
    10030    2    1    2    0    0  0.00000000000E+00  0.00000000000E+00  0.13560656110E+04  0.37041282671E+04  0.34469772668E+04 0.  0.
        3    1    3    3  502    0  0.67537833774E+03 -0.14597261188E+04  0.12580160662E+02  0.16084447494E+04  0.10100000352E+00 0.  1.
       -3    1    3    3    0  502 -0.67537833774E+03  0.14597261188E+04  0.13434854503E+04  0.20956835177E+04  0.10100000352E+00 0. -1.
</event>
<event>
 5   0  0.1348388E-06  0.3579962E+04  0.7818609E-02  0.8095097E-01
        2   -1    0    0  501    0  0.00000000000E+00  0.00000000000E+00  0.24201389364E+04  0.24201389364E+04  0.25500000920E-02 0.  1.
       -2   -1    0    0    0  501  0.00000000000E+00  0.00000000000E+00 -0.13239038980E+04  0.13239038980E+04  0.25500000920E-02 0. -1.
    10030    2    1    2    0    0  0.00000000000E+00  0.00000000000E+00  0.10962350384E+04  0.37440428343E+04  0.35799616598E+04 0.  0.
        5    1    3    3  502    0 -0.43101631528E+03 -0.53072468991E+03 -0.11819591861E+04  0.13654645247E+04  0.46999998093E+01 0. -1.
       -5    1    3    3    0  502  0.43101631528E+03  0.53072468991E+03  0.22781942245E+04  0.23785783097E+04  0.46999998093E+01 0.  1.
</event>
<event>
 5   0  0.1378620E-06  0.2880426E+04  0.7818609E-02  0.8278725E-01
       -2   -1    0    0    0  501  0.00000000000E+00  0.00000000000E+00  0.12795161187E+04  0.12795161187E+04  0.25500000920E-02 0. -1.
        2   -1    0    0  501    0  0.00000000000E+00  0.00000000000E+00 -0.16210920765E+04  0.16210920766E+04  0.25500000920E-02 0.  1.
    10030    2    1    2    0    0  0.00000000000E+00  0.00000000000E+00 -0.34157595787E+03  0.29006081952E+04  0.28804259698E+04 0.  0.
        2    1    3    3  502    0  0.33468013327E+03 -0.31719632916E+03  0.12031725929E+04  0.12885063411E+04  0.25500000920E-02 0. -1.
       -2    1    3    3    0  502 -0.33468013327E+03  0.31719632916E+03 -0.15447485508E+04  0.16121018541E+04  0.25500000920E-02 0.  1.
</event>
<event>
 5   0  0.1348388E-06  0.3388453E+04  0.7818609E-02  0.8140746E-01
       -2   -1    0    0    0  501  0.00000000000E+00  0.00000000000E+00  0.10015791073E+04  0.10015791073E+04  0.25500000920E-02 0. -1.
        2   -1    0    0  501    0  0.00000000000E+00  0.00000000000E+00 -0.28658782126E+04  0.28658782126E+04  0.25500000920E-02 0.  1.
    10030    2    1    2    0    0  0.00000000000E+00  0.00000000000E+00 -0.18642991054E+04  0.38674573199E+04  0.33884531821E+04 0.  0.
        5    1    3    3  502    0 -0.41320617192E+03  0.46148798439E+03 -0.27319867297E+04  0.28013361243E+04  0.46999998093E+01 0.  1.
       -5    1    3    3    0  502  0.41320617192E+03 -0.46148798439E+03  0.86768762432E+03  0.10661211956E+04  0.46999998093E+01 0. -1.
</event>
<event>
 5   0  0.4693374E-07  0.3548850E+04  0.7818609E-02  0.8102310E-01
       -1   -1    0    0    0  501  0.00000000000E+00  0.00000000000E+00  0.14410548235E+04  0.14410548235E+04  0.50400001928E-02 0.  1.
        1   -1    0    0  501    0  0.00000000000E+00  0.00000000000E+00 -0.21849165585E+04  0.21849165585E+04  0.50400001928E-02 0. -1.
    10030    2    1    2    0    0  0.00000000000E+00  0.00000000000E+00 -0.74386173500E+03  0.36259713821E+04  0.35488502621E+04 0.  0.
        1    1    3    3  502    0 -0.14019430719E+03 -0.13405078234E+04  0.80725899080E+03  0.15710769385E+04  0.50400001928E-02 0.  1.
       -1    1    3    3    0  502  0.14019430719E+03  0.13405078234E+04 -0.15511207258E+04  0.20548944436E+04  0.50400001928E-02 0. -1.
</event>
<event>
 5   0  0.1387133E-06  0.3514983E+04  0.7818609E-02  0.8110248E-01
        2   -1    0    0  501    0  0.00000000000E+00  0.00000000000E+00  0.23083518875E+04  0.23083518875E+04  0.25500000920E-02 0. -1.
       -2   -1    0    0    0  501  0.00000000000E+00  0.00000000000E+00 -0.13380876629E+04  0.13380876629E+04  0.25500000920E-02 0.  1.
    10030    2    1    2    0    0  0.00000000000E+00  0.00000000000E+00  0.97026422457E+03  0.36464395505E+04  0.35149834608E+04 0.  0.
        4    1    3    3  502    0  0.52353418027E+03 -0.16490685509E+04  0.16494633380E+03  0.17380230232E+04  0.12699999809E+01 0.  1.
       -4    1    3    3    0  502 -0.52353418027E+03  0.16490685509E+04  0.80531789076E+03  0.19084165272E+04  0.12699999809E+01 0. -1.
</event>
<event>
 5   0  0.1361560E-06  0.3520374E+04  0.7818609E-02  0.8108979E-01
       -2   -1    0    0    0  501  0.00000000000E+00  0.00000000000E+00  0.14784128089E+04  0.14784128089E+04  0.25500000920E-02 0.  1.
        2   -1    0    0  501    0  0.00000000000E+00  0.00000000000E+00 -0.20956649011E+04  0.20956649011E+04  0.25500000920E-02 0. -1.
    10030    2    1    2    0    0  0.00000000000E+00  0.00000000000E+00 -0.61725209221E+03  0.35740777101E+04  0.35203737489E+04 0.  0.
        3    1    3    3  502    0  0.12003160361E+04 -0.22473116426E+03 -0.15956377575E+04  0.20093089722E+04  0.10100000352E+00 0. -1.
       -3    1    3    3    0  502 -0.12003160361E+04  0.22473116426E+03  0.97838566524E+03  0.15647687378E+04  0.10100000352E+00 0.  1.
</event>
<event>
 5   0  0.1348388E-06  0.3450039E+04  0.7818609E-02  0.8125733E-01
        2   -1    0    0  501    0  0.00000000000E+00  0.00000000000E+00  0.19986585655E+04  0.19986585655E+04  0.25500000920E-02 0.  1.
       -2   -1    0    0    0  501  0.00000000000E+00  0.00000000000E+00 -0.14888451225E+04  0.14888451225E+04  0.25500000920E-02 0. -1.
    10030    2    1    2    0    0  0.00000000000E+00  0.00000000000E+00  0.50981344293E+03  0.34875036880E+04  0.34500394530E+04 0.  0.
        5    1    3    3  502    0  0.93233321545E+03  0.11773509532E+04  0.11128101836E+04  0.18691626699E+04  0.46999998093E+01 0.  1.
       -5    1    3    3    0  502 -0.93233321545E+03 -0.11773509532E+04 -0.60299674069E+03  0.16183410181E+04  0.46999998093E+01 0. -1.
</event>
<event>
 5   0  0.1361560E-06  0.3474586E+04  0.7818609E-02  0.8119839E-01
       -2   -1    0    0    0  501  0.00000000000E+00  0.00000000000E+00  0.14357410361E+04  0.14357410361E+04  0.25500000920E-02 0. -1.
        2   -1    0    0  501    0  0.00000000000E+00  0.00000000000E+00 -0.21021809247E+04  0.21021809247E+04  0.25500000920E-02 0.  1.
    10030    2    1    2    0    0  0.00000000000E+00  0.00000000000E+00 -0.66643988862E+03  0.35379219608E+04  0.34745862596E+04 0.  0.
        3    1    3    3  502    0 -0.10686176996E+04  0.13120696163E+04 -0.73373061271E+03  0.18444053481E+04  0.10100000352E+00 0.  1.
       -3    1    3    3    0  502  0.10686176996E+04 -0.13120696163E+04  0.67290724082E+02  0.16935166127E+04  0.10100000352E+00 0. -1.
</event>
<event>
 5   0  0.4700769E-07  0.3364877E+04  0.7818609E-02  0.8146581E-01
        1   -1    0    0  501    0  0.00000000000E+00  0.00000000000E+00  0.21558760108E+04  0.21558760108E+04  0.50400001928E-02 0. -1.
       -1   -1    0    0    0  501  0.00000000000E+00  0.00000000000E+00 -0.13129693280E+04  0.13129693280E+04  0.50400001928E-02 0.  1.
    10030    2    1    2    0    0  0.00000000000E+00  0.00000000000E+00  0.84290668288E+03  0.34688453388E+04  0.33648768638E+04 0.  0.
        3    1    3    3  502    0  0.15601782841E+04  0.60188143925E+03  0.61204832209E+03  0.17807360006E+04  0.10100000352E+00 0.  1.
       -3    1    3    3    0  502 -0.15601782841E+04 -0.60188143925E+03  0.23085836079E+03  0.16881093383E+04  0.10100000352E+00 0. -1.
</event>
<event>
 5   0  0.4700769E-07  0.3362492E+04  0.7818609E-02  0.8147174E-01
       -1   -1    0    0    0  501  0.00000000000E+00  0.00000000000E+00  0.14066812058E+04  0.14066812058E+04  0.50400001928E-02 0.  1.
        1   -1    0    0  501    0  0.00000000000E+00  0.00000000000E+00 -0.20094022362E+04  0.20094022362E+04  0.50400001928E-02 0. -1.
    10030    2    1    2    0    0  0.00000000000E+00  0.00000000000E+00 -0.60272103037E+03  0.34160834421E+04  0.33624921476E+04 0.  0.
        3    1    3    3  502    0  0.59649724599E+02  0.90848208931E+02  0.14031087632E+04  0.14073115143E+04  0.10100000352E+00 0.  1.
       -3    1    3    3    0  502 -0.59649724599E+02 -0.90848208931E+02 -0.20058297936E+04  0.20087719278E+04  0.10100000352E+00 0. -1.
</event>
<event>
 5   0  0.1387133E-06  0.3160012E+04  0.7818609E-02  0.8199459E-01
        2   -1    0    0  501    0  0.00000000000E+00  0.00000000000E+00  0.24982655642E+04  0.24982655642E+04  0.25500000920E-02 0.  1.
       -2   -1    0    0    0  501  0.00000000000E+00  0.00000000000E+00 -0.99926066558E+03  0.99926066558E+03  0.25500000920E-02 0. -1.
    10030    2    1    2    0    0  0.00000000000E+00  0.00000000000E+00  0.14990048987E+04  0.34975262298E+04  0.31600117155E+04 0.  0.
        4    1    3    3  502    0 -0.12464033152E+03 -0.15289450098E+03  0.24845823891E+04  0.24924010917E+04  0.12699999809E+01 0.  1.
       -4    1    3    3    0  502  0.12464033152E+03  0.15289450098E+03 -0.98557749047E+03  0.10051251381E+04  0.12699999809E+01 0. -1.
</event>
<event>
 5   0  0.4409125E-07  0.3451781E+04  0.7818609E-02  0.8125313E-01
       -1   -1    0    0    0  501  0.00000000000E+00  0.00000000000E+00  0.32169845591E+04  0.32169845591E+04  0.50400001928E-02 0.  1.
        1   -1    0    0  501    0  0.00000000000E+00  0.00000000000E+00 -0.92592879307E+03  0.92592879308E+03  0.50400001928E-02 0. -1.
    10030    2    1    2    0    0  0.00000000000E+00  0.00000000000E+00  0.22910557660E+04  0.41429133522E+04  0.34517813547E+04 0.  0.
        5    1    3    3  502    0  0.23784701620E+03 -0.13519804100E+04  0.24010423007E+04  0.27657636291E+04  0.46999998093E+01 0. -1.
       -5    1    3    3    0  502 -0.23784701620E+03  0.13519804100E+04 -0.10998653469E+03  0.13771497231E+04  0.46999998093E+01 0.  1.
</event>
<event>
 5   0  0.4409125E-07  0.3413639E+04  0.7818609E-02  0.8134567E-01
       -1   -1    0    0    0  501  0.00000000000E+00  0.00000000000E+00  0.11273225049E+04  0.11273225049E+04  0.50400001928E-02 0.  1.
        1   -1    0    0  501    0  0.00000000000E+00  0.00000000000E+00 -0.25842060684E+04  0.25842060684E+04  0.50400001928E-02 0. -1.
    10030    2    1    2    0    0  0.00000000000E+00  0.00000000000E+00 -0.14568835635E+04  0.37115285734E+04  0.34136394996E+04 0.  0.
        5    1    3    3  502    0  0.71657181503E+03  0.11901424925E+04 -0.18065877555E+04  0.22789681277E+04  0.46999998093E+01 0. -1.
       -5    1    3    3    0  502 -0.71657181503E+03 -0.11901424925E+04  0.34970419204E+03  0.14325604457E+04  0.46999998093E+01 0.  1.
</event>
<event>
 5   0  0.4700769E-07  0.3471866E+04  0.7818609E-02  0.8120490E-01
       -1   -1    0    0    0  501  0.00000000000E+00  0.00000000000E+00  0.12825120385E+04  0.12825120385E+04  0.50400001928E-02 0. -1.
        1   -1    0    0  501    0  0.00000000000E+00  0.00000000000E+00 -0.23496565034E+04  0.23496565034E+04  0.50400001928E-02 0.  1.
    10030    2    1    2    0    0  0.00000000000E+00  0.00000000000E+00 -0.10671444650E+04  0.36321685419E+04  0.34718656379E+04 0.  0.
        3    1    3    3  502    0  0.26846722753E+03  0.60147644120E+03  0.11467031358E+04  0.13224131932E+04  0.10100000352E+00 0. -1.
       -3    1    3    3    0  502 -0.26846722753E+03 -0.60147644120E+03 -0.22138476008E+04  0.23097553488E+04  0.10100000352E+00 0.  1.
</event>
<event>
 5   0  0.1442864E-06  0.3468182E+04  0.7818609E-02  0.8121372E-01
       -2   -1    0    0    0  501  0.00000000000E+00  0.00000000000E+00  0.11972123008E+04  0.11972123008E+04  0.25500000920E-02 0.  1.
        2   -1    0    0  501    0  0.00000000000E+00  0.00000000000E+00 -0.25117279763E+04  0.25117279763E+04  0.25500000920E-02 0. -1.
    10030    2    1    2    0    0  0.00000000000E+00  0.00000000000E+00 -0.13145156755E+04  0.37089402771E+04  0.34681820191E+04 0.  0.
        1    1    3    3  502    0 -0.94888560741E+03  0.13901096278E+04 -0.11037104998E+04  0.20127010559E+04  0.50400001928E-02 0.  1.
       -1    1    3    3    0  502  0.94888560741E+03 -0.13901096278E+04 -0.21080517576E+03  0.16962392211E+04  0.50400001928E-02 0. -1.
</event>
<event>
 5   0  0.4557237E-07  0.3599154E+04  0.7818609E-02  0.8090686E-01
        1   -1    0    0  501    0  0.00000000000E+00  0.00000000000E+00  0.14652236080E+04  0.14652236080E+04  0.50400001928E-02 0. -1.
       -1   -1    0    0    0  501  0.00000000000E+00  0.00000000000E+00 -0.22102272344E+04  0.22102272345E+04  0.50400001928E-02 0.  1.
    10030    2    1    2    0    0  0.00000000000E+00  0.00000000000E+00 -0.74500362642E+03  0.36754508425E+04  0.35991538578E+04 0.  0.
        2    1    3    3  502    0 -0.12445230504E+03  0.11550073447E+04 -0.17760265369E+04  0.21222159651E+04  0.25500000920E-02 0.  1.
       -2    1    3    3    0  502  0.12445230504E+03 -0.11550073447E+04  0.10310229105E+04  0.15532348774E+04  0.25500000920E-02 0. -1.
</event>
<event>
 5   0  0.4700769E-07  0.3543635E+04  0.7818609E-02  0.8103526E-01
       -1   -1    0    0    0  501  0.00000000000E+00  0.00000000000E+00  0.23969671816E+04  0.23969671816E+04  0.50400001928E-02 0. -1.
        1   -1    0    0  501    0  0.00000000000E+00  0.00000000000E+00 -0.13097125215E+04  0.13097125215E+04  0.50400001928E-02 0.  1.
    10030    2    1    2    0    0  0.00000000000E+00  0.00000000000E+00  0.10872546601E+04  0.37066797031E+04  0.35436353826E+04 0.  0.
        3    1    3    3  502    0  0.11796186164E+04 -0.17274276907E+03  0.19146585026E+04  0.22554949205E+04  0.10100000352E+00 0. -1.
       -3    1    3    3    0  502 -0.11796186164E+04  0.17274276907E+03 -0.82740384251E+03  0.14511847826E+04  0.10100000352E+00 0.  1.
</event>
<event>
 5   0  0.4557237E-07  0.3557937E+04  0.7818609E-02  0.8100195E-01
        1   -1    0    0  501    0  0.00000000000E+00  0.00000000000E+00  0.13082136991E+04  0.13082136991E+04  0.50400001928E-02 0. -1.
       -1   -1    0    0    0  501  0.00000000000E+00  0.00000000000E+00 -0.24191216326E+04  0.24191216326E+04  0.50400001928E-02 0.  1.
    10030    2    1    2    0    0  0.00000000000E+00  0.00000000000E+00 -0.11109079335E+04  0.37273353318E+04  0.35579365142E+04 0.  0.
        2    1    3    3  502    0  0.14225867066E+04  0.38249574654E+03 -0.16002710030E+04  0.21750685545E+04  0.25500000920E-02 0.  1.
       -2    1    3    3    0  502 -0.14225867066E+04 -0.38249574654E+03  0.48936306948E+03  0.15522667772E+04  0.25500000920E-02 0. -1.
</event>
<event>
 5   0  0.4700769E-07  0.3580530E+04  0.7818609E-02  0.8094966E-01
       -1   -1    0    0    0  501  0.00000000000E+00  0.00000000000E+00  0.28164431490E+04  0.28164431490E+04  0.50400001928E-02 0. -1.
        1   -1    0    0  501    0  0.00000000000E+00  0.00000000000E+00 -0.11379773840E+04  0.11379773840E+04  0.50400001928E-02 0.  1.
    10030    2    1    2    0    0  0.00000000000E+00  0.00000000000E+00  0.16784657650E+04  0.39544205330E+04  0.35805299087E+04 0.  0.
        3    1    3    3  502    0  0.11320699500E+04 -0.12647467281E+04  0.14677670798E+04  0.22439935091E+04  0.10100000352E+00 0.  1.
       -3    1    3    3    0  502 -0.11320699500E+04  0.12647467281E+04  0.21069868520E+03  0.17104270239E+04  0.10100000352E+00 0. -1.
</event>
<event>
 5   0  0.1348388E-06  0.3476242E+04  0.7818609E-02  0.8119443E-01
        2   -1    0    0  501    0  0.00000000000E+00  0.00000000000E+00  0.15327093185E+04  0.15327093185E+04  0.25500000920E-02 0. -1.
       -2   -1    0    0    0  501  0.00000000000E+00  0.00000000000E+00 -0.19710621626E+04  0.19710621626E+04  0.25500000920E-02 0.  1.
    10030    2    1    2    0    0  0.00000000000E+00  0.00000000000E+00 -0.43835284407E+03  0.35037714811E+04  0.34762424219E+04 0.  0.
        5    1    3    3  502    0 -0.12573851157E+03 -0.12903696372E+04 -0.13860052969E+04  0.18978663670E+04  0.46999998093E+01 0.  1.
       -5    1    3    3    0  502  0.12573851157E+03  0.12903696372E+04  0.94765245287E+03  0.16059051141E+04  0.46999998093E+01 0. -1.
</event>
<event>
 5   0  0.1442864E-06  0.3490301E+04  0.7818609E-02  0.8116092E-01
       -2   -1    0    0    0  501  0.00000000000E+00  0.00000000000E+00  0.32486066130E+04  0.32486066130E+04  0.25500000920E-02 0.  1.
        2   -1    0    0  501    0  0.00000000000E+00  0.00000000000E+00 -0.93749409141E+03  0.93749409141E+03  0.25500000920E-02 0. -1.
    10030    2    1    2    0    0  0.00000000000E+00  0.00000000000E+00  0.23111125216E+04  0.41861007044E+04  0.34903005630E+04 0.  0.
        1    1    3    3  502    0  0.15780541499E+04 -0.68373712092E+03  0.80017907992E+03  0.18968494697E+04  0.50400001928E-02 0.  1.
       -1    1    3    3    0  502 -0.15780541499E+04  0.68373712092E+03  0.15109334417E+04  0.22892512347E+04  0.50400001928E-02 0. -1.
</event>
<event>
 5   0  0.4693374E-07  0.3500222E+04  0.7818609E-02  0.8113737E-01
       -1   -1    0    0    0  501  0.00000000000E+00  0.00000000000E+00  0.10431532360E+04  0.10431532360E+04  0.50400001928E-02 0. -1.
        1   -1    0    0  501    0  0.00000000000E+00  0.00000000000E+00 -0.29361825893E+04  0.29361825893E+04  0.50400001928E-02 0.  1.
    10030    2    1    2    0    0  0.00000000000E+00  0.00000000000E+00 -0.18930293533E+04  0.39793358253E+04  0.35002219184E+04 0.  0.
        1    1    3    3  502    0 -0.31079966516E+03 -0.15398755069E+04 -0.69511843996E+02  0.15724645958E+04  0.50400001928E-02 0. -1.
       -1    1    3    3    0  502  0.31079966516E+03  0.15398755069E+04 -0.18235175093E+04  0.24068712295E+04  0.50400001928E-02 0.  1.
</event>
<event>
 5   0  0.1378620E-06  0.3044278E+04  0.7818609E-02  0.8231199E-01
        2   -1    0    0  501    0  0.00000000000E+00  0.00000000000E+00  0.20988208827E+04  0.20988208827E+04  0.25500000920E-02 0.  1.
       -2   -1    0    0    0  501  0.00000000000E+00  0.00000000000E+00 -0.11039088074E+04  0.11039088074E+04  0.25500000920E-02 0. -1.
    10030    2    1    2    0    0  0.00000000000E+00  0.00000000000E+00  0.99491207524E+03  0.32027296901E+04  0.30442778176E+04 0.  0.
        2    1    3    3  502    0  0.86608871080E+03  0.12515867800E+04  0.51650175313E+03  0.16072813020E+04  0.25500000920E-02 0. -1.
       -2    1    3    3    0  502 -0.86608871080E+03 -0.12515867800E+04  0.47841032211E+03  0.15954483881E+04  0.25500000920E-02 0.  1.
</event>
<event>
 5   0  0.1348388E-06  0.3381363E+04  0.7818609E-02  0.8142496E-01
        2   -1    0    0  501    0  0.00000000000E+00  0.00000000000E+00  0.20954800344E+04  0.20954800344E+04  0.25500000920E-02 0.  1.
       -2   -1    0    0    0  501  0.00000000000E+00  0.00000000000E+00 -0.13640807083E+04  0.13640807083E+04  0.25500000920E-02 0. -1.
    10030    2    1    2    0    0  0.00000000000E+00  0.00000000000E+00  0.73139932608E+03  0.34595607427E+04  0.33813629734E+04 0.  0.
        5    1    3    3  502    0 -0.14142724056E+04 -0.81883714277E+03 -0.77588064517E+02  0.16360631716E+04  0.46999998093E+01 0. -1.
       -5    1    3    3    0  502  0.14142724056E+04  0.81883714277E+03  0.80898739059E+03  0.18234975711E+04  0.46999998093E+01 0.  1.
</event>
<event>
 5   0  0.4557237E-07  0.3477968E+04  0.7818609E-02  0.8119031E-01
        1   -1    0    0  501    0  0.00000000000E+00  0.00000000000E+00  0.15089107384E+04  0.15089107385E+04  0.50400001928E-02 0. -1.
       -1   -1    0    0    0  501  0.00000000000E+00  0.00000000000E+00 -0.20041380398E+04  0.20041380398E+04  0.50400001928E-02 0.  1.
    10030    2    1    2    0    0  0.00000000000E+00  0.00000000000E+00 -0.49522730136E+03  0.35130487783E+04  0.34779680330E+04 0.  0.
        2    1    3    3  502    0  0.13904524348E+04 -0.10083927898E+04 -0.52211090996E+03  0.17952197064E+04  0.25500000920E-02 0.  1.
       -2    1    3    3    0  502 -0.13904524348E+04  0.10083927898E+04  0.26883608600E+02  0.17178290719E+04  0.25500000920E-02 0. -1.
</event>
<event>
 5   0  0.1378620E-06  0.2865243E+04  0.7818609E-02  0.8283294E-01
       -2   -1    0    0    0  501  0.00000000000E+00  0.00000000000E+00  0.95434137013E+03  0.95434137014E+03  0.25500000920E-02 0. -1.
        2   -1    0    0  501    0  0.00000000000E+00  0.00000000000E+00 -0.21505980824E+04  0.21505980824E+04  0.25500000920E-02 0.  1.
    10030    2    1    2    0    0  0.00000000000E+00  0.00000000000E+00 -0.11962567123E+04  0.31049394526E+04  0.28652432501E+04 0.  0.
        2    1    3    3  502    0  0.57668438686E+03  0.79583397744E+03 -0.17276748930E+04  0.19876561920E+04  0.25500000920E-02 0.  1.
       -2    1    3    3    0  502 -0.57668438686E+03 -0.79583397744E+03  0.53141818066E+03  0.11172832606E+04  0.25500000920E-02 0. -1.
</event>
<event>
 5   0  0.1361560E-06  0.3463625E+04  0.7818609E-02  0.8122465E-01
        2   -1    0    0  501    0  0.00000000000E+00  0.00000000000E+00  0.22545856201E+04  0.22545856201E+04  0.25500000920E-02 0. -1.
       -2   -1    0    0    0  501  0.00000000000E+00  0.00000000000E+00 -0.13302549480E+04  0.13302549480E+04  0.25500000920E-02 0.  1.
    10030    2    1    2    0    0  0.00000000000E+00  0.00000000000E+00  0.92433067209E+03  0.35848405680E+04  0.34636245043E+04 0.  0.
        3    1    3    3  502    0  0.99225551151E+03  0.69920040081E+03  0.17405945031E+04  0.21220559453E+04  0.10100000352E+00 0. -1.
       -3    1    3    3    0  502 -0.99225551151E+03 -0.69920040081E+03 -0.81626383098E+03  0.14627846228E+04  0.10100000352E+00 0.  1.
</event>
<event>
 5   0  0.4409125E-07  0.3505676E+04  0.7818609E-02  0.8112446E-01
        3   -1    0    0  501    0  0.00000000000E+00  0.00000000000E+00  0.20030898176E+04  0.20030898201E+04  0.10100000352E+00 0.  1.
       -3   -1    0    0    0  501  0.00000000000E+00  0.00000000000E+00 -0.15338511536E+04  0.15338511569E+04  0.10100000352E+00 0. -1.
    10030    2    1    2    0    0  0.00000000000E+00  0.00000000000E+00  0.46923866398E+03  0.35369409771E+04  0.35056763330E+04 0.  0.
        5    1    3    3  502    0  0.10300609698E+04 -0.24007851201E+03 -0.11756146857E+04  0.15813776502E+04  0.46999998093E+01 0. -1.
       -5    1    3    3    0  502 -0.10300609698E+04  0.24007851201E+03  0.16448533497E+04  0.19555633269E+04  0.46999998093E+01 0.  1.
</event>
<event>
 5   0  0.4409125E-07  0.3468499E+04  0.7818609E-02  0.8121296E-01
       -1   -1    0    0    0  501  0.00000000000E+00  0.00000000000E+00  0.12421198271E+04  0.12421198271E+04  0.50400001928E-02 0.  1.
        1   -1    0    0  501    0  0.00000000000E+00  0.00000000000E+00 -0.24213621668E+04  0.24213621668E+04  0.50400001928E-02 0. -1.
    10030    2    1    2    0    0  0.00000000000E+00  0.00000000000E+00 -0.11792423397E+04  0.36634819939E+04  0.34684993620E+04 0.  0.
        5    1    3    3  502    0  0.20029789686E+03  0.48754255061E+03  0.11554634673E+04  0.12700137403E+04  0.46999998093E+01 0.  1.
       -5    1    3    3    0  502 -0.20029789686E+03 -0.48754255061E+03 -0.23347058070E+04  0.23934682537E+04  0.46999998093E+01 0. -1.
</event>
<event>
 5   0  0.1442864E-06  0.3524872E+04  0.7818609E-02  0.8107921E-01
       -2   -1    0    0    0  501  0.00000000000E+00  0.00000000000E+00  0.10864662991E+04  0.10864662991E+04  0.25500000920E-02 0.  1.
        2   -1    0    0  501    0  0.00000000000E+00  0.00000000000E+00 -0.28589759037E+04  0.28589759037E+04  0.25500000920E-02 0. -1.
    10030    2    1    2    0    0  0.00000000000E+00  0.00000000000E+00 -0.17725096047E+04  0.39454422028E+04  0.35248721788E+04 0.  0.
        1    1    3    3  502    0 -0.12954901409E+04 -0.10623100521E+04 -0.14986987236E+04  0.22478645903E+04  0.50400001928E-02 0. -1.
       -1    1    3    3    0  502  0.12954901409E+04  0.10623100521E+04 -0.27381088108E+03  0.16975776126E+04  0.50400001928E-02 0.  1.
</event>
<event>
 5   0  0.4591195E-07  0.3395233E+04  0.7818609E-02  0.8139077E-01
        1   -1    0    0  501    0  0.00000000000E+00  0.00000000000E+00  0.26669585128E+04  0.26669585128E+04  0.50400001928E-02 0.  1.
       -1   -1    0    0    0  501  0.00000000000E+00  0.00000000000E+00 -0.10805946724E+04  0.10805946724E+04  0.50400001928E-02 0. -1.
    10030    2    1    2    0    0  0.00000000000E+00  0.00000000000E+00  0.15863638404E+04  0.37475531853E+04  0.33952326345E+04 0.  0.
        4    1    3    3  502    0 -0.85996176049E+03 -0.11771431758E+04 -0.16696993106E+03  0.14673380171E+04  0.12699999809E+01 0. -1.
       -4    1    3    3    0  502  0.85996176049E+03  0.11771431758E+04  0.17533337715E+04  0.22802151681E+04  0.12699999809E+01 0.  1.
</event>
<event>
 5   0  0.4557237E-07  0.3449868E+04  0.7818609E-02  0.8125774E-01
        1   -1    0    0  501    0  0.00000000000E+00  0.00000000000E+00  0.24030930388E+04  0.24030930388E+04  0.50400001928E-02 0. -1.
       -1   -1    0    0    0  501  0.00000000000E+00  0.00000000000E+00 -0.12381530884E+04  0.12381530884E+04  0.50400001928E-02 0.  1.
    10030    2    1    2    0    0  0.00000000000E+00  0.00000000000E+00  0.11649399504E+04  0.36412461272E+04  0.34498678628E+04 0.  0.
        2    1    3    3  502    0  0.78633002569E+03  0.13564871417E+04 -0.17646271377E+03  0.15778185461E+04  0.25500000920E-02 0.  1.
       -2    1    3    3    0  502 -0.78633002569E+03 -0.13564871417E+04  0.13414026642E+04  0.20634275811E+04  0.25500000920E-02 0. -1.
</event>
<event>
 5   0  0.1387133E-06  0.3527800E+04  0.7818609E-02  0.8107233E-01
       -2   -1    0    0    0  501  0.00000000000E+00  0.00000000000E+00  0.13056147958E+04  0.13056147958E+04  0.25500000920E-02 0. -1.
        2   -1    0    0  501    0  0.00000000000E+00  0.00000000000E+00 -0.23830477203E+04  0.23830477203E+04  0.25500000920E-02 0.  1.
    10030    2    1    2    0    0  0.00000000000E+00  0.00000000000E+00 -0.10774329245E+04  0.36886625161E+04  0.35277995197E+04 0.  0.
        4    1    3    3  502    0  0.12759340264E+04  0.53625792972E+03 -0.16820873631E+04  0.21783020261E+04  0.12699999809E+01 0.  1.
       -4    1    3    3    0  502 -0.12759340264E+04 -0.53625792972E+03  0.60465443860E+03  0.15103604900E+04  0.12699999809E+01 0. -1.
</event>
<event>
 5   0  0.1378620E-06  0.3494965E+04  0.7818609E-02  0.8114984E-01
        2   -1    0    0  501    0  0.00000000000E+00  0.00000000000E+00  0.12333018991E+04  0.12333018991E+04  0.25500000920E-02 0.  1.
       -2   -1    0    0    0  501  0.00000000000E+00  0.00000000000E+00 -0.24760323437E+04  0.24760323437E+04  0.25500000920E-02 0. -1.
    10030    2    1    2    0    0  0.00000000000E+00  0.00000000000E+00 -0.12427304446E+04  0.37093342428E+04  0.34949651739E+04 0.  0.
        2    1    3    3  502    0  0.21054532033E+03  0.33077234880E+03 -0.24287424208E+04  0.24601889004E+04  0.25500000920E-02 0. -1.
       -2    1    3    3    0  502 -0.21054532033E+03 -0.33077234880E+03  0.11860119763E+04  0.12491453424E+04  0.25500000920E-02 0.  1.
</event>
<event>
 5   0  0.1348388E-06  0.3432971E+04  0.7818609E-02  0.8129861E-01
        2   -1    0    0  501    0  0.00000000000E+00  0.00000000000E+00  0.29931996753E+04  0.29931996753E+04  0.25500000920E-02 0. -1.
       -2   -1    0    0    0  501  0.00000000000E+00  0.00000000000E+00 -0.98433854027E+03  0.98433854028E+03  0.25500000920E-02 0.  1.
    10030    2    1    2    0    0  0.00000000000E+00  0.00000000000E+00  0.20088611350E+04  0.39775382155E+04  0.34329706081E+04 0.  0.
        5    1    3    3  502    0 -0.99567998218E+03  0.62901625563E+03  0.24512138890E+04  0.27194690100E+04  0.46999998093E+01 0. -1.
       -5    1    3    3    0  502  0.99567998218E+03 -0.62901625563E+03 -0.44235275406E+03  0.12580692055E+04  0.46999998093E+01 0.  1.
</event>
<event>
 5   0  0.4557237E-07  0.3402997E+04  0.7818609E-02  0.8137171E-01
        1   -1    0    0  501    0  0.00000000000E+00  0.00000000000E+00  0.19778774940E+04  0.19778774940E+04  0.50400001928E-02 0.  1.
       -1   -1    0    0    0  501  0.00000000000E+00  0.00000000000E+00 -0.14637392660E+04  0.14637392660E+04  0.50400001928E-02 0. -1.
    10030    2    1    2    0    0  0.00000000000E+00  0.00000000000E+00  0.51413822795E+03  0.34416167600E+04  0.34029968859E+04 0.  0.
        2    1    3    3  502    0  0.15472773468E+04  0.69911173405E+03  0.36910787637E+03  0.17375456912E+04  0.25500000920E-02 0. -1.
       -2    1    3    3    0  502 -0.15472773468E+04 -0.69911173405E+03  0.14503035158E+03  0.17040710688E+04  0.25500000920E-02 0.  1.
</event>
<event>
 5   0  0.1387133E-06  0.3444207E+04  0.7818609E-02  0.8127141E-01
        2   -1    0    0  501    0  0.00000000000E+00  0.00000000000E+00  0.25759695090E+04  0.25759695090E+04  0.25500000920E-02 0. -1.
       -2   -1    0    0    0  501  0.00000000000E+00  0.00000000000E+00 -0.11512713194E+04  0.11512713194E+04  0.25500000920E-02 0.  1.
    10030    2    1    2    0    0  0.00000000000E+00  0.00000000000E+00  0.14246981896E+04  0.37272408284E+04  0.34442066230E+04 0.  0.
        4    1    3    3  502    0 -0.14167169047E+03  0.74712238176E+03  0.23844351381E+04  0.25027575316E+04  0.12699999809E+01 0. -1.
       -4    1    3    3    0  502  0.14167169047E+03 -0.74712238176E+03 -0.95973694848E+03  0.12244832969E+04  0.12699999809E+01 0.  1.
</event>
<event>
 5   0  0.1361560E-06  0.3536595E+04  0.7818609E-02  0.8105172E-01
        2   -1    0    0  501    0  0.00000000000E+00  0.00000000000E+00  0.16523448128E+04  0.16523448128E+04  0.25500000920E-02 0.  1.
       -2   -1    0    0    0  501  0.00000000000E+00  0.00000000000E+00 -0.18923875526E+04  0.18923875526E+04  0.25500000920E-02 0. -1.
    10030    2    1    2    0    0  0.00000000000E+00  0.00000000000E+00 -0.24004273987E+03  0.35447323654E+04  0.35365954003E+04 0.  0.
        3    1    3    3  502    0  0.20197866467E+02  0.94582021732E+03 -0.16174107514E+04  0.18737666307E+04  0.10100000352E+00 0. -1.
       -3    1    3    3    0  502 -0.20197866467E+02 -0.94582021732E+03  0.13773680115E+04  0.16709657347E+04  0.10100000352E+00 0.  1.
</event>
<event>
 5   0  0.4409125E-07  0.3535315E+04  0.7818609E-02  0.8105471E-01
        1   -1    0    0  501    0  0.00000000000E+00  0.00000000000E+00  0.13411857171E+04  0.13411857171E+04  0.50400001928E-02 0. -1.
       -1   -1    0    0    0  501  0.00000000000E+00  0.00000000000E+00 -0.23297386199E+04  0.23297386199E+04  0.50400001928E-02 0.  1.
    10030    2    1    2    0    0  0.00000000000E+00  0.00000000000E+00 -0.98855290284E+03  0.36709243370E+04  0.35353145046E+04 0.  0.
        5    1    3    3  502    0 -0.16493138533E+04  0.42933018798E+03 -0.98134244522E+03  0.19666254554E+04  0.46999998093E+01 0. -1.
       -5    1    3    3    0  502  0.16493138533E+04 -0.42933018798E+03 -0.72104576184E+01  0.17042988816E+04  0.46999998093E+01 0.  1.
</event>
<event>
 5   0  0.1361560E-06  0.3453711E+04  0.7818609E-02  0.8124848E-01
        2   -1    0    0  501    0  0.00000000000E+00  0.00000000000E+00  0.22967592314E+04  0.22967592315E+04  0.25500000920E-02 0. -1.
       -2   -1    0    0    0  501  0.00000000000E+00  0.00000000000E+00 -0.12983643764E+04  0.12983643764E+04  0.25500000920E-02 0.  1.
    10030    2    1    2    0    0  0.00000000000E+00  0.00000000000E+00  0.99839485507E+03  0.35951236078E+04  0.34537112602E+04 0.  0.
        3    1    3    3  502    0 -0.13274559679E+03 -0.55548192131E+03 -0.11972072981E+04  0.13264565138E+04  0.10100000352E+00 0.  1.
       -3    1    3    3    0  502  0.13274559679E+03  0.55548192131E+03  0.21956021531E+04  0.22686670940E+04  0.10100000352E+00 0. -1.
</event>
<event>
 5   0  0.4557237E-07  0.3367316E+04  0.7818609E-02  0.8145975E-01
        1   -1    0    0  501    0  0.00000000000E+00  0.00000000000E+00  0.13661106288E+04  0.13661106288E+04  0.50400001928E-02 0.  1.
       -1   -1    0    0    0  501  0.00000000000E+00  0.00000000000E+00 -0.20750177290E+04  0.20750177290E+04  0.50400001928E-02 0. -1.
    10030    2    1    2    0    0  0.00000000000E+00  0.00000000000E+00 -0.70890710016E+03  0.34411283578E+04  0.33673157111E+04 0.  0.
        2    1    3    3  502    0 -0.87717102585E+03 -0.14297071674E+04 -0.50329013659E+03  0.17512260148E+04  0.25500000920E-02 0.  1.
       -2    1    3    3    0  502  0.87717102585E+03  0.14297071674E+04 -0.20561696356E+03  0.16899023430E+04  0.25500000920E-02 0. -1.
</event>
<event>
 5   0  0.4693374E-07  0.3440807E+04  0.7818609E-02  0.8127963E-01
       -1   -1    0    0    0  501  0.00000000000E+00  0.00000000000E+00  0.16654015913E+04  0.16654015913E+04  0.50400001928E-02 0. -1.
        1   -1    0    0  501    0  0.00000000000E+00  0.00000000000E+00 -0.17772216563E+04  0.17772216563E+04  0.50400001928E-02 0.  1.
    10030    2    1    2    0    0  0.00000000000E+00  0.00000000000E+00 -0.11182006503E+03  0.34426232476E+04  0.34408067510E+04 0.  0.
        1    1    3    3  502    0 -0.24255148386E+02  0.15770356674E+04  0.63159024239E+03  0.16989808836E+04  0.50400001928E-02 0. -1.
       -1    1    3    3    0  502  0.24255148386E+02 -0.15770356674E+04 -0.74341030742E+03  0.17436423640E+04  0.50400001928E-02 0.  1.
</event>
<event>
 5   0  0.1387133E-06  0.3506031E+04  0.7818609E-02  0.8112362E-01
       -2   -1    0    0    0  501  0.00000000000E+00  0.00000000000E+00  0.13301486389E+04  0.13301486389E+04  0.25500000920E-02 0. -1.
        2   -1    0    0  501    0  0.00000000000E+00  0.00000000000E+00 -0.23103158160E+04  0.23103158160E+04  0.25500000920E-02 0.  1.
    10030    2    1    2    0    0  0.00000000000E+00  0.00000000000E+00 -0.98016717707E+03  0.36404644549E+04  0.35060310541E+04 0.  0.
        4    1    3    3  502    0  0.13970115360E+04 -0.17987182269E+02 -0.15895010804E+04  0.21162419682E+04  0.12699999809E+01 0.  1.
       -4    1    3    3    0  502 -0.13970115360E+04  0.17987182269E+02  0.60933390332E+03  0.15242224867E+04  0.12699999809E+01 0. -1.
</event>
<event>
 5   0  0.1387133E-06  0.3452699E+04  0.7818609E-02  0.8125092E-01
        2   -1    0    0  501    0  0.00000000000E+00  0.00000000000E+00  0.20067962502E+04  0.20067962502E+04  0.25500000920E-02 0. -1.
       -2   -1    0    0    0  501  0.00000000000E+00  0.00000000000E+00 -0.14850949389E+04  0.14850949389E+04  0.25500000920E-02 0.  1.
    10030    2    1    2    0    0  0.00000000000E+00  0.00000000000E+00  0.52170131138E+03  0.34918911891E+04  0.34526992076E+04 0.  0.
        4    1    3    3  502    0  0.12654146782E+04  0.11722058094E+04  0.33193773537E+03  0.17565662642E+04  0.12699999809E+01 0. -1.
       -4    1    3    3    0  502 -0.12654146782E+04 -0.11722058094E+04  0.18976357601E+03  0.17353249249E+04  0.12699999809E+01 0.  1.
</event>
<event>
 5   0  0.1387133E-06  0.2831879E+04  0.7818609E-02  0.8293439E-01
        2   -1    0    0  501    0  0.00000000000E+00  0.00000000000E+00  0.16514836722E+04  0.16514836722E+04  0.25500000920E-02 0. -1.
       -2   -1    0    0    0  501  0.00000000000E+00  0.00000000000E+00 -0.12139897018E+04  0.12139897018E+04  0.25500000920E-02 0.  1.
    10030    2    1    2    0    0  0.00000000000E+00  0.00000000000E+00  0.43749397042E+03  0.28654733740E+04  0.28318786490E+04 0.  0.
        4    1    3    3  502    0  0.13559219370E+03 -0.83030068419E+03 -0.93366601247E+03  0.12567888864E+04  0.12699999809E+01 0.  1.
       -4    1    3    3    0  502 -0.13559219370E+03  0.83030068419E+03  0.13711599829E+04  0.16086844876E+04  0.12699999809E+01 0. -1.
</event>
<event>
 5   0  0.4700769E-07  0.3465255E+04  0.7818609E-02  0.8122074E-01
       -1   -1    0    0    0  501  0.00000000000E+00  0.00000000000E+00  0.24574325322E+04  0.24574325323E+04  0.50400001928E-02 0. -1.
        1   -1    0    0  501    0  0.00000000000E+00  0.00000000000E+00 -0.12215996637E+04  0.12215996638E+04  0.50400001928E-02 0.  1.
    10030    2    1    2    0    0  0.00000000000E+00  0.00000000000E+00  0.12358328685E+04  0.36790321960E+04  0.34652554048E+04 0.  0.
        3    1    3    3  502    0 -0.24507714852E+03  0.95171411104E+03  0.21328933519E+04  0.23484157678E+04  0.10100000352E+00 0. -1.
       -3    1    3    3    0  502  0.24507714852E+03 -0.95171411104E+03 -0.89706048338E+03  0.13306164282E+04  0.10100000352E+00 0.  1.
</event>
<event>
 5   0  0.1361560E-06  0.3446032E+04  0.7818609E-02  0.8126700E-01
        2   -1    0    0  501    0  0.00000000000E+00  0.00000000000E+00  0.18103727020E+04  0.18103727020E+04  0.25500000920E-02 0. -1.
       -2   -1    0    0    0  501  0.00000000000E+00  0.00000000000E+00 -0.16398742882E+04  0.16398742882E+04  0.25500000920E-02 0.  1.
    10030    2    1    2    0    0  0.00000000000E+00  0.00000000000E+00  0.17049841373E+03  0.34502469902E+04  0.34460317155E+04 0.  0.
        3    1    3    3  502    0 -0.74013599880E+03  0.66026527854E+03 -0.13253858827E+04  0.16554151392E+04  0.10100000352E+00 0.  1.
       -3    1    3    3    0  502  0.74013599880E+03 -0.66026527854E+03  0.14958842964E+04  0.17948318510E+04  0.10100000352E+00 0. -1.
</event>
<event>
 5   0  0.1442864E-06  0.3438866E+04  0.7818609E-02  0.8128433E-01
       -2   -1    0    0    0  501  0.00000000000E+00  0.00000000000E+00  0.31051880901E+04  0.31051880901E+04  0.25500000920E-02 0.  1.
        2   -1    0    0  501    0  0.00000000000E+00  0.00000000000E+00 -0.95210027143E+03  0.95210027144E+03  0.25500000920E-02 0. -1.
    10030    2    1    2    0    0  0.00000000000E+00  0.00000000000E+00  0.21530878187E+04  0.40572883615E+04  0.34388663384E+04 0.  0.
        1    1    3    3  502    0  0.37035123030E+03 -0.12318609006E+04  0.24226963178E+04  0.27430090704E+04  0.50400001928E-02 0.  1.
       -1    1    3    3    0  502 -0.37035123030E+03  0.12318609006E+04 -0.26960849911E+03  0.13142792911E+04  0.50400001928E-02 0. -1.
</event>
<event>
 5   0  0.4557237E-07  0.2597962E+04  0.7818609E-02  0.8368894E-01
        1   -1    0    0  501    0  0.00000000000E+00  0.00000000000E+00  0.16371319436E+04  0.16371319436E+04  0.50400001928E-02 0.  1.
       -1   -1    0    0    0  501  0.00000000000E+00  0.00000000000E+00 -0.10306754197E+04  0.10306754197E+04  0.50400001928E-02 0. -1.
    10030    2    1    2    0    0  0.00000000000E+00  0.00000000000E+00  0.60645652395E+03  0.26678073633E+04  0.25979620113E+04 0.  0.
        2    1    3    3  502    0 -0.12761632805E+04  0.20518089798E+03  0.43577092703E+03  0.13640338046E+04  0.25500000920E-02 0.  1.
       -2    1    3    3    0  502  0.12761632805E+04 -0.20518089798E+03  0.17068559692E+03  0.13037735587E+04  0.25500000920E-02 0. -1.
</event>
<event>
 5   0  0.4693374E-07  0.3524033E+04  0.7818609E-02  0.8108118E-01
       -1   -1    0    0    0  501  0.00000000000E+00  0.00000000000E+00  0.17497064860E+04  0.17497064860E+04  0.50400001928E-02 0. -1.
        1   -1    0    0  501    0  0.00000000000E+00  0.00000000000E+00 -0.17744135040E+04  0.17744135040E+04  0.50400001928E-02 0.  1.
    10030    2    1    2    0    0  0.00000000000E+00  0.00000000000E+00 -0.24707017993E+02  0.35241199899E+04  0.35240333805E+04 0.  0.
        1    1    3    3  502    0  0.13671730632E+03  0.45722303625E+03  0.16838480429E+04  0.17501682085E+04  0.50400001928E-02 0. -1.
       -1    1    3    3    0  502 -0.13671730632E+03 -0.45722303625E+03 -0.17085550609E+04  0.17739517814E+04  0.50400001928E-02 0.  1.
</event>
<event>
 5   0  0.4557237E-07  0.3176945E+04  0.7818609E-02  0.8194933E-01
       -1   -1    0    0    0  501  0.00000000000E+00  0.00000000000E+00  0.21530724807E+04  0.21530724808E+04  0.50400001928E-02 0. -1.
        1   -1    0    0  501    0  0.00000000000E+00  0.00000000000E+00 -0.11719272571E+04  0.11719272571E+04  0.50400001928E-02 0.  1.
    10030    2    1    2    0    0  0.00000000000E+00  0.00000000000E+00  0.98114522362E+03  0.33249997379E+04  0.31769446497E+04 0.  0.
        2    1    3    3  502    0  0.13750131883E+04  0.13218973127E+03  0.13114116151E+04  0.19047141038E+04  0.25500000920E-02 0.  1.
       -2    1    3    3    0  502 -0.13750131883E+04 -0.13218973127E+03 -0.33026639147E+03  0.14202856341E+04  0.25500000920E-02 0. -1.
</event>
<event>
 5   0  0.1361560E-06  0.3499253E+04  0.7818609E-02  0.8113967E-01
       -2   -1    0    0    0  501  0.00000000000E+00  0.00000000000E+00  0.17060110230E+04  0.17060110230E+04  0.25500000920E-02 0.  1.
        2   -1    0    0  501    0  0.00000000000E+00  0.00000000000E+00 -0.17943568623E+04  0.17943568623E+04  0.25500000920E-02 0. -1.
    10030    2    1    2    0    0  0.00000000000E+00  0.00000000000E+00 -0.88345839230E+02  0.35003678853E+04  0.34992528267E+04 0.  0.
        3    1    3    3  502    0  0.77929813291E+03 -0.14292494536E+03 -0.16046249622E+04  0.17895682159E+04  0.10100000352E+00 0. -1.
       -3    1    3    3    0  502 -0.77929813291E+03  0.14292494536E+03  0.15162791229E+04  0.17107996694E+04  0.10100000352E+00 0.  1.
</event>
<event>
 5   0  0.4557237E-07  0.3277964E+04  0.7818609E-02  0.8168525E-01
       -1   -1    0    0    0  501  0.00000000000E+00  0.00000000000E+00  0.11948381098E+04  0.11948381098E+04  0.50400001928E-02 0. -1.
        1   -1    0    0  501    0  0.00000000000E+00  0.00000000000E+00 -0.22482220967E+04  0.22482220967E+04  0.50400001928E-02 0.  1.
    10030    2    1    2    0    0  0.00000000000E+00  0.00000000000E+00 -0.10533839869E+04  0.34430602065E+04  0.32779636609E+04 0.  0.
        2    1    3    3  502    0 -0.49180896633E+03 -0.15463902083E+04 -0.28473667423E+03  0.16475052987E+04  0.25500000920E-02 0. -1.
       -2    1    3    3    0  502  0.49180896633E+03  0.15463902083E+04 -0.76864731269E+03  0.17955549078E+04  0.25500000920E-02 0.  1.
</event>
<event>
 5   0  0.1387133E-06  0.3471438E+04  0.7818609E-02  0.8120592E-01
       -2   -1    0    0    0  501  0.00000000000E+00  0.00000000000E+00  0.16745474239E+04  0.16745474239E+04  0.25500000920E-02 0. -1.
        2   -1    0    0  501    0  0.00000000000E+00  0.00000000000E+00 -0.17991254178E+04  0.17991254178E+04  0.25500000920E-02 0.  1.
    10030    2    1    2    0    0  0.00000000000E+00  0.00000000000E+00 -0.12457799386E+03  0.34736728417E+04  0.34714382228E+04 0.  0.
        4    1    3    3  502    0 -0.18733812579E+03 -0.11816026133E+04  0.11960732565E+04  0.16917071723E+04  0.12699999809E+01 0. -1.
       -4    1    3    3    0  502  0.18733812579E+03  0.11816026133E+04 -0.13206512503E+04  0.17819656694E+04  0.12699999809E+01 0.  1.
</event>
<event>
 5   0  0.4700769E-07  0.3449028E+04  0.7818609E-02  0.8125977E-01
        1   -1    0    0  501    0  0.00000000000E+00  0.00000000000E+00  0.20168563732E+04  0.20168563732E+04  0.50400001928E-02 0. -1.
       -1   -1    0    0    0  501  0.00000000000E+00  0.00000000000E+00 -0.14745466196E+04  0.14745466196E+04  0.50400001928E-02 0.  1.
    10030    2    1    2    0    0  0.00000000000E+00  0.00000000000E+00  0.54230975360E+03  0.34914029928E+04  0.34490281225E+04 0.  0.
        3    1    3    3  502    0 -0.82619209859E+03 -0.13126818219E+04  0.10342210216E+04  0.18642264028E+04  0.10100000352E+00 0. -1.
       -3    1    3    3    0  502  0.82619209859E+03  0.13126818219E+04 -0.49191126798E+03  0.16271765900E+04  0.10100000352E+00 0.  1.
</event>
<event>
 5   0  0.4693374E-07  0.3472793E+04  0.7818609E-02  0.8120268E-01
        1   -1    0    0  501    0  0.00000000000E+00  0.00000000000E+00  0.15627178114E+04  0.15627178114E+04  0.50400001928E-02 0.  1.
       -1   -1    0    0    0  501  0.00000000000E+00  0.00000000000E+00 -0.19293780600E+04  0.19293780600E+04  0.50400001928E-02 0. -1.
    10030    2    1    2    0    0  0.00000000000E+00  0.00000000000E+00 -0.36666024861E+03  0.34920958714E+04  0.34727933767E+04 0.  0.
        1    1    3    3  502    0  0.12458256392E+04 -0.11929967644E+04  0.17153712384E+02  0.17249976965E+04  0.50400001928E-02 0.  1.
       -1    1    3    3    0  502 -0.12458256392E+04  0.11929967644E+04 -0.38381396099E+03  0.17670981749E+04  0.50400001928E-02 0. -1.
</event>
<event>
 5   0  0.1387133E-06  0.3235662E+04  0.7818609E-02  0.8179462E-01
        2   -1    0    0  501    0  0.00000000000E+00  0.00000000000E+00  0.16030988848E+04  0.16030988848E+04  0.25500000920E-02 0.  1.
       -2   -1    0    0    0  501  0.00000000000E+00  0.00000000000E+00 -0.16326983432E+04  0.16326983432E+04  0.25500000920E-02 0. -1.
    10030    2    1    2    0    0  0.00000000000E+00  0.00000000000E+00 -0.29599458396E+02  0.32357972281E+04  0.32356618447E+04 0.  0.
        4    1    3    3  502    0 -0.91350330022E+03 -0.69972582522E+03  0.11224684873E+04  0.16074954519E+04  0.12699999809E+01 0.  1.
       -4    1    3    3    0  502  0.91350330022E+03  0.69972582522E+03 -0.11520679457E+04  0.16283017762E+04  0.12699999809E+01 0. -1.
</event>
<event>
 5   0  0.1348388E-06  0.3430181E+04  0.7818609E-02  0.8130538E-01
       -2   -1    0    0    0  501  0.00000000000E+00  0.00000000000E+00  0.16144850700E+04  0.16144850700E+04  0.25500000920E-02 0. -1.
        2   -1    0    0  501    0  0.00000000000E+00  0.00000000000E+00 -0.18219650607E+04  0.18219650607E+04  0.25500000920E-02 0.  1.
    10030    2    1    2    0    0  0.00000000000E+00  0.00000000000E+00 -0.20747999066E+03  0.34364501307E+04  0.34301809798E+04 0.  0.
        5    1    3    3  502    0  0.45613535131E+03  0.25534875457E+03  0.15327235678E+04  0.16194215234E+04  0.46999998093E+01 0. -1.
       -5    1    3    3    0  502 -0.45613535131E+03 -0.25534875457E+03 -0.17402035584E+04  0.18170286074E+04  0.46999998093E+01 0.  1.
</event>
<event>
 5   0  0.4557237E-07  0.3543611E+04  0.7818609E-02  0.8103532E-01
        1   -1    0    0  501    0  0.00000000000E+00  0.00000000000E+00  0.16469390213E+04  0.16469390213E+04  0.50400001928E-02 0.  1.
       -1   -1    0    0    0  501  0.00000000000E+00  0.00000000000E+00 -0.19061388745E+04  0.19061388745E+04  0.50400001928E-02 0. -1.
    10030    2    1    2    0    0  0.00000000000E+00  0.00000000000E+00 -0.25919985313E+03  0.35530778958E+04  0.35436108660E+04 0.  0.
        2    1    3    3  502    0 -0.10270530893E+04 -0.14437565758E+04 -0.13444958530E+03  0.17768927344E+04  0.25500000920E-02 0.  1.
       -2    1    3    3    0  502  0.10270530893E+04  0.14437565758E+04 -0.12475026782E+03  0.17761851615E+04  0.25500000920E-02 0. -1.
</event>
<event>
 5   0  0.4591195E-07  0.3496527E+04  0.7818609E-02  0.8114613E-01
        1   -1    0    0  501    0  0.00000000000E+00  0.00000000000E+00  0.18661778112E+04  0.18661778112E+04  0.50400001928E-02 0.  1.
       -1   -1    0    0    0  501  0.00000000000E+00  0.00000000000E+00 -0.16377999805E+04  0.16377999805E+04  0.50400001928E-02 0. -1.
    10030    2    1    2    0    0  0.00000000000E+00  0.00000000000E+00  0.22837783071E+03  0.35039777917E+04  0.34965274103E+04 0.  0.
        4    1    3    3  502    0  0.27180708946E+03 -0.19797390061E+03  0.18334644399E+04  0.18640456605E+04  0.12699999809E+01 0.  1.
       -4    1    3    3    0  502 -0.27180708946E+03  0.19797390061E+03 -0.16050866092E+04  0.16399321312E+04  0.12699999809E+01 0. -1.
</event>
<event>
 5   0  0.4693374E-07  0.3454147E+04  0.7818609E-02  0.8124743E-01
       -1   -1    0    0    0  501  0.00000000000E+00  0.00000000000E+00  0.98302300054E+03  0.98302300055E+03  0.50400001928E-02 0.  1.
        1   -1    0    0  501    0  0.00000000000E+00  0.00000000000E+00 -0.30342961453E+04  0.30342961453E+04  0.50400001928E-02 0. -1.
    10030    2    1    2    0    0  0.00000000000E+00  0.00000000000E+00 -0.20512731448E+04  0.40173191458E+04  0.34541470156E+04 0.  0.
        1    1    3    3  502    0 -0.13042706357E+04 -0.58873909674E+03  0.99000261891E+02  0.14344116100E+04  0.50400001928E-02 0.  1.
       -1    1    3    3    0  502  0.13042706357E+04  0.58873909674E+03 -0.21502734066E+04  0.25829075358E+04  0.50400001928E-02 0. -1.
</event>
<event>
 5   0  0.4409125E-07  0.3462246E+04  0.7818609E-02  0.8122796E-01
       -1   -1    0    0    0  501  0.00000000000E+00  0.00000000000E+00  0.17575530173E+04  0.17575530173E+04  0.50400001928E-02 0.  1.
        1   -1    0    0  501    0  0.00000000000E+00  0.00000000000E+00 -0.17050900007E+04  0.17050900007E+04  0.50400001928E-02 0. -1.
    10030    2    1    2    0    0  0.00000000000E+00  0.00000000000E+00  0.52463016584E+02  0.34626430180E+04  0.34622455577E+04 0.  0.
        5    1    3    3  502    0  0.92350516408E+03 -0.14167303723E+04  0.39610804851E+03  0.17369255632E+04  0.46999998093E+01 0.  1.
       -5    1    3    3    0  502 -0.92350516408E+03  0.14167303723E+04 -0.34364503192E+03  0.17257174548E+04  0.46999998093E+01 0. -1.
</event>
<event>
 5   0  0.4700769E-07  0.3481215E+04  0.7818609E-02  0.8118256E-01
       -1   -1    0    0    0  501  0.00000000000E+00  0.00000000000E+00  0.21985727327E+04  0.21985727327E+04  0.50400001928E-02 0. -1.
        1   -1    0    0  501    0  0.00000000000E+00  0.00000000000E+00 -0.13780367751E+04  0.13780367751E+04  0.50400001928E-02 0.  1.
    10030    2    1    2    0    0  0.00000000000E+00  0.00000000000E+00  0.82053595766E+03  0.35766095078E+04  0.34812147755E+04 0.  0.
        3    1    3    3  502    0  0.11515115568E+04  0.29385392114E+03  0.17168823309E+04  0.20880646400E+04  0.10100000352E+00 0. -1.
       -3    1    3    3    0  502 -0.11515115568E+04 -0.29385392114E+03 -0.89634637321E+03  0.14885448678E+04  0.10100000352E+00 0.  1.
</event>
<event>
 5   0  0.1442864E-06  0.3561755E+04  0.7818609E-02  0.8099309E-01
       -2   -1    0    0    0  501  0.00000000000E+00  0.00000000000E+00  0.19377753251E+04  0.19377753251E+04  0.25500000920E-02 0.  1.
        2   -1    0    0  501    0  0.00000000000E+00  0.00000000000E+00 -0.16366834072E+04  0.16366834072E+04  0.25500000920E-02 0. -1.
    10030    2    1    2    0    0  0.00000000000E+00  0.00000000000E+00  0.30109191785E+03  0.35744587323E+04  0.35617550289E+04 0.  0.
        1    1    3    3  502    0  0.79544077395E+03  0.47982738191E+03  0.16753612430E+04  0.19156710667E+04  0.50400001928E-02 0.  1.
       -1    1    3    3    0  502 -0.79544077395E+03 -0.47982738191E+03 -0.13742693251E+04  0.16587876655E+04  0.50400001928E-02 0. -1.
</event>
<event>
 5   0  0.4409125E-07  0.3446323E+04  0.7818609E-02  0.8126630E-01
        1   -1    0    0  501    0  0.00000000000E+00  0.00000000000E+00  0.11935895551E+04  0.11935895551E+04  0.50400001928E-02 0. -1.
       -1   -1    0    0    0  501  0.00000000000E+00  0.00000000000E+00 -0.24876944192E+04  0.24876944192E+04  0.50400001928E-02 0.  1.
    10030    2    1    2    0    0  0.00000000000E+00  0.00000000000E+00 -0.12941048641E+04  0.36812839743E+04  0.34463233017E+04 0.  0.
        5    1    3    3  502    0 -0.10793841634E+04  0.13317883532E+04 -0.83370427125E+03  0.19062568798E+04  0.46999998093E+01 0.  1.
       -5    1    3    3    0  502  0.10793841634E+04 -0.13317883532E+04 -0.46040059289E+03  0.17750270944E+04  0.46999998093E+01 0. -1.
</event>
<event>
 5   0  0.4693374E-07  0.3715031E+04  0.7818609E-02  0.8064639E-01
        1   -1    0    0  501    0  0.00000000000E+00  0.00000000000E+00  0.23821199657E+04  0.23821199657E+04  0.50400001928E-02 0. -1.
       -1   -1    0    0    0  501  0.00000000000E+00  0.00000000000E+00 -0.14484421643E+04  0.14484421643E+04  0.50400001928E-02 0.  1.
    10030    2    1    2    0    0  0.00000000000E+00  0.00000000000E+00  0.93367780142E+03  0.38305621300E+04  0.37150305510E+04 0.  0.
        1    1    3    3  502    0  0.16912653873E+04 -0.33868636144E+02  0.12580598525E+04  0.21081366861E+04  0.50400001928E-02 0. -1.
       -1    1    3    3    0  502 -0.16912653873E+04  0.33868636144E+02 -0.32438205107E+03  0.17224254439E+04  0.50400001928E-02 0.  1.
</event>
<event>
 5   0  0.4700769E-07  0.3509520E+04  0.7818609E-02  0.8111538E-01
        1   -1    0    0  501    0  0.00000000000E+00  0.00000000000E+00  0.17640500031E+04  0.17640500031E+04  0.50400001928E-02 0.  1.
       -1   -1    0    0    0  501  0.00000000000E+00  0.00000000000E+00 -0.17455186178E+04  0.17455186178E+04  0.50400001928E-02 0. -1.
    10030    2    1    2    0    0  0.00000000000E+00  0.00000000000E+00  0.18531385253E+02  0.35095686209E+04  0.35095196954E+04 0.  0.
        3    1    3    3  502    0 -0.93146365416E+03 -0.47922922832E+03 -0.13985525412E+04  0.17473506840E+04  0.10100000352E+00 0. -1.
       -3    1    3    3    0  502  0.93146365416E+03  0.47922922832E+03  0.14170839264E+04  0.17622179369E+04  0.10100000352E+00 0.  1.
</event>
<event>
 5   0  0.4591195E-07  0.3436715E+04  0.7818609E-02  0.8128954E-01
       -1   -1    0    0    0  501  0.00000000000E+00  0.00000000000E+00  0.12008255048E+04  0.12008255048E+04  0.50400001928E-02 0.  1.
        1   -1    0    0  501    0  0.00000000000E+00  0.00000000000E+00 -0.24589357572E+04  0.24589357572E+04  0.50400001928E-02 0. -1.
    10030    2    1    2    0    0  0.00000000000E+00  0.00000000000E+00 -0.12581102524E+04  0.36597612620E+04  0.34367151596E+04 0.  0.
        4    1    3    3  502    0  0.67525882295E+03 -0.69684353255E+03  0.88114781346E+03  0.13107205915E+04  0.12699999809E+01 0.  1.
       -4    1    3    3    0  502 -0.67525882295E+03  0.69684353255E+03 -0.21392580658E+04  0.23490406706E+04  0.12699999809E+01 0. -1.
</event>
<event>
 5   0  0.4700769E-07  0.3449500E+04  0.7818609E-02  0.8125863E-01
        1   -1    0    0  501    0  0.00000000000E+00  0.00000000000E+00  0.19920107925E+04  0.19920107925E+04  0.50400001928E-02 0.  1.
       -1   -1    0    0    0  501  0.00000000000E+00  0.00000000000E+00 -0.14933463345E+04  0.14933463345E+04  0.50400001928E-02 0. -1.
    10030    2    1    2    0    0  0.00000000000E+00  0.00000000000E+00  0.49866445795E+03  0.34853571270E+04  0.34494996827E+04 0.  0.
        3    1    3    3  502    0 -0.14743778073E+04 -0.51305988367E+03 -0.49159918754E+03  0.16366704416E+04  0.10100000352E+00 0. -1.
       -3    1    3    3    0  502  0.14743778073E+04  0.51305988367E+03  0.99026364549E+03  0.18486866854E+04  0.10100000352E+00 0.  1.
</event>
<event>
 5   0  0.1442864E-06  0.3454625E+04  0.7818609E-02  0.8124628E-01
        2   -1    0    0  501    0  0.00000000000E+00  0.00000000000E+00  0.20341954974E+04  0.20341954974E+04  0.25500000920E-02 0. -1.
       -2   -1    0    0    0  501  0.00000000000E+00  0.00000000000E+00 -0.14667264552E+04  0.14667264552E+04  0.25500000920E-02 0.  1.
    10030    2    1    2    0    0  0.00000000000E+00  0.00000000000E+00  0.56746904223E+03  0.35009219527E+04  0.34546249297E+04 0.  0.
        1    1    3    3  502    0 -0.33929900018E+03 -0.87489232704E+03  0.17533581103E+04  0.19886741961E+04  0.50400001928E-02 0. -1.
       -1    1    3    3    0  502  0.33929900018E+03  0.87489232704E+03 -0.11858890680E+04  0.15122477565E+04  0.50400001928E-02 0.  1.
</event>
<event>
 5   0  0.1361560E-06  0.3402802E+04  0.7818609E-02  0.8137219E-01
        2   -1    0    0  501    0  0.00000000000E+00  0.00000000000E+00  0.22962763721E+04  0.22962763721E+04  0.25500000920E-02 0. -1.
       -2   -1    0    0    0  501  0.00000000000E+00  0.00000000000E+00 -0.12606344598E+04  0.12606344598E+04  0.25500000920E-02 0.  1.
    10030    2    1    2    0    0  0.00000000000E+00  0.00000000000E+00  0.10356419123E+04  0.35569108319E+04  0.34028018596E+04 0.  0.
        3    1    3    3  502    0  0.42696527642E+03 -0.25237289962E+03  0.22190341537E+04  0.22737862725E+04  0.10100000352E+00 0. -1.
       -3    1    3    3    0  502 -0.42696527642E+03  0.25237289962E+03 -0.11833922414E+04  0.12831245594E+04  0.10100000352E+00 0.  1.
</event>
<event>
 5   0  0.4700769E-07  0.3494627E+04  0.7818609E-02  0.8115064E-01
       -1   -1    0    0    0  501  0.00000000000E+00  0.00000000000E+00  0.17852322514E+04  0.17852322514E+04  0.50400001928E-02 0. -1.
        1   -1    0    0  501    0  0.00000000000E+00  0.00000000000E+00 -0.17102000211E+04  0.17102000211E+04  0.50400001928E-02 0.  1.
    10030    2    1    2    0    0  0.00000000000E+00  0.00000000000E+00  0.75032230227E+02  0.34954322725E+04  0.34946268665E+04 0.  0.
        3    1    3    3  502    0 -0.12273268615E+04 -0.11684239938E+04 -0.38867875435E+03  0.17385675248E+04  0.10100000352E+00 0.  1.
       -3    1    3    3    0  502  0.12273268615E+04  0.11684239938E+04  0.46371098458E+03  0.17568647477E+04  0.10100000352E+00 0. -1.
</event>
<event>
 5   0  0.4409125E-07  0.2708692E+04  0.7818609E-02  0.8332190E-01
       -4   -1    0    0    0  501  0.00000000000E+00  0.00000000000E+00  0.10187390431E+04  0.10187398347E+04  0.12699999809E+01 0.  1.
        4   -1    0    0  501    0  0.00000000000E+00  0.00000000000E+00 -0.18005110355E+04  0.18005114834E+04  0.12699999809E+01 0. -1.
    10030    2    1    2    0    0  0.00000000000E+00  0.00000000000E+00 -0.78177199235E+03  0.28192513181E+04  0.27086916670E+04 0.  0.
        5    1    3    3  502    0 -0.42449396132E+03 -0.73630170784E+03 -0.14883900974E+04  0.17139610556E+04  0.46999998093E+01 0. -1.
       -5    1    3    3    0  502  0.42449396132E+03  0.73630170784E+03  0.70661810500E+03  0.11052902625E+04  0.46999998093E+01 0.  1.
</event>
<event>
 5   0  0.4591195E-07  0.3477032E+04  0.7818609E-02  0.8119255E-01
        1   -1    0    0  501    0  0.00000000000E+00  0.00000000000E+00  0.19218993237E+04  0.19218993237E+04  0.50400001928E-02 0.  1.
       -1   -1    0    0    0  501  0.00000000000E+00  0.00000000000E+00 -0.15726307587E+04  0.15726307587E+04  0.50400001928E-02 0. -1.
    10030    2    1    2    0    0  0.00000000000E+00  0.00000000000E+00  0.34926856497E+03  0.34945300824E+04  0.34770320628E+04 0.  0.
        4    1    3    3  502    0 -0.45049922614E+03 -0.23139564666E+03  0.18461162343E+04  0.19143250146E+04  0.12699999809E+01 0.  1.
       -4    1    3    3    0  502  0.45049922614E+03  0.23139564666E+03 -0.14968476693E+04  0.15802050678E+04  0.12699999809E+01 0. -1.
</event>
<event>
 5   0  0.4557237E-07  0.3442899E+04  0.7818609E-02  0.8127457E-01
       -1   -1    0    0    0  501  0.00000000000E+00  0.00000000000E+00  0.11554317202E+04  0.11554317202E+04  0.50400001928E-02 0. -1.
        1   -1    0    0  501    0  0.00000000000E+00  0.00000000000E+00 -0.25647451544E+04  0.25647451544E+04  0.50400001928E-02 0.  1.
    10030    2    1    2    0    0  0.00000000000E+00  0.00000000000E+00 -0.14093134342E+04  0.37201768746E+04  0.34428987239E+04 0.  0.
        2    1    3    3  502    0  0.13347277427E+04  0.64553746781E+03 -0.16498456561E+04  0.22181540655E+04  0.25500000920E-02 0.  1.
       -2    1    3    3    0  502 -0.13347277427E+04 -0.64553746781E+03  0.24053222189E+03  0.15020228091E+04  0.25500000920E-02 0. -1.
</event>
<event>
 5   0  0.4693374E-07  0.3507648E+04  0.7818609E-02  0.8111980E-01
        1   -1    0    0  501    0  0.00000000000E+00  0.00000000000E+00  0.17682670503E+04  0.17682670503E+04  0.50400001928E-02 0.  1.
       -1   -1    0    0    0  501  0.00000000000E+00  0.00000000000E+00 -0.17394989443E+04  0.17394989443E+04  0.50400001928E-02 0. -1.
    10030    2    1    2    0    0  0.00000000000E+00  0.00000000000E+00  0.28768106014E+02  0.35077659946E+04  0.35076480253E+04 0.  0.
        1    1    3    3  502    0 -0.14392492906E+04 -0.86833690952E+03 -0.48608373327E+03  0.17497785302E+04  0.50400001928E-02 0.  1.
       -1    1    3    3    0  502  0.14392492906E+04  0.86833690952E+03  0.51485183928E+03  0.17579874645E+04  0.50400001928E-02 0. -1.
</event>
<event>
 5   0  0.4409125E-07  0.3524175E+04  0.7818609E-02  0.8108085E-01
        1   -1    0    0  501    0  0.00000000000E+00  0.00000000000E+00  0.17394099150E+04  0.17394099150E+04  0.50400001928E-02 0. -1.
       -1   -1    0    0    0  501  0.00000000000E+00  0.00000000000E+00 -0.17850607188E+04  0.17850607188E+04  0.50400001928E-02 0.  1.
    10030    2    1    2    0    0  0.00000000000E+00  0.00000000000E+00 -0.45650803865E+02  0.35244706338E+04  0.35241749747E+04 0.  0.
        5    1    3    3  502    0 -0.16211426909E+04 -0.65581377156E+03  0.19337528670E+03  0.17594349715E+04  0.46999998093E+01 0. -1.
       -5    1    3    3    0  502  0.16211426909E+04  0.65581377156E+03 -0.23902609057E+03  0.17650356623E+04  0.46999998093E+01 0.  1.
</event>
<event>
 5   0  0.1348388E-06  0.3345922E+04  0.7818609E-02  0.8151308E-01
        2   -1    0    0  501    0  0.00000000000E+00  0.00000000000E+00  0.15293631986E+04  0.15293631986E+04  0.25500000920E-02 0. -1.
       -2   -1    0    0    0  501  0.00000000000E+00  0.00000000000E+00 -0.18300415695E+04  0.18300415695E+04  0.25500000920E-02 0.  1.
    10030    2    1    2    0    0  0.00000000000E+00  0.00000000000E+00 -0.30067837089E+03  0.33594047681E+04  0.33459218331E+04 0.  0.
        5    1    3    3  502    0  0.13149129837E+04  0.89818725972E+03  0.36460141618E+03  0.16336134153E+04  0.46999998093E+01 0.  1.
       -5    1    3    3    0  502 -0.13149129837E+04 -0.89818725972E+03 -0.66527978707E+03  0.17257913527E+04  0.46999998093E+01 0. -1.
</event>
<event>
 5   0  0.1387133E-06  0.3509168E+04  0.7818609E-02  0.8111621E-01
       -2   -1    0    0    0  501  0.00000000000E+00  0.00000000000E+00  0.18663805939E+04  0.18663805939E+04  0.25500000920E-02 0. -1.
        2   -1    0    0  501    0  0.00000000000E+00  0.00000000000E+00 -0.16494842995E+04  0.16494842995E+04  0.25500000920E-02 0.  1.
    10030    2    1    2    0    0  0.00000000000E+00  0.00000000000E+00  0.21689629442E+03  0.35158648934E+04  0.35091682699E+04 0.  0.
        4    1    3    3  502    0  0.77323455351E+03  0.24094897788E+03  0.16678938417E+04  0.18541358000E+04  0.12699999809E+01 0. -1.
       -4    1    3    3    0  502 -0.77323455351E+03 -0.24094897788E+03 -0.14509975473E+04  0.16617290934E+04  0.12699999809E+01 0.  1.
</event>
<event>
 5   0  0.4409125E-07  0.3548471E+04  0.7818609E-02  0.8102398E-01
       -1   -1    0    0    0  501  0.00000000000E+00  0.00000000000E+00  0.13173313675E+04  0.13173313675E+04  0.50400001928E-02 0. -1.
        1   -1    0    0  501    0  0.00000000000E+00  0.00000000000E+00 -0.23896130697E+04  0.23896130697E+04  0.50400001928E-02 0.  1.
    10030    2    1    2    0    0  0.00000000000E+00  0.00000000000E+00 -0.10722817022E+04  0.37069444372E+04  0.35484713627E+04 0.  0.
        5    1    3    3  502    0  0.76894928820E+03  0.47439235980E+03  0.10589961194E+04  0.13920581848E+04  0.46999998093E+01 0. -1.
       -5    1    3    3    0  502 -0.76894928820E+03 -0.47439235980E+03 -0.21312778216E+04  0.23148862524E+04  0.46999998093E+01 0.  1.
</event>
<event>
 5   0  0.1361560E-06  0.3460611E+04  0.7818609E-02  0.8123189E-01
       -2   -1    0    0    0  501  0.00000000000E+00  0.00000000000E+00  0.16837368918E+04  0.16837368918E+04  0.25500000920E-02 0.  1.
        2   -1    0    0  501    0  0.00000000000E+00  0.00000000000E+00 -0.17781618392E+04  0.17781618392E+04  0.25500000920E-02 0. -1.
    10030    2    1    2    0    0  0.00000000000E+00  0.00000000000E+00 -0.94424947395E+02  0.34618987311E+04  0.34606107486E+04 0.  0.
        3    1    3    3  502    0  0.14990660663E+04  0.78896520647E+03 -0.39989369780E+03  0.17405689150E+04  0.10100000352E+00 0. -1.
       -3    1    3    3    0  502 -0.14990660663E+04 -0.78896520647E+03  0.30546875041E+03  0.17213298161E+04  0.10100000352E+00 0.  1.
</event>
<event>
 5   0  0.1387133E-06  0.3671806E+04  0.7818609E-02  0.8074239E-01
       -2   -1    0    0    0  501  0.00000000000E+00  0.00000000000E+00  0.17640402834E+04  0.17640402834E+04  0.25500000920E-02 0. -1.
        2   -1    0    0  501    0  0.00000000000E+00  0.00000000000E+00 -0.19106929371E+04  0.19106929371E+04  0.25500000920E-02 0.  1.
    10030    2    1    2    0    0  0.00000000000E+00  0.00000000000E+00 -0.14665265363E+03  0.36747332205E+04  0.36718057194E+04 0.  0.
        4    1    3    3  502    0 -0.14669410149E+04  0.10526233903E+04 -0.40616592009E+03  0.18506496996E+04  0.12699999809E+01 0.  1.
       -4    1    3    3    0  502  0.14669410149E+04 -0.10526233903E+04  0.25951326646E+03  0.18240835209E+04  0.12699999809E+01 0. -1.
</event>
<event>
 5   0  0.1387133E-06  0.3369479E+04  0.7818609E-02  0.8145438E-01
       -2   -1    0    0    0  501  0.00000000000E+00  0.00000000000E+00  0.10312798554E+04  0.10312798554E+04  0.25500000920E-02 0. -1.
        2   -1    0    0  501    0  0.00000000000E+00  0.00000000000E+00 -0.27522576942E+04  0.27522576942E+04  0.25500000920E-02 0.  1.
    10030    2    1    2    0    0  0.00000000000E+00  0.00000000000E+00 -0.17209778389E+04  0.37835375496E+04  0.33694794356E+04 0.  0.
        4    1    3    3  502    0 -0.27376234345E+02  0.11446493144E+04 -0.22482287317E+04  0.25229953536E+04  0.12699999809E+01 0.  1.
       -4    1    3    3    0  502  0.27376234345E+02 -0.11446493144E+04  0.52725089283E+03  0.12605421960E+04  0.12699999809E+01 0. -1.
</event>
<event>
 5   0  0.4693374E-07  0.3443750E+04  0.7818609E-02  0.8127251E-01
        1   -1    0    0  501    0  0.00000000000E+00  0.00000000000E+00  0.19197658813E+04  0.19197658813E+04  0.50400001928E-02 0. -1.
       -1   -1    0    0    0  501  0.00000000000E+00  0.00000000000E+00 -0.15443829379E+04  0.15443829379E+04  0.50400001928E-02 0.  1.
    10030    2    1    2    0    0  0.00000000000E+00  0.00000000000E+00  0.37538294332E+03  0.34641488192E+04  0.34437500907E+04 0.  0.
        1    1    3    3  502    0 -0.64495153684E+03  0.33141533858E+03  0.17586897732E+04  0.19023113126E+04  0.50400001928E-02 0. -1.
       -1    1    3    3    0  502  0.64495153684E+03 -0.33141533858E+03 -0.13833068299E+04  0.15618375066E+04  0.50400001928E-02 0.  1.
</event>
<event>
 5   0  0.4409125E-07  0.3534761E+04  0.7818609E-02  0.8105601E-01
        1   -1    0    0  501    0  0.00000000000E+00  0.00000000000E+00  0.14098030526E+04  0.14098030527E+04  0.50400001928E-02 0.  1.
       -1   -1    0    0    0  501  0.00000000000E+00  0.00000000000E+00 -0.22156520409E+04  0.22156520409E+04  0.50400001928E-02 0. -1.
    10030    2    1    2    0    0  0.00000000000E+00  0.00000000000E+00 -0.80584898821E+03  0.36254550935E+04  0.35347605355E+04 0.  0.
        5    1    3    3  502    0 -0.55001839505E+03 -0.67761748400E+03  0.11733636364E+04  0.14623576863E+04  0.46999998093E+01 0.  1.
       -5    1    3    3    0  502  0.55001839505E+03  0.67761748400E+03 -0.19792126246E+04  0.21630974072E+04  0.46999998093E+01 0. -1.
</event>
<event>
 5   0  0.4700769E-07  0.3508068E+04  0.7818609E-02  0.8111880E-01
        1   -1    0    0  501    0  0.00000000000E+00  0.00000000000E+00  0.23141834878E+04  0.23141834878E+04  0.50400001928E-02 0. -1.
       -1   -1    0    0    0  501  0.00000000000E+00  0.00000000000E+00 -0.13294693453E+04  0.13294693453E+04  0.50400001928E-02 0.  1.
    10030    2    1    2    0    0  0.00000000000E+00  0.00000000000E+00  0.98471414251E+03  0.36436528331E+04  0.35080684180E+04 0.  0.
        3    1    3    3  502    0 -0.16033707088E+04 -0.41447059378E+03  0.10926680619E+04  0.19840632567E+04  0.10100000352E+00 0. -1.
       -3    1    3    3    0  502  0.16033707088E+04  0.41447059378E+03 -0.10795391943E+03  0.16595895763E+04  0.10100000352E+00 0.  1.
</event>
<event>
 5   0  0.1387133E-06  0.3501917E+04  0.7818609E-02  0.8113336E-01
       -2   -1    0    0    0  501  0.00000000000E+00  0.00000000000E+00  0.18176173853E+04  0.18176173853E+04  0.25500000920E-02 0.  1.
        2   -1    0    0  501    0  0.00000000000E+00  0.00000000000E+00 -0.16867444229E+04  0.16867444229E+04  0.25500000920E-02 0. -1.
    10030    2    1    2    0    0  0.00000000000E+00  0.00000000000E+00  0.13087296241E+03  0.35043618082E+04  0.35019171821E+04 0.  0.
        4    1    3    3  502    0  0.14507233195E+04 -0.97733928959E+03 -0.12490455288E+02  0.17492706655E+04  0.12699999809E+01 0.  1.
       -4    1    3    3    0  502 -0.14507233195E+04  0.97733928959E+03  0.14336341770E+03  0.17550911427E+04  0.12699999809E+01 0. -1.
</event>
<event>
 5   0  0.4591195E-07  0.3502386E+04  0.7818609E-02  0.8113225E-01
        1   -1    0    0  501    0  0.00000000000E+00  0.00000000000E+00  0.13540712224E+04  0.13540712225E+04  0.50400001928E-02 0. -1.
       -1   -1    0    0    0  501  0.00000000000E+00  0.00000000000E+00 -0.22647832271E+04  0.22647832272E+04  0.50400001928E-02 0.  1.
    10030    2    1    2    0    0  0.00000000000E+00  0.00000000000E+00 -0.91071200470E+03  0.36188544496E+04  0.35023864967E+04 0.  0.
        4    1    3    3  502    0  0.67268095481E+03 -0.43589554327E+03  0.11533946084E+04  0.14045730053E+04  0.12699999809E+01 0. -1.
       -4    1    3    3    0  502 -0.67268095481E+03  0.43589554327E+03 -0.20641066131E+04  0.22142814443E+04  0.12699999809E+01 0.  1.
</event>
<event>
 5   0  0.1361560E-06  0.3392628E+04  0.7818609E-02  0.8139718E-01
        2   -1    0    0  501    0  0.00000000000E+00  0.00000000000E+00  0.21014119916E+04  0.21014119916E+04  0.25500000920E-02 0. -1.
       -2   -1    0    0    0  501  0.00000000000E+00  0.00000000000E+00 -0.13693083508E+04  0.13693083508E+04  0.25500000920E-02 0.  1.
    10030    2    1    2    0    0  0.00000000000E+00  0.00000000000E+00  0.73210364073E+03  0.34707203424E+04  0.33926278833E+04 0.  0.
        3    1    3    3  502    0 -0.57612470751E+02  0.71114300069E+02 -0.13667806620E+04  0.13698415342E+04  0.10100000352E+00 0.  1.
       -3    1    3    3    0  502  0.57612470751E+02 -0.71114300069E+02  0.20988843027E+04  0.21008788083E+04  0.10100000352E+00 0. -1.
</event>
<event>
 5   0  0.4409125E-07  0.3466420E+04  0.7818609E-02  0.8121794E-01
        1   -1    0    0  501    0  0.00000000000E+00  0.00000000000E+00  0.15180877476E+04  0.15180877476E+04  0.50400001928E-02 0. -1.
       -1   -1    0    0    0  501  0.00000000000E+00  0.00000000000E+00 -0.19788160082E+04  0.19788160082E+04  0.50400001928E-02 0.  1.
    10030    2    1    2    0    0  0.00000000000E+00  0.00000000000E+00 -0.46072826060E+03  0.34969037557E+04  0.34664196726E+04 0.  0.
        5    1    3    3  502    0 -0.94711623580E+03 -0.12685066403E+04 -0.94215826565E+03  0.18422330331E+04  0.46999998093E+01 0.  1.
       -5    1    3    3    0  502  0.94711623580E+03  0.12685066403E+04  0.48143000505E+03  0.16546707226E+04  0.46999998093E+01 0. -1.
</event>
<event>
 5   0  0.1361560E-06  0.3435180E+04  0.7818609E-02  0.8129325E-01
        2   -1    0    0  501    0  0.00000000000E+00  0.00000000000E+00  0.23037481001E+04  0.23037481001E+04  0.25500000920E-02 0.  1.
       -2   -1    0    0    0  501  0.00000000000E+00  0.00000000000E+00 -0.12805724088E+04  0.12805724088E+04  0.25500000920E-02 0. -1.
    10030    2    1    2    0    0  0.00000000000E+00  0.00000000000E+00  0.10231756912E+04  0.35843205089E+04  0.34351804924E+04 0.  0.
        3    1    3    3  502    0 -0.23947082710E+03 -0.78779716887E+03  0.20843945582E+04  0.22411317098E+04  0.10100000352E+00 0.  1.
       -3    1    3    3    0  502  0.23947082710E+03  0.78779716887E+03 -0.10612188669E+04  0.13431887991E+04  0.10100000352E+00 0. -1.
</event>
<event>
 5   0  0.1442864E-06  0.3496524E+04  0.7818609E-02  0.8114614E-01
        2   -1    0    0  501    0  0.00000000000E+00  0.00000000000E+00  0.17914088422E+04  0.17914088422E+04  0.25500000920E-02 0. -1.
       -2   -1    0    0    0  501  0.00000000000E+00  0.00000000000E+00 -0.17061547205E+04  0.17061547205E+04  0.25500000920E-02 0.  1.
    10030    2    1    2    0    0  0.00000000000E+00  0.00000000000E+00  0.85254121713E+02  0.34975635627E+04  0.34965243614E+04 0.  0.
        1    1    3    3  502    0  0.29385165153E+03 -0.13799194147E+03  0.17609938710E+04  0.17906674685E+04  0.50400001928E-02 0. -1.
       -1    1    3    3    0  502 -0.29385165153E+03  0.13799194147E+03 -0.16757397493E+04  0.17068960942E+04  0.50400001928E-02 0.  1.
</event>
<event>
 5   0  0.4409125E-07  0.2672507E+04  0.7818609E-02  0.8343981E-01
        1   -1    0    0  501    0  0.00000000000E+00  0.00000000000E+00  0.13373815971E+04  0.13373815971E+04  0.50400001928E-02 0. -1.
       -1   -1    0    0    0  501  0.00000000000E+00  0.00000000000E+00 -0.13351260073E+04  0.13351260073E+04  0.50400001928E-02 0.  1.
    10030    2    1    2    0    0  0.00000000000E+00  0.00000000000E+00  0.22555897949E+01  0.26725076044E+04  0.26725066526E+04 0.  0.
        5    1    3    3  502    0  0.10031825764E+04 -0.21137717835E+03 -0.85589950463E+03  0.13355304733E+04  0.46999998093E+01 0. -1.
       -5    1    3    3    0  502 -0.10031825764E+04  0.21137717835E+03  0.85815509443E+03  0.13369771311E+04  0.46999998093E+01 0.  1.
</event>
<event>
 5   0  0.4557237E-07  0.3466168E+04  0.7818609E-02  0.8121855E-01
       -1   -1    0    0    0  501  0.00000000000E+00  0.00000000000E+00  0.15246797509E+04  0.15246797509E+04  0.50400001928E-02 0. -1.
        1   -1    0    0  501    0  0.00000000000E+00  0.00000000000E+00 -0.19699741555E+04  0.19699741555E+04  0.50400001928E-02 0.  1.
    10030    2    1    2    0    0  0.00000000000E+00  0.00000000000E+00 -0.44529440466E+03  0.34946539064E+04  0.34661677425E+04 0.  0.
        2    1    3    3  502    0 -0.30023192050E+03 -0.15903598444E+04 -0.84757673837E+03  0.18269564768E+04  0.25500000920E-02 0.  1.
       -2    1    3    3    0  502  0.30023192050E+03  0.15903598444E+04  0.40228233372E+03  0.16676974296E+04  0.25500000920E-02 0. -1.
</event>
<event>
 5   0  0.1378620E-06  0.3496582E+04  0.7818609E-02  0.8114601E-01
       -2   -1    0    0    0  501  0.00000000000E+00  0.00000000000E+00  0.15185506402E+04  0.15185506402E+04  0.25500000920E-02 0.  1.
        2   -1    0    0  501    0  0.00000000000E+00  0.00000000000E+00 -0.20127882578E+04  0.20127882578E+04  0.25500000920E-02 0. -1.
    10030    2    1    2    0    0  0.00000000000E+00  0.00000000000E+00 -0.49423761765E+03  0.35313388980E+04  0.34965817007E+04 0.  0.
        2    1    3    3  502    0 -0.43727188184E+03 -0.44730030955E+03 -0.18959022028E+04  0.19964291694E+04  0.25500000920E-02 0. -1.
       -2    1    3    3    0  502  0.43727188184E+03  0.44730030955E+03  0.14016645852E+04  0.15349097286E+04  0.25500000920E-02 0.  1.
</event>
<event>
 5   0  0.1378620E-06  0.3449259E+04  0.7818609E-02  0.8125921E-01
       -2   -1    0    0    0  501  0.00000000000E+00  0.00000000000E+00  0.11576818818E+04  0.11576818818E+04  0.25500000920E-02 0.  1.
        2   -1    0    0  501    0  0.00000000000E+00  0.00000000000E+00 -0.25692266789E+04  0.25692266789E+04  0.25500000920E-02 0. -1.
    10030    2    1    2    0    0  0.00000000000E+00  0.00000000000E+00 -0.14115447971E+04  0.37269085607E+04  0.34492591531E+04 0.  0.
        2    1    3    3  502    0 -0.37817921892E+03 -0.26386162890E+03 -0.25013803969E+04  0.25435302968E+04  0.25500000920E-02 0. -1.
       -2    1    3    3    0  502  0.37817921892E+03  0.26386162890E+03  0.10898355998E+04  0.11833782639E+04  0.25500000920E-02 0.  1.
</event>
<event>
 5   0  0.4700769E-07  0.3466915E+04  0.7818609E-02  0.8121676E-01
       -1   -1    0    0    0  501  0.00000000000E+00  0.00000000000E+00  0.16839119891E+04  0.16839119891E+04  0.50400001928E-02 0.  1.
        1   -1    0    0  501    0  0.00000000000E+00  0.00000000000E+00 -0.17844603114E+04  0.17844603114E+04  0.50400001928E-02 0. -1.
    10030    2    1    2    0    0  0.00000000000E+00  0.00000000000E+00 -0.10054832231E+03  0.34683723006E+04  0.34669145433E+04 0.  0.
        3    1    3    3  502    0 -0.15378841206E+04  0.39488295195E+03 -0.74616278188E+03  0.17543600034E+04  0.10100000352E+00 0. -1.
       -3    1    3    3    0  502  0.15378841206E+04 -0.39488295195E+03  0.64561445957E+03  0.17140122972E+04  0.10100000352E+00 0.  1.
</event>
<event>
 5   0  0.4557237E-07  0.2573265E+04  0.7818609E-02  0.8377340E-01
       -1   -1    0    0    0  501  0.00000000000E+00  0.00000000000E+00  0.10000258406E+04  0.10000258406E+04  0.50400001928E-02 0.  1.
        1   -1    0    0  501    0  0.00000000000E+00  0.00000000000E+00 -0.16553803301E+04  0.16553803301E+04  0.50400001928E-02 0. -1.
    10030    2    1    2    0    0  0.00000000000E+00  0.00000000000E+00 -0.65535448953E+03  0.26554061707E+04  0.25732649348E+04 0.  0.
        2    1    3    3  502    0 -0.86640543292E+03  0.79809393717E+03  0.20634641783E+03  0.11959059958E+04  0.25500000920E-02 0.  1.
       -2    1    3    3    0  502  0.86640543292E+03 -0.79809393717E+03 -0.86170090736E+03  0.14595001749E+04  0.25500000920E-02 0. -1.
</event>
<event>
 5   0  0.1442864E-06  0.3584732E+04  0.7818609E-02  0.8093998E-01
       -2   -1    0    0    0  501  0.00000000000E+00  0.00000000000E+00  0.12890943157E+04  0.12890943157E+04  0.25500000920E-02 0.  1.
        2   -1    0    0  501    0  0.00000000000E+00  0.00000000000E+00 -0.24921184516E+04  0.24921184516E+04  0.25500000920E-02 0. -1.
    10030    2    1    2    0    0  0.00000000000E+00  0.00000000000E+00 -0.12030241359E+04  0.37812127673E+04  0.35847319175E+04 0.  0.
        1    1    3    3  502    0 -0.11975059084E+04  0.77944508442E+03 -0.17429616070E+04  0.22537680014E+04  0.50400001928E-02 0. -1.
       -1    1    3    3    0  502  0.11975059084E+04 -0.77944508442E+03  0.53993747117E+03  0.15274447660E+04  0.50400001928E-02 0.  1.
</event>
<event>
 5   0  0.4591195E-07  0.3238634E+04  0.7818609E-02  0.8178688E-01
        1   -1    0    0  501    0  0.00000000000E+00  0.00000000000E+00  0.28943927183E+04  0.28943927183E+04  0.50400001928E-02 0.  1.
       -1   -1    0    0    0  501  0.00000000000E+00  0.00000000000E+00 -0.90595457789E+03  0.90595457791E+03  0.50400001928E-02 0. -1.
    10030    2    1    2    0    0  0.00000000000E+00  0.00000000000E+00  0.19884381404E+04  0.38003472962E+04  0.32386344860E+04 0.  0.
        4    1    3    3  502    0  0.12198954851E+04 -0.10199761459E+04  0.13533963595E+04  0.20881043201E+04  0.12699999809E+01 0. -1.
       -4    1    3    3    0  502 -0.12198954851E+04  0.10199761459E+04  0.63504178090E+03  0.17122429761E+04  0.12699999809E+01 0.  1.
</event>
<event>
 5   0  0.1442864E-06  0.3343593E+04  0.7818609E-02  0.8151891E-01
       -2   -1    0    0    0  501  0.00000000000E+00  0.00000000000E+00  0.26688196367E+04  0.26688196367E+04  0.25500000920E-02 0. -1.
        2   -1    0    0  501    0  0.00000000000E+00  0.00000000000E+00 -0.10472434694E+04  0.10472434694E+04  0.25500000920E-02 0.  1.
    10030    2    1    2    0    0  0.00000000000E+00  0.00000000000E+00  0.16215761673E+04  0.37160631061E+04  0.33435932382E+04 0.  0.
        1    1    3    3  502    0  0.63138164026E+03  0.28702358909E+03  0.25013844409E+04  0.25957560435E+04  0.50400001928E-02 0. -1.
       -1    1    3    3    0  502 -0.63138164026E+03 -0.28702358909E+03 -0.87980827354E+03  0.11203070626E+04  0.50400001928E-02 0.  1.
</event>
<event>
 5   0  0.4693374E-07  0.3441778E+04  0.7818609E-02  0.8127728E-01
       -1   -1    0    0    0  501  0.00000000000E+00  0.00000000000E+00  0.14430868654E+04  0.14430868654E+04  0.50400001928E-02 0. -1.
        1   -1    0    0  501    0  0.00000000000E+00  0.00000000000E+00 -0.20521698939E+04  0.20521698939E+04  0.50400001928E-02 0.  1.
    10030    2    1    2    0    0  0.00000000000E+00  0.00000000000E+00 -0.60908302849E+03  0.34952567592E+04  0.34417782726E+04 0.  0.
        1    1    3    3  502    0  0.10316059185E+04  0.11655965187E+04  0.44077859188E+03  0.16177489863E+04  0.50400001928E-02 0. -1.
       -1    1    3    3    0  502 -0.10316059185E+04 -0.11655965187E+04 -0.10498616204E+04  0.18775077730E+04  0.50400001928E-02 0.  1.
</event>
<event>
 5   0  0.1387133E-06  0.3403303E+04  0.7818609E-02  0.8137096E-01
        2   -1    0    0  501    0  0.00000000000E+00  0.00000000000E+00  0.24983526016E+04  0.24983526016E+04  0.25500000920E-02 0.  1.
       -2   -1    0    0    0  501  0.00000000000E+00  0.00000000000E+00 -0.11590106670E+04  0.11590106670E+04  0.25500000920E-02 0. -1.
    10030    2    1    2    0    0  0.00000000000E+00  0.00000000000E+00  0.13393419346E+04  0.36573632685E+04  0.34033026989E+04 0.  0.
        4    1    3    3  502    0 -0.34936179230E+03 -0.71991562514E+02  0.24577236635E+04  0.24834741122E+04  0.12699999809E+01 0.  1.
       -4    1    3    3    0  502  0.34936179230E+03  0.71991562514E+02 -0.11183817289E+04  0.11738891564E+04  0.12699999809E+01 0. -1.
</event>
<event>
 5   0  0.1361560E-06  0.3127680E+04  0.7818609E-02  0.8208182E-01
       -2   -1    0    0    0  501  0.00000000000E+00  0.00000000000E+00  0.14154669741E+04  0.14154669741E+04  0.25500000920E-02 0. -1.
        2   -1    0    0  501    0  0.00000000000E+00  0.00000000000E+00 -0.17277663566E+04  0.17277663566E+04  0.25500000920E-02 0.  1.
    10030    2    1    2    0    0  0.00000000000E+00  0.00000000000E+00 -0.31229938250E+03  0.31432333306E+04  0.31276804291E+04 0.  0.
        3    1    3    3  502    0 -0.19511235338E+03 -0.19254694722E+03  0.13911339265E+04  0.14178846106E+04  0.10100000352E+00 0. -1.
       -3    1    3    3    0  502  0.19511235338E+03  0.19254694722E+03 -0.17034333090E+04  0.17253487200E+04  0.10100000352E+00 0.  1.
</event>
<event>
 5   0  0.1378620E-06  0.3485554E+04  0.7818609E-02  0.8117222E-01
       -2   -1    0    0    0  501  0.00000000000E+00  0.00000000000E+00  0.13187816133E+04  0.13187816133E+04  0.25500000920E-02 0.  1.
        2   -1    0    0  501    0  0.00000000000E+00  0.00000000000E+00 -0.23030892077E+04  0.23030892077E+04  0.25500000920E-02 0. -1.
    10030    2    1    2    0    0  0.00000000000E+00  0.00000000000E+00 -0.98430759439E+03  0.36218708209E+04  0.34855540167E+04 0.  0.
        2    1    3    3  502    0 -0.14696775219E+04 -0.84252198840E+03 -0.91739753152E+03  0.19265029328E+04  0.25500000920E-02 0. -1.
       -2    1    3    3    0  502  0.14696775219E+04  0.84252198840E+03 -0.66910062870E+02  0.16953678881E+04  0.25500000920E-02 0.  1.
</event>
<event>
 5   0  0.1442864E-06  0.3485085E+04  0.7818609E-02  0.8117334E-01
        2   -1    0    0  501    0  0.00000000000E+00  0.00000000000E+00  0.11728534247E+04  0.11728534247E+04  0.25500000920E-02 0. -1.
       -2   -1    0    0    0  501  0.00000000000E+00  0.00000000000E+00 -0.25889458370E+04  0.25889458370E+04  0.25500000920E-02 0.  1.
    10030    2    1    2    0    0  0.00000000000E+00  0.00000000000E+00 -0.14160924124E+04  0.37617992617E+04  0.34850847859E+04 0.  0.
        1    1    3    3  502    0  0.14213107890E+04  0.10063206670E+04 -0.64284879167E+03  0.18563567040E+04  0.50400001928E-02 0. -1.
       -1    1    3    3    0  502 -0.14213107890E+04 -0.10063206670E+04 -0.77324362071E+03  0.19054425577E+04  0.50400001928E-02 0.  1.
</event>
<event>
 5   0  0.4591195E-07  0.3496716E+04  0.7818609E-02  0.8114569E-01
       -1   -1    0    0    0  501  0.00000000000E+00  0.00000000000E+00  0.11693504768E+04  0.11693504768E+04  0.50400001928E-02 0.  1.
        1   -1    0    0  501    0  0.00000000000E+00  0.00000000000E+00 -0.26140624437E+04  0.26140624437E+04  0.50400001928E-02 0. -1.
    10030    2    1    2    0    0  0.00000000000E+00  0.00000000000E+00 -0.14447119669E+04  0.37834129206E+04  0.34967156962E+04 0.  0.
        4    1    3    3  502    0  0.64935832791E+03 -0.21992212266E+03  0.10178404020E+04  0.12272052293E+04  0.12699999809E+01 0.  1.
       -4    1    3    3    0  502 -0.64935832791E+03  0.21992212266E+03 -0.24625523689E+04  0.25562076912E+04  0.12699999809E+01 0. -1.
</event>
<event>
 5   0  0.1378620E-06  0.3470739E+04  0.7818609E-02  0.8120760E-01
       -2   -1    0    0    0  501  0.00000000000E+00  0.00000000000E+00  0.10932266578E+04  0.10932266578E+04  0.25500000920E-02 0. -1.
        2   -1    0    0  501    0  0.00000000000E+00  0.00000000000E+00 -0.27546966305E+04  0.27546966305E+04  0.25500000920E-02 0.  1.
    10030    2    1    2    0    0  0.00000000000E+00  0.00000000000E+00 -0.16614699727E+04  0.38479232883E+04  0.34707392818E+04 0.  0.
        2    1    3    3  502    0  0.10677329544E+04 -0.11156050807E+04 -0.17085367010E+04  0.23029819836E+04  0.25500000920E-02 0.  1.
       -2    1    3    3    0  502 -0.10677329544E+04  0.11156050807E+04  0.47066728272E+02  0.15449413047E+04  0.25500000920E-02 0. -1.
</event>
<event>
 5   0  0.4409125E-07  0.3357351E+04  0.7818609E-02  0.8148454E-01
        1   -1    0    0  501    0  0.00000000000E+00  0.00000000000E+00  0.18471705459E+04  0.18471705459E+04  0.50400001928E-02 0. -1.
       -1   -1    0    0    0  501  0.00000000000E+00  0.00000000000E+00 -0.15255505746E+04  0.15255505746E+04  0.50400001928E-02 0.  1.
    10030    2    1    2    0    0  0.00000000000E+00  0.00000000000E+00  0.32161997131E+03  0.33727211206E+04  0.33573513893E+04 0.  0.
        5    1    3    3  502    0  0.84104442796E+03 -0.14860874598E+03 -0.12909666542E+04  0.15479203085E+04  0.46999998093E+01 0.  1.
       -5    1    3    3    0  502 -0.84104442796E+03  0.14860874598E+03  0.16125866255E+04  0.18248008121E+04  0.46999998093E+01 0. -1.
</event>
<event>
 5   0  0.4591195E-07  0.3436134E+04  0.7818609E-02  0.8129094E-01
        1   -1    0    0  501    0  0.00000000000E+00  0.00000000000E+00  0.19452170626E+04  0.19452170626E+04  0.50400001928E-02 0.  1.
       -1   -1    0    0    0  501  0.00000000000E+00  0.00000000000E+00 -0.15174422678E+04  0.15174422678E+04  0.50400001928E-02 0. -1.
    10030    2    1    2    0    0  0.00000000000E+00  0.00000000000E+00  0.42777479480E+03  0.34626593304E+04  0.34361342179E+04 0.  0.
        4    1    3    3  502    0 -0.12716352189E+04 -0.70986310194E+03 -0.70462621507E+03  0.16178570609E+04  0.12699999809E+01 0. -1.
       -4    1    3    3    0  502  0.12716352189E+04  0.70986310194E+03  0.11324010099E+04  0.18448022695E+04  0.12699999809E+01 0.  1.
</event>
<event>
 5   0  0.4557237E-07  0.2726819E+04  0.7818609E-02  0.8326355E-01
       -1   -1    0    0    0  501  0.00000000000E+00  0.00000000000E+00  0.95338137310E+03  0.95338137312E+03  0.50400001928E-02 0. -1.
        1   -1    0    0  501    0  0.00000000000E+00  0.00000000000E+00 -0.19497815234E+04  0.19497815234E+04  0.50400001928E-02 0.  1.
    10030    2    1    2    0    0  0.00000000000E+00  0.00000000000E+00 -0.99640015028E+03  0.29031628965E+04  0.27268189423E+04 0.  0.
        2    1    3    3  502    0  0.90491748113E+03  0.55481820265E+03  0.41281583414E+03  0.11389099168E+04  0.25500000920E-02 0. -1.
       -2    1    3    3    0  502 -0.90491748113E+03 -0.55481820265E+03 -0.14092159844E+04  0.17642529797E+04  0.25500000920E-02 0.  1.
</event>
<event>
 5   0  0.4409125E-07  0.3491575E+04  0.7818609E-02  0.8115790E-01
        1   -1    0    0  501    0  0.00000000000E+00  0.00000000000E+00  0.27527484974E+04  0.27527484974E+04  0.50400001928E-02 0. -1.
       -1   -1    0    0    0  501  0.00000000000E+00  0.00000000000E+00 -0.11071746353E+04  0.11071746354E+04  0.50400001928E-02 0.  1.
    10030    2    1    2    0    0  0.00000000000E+00  0.00000000000E+00  0.16455738620E+04  0.38599231327E+04  0.34915746097E+04 0.  0.
        5    1    3    3  502    0  0.11991264853E+04  0.12532222667E+04  0.10418896403E+04  0.20233700823E+04  0.46999998093E+01 0. -1.
       -5    1    3    3    0  502 -0.11991264853E+04 -0.12532222667E+04  0.60368422171E+03  0.18365530504E+04  0.46999998093E+01 0.  1.
</event>
<event>
 5   0  0.1361560E-06  0.3475332E+04  0.7818609E-02  0.8119661E-01
       -2   -1    0    0    0  501  0.00000000000E+00  0.00000000000E+00  0.14795785027E+04  0.14795785027E+04  0.25500000920E-02 0. -1.
        2   -1    0    0  501    0  0.00000000000E+00  0.00000000000E+00 -0.20407724104E+04  0.20407724104E+04  0.25500000920E-02 0.  1.
    10030    2    1    2    0    0  0.00000000000E+00  0.00000000000E+00 -0.56119390776E+03  0.35203509131E+04  0.34753319193E+04 0.  0.
        3    1    3    3  502    0 -0.13533678353E+04 -0.15313784521E+03  0.81246770591E+03  0.15859254335E+04  0.10100000352E+00 0. -1.
       -3    1    3    3    0  502  0.13533678353E+04  0.15313784521E+03 -0.13736616137E+04  0.19344254796E+04  0.10100000352E+00 0.  1.
</event>
<event>
 5   0  0.1387133E-06  0.3567776E+04  0.7818609E-02  0.8097913E-01
       -2   -1    0    0    0  501  0.00000000000E+00  0.00000000000E+00  0.10964569509E+04  0.10964569509E+04  0.25500000920E-02 0.  1.
        2   -1    0    0  501    0  0.00000000000E+00  0.00000000000E+00 -0.29023079200E+04  0.29023079200E+04  0.25500000920E-02 0. -1.
    10030    2    1    2    0    0  0.00000000000E+00  0.00000000000E+00 -0.18058509691E+04  0.39987648710E+04  0.35677756054E+04 0.  0.
        4    1    3    3  502    0  0.65180008190E+03 -0.42213465325E+03  0.89707220119E+03  0.11864995404E+04  0.12699999809E+01 0.  1.
       -4    1    3    3    0  502 -0.65180008190E+03  0.42213465325E+03 -0.27029231703E+04  0.28122653306E+04  0.12699999809E+01 0. -1.
</event>
<event>
 5   0  0.1348388E-06  0.2674961E+04  0.7818609E-02  0.8343175E-01
        2   -1    0    0  501    0  0.00000000000E+00  0.00000000000E+00  0.14640780593E+04  0.14640780593E+04  0.25500000920E-02 0.  1.
       -2   -1    0    0    0  501  0.00000000000E+00  0.00000000000E+00 -0.12218293674E+04  0.12218293674E+04  0.25500000920E-02 0. -1.
    10030    2    1    2    0    0  0.00000000000E+00  0.00000000000E+00  0.24224869185E+03  0.26859074267E+04  0.26749606120E+04 0.  0.
        5    1    3    3  502    0 -0.56429934346E+03  0.11783974360E+04  0.40826177042E+03  0.13688513540E+04  0.46999998093E+01 0.  1.
       -5    1    3    3    0  502  0.56429934346E+03 -0.11783974360E+04 -0.16601307857E+03  0.13170560727E+04  0.46999998093E+01 0. -1.
</event>
<event>
 5   0  0.4557237E-07  0.3482499E+04  0.7818609E-02  0.8117950E-01
       -1   -1    0    0    0  501  0.00000000000E+00  0.00000000000E+00  0.15097088776E+04  0.15097088776E+04  0.50400001928E-02 0. -1.
        1   -1    0    0  501    0  0.00000000000E+00  0.00000000000E+00 -0.20083010213E+04  0.20083010213E+04  0.50400001928E-02 0.  1.
    10030    2    1    2    0    0  0.00000000000E+00  0.00000000000E+00 -0.49859214376E+03  0.35180098989E+04  0.34824990342E+04 0.  0.
        2    1    3    3  502    0 -0.79150696602E+03 -0.14329233977E+04  0.35021742504E+03  0.16740385258E+04  0.25500000920E-02 0. -1.
       -2    1    3    3    0  502  0.79150696602E+03  0.14329233977E+04 -0.84880956879E+03  0.18439713731E+04  0.25500000920E-02 0.  1.
</event>
<event>
 5   0  0.4557237E-07  0.3485008E+04  0.7818609E-02  0.8117352E-01
        1   -1    0    0  501    0  0.00000000000E+00  0.00000000000E+00  0.20110067670E+04  0.20110067670E+04  0.50400001928E-02 0.  1.
       -1   -1    0    0    0  501  0.00000000000E+00  0.00000000000E+00 -0.15098507252E+04  0.15098507252E+04  0.50400001928E-02 0. -1.
    10030    2    1    2    0    0  0.00000000000E+00  0.00000000000E+00  0.50115604180E+03  0.35208574923E+04  0.34850079057E+04 0.  0.
        2    1    3    3  502    0 -0.74675961993E+03 -0.14267067888E+04  0.92314214140E+03  0.18561609856E+04  0.25500000920E-02 0.  1.
       -2    1    3    3    0  502  0.74675961993E+03  0.14267067888E+04 -0.42198609960E+03  0.16646965067E+04  0.25500000920E-02 0. -1.
</event>
<event>
 5   0  0.4591195E-07  0.3467193E+04  0.7818609E-02  0.8121609E-01
       -1   -1    0    0    0  501  0.00000000000E+00  0.00000000000E+00  0.12087129733E+04  0.12087129733E+04  0.50400001928E-02 0.  1.
        1   -1    0    0  501    0  0.00000000000E+00  0.00000000000E+00 -0.24864113018E+04  0.24864113018E+04  0.50400001928E-02 0. -1.
    10030    2    1    2    0    0  0.00000000000E+00  0.00000000000E+00 -0.12776983285E+04  0.36951242751E+04  0.34671934457E+04 0.  0.
        4    1    3    3  502    0 -0.13664202695E+04 -0.35171071960E+03 -0.17123143424E+04  0.22187444204E+04  0.12699999809E+01 0. -1.
       -4    1    3    3    0  502  0.13664202695E+04  0.35171071960E+03  0.43461601389E+03  0.14763798547E+04  0.12699999809E+01 0.  1.
</event>
<event>
 5   0  0.4700769E-07  0.3515912E+04  0.7818609E-02  0.8110029E-01
       -1   -1    0    0    0  501  0.00000000000E+00  0.00000000000E+00  0.12217420220E+04  0.12217420220E+04  0.50400001928E-02 0.  1.
        1   -1    0    0  501    0  0.00000000000E+00  0.00000000000E+00 -0.25295102177E+04  0.25295102177E+04  0.50400001928E-02 0. -1.
    10030    2    1    2    0    0  0.00000000000E+00  0.00000000000E+00 -0.13077681957E+04  0.37512522397E+04  0.35159117896E+04 0.  0.
        3    1    3    3  502    0  0.75242532026E+02  0.14373891322E+04  0.42296020692E+03  0.15002147523E+04  0.10100000352E+00 0.  1.
       -3    1    3    3    0  502 -0.75242532026E+02 -0.14373891322E+04 -0.17307284026E+04  0.22510374874E+04  0.10100000352E+00 0. -1.
</event>
<event>
 5   0  0.1387133E-06  0.3481701E+04  0.7818609E-02  0.8118140E-01
       -2   -1    0    0    0  501  0.00000000000E+00  0.00000000000E+00  0.11189624469E+04  0.11189624469E+04  0.25500000920E-02 0.  1.
        2   -1    0    0  501    0  0.00000000000E+00  0.00000000000E+00 -0.27083672419E+04  0.27083672419E+04  0.25500000920E-02 0. -1.
    10030    2    1    2    0    0  0.00000000000E+00  0.00000000000E+00 -0.15894047949E+04  0.38273296888E+04  0.34817014439E+04 0.  0.
        4    1    3    3  502    0 -0.54746521186E+03 -0.16009119669E+04 -0.12451648370E+04  0.21007318649E+04  0.12699999809E+01 0. -1.
       -4    1    3    3    0  502  0.54746521186E+03  0.16009119669E+04 -0.34423995788E+03  0.17265978239E+04  0.12699999809E+01 0.  1.
</event>
<event>
 5   0  0.1348388E-06  0.3524341E+04  0.7818609E-02  0.8108046E-01
       -2   -1    0    0    0  501  0.00000000000E+00  0.00000000000E+00  0.96728211374E+03  0.96728211374E+03  0.25500000920E-02 0. -1.
        2   -1    0    0  501    0  0.00000000000E+00  0.00000000000E+00 -0.32102787115E+04  0.32102787115E+04  0.25500000920E-02 0.  1.
    10030    2    1    2    0    0  0.00000000000E+00  0.00000000000E+00 -0.22429965977E+04  0.41775608252E+04  0.35243411740E+04 0.  0.
        5    1    3    3  502    0  0.47296493750E+03  0.37059844727E+03  0.84209461361E+03  0.10344972061E+04  0.46999998093E+01 0. -1.
       -5    1    3    3    0  502 -0.47296493750E+03 -0.37059844727E+03 -0.30850912114E+04  0.31430636191E+04  0.46999998093E+01 0.  1.
</event>
<event>
 5   0  0.4409125E-07  0.3482370E+04  0.7818609E-02  0.8117981E-01
       -1   -1    0    0    0  501  0.00000000000E+00  0.00000000000E+00  0.18514464541E+04  0.18514464541E+04  0.50400001928E-02 0. -1.
        1   -1    0    0  501    0  0.00000000000E+00  0.00000000000E+00 -0.16374898963E+04  0.16374898963E+04  0.50400001928E-02 0.  1.
    10030    2    1    2    0    0  0.00000000000E+00  0.00000000000E+00  0.21395655776E+03  0.34889363504E+04  0.34823698035E+04 0.  0.
        5    1    3    3  502    0  0.29991751441E+03  0.30110807098E+03  0.17986782085E+04  0.18482104787E+04  0.46999998093E+01 0. -1.
       -5    1    3    3    0  502 -0.29991751441E+03 -0.30110807098E+03 -0.15847216507E+04  0.16407258717E+04  0.46999998093E+01 0.  1.
</event>
<event>
 5   0  0.1442864E-06  0.3534176E+04  0.7818609E-02  0.8105738E-01
       -2   -1    0    0    0  501  0.00000000000E+00  0.00000000000E+00  0.13839634745E+04  0.13839634745E+04  0.25500000920E-02 0. -1.
        2   -1    0    0  501    0  0.00000000000E+00  0.00000000000E+00 -0.22562731743E+04  0.22562731743E+04  0.25500000920E-02 0.  1.
    10030    2    1    2    0    0  0.00000000000E+00  0.00000000000E+00 -0.87230969976E+03  0.36402366488E+04  0.35341758087E+04 0.  0.
        1    1    3    3  502    0  0.81460193790E+02  0.11070878793E+04 -0.18523045671E+04  0.21594702000E+04  0.50400001928E-02 0.  1.
       -1    1    3    3    0  502 -0.81460193790E+02 -0.11070878793E+04  0.97999486729E+03  0.14807664487E+04  0.50400001928E-02 0. -1.
</event>
<event>
 5   0  0.1378620E-06  0.3497676E+04  0.7818609E-02  0.8114341E-01
        2   -1    0    0  501    0  0.00000000000E+00  0.00000000000E+00  0.23699494399E+04  0.23699494399E+04  0.25500000920E-02 0. -1.
       -2   -1    0    0    0  501  0.00000000000E+00  0.00000000000E+00 -0.12905063739E+04  0.12905063739E+04  0.25500000920E-02 0.  1.
    10030    2    1    2    0    0  0.00000000000E+00  0.00000000000E+00  0.10794430660E+04  0.36604558138E+04  0.34976762903E+04 0.  0.
        2    1    3    3  502    0 -0.15449223037E+04  0.79345561698E+03  0.32504542877E+03  0.17669214107E+04  0.25500000920E-02 0. -1.
       -2    1    3    3    0  502  0.15449223037E+04 -0.79345561698E+03  0.75439763727E+03  0.18935344031E+04  0.25500000920E-02 0.  1.
</event>
<event>
 5   0  0.1378620E-06  0.2583326E+04  0.7818609E-02  0.8373887E-01
       -2   -1    0    0    0  501  0.00000000000E+00  0.00000000000E+00  0.86628470238E+03  0.86628470238E+03  0.25500000920E-02 0.  1.
        2   -1    0    0  501    0  0.00000000000E+00  0.00000000000E+00 -0.19259185222E+04  0.19259185222E+04  0.25500000920E-02 0. -1.
    10030    2    1    2    0    0  0.00000000000E+00  0.00000000000E+00 -0.10596338198E+04  0.27922032246E+04  0.25833263470E+04 0.  0.
        2    1    3    3  502    0  0.22160553879E+03 -0.63407989829E+03 -0.17223038043E+04  0.18486472694E+04  0.25500000920E-02 0. -1.
       -2    1    3    3    0  502 -0.22160553879E+03  0.63407989829E+03  0.66266998450E+03  0.94355595520E+03  0.25500000920E-02 0.  1.
</event>
<event>
 5   0  0.4591195E-07  0.3468181E+04  0.7818609E-02  0.8121372E-01
       -1   -1    0    0    0  501  0.00000000000E+00  0.00000000000E+00  0.13451803813E+04  0.13451803813E+04  0.50400001928E-02 0. -1.
        1   -1    0    0  501    0  0.00000000000E+00  0.00000000000E+00 -0.22354393346E+04  0.22354393346E+04  0.50400001928E-02 0.  1.
    10030    2    1    2    0    0  0.00000000000E+00  0.00000000000E+00 -0.89025895325E+03  0.35806197159E+04  0.34681805816E+04 0.  0.
        4    1    3    3  502    0  0.11539475386E+04 -0.27106289606E+03  0.86160519540E+03  0.14654129592E+04  0.12699999809E+01 0. -1.
       -4    1    3    3    0  502 -0.11539475386E+04  0.27106289606E+03 -0.17518641487E+04  0.21152067567E+04  0.12699999809E+01 0.  1.
</event>
<event>
 5   0  0.4693374E-07  0.3046805E+04  0.7818609E-02  0.8230490E-01
       -1   -1    0    0    0  501  0.00000000000E+00  0.00000000000E+00  0.10756256529E+04  0.10756256529E+04  0.50400001928E-02 0.  1.
        1   -1    0    0  501    0  0.00000000000E+00  0.00000000000E+00 -0.21575856556E+04  0.21575856556E+04  0.50400001928E-02 0. -1.
    10030    2    1    2    0    0  0.00000000000E+00  0.00000000000E+00 -0.10819600027E+04  0.32332113085E+04  0.30468045421E+04 0.  0.
        1    1    3    3  502    0 -0.12265792154E+04  0.26122238091E+03  0.37681634569E+03  0.13094748040E+04  0.50400001928E-02 0.  1.
       -1    1    3    3    0  502  0.12265792154E+04 -0.26122238091E+03 -0.14587763484E+04  0.19237365045E+04  0.50400001928E-02 0. -1.
</event>
<event>
 5   0  0.1348388E-06  0.2993741E+04  0.7818609E-02  0.8245520E-01
       -2   -1    0    0    0  501  0.00000000000E+00  0.00000000000E+00  0.11199329459E+04  0.11199329459E+04  0.25500000920E-02 0.  1.
        2   -1    0    0  501    0  0.00000000000E+00  0.00000000000E+00 -0.20006745604E+04  0.20006745604E+04  0.25500000920E-02 0. -1.
    10030    2    1    2    0    0  0.00000000000E+00  0.00000000000E+00 -0.88074161453E+03  0.31206075063E+04  0.29937410404E+04 0.  0.
        5    1    3    3  502    0  0.94473101725E+03  0.10433491158E+04  0.90633377053E+02  0.14104363053E+04  0.46999998093E+01 0.  1.
       -5    1    3    3    0  502 -0.94473101725E+03 -0.10433491158E+04 -0.97137499158E+03  0.17101712010E+04  0.46999998093E+01 0. -1.
</event>
<event>
 5   0  0.4409125E-07  0.3459029E+04  0.7818609E-02  0.8123569E-01
        1   -1    0    0  501    0  0.00000000000E+00  0.00000000000E+00  0.19229180487E+04  0.19229180487E+04  0.50400001928E-02 0. -1.
       -1   -1    0    0    0  501  0.00000000000E+00  0.00000000000E+00 -0.15555630544E+04  0.15555630544E+04  0.50400001928E-02 0.  1.
    10030    2    1    2    0    0  0.00000000000E+00  0.00000000000E+00  0.36735499430E+03  0.34784811031E+04  0.34590289233E+04 0.  0.
        5    1    3    3  502    0 -0.93256156287E+03  0.55333762202E+03 -0.11712466809E+04  0.15961498896E+04  0.46999998093E+01 0.  1.
       -5    1    3    3    0  502  0.93256156287E+03 -0.55333762202E+03  0.15386016752E+04  0.18823312135E+04  0.46999998093E+01 0. -1.
</event>
<event>
 5   0  0.1378620E-06  0.3605696E+04  0.7818609E-02  0.8089188E-01
        2   -1    0    0  501    0  0.00000000000E+00  0.00000000000E+00  0.19973245199E+04  0.19973245199E+04  0.25500000920E-02 0.  1.
       -2   -1    0    0    0  501  0.00000000000E+00  0.00000000000E+00 -0.16273073635E+04  0.16273073635E+04  0.25500000920E-02 0. -1.
    10030    2    1    2    0    0  0.00000000000E+00  0.00000000000E+00  0.37001715643E+03  0.36246318834E+04  0.36056959930E+04 0.  0.
        2    1    3    3  502    0 -0.60203532722E+03 -0.11153614241E+04  0.14738428479E+04  0.19438853829E+04  0.25500000920E-02 0.  1.
       -2    1    3    3    0  502  0.60203532722E+03  0.11153614241E+04 -0.11038256915E+04  0.16807465004E+04  0.25500000920E-02 0. -1.
</event>
<event>
 5   0  0.1387133E-06  0.3488056E+04  0.7818609E-02  0.8116626E-01
       -2   -1    0    0    0  501  0.00000000000E+00  0.00000000000E+00  0.17319677131E+04  0.17319677131E+04  0.25500000920E-02 0. -1.
        2   -1    0    0  501    0  0.00000000000E+00  0.00000000000E+00 -0.17561724049E+04  0.17561724049E+04  0.25500000920E-02 0.  1.
    10030    2    1    2    0    0  0.00000000000E+00  0.00000000000E+00 -0.24204691806E+02  0.34881401180E+04  0.34880561371E+04 0.  0.
        4    1    3    3  502    0  0.11079375566E+04  0.99064400683E+03  0.90046064513E+03  0.17377376568E+04  0.12699999809E+01 0. -1.
       -4    1    3    3    0  502 -0.11079375566E+04 -0.99064400683E+03 -0.92466533693E+03  0.17504024611E+04  0.12699999809E+01 0.  1.
</event>
<event>
 5   0  0.4591195E-07  0.3513512E+04  0.7818609E-02  0.8110595E-01
       -1   -1    0    0    0  501  0.00000000000E+00  0.00000000000E+00  0.10970444699E+04  0.10970444699E+04  0.50400001928E-02 0.  1.
        1   -1    0    0  501    0  0.00000000000E+00  0.00000000000E+00 -0.28131873600E+04  0.28131873600E+04  0.50400001928E-02 0. -1.
    10030    2    1    2    0    0  0.00000000000E+00  0.00000000000E+00 -0.17161428901E+04  0.39102318299E+04  0.35135119957E+04 0.  0.
        4    1    3    3  502    0 -0.94908050444E+03  0.27611479301E+03  0.75821980566E+03  0.12457496014E+04  0.12699999809E+01 0.  1.
       -4    1    3    3    0  502  0.94908050444E+03 -0.27611479301E+03 -0.24743626958E+04  0.26644822285E+04  0.12699999809E+01 0. -1.
</event>
<event>
 5   0  0.1348388E-06  0.3491451E+04  0.7818609E-02  0.8115819E-01
        2   -1    0    0  501    0  0.00000000000E+00  0.00000000000E+00  0.18337555820E+04  0.18337555820E+04  0.25500000920E-02 0. -1.
       -2   -1    0    0    0  501  0.00000000000E+00  0.00000000000E+00 -0.16619210337E+04  0.16619210337E+04  0.25500000920E-02 0.  1.
    10030    2    1    2    0    0  0.00000000000E+00  0.00000000000E+00  0.17183454830E+03  0.34956766157E+04  0.34914506855E+04 0.  0.
        5    1    3    3  502    0  0.49686661593E+03 -0.15604256254E+04 -0.51957111228E+03  0.17180747356E+04  0.46999998093E+01 0.  1.
       -5    1    3    3    0  502 -0.49686661593E+03  0.15604256254E+04  0.69140566058E+03  0.17776018800E+04  0.46999998093E+01 0. -1.
</event>
<event>
 5   0  0.1361560E-06  0.3487301E+04  0.7818609E-02  0.8116806E-01
        2   -1    0    0  501    0  0.00000000000E+00  0.00000000000E+00  0.98252633585E+03  0.98252633586E+03  0.25500000920E-02 0. -1.
       -2   -1    0    0    0  501  0.00000000000E+00  0.00000000000E+00 -0.30943868488E+04  0.30943868488E+04  0.25500000920E-02 0.  1.
    10030    2    1    2    0    0  0.00000000000E+00  0.00000000000E+00 -0.21118605129E+04  0.40769131846E+04  0.34873007167E+04 0.  0.
        3    1    3    3  502    0 -0.39142331338E+03  0.15058957792E+04 -0.19760014710E+04  0.25150578784E+04  0.10100000352E+00 0.  1.
       -3    1    3    3    0  502  0.39142331338E+03 -0.15058957792E+04 -0.13585904195E+03  0.15618553062E+04  0.10100000352E+00 0. -1.
</event>
<event>
 5   0  0.1387133E-06  0.2850061E+04  0.7818609E-02  0.8287893E-01
       -2   -1    0    0    0  501  0.00000000000E+00  0.00000000000E+00  0.12465944286E+04  0.12465944286E+04  0.25500000920E-02 0.  1.
        2   -1    0    0  501    0  0.00000000000E+00  0.00000000000E+00 -0.16290073741E+04  0.16290073741E+04  0.25500000920E-02 0. -1.
    10030    2    1    2    0    0  0.00000000000E+00  0.00000000000E+00 -0.38241294554E+03  0.28756018027E+04  0.28500607128E+04 0.  0.
        4    1    3    3  502    0  0.82386305027E+02  0.14075727344E+04 -0.39960381514E+03  0.14655146973E+04  0.12699999809E+01 0.  1.
       -4    1    3    3    0  502 -0.82386305027E+02 -0.14075727344E+04  0.17190869597E+02  0.14100871054E+04  0.12699999809E+01 0. -1.
</event>
<event>
 5   0  0.4557237E-07  0.3458379E+04  0.7818609E-02  0.8123725E-01
        1   -1    0    0  501    0  0.00000000000E+00  0.00000000000E+00  0.11541826674E+04  0.11541826674E+04  0.50400001928E-02 0.  1.
       -1   -1    0    0    0  501  0.00000000000E+00  0.00000000000E+00 -0.25906616013E+04  0.25906616013E+04  0.50400001928E-02 0. -1.
    10030    2    1    2    0    0  0.00000000000E+00  0.00000000000E+00 -0.14364789339E+04  0.37448442687E+04  0.34583792258E+04 0.  0.
        2    1    3    3  502    0 -0.30771740556E+03  0.14730673813E+04 -0.16405424914E+04  0.22262069035E+04  0.25500000920E-02 0. -1.
       -2    1    3    3    0  502  0.30771740556E+03 -0.14730673813E+04  0.20406355745E+03  0.15186373652E+04  0.25500000920E-02 0.  1.
</event>
<event>
 5   0  0.1348388E-06  0.3514102E+04  0.7818609E-02  0.8110456E-01
       -2   -1    0    0    0  501  0.00000000000E+00  0.00000000000E+00  0.12883574775E+04  0.12883574775E+04  0.25500000920E-02 0. -1.
        2   -1    0    0  501    0  0.00000000000E+00  0.00000000000E+00 -0.23962507248E+04  0.23962507248E+04  0.25500000920E-02 0.  1.
    10030    2    1    2    0    0  0.00000000000E+00  0.00000000000E+00 -0.11078932472E+04  0.36846082023E+04  0.35141016145E+04 0.  0.
        5    1    3    3  502    0  0.16228663166E+03 -0.40554699604E+03  0.12305111618E+04  0.13057507902E+04  0.46999998093E+01 0. -1.
       -5    1    3    3    0  502 -0.16228663166E+03  0.40554699604E+03 -0.23384044090E+04  0.23788574121E+04  0.46999998093E+01 0.  1.
</event>
<event>
 5   0  0.4409125E-07  0.3424550E+04  0.7818609E-02  0.8131907E-01
        1   -1    0    0  501    0  0.00000000000E+00  0.00000000000E+00  0.23460696797E+04  0.23460696797E+04  0.50400001928E-02 0. -1.
       -1   -1    0    0    0  501  0.00000000000E+00  0.00000000000E+00 -0.12497008728E+04  0.12497008728E+04  0.50400001928E-02 0.  1.
    10030    2    1    2    0    0  0.00000000000E+00  0.00000000000E+00  0.10963688070E+04  0.35957705525E+04  0.34245497960E+04 0.  0.
        5    1    3    3  502    0  0.42821153066E+02  0.17999060026E+03  0.23355367426E+04  0.23428581334E+04  0.46999998093E+01 0. -1.
       -5    1    3    3    0  502 -0.42821153066E+02 -0.17999060026E+03 -0.12391679356E+04  0.12529124191E+04  0.46999998093E+01 0.  1.
</event>
<event>
 5   0  0.1387133E-06  0.3297130E+04  0.7818609E-02  0.8163626E-01
        2   -1    0    0  501    0  0.00000000000E+00  0.00000000000E+00  0.17848335534E+04  0.17848335534E+04  0.25500000920E-02 0. -1.
       -2   -1    0    0    0  501  0.00000000000E+00  0.00000000000E+00 -0.15227006548E+04  0.15227006548E+04  0.25500000920E-02 0.  1.
    10030    2    1    2    0    0  0.00000000000E+00  0.00000000000E+00  0.26213289865E+03  0.33075342083E+04  0.32971304012E+04 0.  0.
        4    1    3    3  502    0 -0.87135203671E+03  0.10399041561E+04  0.10705634460E+04  0.17282253124E+04  0.12699999809E+01 0. -1.
       -4    1    3    3    0  502  0.87135203671E+03 -0.10399041561E+04 -0.80843054733E+03  0.15793088958E+04  0.12699999809E+01 0.  1.
</event>
<event>
 5   0  0.4693374E-07  0.3241277E+04  0.7818609E-02  0.8178000E-01
        1   -1    0    0  501    0  0.00000000000E+00  0.00000000000E+00  0.23210225839E+04  0.23210225839E+04  0.50400001928E-02 0. -1.
       -1   -1    0    0    0  501  0.00000000000E+00  0.00000000000E+00 -0.11316001203E+04  0.11316001203E+04  0.50400001928E-02 0.  1.
    10030    2    1    2    0    0  0.00000000000E+00  0.00000000000E+00  0.11894224636E+04  0.34526227042E+04  0.32412771774E+04 0.  0.
        1    1    3    3  502    0 -0.85264409169E+03  0.10119730256E+04 -0.40191149251E+03  0.13829765723E+04  0.50400001928E-02 0.  1.
       -1    1    3    3    0  502  0.85264409169E+03 -0.10119730256E+04  0.15913339561E+04  0.20696461320E+04  0.50400001928E-02 0. -1.
</event>
<event>
 5   0  0.1348388E-06  0.3534636E+04  0.7818609E-02  0.8105630E-01
       -2   -1    0    0    0  501  0.00000000000E+00  0.00000000000E+00  0.18727849508E+04  0.18727849508E+04  0.25500000920E-02 0.  1.
        2   -1    0    0  501    0  0.00000000000E+00  0.00000000000E+00 -0.16677905779E+04  0.16677905779E+04  0.25500000920E-02 0. -1.
    10030    2    1    2    0    0  0.00000000000E+00  0.00000000000E+00  0.20499437290E+03  0.35405755287E+04  0.35346361031E+04 0.  0.
        5    1    3    3  502    0  0.10780005179E+04  0.67205057410E+03  0.13332415430E+04  0.18415461419E+04  0.46999998093E+01 0.  1.
       -5    1    3    3    0  502 -0.10780005179E+04 -0.67205057410E+03 -0.11282471701E+04  0.16990293869E+04  0.46999998093E+01 0. -1.
</event>
<event>
 5   0  0.4409125E-07  0.3055656E+04  0.7818609E-02  0.8228014E-01
        1   -1    0    0  501    0  0.00000000000E+00  0.00000000000E+00  0.14821498442E+04  0.14821498443E+04  0.50400001928E-02 0.  1.
       -1   -1    0    0    0  501  0.00000000000E+00  0.00000000000E+00 -0.15749142111E+04  0.15749142111E+04  0.50400001928E-02 0. -1.
    10030    2    1    2    0    0  0.00000000000E+00  0.00000000000E+00 -0.92764366815E+02  0.30570640553E+04  0.30556562979E+04 0.  0.
        5    1    3    3  502    0 -0.12943367101E+04 -0.23409323604E+03 -0.82399801413E+03  0.15521282098E+04  0.46999998093E+01 0. -1.
       -5    1    3    3    0  502  0.12943367101E+04  0.23409323604E+03  0.73123364732E+03  0.15049358456E+04  0.46999998093E+01 0.  1.
</event>
<event>
 5   0  0.4409125E-07  0.3062893E+04  0.7818609E-02  0.8225996E-01
       -1   -1    0    0    0  501  0.00000000000E+00  0.00000000000E+00  0.13811421092E+04  0.13811421092E+04  0.50400001928E-02 0. -1.
        1   -1    0    0  501    0  0.00000000000E+00  0.00000000000E+00 -0.16981081208E+04  0.16981081208E+04  0.50400001928E-02 0.  1.
    10030    2    1    2    0    0  0.00000000000E+00  0.00000000000E+00 -0.31696601160E+03  0.30792502301E+04  0.30628931628E+04 0.  0.
        5    1    3    3  502    0  0.10572595338E+04 -0.82513992070E+03  0.58482528135E+03  0.14631118584E+04  0.46999998093E+01 0. -1.
       -5    1    3    3    0  502 -0.10572595338E+04  0.82513992070E+03 -0.90179129295E+03  0.16161383717E+04  0.46999998093E+01 0.  1.
</event>
<event>
 5   0  0.1348388E-06  0.3585571E+04  0.7818609E-02  0.8093805E-01
       -2   -1    0    0    0  501  0.00000000000E+00  0.00000000000E+00  0.19689974892E+04  0.19689974892E+04  0.25500000920E-02 0.  1.
        2   -1    0    0  501    0  0.00000000000E+00  0.00000000000E+00 -0.16323437182E+04  0.16323437182E+04  0.25500000920E-02 0. -1.
    10030    2    1    2    0    0  0.00000000000E+00  0.00000000000E+00  0.33665377098E+03  0.36013412074E+04  0.35855714650E+04 0.  0.
        5    1    3    3  502    0  0.10473022581E+04 -0.14252713663E+03  0.16227642239E+04  0.19366315656E+04  0.46999998093E+01 0.  1.
       -5    1    3    3    0  502 -0.10473022581E+04  0.14252713663E+03 -0.12861104529E+04  0.16647096418E+04  0.46999998093E+01 0. -1.
</event>
<event>
 5   0  0.4693374E-07  0.3480668E+04  0.7818609E-02  0.8118387E-01
       -1   -1    0    0    0  501  0.00000000000E+00  0.00000000000E+00  0.99614633374E+03  0.99614633375E+03  0.50400001928E-02 0.  1.
        1   -1    0    0  501    0  0.00000000000E+00  0.00000000000E+00 -0.30404801363E+04  0.30404801363E+04  0.50400001928E-02 0. -1.
    10030    2    1    2    0    0  0.00000000000E+00  0.00000000000E+00 -0.20443338025E+04  0.40366264700E+04  0.34806684074E+04 0.  0.
        1    1    3    3  502    0 -0.27861952763E+03 -0.60414197386E+03 -0.28871826224E+04  0.29628432056E+04  0.50400001928E-02 0. -1.
       -1    1    3    3    0  502  0.27861952763E+03  0.60414197386E+03  0.84284881988E+03  0.10737832644E+04  0.50400001928E-02 0.  1.
</event>
<event>
 5   0  0.4591195E-07  0.3509680E+04  0.7818609E-02  0.8111500E-01
        1   -1    0    0  501    0  0.00000000000E+00  0.00000000000E+00  0.13404645984E+04  0.13404645984E+04  0.50400001928E-02 0.  1.
       -1   -1    0    0    0  501  0.00000000000E+00  0.00000000000E+00 -0.22973109709E+04  0.22973109709E+04  0.50400001928E-02 0. -1.
    10030    2    1    2    0    0  0.00000000000E+00  0.00000000000E+00 -0.95684637251E+03  0.36377755692E+04  0.35096803432E+04 0.  0.
        4    1    3    3  502    0 -0.38053247242E+03 -0.11633267996E+04  0.82498170938E+03  0.14760523835E+04  0.12699999809E+01 0.  1.
       -4    1    3    3    0  502  0.38053247242E+03  0.11633267996E+04 -0.17818280819E+04  0.21617231857E+04  0.12699999809E+01 0. -1.
</event>
<event>
 5   0  0.4409125E-07  0.2951417E+04  0.7818609E-02  0.8257742E-01
        1   -1    0    0  501    0  0.00000000000E+00  0.00000000000E+00  0.27402797048E+04  0.27402797048E+04  0.50400001928E-02 0. -1.
       -1   -1    0    0    0  501  0.00000000000E+00  0.00000000000E+00 -0.79470582031E+03  0.79470582032E+03  0.50400001928E-02 0.  1.
    10030    2    1    2    0    0  0.00000000000E+00  0.00000000000E+00  0.19455738845E+04  0.35349855252E+04  0.29514174430E+04 0.  0.
        5    1    3    3  502    0  0.12782827609E+04  0.65915223627E+02  0.18523952549E+04  0.22516087369E+04  0.46999998093E+01 0. -1.
       -5    1    3    3    0  502 -0.12782827609E+04 -0.65915223627E+02  0.93178629594E+02  0.12833767883E+04  0.46999998093E+01 0.  1.
</event>
<event>
 5   0  0.4591195E-07  0.3510740E+04  0.7818609E-02  0.8111249E-01
        1   -1    0    0  501    0  0.00000000000E+00  0.00000000000E+00  0.18604765027E+04  0.18604765027E+04  0.50400001928E-02 0.  1.
       -1   -1    0    0    0  501  0.00000000000E+00  0.00000000000E+00 -0.16562012354E+04  0.16562012354E+04  0.50400001928E-02 0. -1.
    10030    2    1    2    0    0  0.00000000000E+00  0.00000000000E+00  0.20427526728E+03  0.35166777381E+04  0.35107397980E+04 0.  0.
        4    1    3    3  502    0  0.17131146683E+03 -0.15019088965E+04  0.99597188694E+03  0.18102595296E+04  0.12699999809E+01 0.  1.
       -4    1    3    3    0  502 -0.17131146683E+03  0.15019088965E+04 -0.79169661966E+03  0.17064182085E+04  0.12699999809E+01 0. -1.
</event>
<event>
 5   0  0.4591195E-07  0.2953308E+04  0.7818609E-02  0.8257191E-01
       -1   -1    0    0    0  501  0.00000000000E+00  0.00000000000E+00  0.10112390449E+04  0.10112390449E+04  0.50400001928E-02 0. -1.
        1   -1    0    0  501    0  0.00000000000E+00  0.00000000000E+00 -0.21562728308E+04  0.21562728308E+04  0.50400001928E-02 0.  1.
    10030    2    1    2    0    0  0.00000000000E+00  0.00000000000E+00 -0.11450337859E+04  0.31675118757E+04  0.29533081641E+04 0.  0.
        4    1    3    3  502    0  0.14003313426E+04 -0.10249833064E+03 -0.82109163537E+02  0.14064769122E+04  0.12699999809E+01 0. -1.
       -4    1    3    3    0  502 -0.14003313426E+04  0.10249833064E+03 -0.10629246224E+04  0.17610349635E+04  0.12699999809E+01 0.  1.
</event>
<event>
 5   0  0.4591195E-07  0.3291822E+04  0.7818609E-02  0.8164979E-01
       -1   -1    0    0    0  501  0.00000000000E+00  0.00000000000E+00  0.12884898136E+04  0.12884898136E+04  0.50400001928E-02 0.  1.
        1   -1    0    0  501    0  0.00000000000E+00  0.00000000000E+00 -0.21024795017E+04  0.21024795017E+04  0.50400001928E-02 0. -1.
    10030    2    1    2    0    0  0.00000000000E+00  0.00000000000E+00 -0.81398968804E+03  0.33909693153E+04  0.32918222438E+04 0.  0.
        4    1    3    3  502    0 -0.45689445853E+03 -0.26702959389E+03  0.11984598872E+04  0.13101011657E+04  0.12699999809E+01 0.  1.
       -4    1    3    3    0  502  0.45689445853E+03  0.26702959389E+03 -0.20124495752E+04  0.20808681496E+04  0.12699999809E+01 0. -1.
</event>
<event>
 5   0  0.4700769E-07  0.2650634E+04  0.7818609E-02  0.8351203E-01
        1   -1    0    0  501    0  0.00000000000E+00  0.00000000000E+00  0.21501592784E+04  0.21501592784E+04  0.50400001928E-02 0. -1.
       -1   -1    0    0    0  501  0.00000000000E+00  0.00000000000E+00 -0.81690012180E+03  0.81690012181E+03  0.50400001928E-02 0.  1.
    10030    2    1    2    0    0  0.00000000000E+00  0.00000000000E+00  0.13332591566E+04  0.29670594003E+04  0.26506341705E+04 0.  0.
        3    1    3    3  502    0 -0.74104751558E+02  0.10070554556E+04  0.16274785640E+04  0.19152907590E+04  0.10100000352E+00 0. -1.
       -3    1    3    3    0  502  0.74104751558E+02 -0.10070554556E+04 -0.29421940734E+03  0.10517686413E+04  0.10100000352E+00 0.  1.
</event>
<event>
 5   0  0.1378620E-06  0.3499847E+04  0.7818609E-02  0.8113826E-01
        2   -1    0    0  501    0  0.00000000000E+00  0.00000000000E+00  0.19204886137E+04  0.19204886137E+04  0.25500000920E-02 0.  1.
       -2   -1    0    0    0  501  0.00000000000E+00  0.00000000000E+00 -0.15945071656E+04  0.15945071656E+04  0.25500000920E-02 0. -1.
    10030    2    1    2    0    0  0.00000000000E+00  0.00000000000E+00  0.32598144807E+03  0.35149957793E+04  0.34998473430E+04 0.  0.
        2    1    3    3  502    0  0.99788653503E+03  0.58751963295E+03 -0.11546619962E+04  0.16352984992E+04  0.25500000920E-02 0. -1.
       -2    1    3    3    0  502 -0.99788653503E+03 -0.58751963295E+03  0.14806434443E+04  0.18796972801E+04  0.25500000920E-02 0.  1.
</event>
<event>
 5   0  0.4700769E-07  0.3511362E+04  0.7818609E-02  0.8111102E-01
        1   -1    0    0  501    0  0.00000000000E+00  0.00000000000E+00  0.12993571423E+04  0.12993571424E+04  0.50400001928E-02 0.  1.
       -1   -1    0    0    0  501  0.00000000000E+00  0.00000000000E+00 -0.23722625850E+04  0.23722625850E+04  0.50400001928E-02 0. -1.
    10030    2    1    2    0    0  0.00000000000E+00  0.00000000000E+00 -0.10729054426E+04  0.36716197273E+04  0.35113623187E+04 0.  0.
        3    1    3    3  502    0  0.45664491351E+03  0.16253505149E+04 -0.10402378001E+04  0.19830238436E+04  0.10100000352E+00 0. -1.
       -3    1    3    3    0  502 -0.45664491351E+03 -0.16253505149E+04 -0.32667642570E+02  0.16885958837E+04  0.10100000352E+00 0.  1.
</event>
<event>
 5   0  0.4693374E-07  0.3584059E+04  0.7818609E-02  0.8094153E-01
       -1   -1    0    0    0  501  0.00000000000E+00  0.00000000000E+00  0.19542912730E+04  0.19542912730E+04  0.50400001928E-02 0. -1.
        1   -1    0    0  501    0  0.00000000000E+00  0.00000000000E+00 -0.16432402914E+04  0.16432402914E+04  0.50400001928E-02 0.  1.
    10030    2    1    2    0    0  0.00000000000E+00  0.00000000000E+00  0.31105098160E+03  0.35975315644E+04  0.35840592411E+04 0.  0.
        1    1    3    3  502    0  0.62713435226E+03  0.10450951420E+04 -0.11631283594E+04  0.16847518904E+04  0.50400001928E-02 0.  1.
       -1    1    3    3    0  502 -0.62713435226E+03 -0.10450951420E+04  0.14741793410E+04  0.19127796740E+04  0.50400001928E-02 0. -1.
</event>
<event>
 5   0  0.1348388E-06  0.3362613E+04  0.7818609E-02  0.8147144E-01
       -2   -1    0    0    0  501  0.00000000000E+00  0.00000000000E+00  0.99987409459E+03  0.99987409459E+03  0.25500000920E-02 0.  1.
        2   -1    0    0  501    0  0.00000000000E+00  0.00000000000E+00 -0.28271470529E+04  0.28271470529E+04  0.25500000920E-02 0. -1.
    10030    2    1    2    0    0  0.00000000000E+00  0.00000000000E+00 -0.18272729583E+04  0.38270211475E+04  0.33626127340E+04 0.  0.
        5    1    3    3  502    0  0.49525076152E+03 -0.15740350133E+04 -0.54676700826E+03  0.17383428290E+04  0.46999998093E+01 0. -1.
       -5    1    3    3    0  502 -0.49525076152E+03  0.15740350133E+04 -0.12805059501E+04  0.20886783185E+04  0.46999998093E+01 0.  1.
</event>
<event>
 5   0  0.4557237E-07  0.3598351E+04  0.7818609E-02  0.8090870E-01
       -1   -1    0    0    0  501  0.00000000000E+00  0.00000000000E+00  0.27039160705E+04  0.27039160705E+04  0.50400001928E-02 0. -1.
        1   -1    0    0  501    0  0.00000000000E+00  0.00000000000E+00 -0.11971643058E+04  0.11971643058E+04  0.50400001928E-02 0.  1.
    10030    2    1    2    0    0  0.00000000000E+00  0.00000000000E+00  0.15067517647E+04  0.39010803763E+04  0.35983506252E+04 0.  0.
        2    1    3    3  502    0  0.10244916453E+04 -0.14702953145E+04  0.57964301261E+03  0.18834376722E+04  0.25500000920E-02 0. -1.
       -2    1    3    3    0  502 -0.10244916453E+04  0.14702953145E+04  0.92710875209E+03  0.20176427041E+04  0.25500000920E-02 0.  1.
</event>
<event>
 5   0  0.4409125E-07  0.3582551E+04  0.7818609E-02  0.8094500E-01
        1   -1    0    0  501    0  0.00000000000E+00  0.00000000000E+00  0.23447674820E+04  0.23447674820E+04  0.50400001928E-02 0.  1.
       -1   -1    0    0    0  501  0.00000000000E+00  0.00000000000E+00 -0.13684379022E+04  0.13684379022E+04  0.50400001928E-02 0. -1.
    10030    2    1    2    0    0  0.00000000000E+00  0.00000000000E+00  0.97632957978E+03  0.37132053843E+04  0.35825514340E+04 0.  0.
        5    1    3    3  502    0  0.28168885198E+02 -0.13835542510E+04 -0.69069377449E+03  0.15466401752E+04  0.46999998093E+01 0. -1.
       -5    1    3    3    0  502 -0.28168885198E+02  0.13835542510E+04  0.16670233543E+04  0.21665652091E+04  0.46999998093E+01 0.  1.
</event>
<event>
 5   0  0.4591195E-07  0.3477525E+04  0.7818609E-02  0.8119137E-01
        1   -1    0    0  501    0  0.00000000000E+00  0.00000000000E+00  0.22671561880E+04  0.22671561880E+04  0.50400001928E-02 0. -1.
       -1   -1    0    0    0  501  0.00000000000E+00  0.00000000000E+00 -0.13335185604E+04  0.13335185604E+04  0.50400001928E-02 0.  1.
    10030    2    1    2    0    0  0.00000000000E+00  0.00000000000E+00  0.93363762758E+03  0.36006747484E+04  0.34775248991E+04 0.  0.
        4    1    3    3  502    0 -0.13598208338E+04  0.67130415936E+03 -0.41391018707E+03  0.15719685844E+04  0.12699999809E+01 0.  1.
       -4    1    3    3    0  502  0.13598208338E+04 -0.67130415936E+03  0.13475478147E+04  0.20287061640E+04  0.12699999809E+01 0. -1.
</event>
<event>
 5   0  0.4591195E-07  0.3507543E+04  0.7818609E-02  0.8112005E-01
        1   -1    0    0  501    0  0.00000000000E+00  0.00000000000E+00  0.26814599420E+04  0.26814599420E+04  0.50400001928E-02 0.  1.
       -1   -1    0    0    0  501  0.00000000000E+00  0.00000000000E+00 -0.11470296730E+04  0.11470296730E+04  0.50400001928E-02 0. -1.
    10030    2    1    2    0    0  0.00000000000E+00  0.00000000000E+00  0.15344302691E+04  0.38284896150E+04  0.35075427983E+04 0.  0.
        4    1    3    3  502    0  0.12171879302E+04  0.36060549952E+03 -0.55351556613E+03  0.13849057291E+04  0.12699999809E+01 0. -1.
       -4    1    3    3    0  502 -0.12171879302E+04 -0.36060549952E+03  0.20879458352E+04  0.24435838859E+04  0.12699999809E+01 0.  1.
</event>
<event>
 5   0  0.1387133E-06  0.3629457E+04  0.7818609E-02  0.8083777E-01
        2   -1    0    0  501    0  0.00000000000E+00  0.00000000000E+00  0.19880522683E+04  0.19880522683E+04  0.25500000920E-02 0.  1.
       -2   -1    0    0    0  501  0.00000000000E+00  0.00000000000E+00 -0.16565159744E+04  0.16565159744E+04  0.25500000920E-02 0. -1.
    10030    2    1    2    0    0  0.00000000000E+00  0.00000000000E+00  0.33153629394E+03  0.36445682427E+04  0.36294574472E+04 0.  0.
        4    1    3    3  502    0 -0.11875555319E+04 -0.90705540759E+03 -0.86817937679E+03  0.17282287745E+04  0.12699999809E+01 0. -1.
       -4    1    3    3    0  502  0.11875555319E+04  0.90705540759E+03  0.11997156707E+04  0.19163394682E+04  0.12699999809E+01 0.  1.
</event>
<event>
 5   0  0.4700769E-07  0.3409876E+04  0.7818609E-02  0.8135487E-01
       -1   -1    0    0    0  501  0.00000000000E+00  0.00000000000E+00  0.12951809862E+04  0.12951809862E+04  0.50400001928E-02 0. -1.
        1   -1    0    0  501    0  0.00000000000E+00  0.00000000000E+00 -0.22443297897E+04  0.22443297897E+04  0.50400001928E-02 0.  1.
    10030    2    1    2    0    0  0.00000000000E+00  0.00000000000E+00 -0.94914880350E+03  0.35395107758E+04  0.34098758161E+04 0.  0.
        3    1    3    3  502    0  0.15712801883E+04  0.64275341084E+03 -0.31123951028E+03  0.17259557990E+04  0.10100000352E+00 0. -1.
       -3    1    3    3    0  502 -0.15712801883E+04 -0.64275341084E+03 -0.63790929322E+03  0.18135549768E+04  0.10100000352E+00 0.  1.
</event>
<event>
 5   0  0.1378620E-06  0.3322462E+04  0.7818609E-02  0.8157203E-01
        2   -1    0    0  501    0  0.00000000000E+00  0.00000000000E+00  0.17363982340E+04  0.17363982340E+04  0.25500000920E-02 0.  1.
       -2   -1    0    0    0  501  0.00000000000E+00  0.00000000000E+00 -0.15893180704E+04  0.15893180704E+04  0.25500000920E-02 0. -1.
    10030    2    1    2    0    0  0.00000000000E+00  0.00000000000E+00  0.14708016365E+03  0.33257163044E+04  0.33224623945E+04 0.  0.
        2    1    3    3  502    0 -0.43534237683E+02 -0.38512189610E+03 -0.15434289210E+04  0.15913475230E+04  0.25500000920E-02 0. -1.
       -2    1    3    3    0  502  0.43534237683E+02  0.38512189610E+03  0.16905090846E+04  0.17343687814E+04  0.25500000920E-02 0.  1.
</event>
<event>
 5   0  0.1348388E-06  0.3570457E+04  0.7818609E-02  0.8097292E-01
        2   -1    0    0  501    0  0.00000000000E+00  0.00000000000E+00  0.13929347208E+04  0.13929347209E+04  0.25500000920E-02 0. -1.
       -2   -1    0    0    0  501  0.00000000000E+00  0.00000000000E+00 -0.22880050567E+04  0.22880050567E+04  0.25500000920E-02 0.  1.
    10030    2    1    2    0    0  0.00000000000E+00  0.00000000000E+00 -0.89507033587E+03  0.36809397776E+04  0.35704574973E+04 0.  0.
        5    1    3    3  502    0 -0.39026553003E+03 -0.17409578845E+04 -0.51090302205E+03  0.18558786403E+04  0.46999998093E+01 0.  1.
       -5    1    3    3    0  502  0.39026553003E+03  0.17409578845E+04 -0.38416731382E+03  0.18250611372E+04  0.46999998093E+01 0. -1.
</event>
<event>
 5   0  0.1361560E-06  0.3519020E+04  0.7818609E-02  0.8109297E-01
        2   -1    0    0  501    0  0.00000000000E+00  0.00000000000E+00  0.10769889154E+04  0.10769889154E+04  0.25500000920E-02 0. -1.
       -2   -1    0    0    0  501  0.00000000000E+00  0.00000000000E+00 -0.28745658027E+04  0.28745658027E+04  0.25500000920E-02 0.  1.
    10030    2    1    2    0    0  0.00000000000E+00  0.00000000000E+00 -0.17975768873E+04  0.39515547181E+04  0.35190200375E+04 0.  0.
        3    1    3    3  502    0  0.54630404021E+03  0.38846380899E+03  0.92798259629E+03  0.11447724422E+04  0.10100000352E+00 0. -1.
       -3    1    3    3    0  502 -0.54630404021E+03 -0.38846380899E+03 -0.27255594836E+04  0.28067822759E+04  0.10100000352E+00 0.  1.
</event>
<event>
 5   0  0.4557237E-07  0.3482569E+04  0.7818609E-02  0.8117933E-01
       -1   -1    0    0    0  501  0.00000000000E+00  0.00000000000E+00  0.11086041488E+04  0.11086041488E+04  0.50400001928E-02 0.  1.
        1   -1    0    0  501    0  0.00000000000E+00  0.00000000000E+00 -0.27350359580E+04  0.27350359580E+04  0.50400001928E-02 0. -1.
    10030    2    1    2    0    0  0.00000000000E+00  0.00000000000E+00 -0.16264318092E+04  0.38436401068E+04  0.34825692873E+04 0.  0.
        2    1    3    3  502    0  0.22480191963E+03  0.13713320770E+04 -0.19712826244E+04  0.24118546295E+04  0.25500000920E-02 0. -1.
       -2    1    3    3    0  502 -0.22480191963E+03 -0.13713320770E+04  0.34485081519E+03  0.14317854774E+04  0.25500000920E-02 0.  1.
</event>
<event>
 5   0  0.1361560E-06  0.3555496E+04  0.7818609E-02  0.8100763E-01
        2   -1    0    0  501    0  0.00000000000E+00  0.00000000000E+00  0.14369015210E+04  0.14369015210E+04  0.25500000920E-02 0.  1.
       -2   -1    0    0    0  501  0.00000000000E+00  0.00000000000E+00 -0.21994466174E+04  0.21994466174E+04  0.25500000920E-02 0. -1.
    10030    2    1    2    0    0  0.00000000000E+00  0.00000000000E+00 -0.76254509641E+03  0.36363481383E+04  0.35554961340E+04 0.  0.
        3    1    3    3  502    0  0.10683317813E+04  0.79000959424E+03 -0.15892060973E+04  0.20714786950E+04  0.10100000352E+00 0. -1.
       -3    1    3    3    0  502 -0.10683317813E+04 -0.79000959424E+03  0.82666100090E+03  0.15648694433E+04  0.10100000352E+00 0.  1.
</event>
<event>
 5   0  0.4409125E-07  0.3521194E+04  0.7818609E-02  0.8108785E-01
       -1   -1    0    0    0  501  0.00000000000E+00  0.00000000000E+00  0.22005655582E+04  0.22005655583E+04  0.50400001928E-02 0. -1.
        1   -1    0    0  501    0  0.00000000000E+00  0.00000000000E+00 -0.14085935109E+04  0.14085935109E+04  0.50400001928E-02 0.  1.
    10030    2    1    2    0    0  0.00000000000E+00  0.00000000000E+00  0.79197204732E+03  0.36091590692E+04  0.35211943234E+04 0.  0.
        5    1    3    3  502    0 -0.15525567153E+04 -0.68116598191E+03  0.88245916451E+03  0.19113282597E+04  0.46999998093E+01 0.  1.
       -5    1    3    3    0  502  0.15525567153E+04  0.68116598191E+03 -0.90487117194E+02  0.16978308095E+04  0.46999998093E+01 0. -1.
</event>
<event>
 5   0  0.4700769E-07  0.3475746E+04  0.7818609E-02  0.8119562E-01
        1   -1    0    0  501    0  0.00000000000E+00  0.00000000000E+00  0.15569669094E+04  0.15569669094E+04  0.50400001928E-02 0.  1.
       -1   -1    0    0    0  501  0.00000000000E+00  0.00000000000E+00 -0.19397983885E+04  0.19397983885E+04  0.50400001928E-02 0. -1.
    10030    2    1    2    0    0  0.00000000000E+00  0.00000000000E+00 -0.38283147907E+03  0.34967652979E+04  0.34757456189E+04 0.  0.
        3    1    3    3  502    0  0.86404758825E+02  0.56292684964E+03  0.14604179481E+04  0.15675372447E+04  0.10100000352E+00 0.  1.
       -3    1    3    3    0  502 -0.86404758825E+02 -0.56292684964E+03 -0.18432494271E+04  0.19292280532E+04  0.10100000352E+00 0. -1.
</event>
<event>
 5   0  0.4693374E-07  0.3471539E+04  0.7818609E-02  0.8120568E-01
        1   -1    0    0  501    0  0.00000000000E+00  0.00000000000E+00  0.19398422055E+04  0.19398422055E+04  0.50400001928E-02 0.  1.
       -1   -1    0    0    0  501  0.00000000000E+00  0.00000000000E+00 -0.15531651539E+04  0.15531651539E+04  0.50400001928E-02 0. -1.
    10030    2    1    2    0    0  0.00000000000E+00  0.00000000000E+00  0.38667705153E+03  0.34930073594E+04  0.34715387468E+04 0.  0.
        1    1    3    3  502    0 -0.98799654764E+03  0.13417361491E+04 -0.29598389799E+03  0.16923355281E+04  0.50400001928E-02 0. -1.
       -1    1    3    3    0  502  0.98799654764E+03 -0.13417361491E+04  0.68266094952E+03  0.18006718313E+04  0.50400001928E-02 0.  1.
</event>
<event>
 5   0  0.1387133E-06  0.3490482E+04  0.7818609E-02  0.8116049E-01
       -2   -1    0    0    0  501  0.00000000000E+00  0.00000000000E+00  0.27728585130E+04  0.27728585130E+04  0.25500000920E-02 0.  1.
        2   -1    0    0  501    0  0.00000000000E+00  0.00000000000E+00 -0.10984573898E+04  0.10984573898E+04  0.25500000920E-02 0. -1.
    10030    2    1    2    0    0  0.00000000000E+00  0.00000000000E+00  0.16744011232E+04  0.38713159028E+04  0.34904824449E+04 0.  0.
        4    1    3    3  502    0 -0.48664356668E+03 -0.16172440997E+04  0.34923808526E+03  0.17246069964E+04  0.12699999809E+01 0. -1.
       -4    1    3    3    0  502  0.48664356668E+03  0.16172440997E+04  0.13251630379E+04  0.21467089064E+04  0.12699999809E+01 0.  1.
</event>
<event>
 5   0  0.4591195E-07  0.3489022E+04  0.7818609E-02  0.8116397E-01
       -1   -1    0    0    0  501  0.00000000000E+00  0.00000000000E+00  0.10568580017E+04  0.10568580017E+04  0.50400001928E-02 0.  1.
        1   -1    0    0  501    0  0.00000000000E+00  0.00000000000E+00 -0.28795902004E+04  0.28795902004E+04  0.50400001928E-02 0. -1.
    10030    2    1    2    0    0  0.00000000000E+00  0.00000000000E+00 -0.18227321987E+04  0.39364482021E+04  0.34890216078E+04 0.  0.
        4    1    3    3  502    0  0.14099799260E+04 -0.82488327210E+03 -0.22061091613E+03  0.16483769574E+04  0.12699999809E+01 0.  1.
       -4    1    3    3    0  502 -0.14099799260E+04  0.82488327210E+03 -0.16021212825E+04  0.22880712448E+04  0.12699999809E+01 0. -1.
</event>
<event>
 5   0  0.1348388E-06  0.3457130E+04  0.7818609E-02  0.8124025E-01
       -2   -1    0    0    0  501  0.00000000000E+00  0.00000000000E+00  0.10963539252E+04  0.10963539252E+04  0.25500000920E-02 0.  1.
        2   -1    0    0  501    0  0.00000000000E+00  0.00000000000E+00 -0.27253394379E+04  0.27253394379E+04  0.25500000920E-02 0. -1.
    10030    2    1    2    0    0  0.00000000000E+00  0.00000000000E+00 -0.16289855128E+04  0.38216933631E+04  0.34571297865E+04 0.  0.
        5    1    3    3  502    0 -0.41905820744E+03 -0.30623354864E+03 -0.26371578579E+04  0.26877522998E+04  0.46999998093E+01 0. -1.
       -5    1    3    3    0  502  0.41905820744E+03  0.30623354864E+03  0.10081723452E+04  0.11339410633E+04  0.46999998093E+01 0.  1.
</event>
<event>
 5   0  0.4409125E-07  0.3527828E+04  0.7818609E-02  0.8107227E-01
        1   -1    0    0  501    0  0.00000000000E+00  0.00000000000E+00  0.18443972613E+04  0.18443972613E+04  0.50400001928E-02 0.  1.
       -1   -1    0    0    0  501  0.00000000000E+00  0.00000000000E+00 -0.16869429455E+04  0.16869429455E+04  0.50400001928E-02 0. -1.
    10030    2    1    2    0    0  0.00000000000E+00  0.00000000000E+00  0.15745431584E+03  0.35313402068E+04  0.35278281980E+04 0.  0.
        5    1    3    3  502    0 -0.17237032070E+04 -0.12966577740E+03 -0.27291289124E+03  0.17499912845E+04  0.46999998093E+01 0.  1.
       -5    1    3    3    0  502  0.17237032070E+04  0.12966577740E+03  0.43036720707E+03  0.17813489222E+04  0.46999998093E+01 0. -1.
</event>
<event>
 5   0  0.1378620E-06  0.3548913E+04  0.7818609E-02  0.8102295E-01
        2   -1    0    0  501    0  0.00000000000E+00  0.00000000000E+00  0.26148806806E+04  0.26148806806E+04  0.25500000920E-02 0.  1.
       -2   -1    0    0    0  501  0.00000000000E+00  0.00000000000E+00 -0.12041450843E+04  0.12041450843E+04  0.25500000920E-02 0. -1.
    10030    2    1    2    0    0  0.00000000000E+00  0.00000000000E+00  0.14107355963E+04  0.38190257649E+04  0.35489129139E+04 0.  0.
        2    1    3    3  502    0 -0.55363873381E+03  0.41655985195E+03 -0.10525707388E+04  0.12601361506E+04  0.25500000920E-02 0. -1.
       -2    1    3    3    0  502  0.55363873381E+03 -0.41655985195E+03  0.24633063350E+04  0.25588896143E+04  0.25500000920E-02 0.  1.
</event>
<event>
 5   0  0.1387133E-06  0.3489715E+04  0.7818609E-02  0.8116232E-01
        2   -1    0    0  501    0  0.00000000000E+00  0.00000000000E+00  0.22446544037E+04  0.22446544037E+04  0.25500000920E-02 0.  1.
       -2   -1    0    0    0  501  0.00000000000E+00  0.00000000000E+00 -0.13563458534E+04  0.13563458534E+04  0.25500000920E-02 0. -1.
    10030    2    1    2    0    0  0.00000000000E+00  0.00000000000E+00  0.88830855031E+03  0.36010002571E+04  0.34897149986E+04 0.  0.
        4    1    3    3  502    0  0.91805469438E+03 -0.89512052976E+03 -0.77699480222E+03  0.14992623921E+04  0.12699999809E+01 0. -1.
       -4    1    3    3    0  502 -0.91805469438E+03  0.89512052976E+03  0.16653033525E+04  0.21017378651E+04  0.12699999809E+01 0.  1.
</event>
<event>
 5   0  0.1378620E-06  0.3461546E+04  0.7818609E-02  0.8122964E-01
       -2   -1    0    0    0  501  0.00000000000E+00  0.00000000000E+00  0.11269270278E+04  0.11269270278E+04  0.25500000920E-02 0.  1.
        2   -1    0    0  501    0  0.00000000000E+00  0.00000000000E+00 -0.26581801095E+04  0.26581801095E+04  0.25500000920E-02 0. -1.
    10030    2    1    2    0    0  0.00000000000E+00  0.00000000000E+00 -0.15312530817E+04  0.37851071373E+04  0.34615459033E+04 0.  0.
        2    1    3    3  502    0 -0.17247596672E+04 -0.12502639059E+03 -0.84407896301E+03  0.19242912471E+04  0.25500000920E-02 0. -1.
       -2    1    3    3    0  502  0.17247596672E+04  0.12502639059E+03 -0.68717411870E+03  0.18608158902E+04  0.25500000920E-02 0.  1.
</event>
<event>
 5   0  0.4591195E-07  0.3472981E+04  0.7818609E-02  0.8120223E-01
        1   -1    0    0  501    0  0.00000000000E+00  0.00000000000E+00  0.21455912447E+04  0.21455912447E+04  0.50400001928E-02 0.  1.
       -1   -1    0    0    0  501  0.00000000000E+00  0.00000000000E+00 -0.14053933950E+04  0.14053933950E+04  0.50400001928E-02 0. -1.
    10030    2    1    2    0    0  0.00000000000E+00  0.00000000000E+00  0.74019784974E+03  0.35509846397E+04  0.34729812920E+04 0.  0.
        4    1    3    3  502    0 -0.11689028785E+04  0.16364948165E+03  0.16723948039E+04  0.20469540994E+04  0.12699999809E+01 0.  1.
       -4    1    3    3    0  502  0.11689028785E+04 -0.16364948165E+03 -0.93219695411E+03  0.15040305403E+04  0.12699999809E+01 0. -1.
</event>
<event>
 5   0  0.1348388E-06  0.3537195E+04  0.7818609E-02  0.8105031E-01
       -2   -1    0    0    0  501  0.00000000000E+00  0.00000000000E+00  0.15499669840E+04  0.15499669840E+04  0.25500000920E-02 0. -1.
        2   -1    0    0  501    0  0.00000000000E+00  0.00000000000E+00 -0.20180665443E+04  0.20180665443E+04  0.25500000920E-02 0.  1.
    10030    2    1    2    0    0  0.00000000000E+00  0.00000000000E+00 -0.46809956024E+03  0.35680335283E+04  0.35371946598E+04 0.  0.
        5    1    3    3  502    0 -0.10216833829E+04  0.13541382472E+04  0.27069976846E+03  0.17177973635E+04  0.46999998093E+01 0. -1.
       -5    1    3    3    0  502  0.10216833829E+04 -0.13541382472E+04 -0.73879932871E+03  0.18502361648E+04  0.46999998093E+01 0.  1.
</event>
<event>
 5   0  0.4557237E-07  0.3306471E+04  0.7818609E-02  0.8161251E-01
        1   -1    0    0  501    0  0.00000000000E+00  0.00000000000E+00  0.16889934684E+04  0.16889934684E+04  0.50400001928E-02 0.  1.
       -1   -1    0    0    0  501  0.00000000000E+00  0.00000000000E+00 -0.16182350558E+04  0.16182350559E+04  0.50400001928E-02 0. -1.
    10030    2    1    2    0    0  0.00000000000E+00  0.00000000000E+00  0.70758412516E+02  0.33072285242E+04  0.33064714967E+04 0.  0.
        2    1    3    3  502    0 -0.92679629634E+03 -0.13563524177E+04 -0.15052669483E+03  0.16496367908E+04  0.25500000920E-02 0.  1.
       -2    1    3    3    0  502  0.92679629634E+03  0.13563524177E+04  0.22128510735E+03  0.16575917334E+04  0.25500000920E-02 0. -1.
</event>
<event>
 5   0  0.4693374E-07  0.3533747E+04  0.7818609E-02  0.8105839E-01
        1   -1    0    0  501    0  0.00000000000E+00  0.00000000000E+00  0.18644145127E+04  0.18644145127E+04  0.50400001928E-02 0. -1.
       -1   -1    0    0    0  501  0.00000000000E+00  0.00000000000E+00 -0.16744358010E+04  0.16744358010E+04  0.50400001928E-02 0.  1.
    10030    2    1    2    0    0  0.00000000000E+00  0.00000000000E+00  0.18997871168E+03  0.35388503137E+04  0.35337472507E+04 0.  0.
        1    1    3    3  502    0  0.13198679474E+04  0.12903320547E+03 -0.10742331604E+04  0.17066569221E+04  0.50400001928E-02 0.  1.
       -1    1    3    3    0  502 -0.13198679474E+04 -0.12903320547E+03  0.12642118721E+04  0.18321933916E+04  0.50400001928E-02 0. -1.
</event>
<event>
 5   0  0.4409125E-07  0.3479516E+04  0.7818609E-02  0.8118662E-01
       -1   -1    0    0    0  501  0.00000000000E+00  0.00000000000E+00  0.24721111989E+04  0.24721111989E+04  0.50400001928E-02 0. -1.
        1   -1    0    0  501    0  0.00000000000E+00  0.00000000000E+00 -0.12243617643E+04  0.12243617643E+04  0.50400001928E-02 0.  1.
    10030    2    1    2    0    0  0.00000000000E+00  0.00000000000E+00  0.12477494345E+04  0.36964729632E+04  0.34795163049E+04 0.  0.
        5    1    3    3  502    0  0.10470581247E+04 -0.12333553974E+04  0.13034815581E+04  0.20776386874E+04  0.46999998093E+01 0. -1.
       -5    1    3    3    0  502 -0.10470581247E+04  0.12333553974E+04 -0.55732123590E+02  0.16188342758E+04  0.46999998093E+01 0.  1.
</event>
<event>
 5   0  0.4591195E-07  0.3502134E+04  0.7818609E-02  0.8113285E-01
        1   -1    0    0  501    0  0.00000000000E+00  0.00000000000E+00  0.16876384239E+04  0.16876384239E+04  0.50400001928E-02 0.  1.
       -1   -1    0    0    0  501  0.00000000000E+00  0.00000000000E+00 -0.18168789958E+04  0.18168789958E+04  0.50400001928E-02 0. -1.
    10030    2    1    2    0    0  0.00000000000E+00  0.00000000000E+00 -0.12924057183E+03  0.35045174197E+04  0.35021335240E+04 0.  0.
        4    1    3    3  502    0  0.57687030740E+03  0.11467081262E+04  0.11272044207E+04  0.17083062656E+04  0.12699999809E+01 0.  1.
       -4    1    3    3    0  502 -0.57687030740E+03 -0.11467081262E+04 -0.12564449925E+04  0.17962111541E+04  0.12699999809E+01 0. -1.
</event>
<event>
 5   0  0.1442864E-06  0.3576379E+04  0.7818609E-02  0.8095924E-01
       -2   -1    0    0    0  501  0.00000000000E+00  0.00000000000E+00  0.14773921154E+04  0.14773921154E+04  0.25500000920E-02 0. -1.
        2   -1    0    0  501    0  0.00000000000E+00  0.00000000000E+00 -0.21643695764E+04  0.21643695764E+04  0.25500000920E-02 0.  1.
    10030    2    1    2    0    0  0.00000000000E+00  0.00000000000E+00 -0.68697746106E+03  0.36417616918E+04  0.35763794804E+04 0.  0.
        1    1    3    3  502    0  0.35256904996E+03  0.14082735280E+04 -0.14066466250E+04  0.20214336478E+04  0.50400001928E-02 0.  1.
       -1    1    3    3    0  502 -0.35256904996E+03 -0.14082735280E+04  0.71966916396E+03  0.16203280440E+04  0.50400001928E-02 0. -1.
</event>
<event>
 5   0  0.4693374E-07  0.3531242E+04  0.7818609E-02  0.8106426E-01
        1   -1    0    0  501    0  0.00000000000E+00  0.00000000000E+00  0.21472919143E+04  0.21472919143E+04  0.50400001928E-02 0. -1.
       -1   -1    0    0    0  501  0.00000000000E+00  0.00000000000E+00 -0.14517904268E+04  0.14517904268E+04  0.50400001928E-02 0.  1.
    10030    2    1    2    0    0  0.00000000000E+00  0.00000000000E+00  0.69550148750E+03  0.35990823410E+04  0.35312421863E+04 0.  0.
        1    1    3    3  502    0 -0.12370634748E+04  0.10143404834E+04 -0.41373401036E+03  0.16523887219E+04  0.50400001928E-02 0.  1.
       -1    1    3    3    0  502  0.12370634748E+04 -0.10143404834E+04  0.11092354979E+04  0.19466936191E+04  0.50400001928E-02 0. -1.
</event>
<event>
 5   0  0.1361560E-06  0.3480702E+04  0.7818609E-02  0.8118379E-01
       -2   -1    0    0    0  501  0.00000000000E+00  0.00000000000E+00  0.14346637122E+04  0.14346637122E+04  0.25500000920E-02 0. -1.
        2   -1    0    0  501    0  0.00000000000E+00  0.00000000000E+00 -0.21111712948E+04  0.21111712948E+04  0.25500000920E-02 0.  1.
    10030    2    1    2    0    0  0.00000000000E+00  0.00000000000E+00 -0.67650758254E+03  0.35458350070E+04  0.34807015654E+04 0.  0.
        3    1    3    3  502    0 -0.89875669877E+03  0.24104898684E+03 -0.18364725754E+04  0.20587617026E+04  0.10100000352E+00 0.  1.
       -3    1    3    3    0  502  0.89875669877E+03 -0.24104898684E+03  0.11599649929E+04  0.14870733044E+04  0.10100000352E+00 0. -1.
</event>
<event>
 5   0  0.1442864E-06  0.3507484E+04  0.7818609E-02  0.8112019E-01
        2   -1    0    0  501    0  0.00000000000E+00  0.00000000000E+00  0.14638898256E+04  0.14638898256E+04  0.25500000920E-02 0.  1.
       -2   -1    0    0    0  501  0.00000000000E+00  0.00000000000E+00 -0.21009854409E+04  0.21009854409E+04  0.25500000920E-02 0. -1.
    10030    2    1    2    0    0  0.00000000000E+00  0.00000000000E+00 -0.63709561529E+03  0.35648752665E+04  0.35074841186E+04 0.  0.
        1    1    3    3  502    0  0.84741802463E+03 -0.24997825724E+02 -0.18788774118E+04  0.20612914710E+04  0.50400001928E-02 0. -1.
       -1    1    3    3    0  502 -0.84741802463E+03  0.24997825724E+02  0.12417817965E+04  0.15035837955E+04  0.50400001928E-02 0.  1.
</event>
<event>
 5   0  0.1442864E-06  0.3524259E+04  0.7818609E-02  0.8108065E-01
        2   -1    0    0  501    0  0.00000000000E+00  0.00000000000E+00  0.21862204911E+04  0.21862204911E+04  0.25500000920E-02 0. -1.
       -2   -1    0    0    0  501  0.00000000000E+00  0.00000000000E+00 -0.14203049563E+04  0.14203049563E+04  0.25500000920E-02 0.  1.
    10030    2    1    2    0    0  0.00000000000E+00  0.00000000000E+00  0.76591553477E+03  0.36065254474E+04  0.35242586733E+04 0.  0.
        1    1    3    3  502    0  0.46096529441E+02  0.10434414266E+04 -0.10693981134E+04  0.14948268213E+04  0.50400001928E-02 0.  1.
       -1    1    3    3    0  502 -0.46096529441E+02 -0.10434414266E+04  0.18353136481E+04  0.21116986262E+04  0.50400001928E-02 0. -1.
</event>
<event>
 5   0  0.1348388E-06  0.3390382E+04  0.7818609E-02  0.8140271E-01
       -2   -1    0    0    0  501  0.00000000000E+00  0.00000000000E+00  0.13943145985E+04  0.13943145985E+04  0.25500000920E-02 0.  1.
        2   -1    0    0  501    0  0.00000000000E+00  0.00000000000E+00 -0.20609929303E+04  0.20609929303E+04  0.25500000920E-02 0. -1.
    10030    2    1    2    0    0  0.00000000000E+00  0.00000000000E+00 -0.66667833180E+03  0.34553075287E+04  0.33903820021E+04 0.  0.
        5    1    3    3  502    0 -0.40746768159E+03 -0.61585002774E+03 -0.18884528283E+04  0.20277024789E+04  0.46999998093E+01 0. -1.
       -5    1    3    3    0  502  0.40746768159E+03  0.61585002774E+03  0.12217744965E+04  0.14276050499E+04  0.46999998093E+01 0.  1.
</event>
<event>
 5   0  0.4409125E-07  0.3476277E+04  0.7818609E-02  0.8119435E-01
        1   -1    0    0  501    0  0.00000000000E+00  0.00000000000E+00  0.20628813778E+04  0.20628813778E+04  0.50400001928E-02 0.  1.
       -1   -1    0    0    0  501  0.00000000000E+00  0.00000000000E+00 -0.14645170337E+04  0.14645170338E+04  0.50400001928E-02 0. -1.
    10030    2    1    2    0    0  0.00000000000E+00  0.00000000000E+00  0.59836434401E+03  0.35273984115E+04  0.34762766958E+04 0.  0.
        5    1    3    3  502    0 -0.12004886511E+04 -0.21104560352E+03 -0.95814839027E+03  0.15504140337E+04  0.46999998093E+01 0. -1.
       -5    1    3    3    0  502  0.12004886511E+04  0.21104560352E+03  0.15565127343E+04  0.19769843778E+04  0.46999998093E+01 0.  1.
</event>
<event>
 5   0  0.1361560E-06  0.3580110E+04  0.7818609E-02  0.8095063E-01
        2   -1    0    0  501    0  0.00000000000E+00  0.00000000000E+00  0.17773787018E+04  0.17773787018E+04  0.25500000920E-02 0. -1.
       -2   -1    0    0    0  501  0.00000000000E+00  0.00000000000E+00 -0.18028219679E+04  0.18028219679E+04  0.25500000920E-02 0.  1.
    10030    2    1    2    0    0  0.00000000000E+00  0.00000000000E+00 -0.25443266168E+02  0.35802006697E+04  0.35801102602E+04 0.  0.
        3    1    3    3  502    0  0.15491236159E+04 -0.67017812001E+03 -0.60886978392E+03  0.17943369566E+04  0.10100000352E+00 0.  1.
       -3    1    3    3    0  502 -0.15491236159E+04  0.67017812001E+03  0.58342651775E+03  0.17858637131E+04  0.10100000352E+00 0. -1.
</event>
<event>
 5   0  0.4591195E-07  0.3472356E+04  0.7818609E-02  0.8120373E-01
        1   -1    0    0  501    0  0.00000000000E+00  0.00000000000E+00  0.20073511503E+04  0.20073511503E+04  0.50400001928E-02 0.  1.
       -1   -1    0    0    0  501  0.00000000000E+00  0.00000000000E+00 -0.15016373969E+04  0.15016373969E+04  0.50400001928E-02 0. -1.
    10030    2    1    2    0    0  0.00000000000E+00  0.00000000000E+00  0.50571375342E+03  0.35089885472E+04  0.34723557168E+04 0.  0.
        4    1    3    3  502    0 -0.56977984263E+03  0.17977211460E+03  0.19001910257E+04  0.19919072843E+04  0.12699999809E+01 0.  1.
       -4    1    3    3    0  502  0.56977984263E+03 -0.17977211460E+03 -0.13944772723E+04  0.15170812628E+04  0.12699999809E+01 0. -1.
</event>
<event>
 5   0  0.4693374E-07  0.3586946E+04  0.7818609E-02  0.8093488E-01
       -1   -1    0    0    0  501  0.00000000000E+00  0.00000000000E+00  0.12293489383E+04  0.12293489383E+04  0.50400001928E-02 0.  1.
        1   -1    0    0  501    0  0.00000000000E+00  0.00000000000E+00 -0.26164627971E+04  0.26164627971E+04  0.50400001928E-02 0. -1.
    10030    2    1    2    0    0  0.00000000000E+00  0.00000000000E+00 -0.13871138589E+04  0.38458117354E+04  0.35869462007E+04 0.  0.
        1    1    3    3  502    0 -0.22158971452E+03  0.15987105348E+04  0.14490948474E+03  0.16204863882E+04  0.50400001928E-02 0.  1.
       -1    1    3    3    0  502  0.22158971452E+03 -0.15987105348E+04 -0.15320233436E+04  0.22253253472E+04  0.50400001928E-02 0. -1.
</event>
<event>
 5   0  0.4700769E-07  0.2744709E+04  0.7818609E-02  0.8320643E-01
        1   -1    0    0  501    0  0.00000000000E+00  0.00000000000E+00  0.94349240832E+03  0.94349240834E+03  0.50400001928E-02 0. -1.
       -1   -1    0    0    0  501  0.00000000000E+00  0.00000000000E+00 -0.19961546788E+04  0.19961546788E+04  0.50400001928E-02 0.  1.
    10030    2    1    2    0    0  0.00000000000E+00  0.00000000000E+00 -0.10526622704E+04  0.29396470871E+04  0.27447089356E+04 0.  0.
        3    1    3    3  502    0 -0.71073836384E+03  0.11563693849E+04 -0.74324335373E+03  0.15474979383E+04  0.10100000352E+00 0. -1.
       -3    1    3    3    0  502  0.71073836384E+03 -0.11563693849E+04 -0.30941891670E+03  0.13921491487E+04  0.10100000352E+00 0.  1.
</event>
<event>
 5   0  0.4700769E-07  0.3372473E+04  0.7818609E-02  0.8144696E-01
       -1   -1    0    0    0  501  0.00000000000E+00  0.00000000000E+00  0.15133493183E+04  0.15133493184E+04  0.50400001928E-02 0.  1.
        1   -1    0    0  501    0  0.00000000000E+00  0.00000000000E+00 -0.18788744756E+04  0.18788744756E+04  0.50400001928E-02 0. -1.
    10030    2    1    2    0    0  0.00000000000E+00  0.00000000000E+00 -0.36552515722E+03  0.33922237939E+04  0.33724729247E+04 0.  0.
        3    1    3    3  502    0 -0.15709296511E+04 -0.42605587518E+03 -0.62585328964E+03  0.17438566248E+04  0.10100000352E+00 0. -1.
       -3    1    3    3    0  502  0.15709296511E+04  0.42605587518E+03  0.26032813242E+03  0.16483671691E+04  0.10100000352E+00 0.  1.
</event>
<event>
 5   0  0.1378620E-06  0.3491827E+04  0.7818609E-02  0.8115729E-01
        2   -1    0    0  501    0  0.00000000000E+00  0.00000000000E+00  0.16752146451E+04  0.16752146451E+04  0.25500000920E-02 0. -1.
       -2   -1    0    0    0  501  0.00000000000E+00  0.00000000000E+00 -0.18195965215E+04  0.18195965215E+04  0.25500000920E-02 0.  1.
    10030    2    1    2    0    0  0.00000000000E+00  0.00000000000E+00 -0.14438187634E+03  0.34948111666E+04  0.34918274533E+04 0.  0.
        2    1    3    3  502    0 -0.51057449566E+03 -0.15631703466E+04  0.51484830700E+03  0.17231531062E+04  0.25500000920E-02 0.  1.
       -2    1    3    3    0  502  0.51057449566E+03  0.15631703466E+04 -0.65923018333E+03  0.17716580604E+04  0.25500000920E-02 0. -1.
</event>
<event>
 5   0  0.4409125E-07  0.3149866E+04  0.7818609E-02  0.8202184E-01
       -1   -1    0    0    0  501  0.00000000000E+00  0.00000000000E+00  0.11091055375E+04  0.11091055375E+04  0.50400001928E-02 0.  1.
        1   -1    0    0  501    0  0.00000000000E+00  0.00000000000E+00 -0.22364093901E+04  0.22364093901E+04  0.50400001928E-02 0. -1.
    10030    2    1    2    0    0  0.00000000000E+00  0.00000000000E+00 -0.11273038526E+04  0.33455149276E+04  0.31498660535E+04 0.  0.
        5    1    3    3  502    0  0.46999559931E+03  0.58322559501E+02 -0.21589782657E+04  0.22103182182E+04  0.46999998093E+01 0. -1.
       -5    1    3    3    0  502 -0.46999559931E+03 -0.58322559501E+02  0.10316744131E+04  0.11351967094E+04  0.46999998093E+01 0.  1.
</event>
<event>
 5   0  0.1348388E-06  0.3523867E+04  0.7818609E-02  0.8108157E-01
        2   -1    0    0  501    0  0.00000000000E+00  0.00000000000E+00  0.15389221931E+04  0.15389221931E+04  0.25500000920E-02 0. -1.
       -2   -1    0    0    0  501  0.00000000000E+00  0.00000000000E+00 -0.20172620461E+04  0.20172620462E+04  0.25500000920E-02 0.  1.
    10030    2    1    2    0    0  0.00000000000E+00  0.00000000000E+00 -0.47833985308E+03  0.35561842392E+04  0.35238668148E+04 0.  0.
        5    1    3    3  502    0 -0.91790248591E+03 -0.13186720802E+04  0.49061229362E+03  0.16799296239E+04  0.46999998093E+01 0. -1.
       -5    1    3    3    0  502  0.91790248591E+03  0.13186720802E+04 -0.96895214670E+03  0.18762546153E+04  0.46999998093E+01 0.  1.
</event>
<event>
 5   0  0.4557237E-07  0.3486480E+04  0.7818609E-02  0.8117001E-01
       -1   -1    0    0    0  501  0.00000000000E+00  0.00000000000E+00  0.30121111273E+04  0.30121111273E+04  0.50400001928E-02 0.  1.
        1   -1    0    0  501    0  0.00000000000E+00  0.00000000000E+00 -0.10088891005E+04  0.10088891005E+04  0.50400001928E-02 0. -1.
    10030    2    1    2    0    0  0.00000000000E+00  0.00000000000E+00  0.20032220268E+04  0.40210002278E+04  0.34864802227E+04 0.  0.
        2    1    3    3  502    0  0.22331570894E+03 -0.16843488955E+04  0.14512326730E+04  0.22344971199E+04  0.25500000920E-02 0. -1.
       -2    1    3    3    0  502 -0.22331570894E+03  0.16843488955E+04  0.55198935378E+03  0.17865031079E+04  0.25500000920E-02 0.  1.
</event>
<event>
 5   0  0.4557237E-07  0.3536215E+04  0.7818609E-02  0.8105261E-01
       -1   -1    0    0    0  501  0.00000000000E+00  0.00000000000E+00  0.18779612620E+04  0.18779612620E+04  0.50400001928E-02 0.  1.
        1   -1    0    0  501    0  0.00000000000E+00  0.00000000000E+00 -0.16646798250E+04  0.16646798250E+04  0.50400001928E-02 0. -1.
    10030    2    1    2    0    0  0.00000000000E+00  0.00000000000E+00  0.21328143697E+03  0.35426410870E+04  0.35362150528E+04 0.  0.
        2    1    3    3  502    0 -0.17573383748E+04  0.40737483566E+02 -0.84248232748E+02  0.17598282504E+04  0.25500000920E-02 0. -1.
       -2    1    3    3    0  502  0.17573383748E+04 -0.40737483566E+02  0.29752966972E+03  0.17828128366E+04  0.25500000920E-02 0.  1.
</event>
<event>
 5   0  0.4693374E-07  0.3503400E+04  0.7818609E-02  0.8112985E-01
        1   -1    0    0  501    0  0.00000000000E+00  0.00000000000E+00  0.23307766474E+04  0.23307766474E+04  0.50400001928E-02 0.  1.
       -1   -1    0    0    0  501  0.00000000000E+00  0.00000000000E+00 -0.13164940350E+04  0.13164940350E+04  0.50400001928E-02 0. -1.
    10030    2    1    2    0    0  0.00000000000E+00  0.00000000000E+00  0.10142826124E+04  0.36472706824E+04  0.35034003786E+04 0.  0.
        1    1    3    3  502    0  0.10513098179E+04  0.12482617471E+04 -0.15542482806E+03  0.16393799436E+04  0.50400001928E-02 0. -1.
       -1    1    3    3    0  502 -0.10513098179E+04 -0.12482617471E+04  0.11697074405E+04  0.20078907387E+04  0.50400001928E-02 0.  1.
</event>
<event>
 5   0  0.4557237E-07  0.3494904E+04  0.7818609E-02  0.8114999E-01
        1   -1    0    0  501    0  0.00000000000E+00  0.00000000000E+00  0.18013317509E+04  0.18013317509E+04  0.50400001928E-02 0. -1.
       -1   -1    0    0    0  501  0.00000000000E+00  0.00000000000E+00 -0.16951842669E+04  0.16951842669E+04  0.50400001928E-02 0.  1.
    10030    2    1    2    0    0  0.00000000000E+00  0.00000000000E+00  0.10614748398E+03  0.34965160179E+04  0.34949044300E+04 0.  0.
        2    1    3    3  502    0 -0.36628836985E+02  0.94900040996E+03  0.15205990763E+04  0.17928092483E+04  0.25500000920E-02 0. -1.
       -2    1    3    3    0  502  0.36628836985E+02 -0.94900040996E+03 -0.14144515923E+04  0.17037067696E+04  0.25500000920E-02 0.  1.
</event>
<event>
 5   0  0.1442864E-06  0.3481241E+04  0.7818609E-02  0.8118250E-01
       -2   -1    0    0    0  501  0.00000000000E+00  0.00000000000E+00  0.13457591023E+04  0.13457591023E+04  0.25500000920E-02 0. -1.
        2   -1    0    0  501    0  0.00000000000E+00  0.00000000000E+00 -0.22513392020E+04  0.22513392020E+04  0.25500000920E-02 0.  1.
    10030    2    1    2    0    0  0.00000000000E+00  0.00000000000E+00 -0.90558009975E+03  0.35970983043E+04  0.34812412863E+04 0.  0.
        1    1    3    3  502    0  0.59820127888E+03 -0.66650694038E+03 -0.19950052149E+04  0.21868063653E+04  0.50400001928E-02 0.  1.
       -1    1    3    3    0  502 -0.59820127888E+03  0.66650694038E+03  0.10894251152E+04  0.14102919390E+04  0.50400001928E-02 0. -1.
</event>
<event>
 5   0  0.1442864E-06  0.3542084E+04  0.7818609E-02  0.8103888E-01
        2   -1    0    0  501    0  0.00000000000E+00  0.00000000000E+00  0.30501638951E+04  0.30501638951E+04  0.25500000920E-02 0. -1.
       -2   -1    0    0    0  501  0.00000000000E+00  0.00000000000E+00 -0.10283349066E+04  0.10283349066E+04  0.25500000920E-02 0.  1.
    10030    2    1    2    0    0  0.00000000000E+00  0.00000000000E+00  0.20218289885E+04  0.40784988017E+04  0.35420841346E+04 0.  0.
        1    1    3    3  502    0  0.15775440224E+03 -0.12962951913E+04  0.23884734346E+04  0.27221449304E+04  0.50400001928E-02 0. -1.
       -1    1    3    3    0  502 -0.15775440224E+03  0.12962951913E+04 -0.36664444605E+03  0.13563538713E+04  0.50400001928E-02 0.  1.
</event>
<event>
 5   0  0.4591195E-07  0.3542435E+04  0.7818609E-02  0.8103806E-01
        1   -1    0    0  501    0  0.00000000000E+00  0.00000000000E+00  0.10650898042E+04  0.10650898042E+04  0.50400001928E-02 0.  1.
       -1   -1    0    0    0  501  0.00000000000E+00  0.00000000000E+00 -0.29454907662E+04  0.29454907662E+04  0.50400001928E-02 0. -1.
    10030    2    1    2    0    0  0.00000000000E+00  0.00000000000E+00 -0.18804009620E+04  0.40105805705E+04  0.35424354241E+04 0.  0.
        4    1    3    3  502    0  0.12456521957E+04 -0.10281437249E+04 -0.11716176858E+03  0.16194003226E+04  0.12699999809E+01 0.  1.
       -4    1    3    3    0  502 -0.12456521957E+04  0.10281437249E+04 -0.17632391935E+04  0.23911802479E+04  0.12699999809E+01 0. -1.
</event>
<event>
 5   0  0.1348388E-06  0.3466749E+04  0.7818609E-02  0.8121716E-01
        2   -1    0    0  501    0  0.00000000000E+00  0.00000000000E+00  0.15779453402E+04  0.15779453402E+04  0.25500000920E-02 0. -1.
       -2   -1    0    0    0  501  0.00000000000E+00  0.00000000000E+00 -0.19041132455E+04  0.19041132455E+04  0.25500000920E-02 0.  1.
    10030    2    1    2    0    0  0.00000000000E+00  0.00000000000E+00 -0.32616790522E+03  0.34820585857E+04  0.34667486918E+04 0.  0.
        5    1    3    3  502    0  0.10210164238E+04  0.51108724948E+03  0.11468534045E+04  0.16183261524E+04  0.46999998093E+01 0. -1.
       -5    1    3    3    0  502 -0.10210164238E+04 -0.51108724948E+03 -0.14730213097E+04  0.18637324333E+04  0.46999998093E+01 0.  1.
</event>
<event>
 5   0  0.4409125E-07  0.3542415E+04  0.7818609E-02  0.8103811E-01
        1   -1    0    0  501    0  0.00000000000E+00  0.00000000000E+00  0.21566581219E+04  0.21566581219E+04  0.50400001928E-02 0. -1.
       -1   -1    0    0    0  501  0.00000000000E+00  0.00000000000E+00 -0.14546467371E+04  0.14546467372E+04  0.50400001928E-02 0.  1.
    10030    2    1    2    0    0  0.00000000000E+00  0.00000000000E+00  0.70201138476E+03  0.36113048591E+04  0.35424148262E+04 0.  0.
        5    1    3    3  502    0 -0.87667130930E+03  0.13469646853E+04 -0.40797747689E+03  0.16581116246E+04  0.46999998093E+01 0.  1.
       -5    1    3    3    0  502  0.87667130930E+03 -0.13469646853E+04  0.11099888617E+04  0.19531932344E+04  0.46999998093E+01 0. -1.
</event>
<event>
 5   0  0.4557237E-07  0.3469661E+04  0.7818609E-02  0.8121018E-01
       -1   -1    0    0    0  501  0.00000000000E+00  0.00000000000E+00  0.16948048242E+04  0.16948048242E+04  0.50400001928E-02 0.  1.
        1   -1    0    0  501    0  0.00000000000E+00  0.00000000000E+00 -0.17758015490E+04  0.17758015490E+04  0.50400001928E-02 0. -1.
    10030    2    1    2    0    0  0.00000000000E+00  0.00000000000E+00 -0.80996724767E+02  0.34706063732E+04  0.34696610970E+04 0.  0.
        2    1    3    3  502    0  0.12331149733E+04  0.13441335650E+03  0.11726789420E+04  0.17069901549E+04  0.25500000920E-02 0.  1.
       -2    1    3    3    0  502 -0.12331149733E+04 -0.13441335650E+03 -0.12536756668E+04  0.17636162183E+04  0.25500000920E-02 0. -1.
</event>
<event>
 5   0  0.1348388E-06  0.3389266E+04  0.7818609E-02  0.8140546E-01
       -2   -1    0    0    0  501  0.00000000000E+00  0.00000000000E+00  0.14285480106E+04  0.14285480106E+04  0.25500000920E-02 0.  1.
        2   -1    0    0  501    0  0.00000000000E+00  0.00000000000E+00 -0.20102801206E+04  0.20102801206E+04  0.25500000920E-02 0. -1.
    10030    2    1    2    0    0  0.00000000000E+00  0.00000000000E+00 -0.58173211000E+03  0.34388281313E+04  0.33892663909E+04 0.  0.
        5    1    3    3  502    0  0.58484995497E+03  0.80946549695E+03 -0.16800017630E+04  0.19544083182E+04  0.46999998093E+01 0. -1.
       -5    1    3    3    0  502 -0.58484995497E+03 -0.80946549695E+03  0.10982696530E+04  0.14844198130E+04  0.46999998093E+01 0.  1.
</event>
<event>
 5   0  0.1442864E-06  0.3411376E+04  0.7818609E-02  0.8135120E-01
       -2   -1    0    0    0  501  0.00000000000E+00  0.00000000000E+00  0.13313978320E+04  0.13313978320E+04  0.25500000920E-02 0. -1.
        2   -1    0    0  501    0  0.00000000000E+00  0.00000000000E+00 -0.21852013623E+04  0.21852013623E+04  0.25500000920E-02 0.  1.
    10030    2    1    2    0    0  0.00000000000E+00  0.00000000000E+00 -0.85380353032E+03  0.35165991943E+04  0.34113764708E+04 0.  0.
        1    1    3    3  502    0  0.10894221759E+04  0.30518487130E+02 -0.17794706346E+04  0.20866930284E+04  0.50400001928E-02 0.  1.
       -1    1    3    3    0  502 -0.10894221759E+04 -0.30518487130E+02  0.92566710429E+03  0.14299061659E+04  0.50400001928E-02 0. -1.
</event>
<event>
 5   0  0.4591195E-07  0.3354379E+04  0.7818609E-02  0.8149195E-01
       -1   -1    0    0    0  501  0.00000000000E+00  0.00000000000E+00  0.25558412417E+04  0.25558412417E+04  0.50400001928E-02 0. -1.
        1   -1    0    0  501    0  0.00000000000E+00  0.00000000000E+00 -0.11006023642E+04  0.11006023642E+04  0.50400001928E-02 0.  1.
    10030    2    1    2    0    0  0.00000000000E+00  0.00000000000E+00  0.14552388775E+04  0.36564436059E+04  0.33543791755E+04 0.  0.
        4    1    3    3  502    0  0.14622248256E+04  0.62630666443E+03  0.14814510474E+03  0.15975950874E+04  0.12699999809E+01 0.  1.
       -4    1    3    3    0  502 -0.14622248256E+04 -0.62630666443E+03  0.13070937728E+04  0.20588485185E+04  0.12699999809E+01 0. -1.
</event>
<event>
 5   0  0.4409125E-07  0.3504016E+04  0.7818609E-02  0.8112839E-01
       -3   -1    0    0    0  501  0.00000000000E+00  0.00000000000E+00  0.15563120383E+04  0.15563120415E+04  0.10100000352E+00 0.  1.
        3   -1    0    0  501    0  0.00000000000E+00  0.00000000000E+00 -0.19723111987E+04  0.19723112012E+04  0.10100000352E+00 0. -1.
    10030    2    1    2    0    0  0.00000000000E+00  0.00000000000E+00 -0.41599916041E+03  0.35286232428E+04  0.35040157945E+04 0.  0.
        4    1    3    3  502    0  0.80891814497E+03 -0.14391627985E+04 -0.79862667268E+03  0.18339422840E+04  0.12699999809E+01 0. -1.
       -4    1    3    3    0  502 -0.80891814497E+03  0.14391627985E+04  0.38262751227E+03  0.16946809588E+04  0.12699999809E+01 0.  1.
</event>
<event>
 5   0  0.4409125E-07  0.3483587E+04  0.7818609E-02  0.8117691E-01
        1   -1    0    0  501    0  0.00000000000E+00  0.00000000000E+00  0.15631447449E+04  0.15631447449E+04  0.50400001928E-02 0. -1.
       -1   -1    0    0    0  501  0.00000000000E+00  0.00000000000E+00 -0.19408601886E+04  0.19408601887E+04  0.50400001928E-02 0.  1.
    10030    2    1    2    0    0  0.00000000000E+00  0.00000000000E+00 -0.37771544377E+03  0.35040049335E+04  0.34835874638E+04 0.  0.
        5    1    3    3  502    0 -0.36370246530E+03 -0.16473301053E+04 -0.62481158697E+03  0.17989962669E+04  0.46999998093E+01 0.  1.
       -5    1    3    3    0  502  0.36370246530E+03  0.16473301053E+04  0.24709614321E+03  0.17050086666E+04  0.46999998093E+01 0. -1.
</event>
<event>
 5   0  0.4700769E-07  0.3494989E+04  0.7818609E-02  0.8114979E-01
        1   -1    0    0  501    0  0.00000000000E+00  0.00000000000E+00  0.23391889245E+04  0.23391889245E+04  0.50400001928E-02 0. -1.
       -1   -1    0    0    0  501  0.00000000000E+00  0.00000000000E+00 -0.13054679711E+04  0.13054679711E+04  0.50400001928E-02 0.  1.
    10030    2    1    2    0    0  0.00000000000E+00  0.00000000000E+00  0.10337209534E+04  0.36446568956E+04  0.34949885374E+04 0.  0.
        3    1    3    3  502    0 -0.89005178119E+03  0.14645084386E+04  0.87319361008E+03  0.19233939354E+04  0.10100000352E+00 0. -1.
       -3    1    3    3    0  502  0.89005178119E+03 -0.14645084386E+04  0.16052734334E+03  0.17212629602E+04  0.10100000352E+00 0.  1.
</event>
<event>
 5   0  0.4409125E-07  0.3987307E+04  0.7818609E-02  0.8007112E-01
       -1   -1    0    0    0  501  0.00000000000E+00  0.00000000000E+00  0.21103931183E+04  0.21103931183E+04  0.50400001928E-02 0. -1.
        1   -1    0    0  501    0  0.00000000000E+00  0.00000000000E+00 -0.18833711800E+04  0.18833711800E+04  0.50400001928E-02 0.  1.
    10030    2    1    2    0    0  0.00000000000E+00  0.00000000000E+00  0.22702193830E+03  0.39937642984E+04  0.39873066487E+04 0.  0.
        5    1    3    3  502    0 -0.16698942514E+04  0.34492157533E+03 -0.92117404322E+03  0.19380664106E+04  0.46999998093E+01 0.  1.
       -5    1    3    3    0  502  0.16698942514E+04 -0.34492157533E+03  0.11481959815E+04  0.20556978878E+04  0.46999998093E+01 0. -1.
</event>
<event>
 5   0  0.4591195E-07  0.3285056E+04  0.7818609E-02  0.8166708E-01
        1   -1    0    0  501    0  0.00000000000E+00  0.00000000000E+00  0.16200932819E+04  0.16200932819E+04  0.50400001928E-02 0.  1.
       -1   -1    0    0    0  501  0.00000000000E+00  0.00000000000E+00 -0.16652736829E+04  0.16652736829E+04  0.50400001928E-02 0. -1.
    10030    2    1    2    0    0  0.00000000000E+00  0.00000000000E+00 -0.45180400996E+02  0.32853669647E+04  0.32850562894E+04 0.  0.
        4    1    3    3  502    0 -0.58389922864E+03 -0.14293105712E+04  0.53784666032E+03  0.16349763488E+04  0.12699999809E+01 0.  1.
       -4    1    3    3    0  502  0.58389922864E+03  0.14293105712E+04 -0.58302706131E+03  0.16503906160E+04  0.12699999809E+01 0. -1.
</event>
<event>
 5   0  0.4409125E-07  0.3352966E+04  0.7818609E-02  0.8149547E-01
        1   -1    0    0  501    0  0.00000000000E+00  0.00000000000E+00  0.16389479623E+04  0.16389479623E+04  0.50400001928E-02 0.  1.
       -1   -1    0    0    0  501  0.00000000000E+00  0.00000000000E+00 -0.17148776184E+04  0.17148776184E+04  0.50400001928E-02 0. -1.
    10030    2    1    2    0    0  0.00000000000E+00  0.00000000000E+00 -0.75929656171E+02  0.33538255807E+04  0.33529659576E+04 0.  0.
        5    1    3    3  502    0  0.44958715359E+03  0.83968053806E+03 -0.14179493079E+04  0.17081552460E+04  0.46999998093E+01 0. -1.
       -5    1    3    3    0  502 -0.44958715359E+03 -0.83968053806E+03  0.13420196518E+04  0.16456703347E+04  0.46999998093E+01 0.  1.
</event>
<event>
 5   0  0.1387133E-06  0.3486957E+04  0.7818609E-02  0.8116888E-01
        2   -1    0    0  501    0  0.00000000000E+00  0.00000000000E+00  0.18839426266E+04  0.18839426266E+04  0.25500000920E-02 0. -1.
       -2   -1    0    0    0  501  0.00000000000E+00  0.00000000000E+00 -0.16134870409E+04  0.16134870409E+04  0.25500000920E-02 0.  1.
    10030    2    1    2    0    0  0.00000000000E+00  0.00000000000E+00  0.27045558568E+03  0.34974296674E+04  0.34869568473E+04 0.  0.
        4    1    3    3  502    0  0.28877486738E+03 -0.16429979283E+04  0.64358559595E+03  0.17880260481E+04  0.12699999809E+01 0. -1.
       -4    1    3    3    0  502 -0.28877486738E+03  0.16429979283E+04 -0.37313001027E+03  0.17094036194E+04  0.12699999809E+01 0.  1.
</event>
<event>
 5   0  0.4409125E-07  0.3483529E+04  0.7818609E-02  0.8117704E-01
       -1   -1    0    0    0  501  0.00000000000E+00  0.00000000000E+00  0.11809680053E+04  0.11809680053E+04  0.50400001928E-02 0. -1.
        1   -1    0    0  501    0  0.00000000000E+00  0.00000000000E+00 -0.25688625147E+04  0.25688625147E+04  0.50400001928E-02 0.  1.
    10030    2    1    2    0    0  0.00000000000E+00  0.00000000000E+00 -0.13878945094E+04  0.37498305200E+04  0.34835294974E+04 0.  0.
        5    1    3    3  502    0  0.10065456210E+04  0.59613816619E+03 -0.20830242940E+04  0.23890431348E+04  0.46999998093E+01 0.  1.
       -5    1    3    3    0  502 -0.10065456210E+04 -0.59613816619E+03  0.69512978461E+03  0.13607873852E+04  0.46999998093E+01 0. -1.
</event>
<event>
 5   0  0.1361560E-06  0.3470259E+04  0.7818609E-02  0.8120875E-01
       -2   -1    0    0    0  501  0.00000000000E+00  0.00000000000E+00  0.15633092673E+04  0.15633092673E+04  0.25500000920E-02 0.  1.
        2   -1    0    0  501    0  0.00000000000E+00  0.00000000000E+00 -0.19258337764E+04  0.19258337764E+04  0.25500000920E-02 0. -1.
    10030    2    1    2    0    0  0.00000000000E+00  0.00000000000E+00 -0.36252450911E+03  0.34891430438E+04  0.34702586590E+04 0.  0.
        3    1    3    3  502    0 -0.14533937616E+04 -0.69405670825E+02  0.76913458976E+03  0.16458245960E+04  0.10100000352E+00 0.  1.
       -3    1    3    3    0  502  0.14533937616E+04  0.69405670825E+02 -0.11316590989E+04  0.18433184477E+04  0.10100000352E+00 0. -1.
</event>
<event>
 5   0  0.1361560E-06  0.3476135E+04  0.7818609E-02  0.8119469E-01
       -2   -1    0    0    0  501  0.00000000000E+00  0.00000000000E+00  0.12514031288E+04  0.12514031288E+04  0.25500000920E-02 0. -1.
        2   -1    0    0  501    0  0.00000000000E+00  0.00000000000E+00 -0.24139931550E+04  0.24139931550E+04  0.25500000920E-02 0.  1.
    10030    2    1    2    0    0  0.00000000000E+00  0.00000000000E+00 -0.11625900262E+04  0.36653962837E+04  0.34761349726E+04 0.  0.
        3    1    3    3  502    0  0.99443237380E+03  0.13913228121E+04 -0.25424052816E+03  0.17289630331E+04  0.10100000352E+00 0. -1.
       -3    1    3    3    0  502 -0.99443237380E+03 -0.13913228121E+04 -0.90834949805E+03  0.19364332507E+04  0.10100000352E+00 0.  1.
</event>
<event>
 5   0  0.4557237E-07  0.2908634E+04  0.7818609E-02  0.8270313E-01
       -1   -1    0    0    0  501  0.00000000000E+00  0.00000000000E+00  0.11118018896E+04  0.11118018896E+04  0.50400001928E-02 0. -1.
        1   -1    0    0  501    0  0.00000000000E+00  0.00000000000E+00 -0.19023514781E+04  0.19023514781E+04  0.50400001928E-02 0.  1.
    10030    2    1    2    0    0  0.00000000000E+00  0.00000000000E+00 -0.79054958849E+03  0.30141533678E+04  0.29086340218E+04 0.  0.
        2    1    3    3  502    0  0.13442379407E+04 -0.41181807520E+03 -0.78088745999E+03  0.16082148468E+04  0.25500000920E-02 0. -1.
       -2    1    3    3    0  502 -0.13442379407E+04  0.41181807520E+03 -0.96621285050E+01  0.14059385210E+04  0.25500000920E-02 0.  1.
</event>
<event>
 5   0  0.1348388E-06  0.3587896E+04  0.7818609E-02  0.8093270E-01
       -2   -1    0    0    0  501  0.00000000000E+00  0.00000000000E+00  0.13254322317E+04  0.13254322317E+04  0.25500000920E-02 0.  1.
        2   -1    0    0  501    0  0.00000000000E+00  0.00000000000E+00 -0.24280751575E+04  0.24280751575E+04  0.25500000920E-02 0. -1.
    10030    2    1    2    0    0  0.00000000000E+00  0.00000000000E+00 -0.11026429259E+04  0.37535073892E+04  0.35878958038E+04 0.  0.
        5    1    3    3  502    0  0.42297718393E+03 -0.89764009710E+02 -0.23727369563E+04  0.24118188219E+04  0.46999998093E+01 0. -1.
       -5    1    3    3    0  502 -0.42297718393E+03  0.89764009710E+02  0.12700940304E+04  0.13416885673E+04  0.46999998093E+01 0.  1.
</event>
<event>
 5   0  0.4409125E-07  0.3434139E+04  0.7818609E-02  0.8129578E-01
       -1   -1    0    0    0  501  0.00000000000E+00  0.00000000000E+00  0.17471110400E+04  0.17471110400E+04  0.50400001928E-02 0.  1.
        1   -1    0    0  501    0  0.00000000000E+00  0.00000000000E+00 -0.16875444240E+04  0.16875444240E+04  0.50400001928E-02 0. -1.
    10030    2    1    2    0    0  0.00000000000E+00  0.00000000000E+00  0.59566615954E+02  0.34346554640E+04  0.34341388985E+04 0.  0.
        5    1    3    3  502    0 -0.63510402368E+03 -0.51387649361E+03  0.15402684838E+04  0.17435238065E+04  0.46999998093E+01 0.  1.
       -5    1    3    3    0  502  0.63510402368E+03  0.51387649361E+03 -0.14807018678E+04  0.16911316575E+04  0.46999998093E+01 0. -1.
</event>
<event>
 5   0  0.4557237E-07  0.3365723E+04  0.7818609E-02  0.8146371E-01
       -1   -1    0    0    0  501  0.00000000000E+00  0.00000000000E+00  0.98578594932E+03  0.98578594933E+03  0.50400001928E-02 0.  1.
        1   -1    0    0  501    0  0.00000000000E+00  0.00000000000E+00 -0.28728574021E+04  0.28728574021E+04  0.50400001928E-02 0. -1.
    10030    2    1    2    0    0  0.00000000000E+00  0.00000000000E+00 -0.18870714528E+04  0.38586433514E+04  0.33657227821E+04 0.  0.
        2    1    3    3  502    0 -0.10102705829E+04 -0.12968388086E+04 -0.13562348258E+04  0.21311523758E+04  0.25500000920E-02 0. -1.
       -2    1    3    3    0  502  0.10102705829E+04  0.12968388086E+04 -0.53083662693E+03  0.17274909756E+04  0.25500000920E-02 0.  1.
</event>
<event>
 5   0  0.1348388E-06  0.3564544E+04  0.7818609E-02  0.8098662E-01
       -2   -1    0    0    0  501  0.00000000000E+00  0.00000000000E+00  0.17119925077E+04  0.17119925077E+04  0.25500000920E-02 0. -1.
        2   -1    0    0  501    0  0.00000000000E+00  0.00000000000E+00 -0.18554362424E+04  0.18554362424E+04  0.25500000920E-02 0.  1.
    10030    2    1    2    0    0  0.00000000000E+00  0.00000000000E+00 -0.14344373479E+03  0.35674287501E+04  0.35645436990E+04 0.  0.
        5    1    3    3  502    0  0.91759821959E+01  0.17799147509E+04  0.19402012343E+02  0.17800503496E+04  0.46999998093E+01 0. -1.
       -5    1    3    3    0  502 -0.91759821959E+01 -0.17799147509E+04 -0.16284574714E+03  0.17873784005E+04  0.46999998093E+01 0.  1.
</event>
<event>
 5   0  0.1442864E-06  0.3632157E+04  0.7818609E-02  0.8083165E-01
        2   -1    0    0  501    0  0.00000000000E+00  0.00000000000E+00  0.15722034502E+04  0.15722034502E+04  0.25500000920E-02 0.  1.
       -2   -1    0    0    0  501  0.00000000000E+00  0.00000000000E+00 -0.20977826200E+04  0.20977826200E+04  0.25500000920E-02 0. -1.
    10030    2    1    2    0    0  0.00000000000E+00  0.00000000000E+00 -0.52557916978E+03  0.36699860701E+04  0.36321569750E+04 0.  0.
        1    1    3    3  502    0  0.13880409969E+04  0.14555726943E+01  0.92051004004E+03  0.16655325460E+04  0.50400001928E-02 0.  1.
       -1    1    3    3    0  502 -0.13880409969E+04 -0.14555726943E+01 -0.14460892098E+04  0.20044535242E+04  0.50400001928E-02 0. -1.
</event>
<event>
 5   0  0.4557237E-07  0.3259327E+04  0.7818609E-02  0.8173322E-01
        1   -1    0    0  501    0  0.00000000000E+00  0.00000000000E+00  0.94965610119E+03  0.94965610120E+03  0.50400001928E-02 0. -1.
       -1   -1    0    0    0  501  0.00000000000E+00  0.00000000000E+00 -0.27965947028E+04  0.27965947028E+04  0.50400001928E-02 0.  1.
    10030    2    1    2    0    0  0.00000000000E+00  0.00000000000E+00 -0.18469386016E+04  0.37462508040E+04  0.32593270607E+04 0.  0.
        2    1    3    3  502    0  0.55852963918E+03 -0.11420537885E+04 -0.20953783226E+04  0.24508881102E+04  0.25500000920E-02 0.  1.
       -2    1    3    3    0  502 -0.55852963918E+03  0.11420537885E+04  0.24843972095E+03  0.12953626939E+04  0.25500000920E-02 0. -1.
</event>
<event>
 5   0  0.1442864E-06  0.3620887E+04  0.7818609E-02  0.8085724E-01
       -2   -1    0    0    0  501  0.00000000000E+00  0.00000000000E+00  0.17043717204E+04  0.17043717204E+04  0.25500000920E-02 0. -1.
        2   -1    0    0  501    0  0.00000000000E+00  0.00000000000E+00 -0.19231163952E+04  0.19231163952E+04  0.25500000920E-02 0.  1.
    10030    2    1    2    0    0  0.00000000000E+00  0.00000000000E+00 -0.21874467475E+03  0.36274881156E+04  0.36208867417E+04 0.  0.
        1    1    3    3  502    0 -0.10169110610E+04 -0.10766722306E+04  0.93385895566E+03  0.17508351570E+04  0.50400001928E-02 0. -1.
       -1    1    3    3    0  502  0.10169110610E+04  0.10766722306E+04 -0.11526036304E+04  0.18766529586E+04  0.50400001928E-02 0.  1.
</event>
<event>
 5   0  0.4591195E-07  0.3510386E+04  0.7818609E-02  0.8111333E-01
        1   -1    0    0  501    0  0.00000000000E+00  0.00000000000E+00  0.14030654436E+04  0.14030654436E+04  0.50400001928E-02 0.  1.
       -1   -1    0    0    0  501  0.00000000000E+00  0.00000000000E+00 -0.21956941912E+04  0.21956941912E+04  0.50400001928E-02 0. -1.
    10030    2    1    2    0    0  0.00000000000E+00  0.00000000000E+00 -0.79262874763E+03  0.35987596348E+04  0.35103861009E+04 0.  0.
        4    1    3    3  502    0  0.91190809904E+03  0.12671258388E+04  0.42607574789E+03  0.16182479502E+04  0.12699999809E+01 0.  1.
       -4    1    3    3    0  502 -0.91190809904E+03 -0.12671258388E+04 -0.12187044955E+04  0.19805116846E+04  0.12699999809E+01 0. -1.
</event>
<event>
 5   0  0.1361560E-06  0.3364892E+04  0.7818609E-02  0.8146577E-01
        2   -1    0    0  501    0  0.00000000000E+00  0.00000000000E+00  0.16631798007E+04  0.16631798007E+04  0.25500000920E-02 0.  1.
       -2   -1    0    0    0  501  0.00000000000E+00  0.00000000000E+00 -0.17019356035E+04  0.17019356035E+04  0.25500000920E-02 0. -1.
    10030    2    1    2    0    0  0.00000000000E+00  0.00000000000E+00 -0.38755802796E+02  0.33651154043E+04  0.33648922229E+04 0.  0.
        3    1    3    3  502    0 -0.14412544091E+04 -0.29144231863E+03  0.79827770366E+03  0.16731408187E+04  0.10100000352E+00 0.  1.
       -3    1    3    3    0  502  0.14412544091E+04  0.29144231863E+03 -0.83703350646E+03  0.16919745855E+04  0.10100000352E+00 0. -1.
</event>
<event>
 5   0  0.4591195E-07  0.3464747E+04  0.7818609E-02  0.8122196E-01
        1   -1    0    0  501    0  0.00000000000E+00  0.00000000000E+00  0.14516182861E+04  0.14516182861E+04  0.50400001928E-02 0.  1.
       -1   -1    0    0    0  501  0.00000000000E+00  0.00000000000E+00 -0.20674292829E+04  0.20674292829E+04  0.50400001928E-02 0. -1.
    10030    2    1    2    0    0  0.00000000000E+00  0.00000000000E+00 -0.61581099678E+03  0.35190475691E+04  0.34647471206E+04 0.  0.
        4    1    3    3  502    0  0.65767281203E+03 -0.74277395359E+03 -0.17503281490E+04  0.20119385964E+04  0.12699999809E+01 0. -1.
       -4    1    3    3    0  502 -0.65767281203E+03  0.74277395359E+03  0.11345171522E+04  0.15071089726E+04  0.12699999809E+01 0.  1.
</event>
<event>
 5   0  0.1361560E-06  0.3536164E+04  0.7818609E-02  0.8105273E-01
        2   -1    0    0  501    0  0.00000000000E+00  0.00000000000E+00  0.21286496899E+04  0.21286496899E+04  0.25500000920E-02 0. -1.
       -2   -1    0    0    0  501  0.00000000000E+00  0.00000000000E+00 -0.14685899424E+04  0.14685899424E+04  0.25500000920E-02 0.  1.
    10030    2    1    2    0    0  0.00000000000E+00  0.00000000000E+00  0.66005974753E+03  0.35972396323E+04  0.35361637549E+04 0.  0.
        3    1    3    3  502    0 -0.19222430473E+03  0.16432933868E+04  0.96429714349E+03  0.19150019137E+04  0.10100000352E+00 0.  1.
       -3    1    3    3    0  502  0.19222430473E+03 -0.16432933868E+04 -0.30423739596E+03  0.16822377185E+04  0.10100000352E+00 0. -1.
</event>
<event>
 5   0  0.1387133E-06  0.3483657E+04  0.7818609E-02  0.8117674E-01
       -2   -1    0    0    0  501  0.00000000000E+00  0.00000000000E+00  0.13726839809E+04  0.13726839809E+04  0.25500000920E-02 0. -1.
        2   -1    0    0  501    0  0.00000000000E+00  0.00000000000E+00 -0.22102437765E+04  0.22102437765E+04  0.25500000920E-02 0.  1.
    10030    2    1    2    0    0  0.00000000000E+00  0.00000000000E+00 -0.83755979562E+03  0.35829277575E+04  0.34836568292E+04 0.  0.
        4    1    3    3  502    0 -0.15360602543E+03  0.34347173661E+03 -0.21679483416E+04  0.22003566233E+04  0.12699999809E+01 0.  1.
       -4    1    3    3    0  502  0.15360602543E+03 -0.34347173661E+03  0.13303885460E+04  0.13825711342E+04  0.12699999809E+01 0. -1.
</event>
<event>
 5   0  0.1378620E-06  0.3127522E+04  0.7818609E-02  0.8208225E-01
        2   -1    0    0  501    0  0.00000000000E+00  0.00000000000E+00  0.15955848536E+04  0.15955848536E+04  0.25500000920E-02 0.  1.
       -2   -1    0    0    0  501  0.00000000000E+00  0.00000000000E+00 -0.15325723530E+04  0.15325723530E+04  0.25500000920E-02 0. -1.
    10030    2    1    2    0    0  0.00000000000E+00  0.00000000000E+00  0.63012500631E+02  0.31281572066E+04  0.31275224913E+04 0.  0.
        2    1    3    3  502    0 -0.58758719391E+03  0.65981577561E+03 -0.12590011820E+04  0.15380830746E+04  0.25500000920E-02 0. -1.
       -2    1    3    3    0  502  0.58758719391E+03 -0.65981577561E+03  0.13220136826E+04  0.15900741320E+04  0.25500000920E-02 0.  1.
</event>
<event>
 5   0  0.1378620E-06  0.3499219E+04  0.7818609E-02  0.8113975E-01
        2   -1    0    0  501    0  0.00000000000E+00  0.00000000000E+00  0.20505560459E+04  0.20505560459E+04  0.25500000920E-02 0.  1.
       -2   -1    0    0    0  501  0.00000000000E+00  0.00000000000E+00 -0.14928310654E+04  0.14928310654E+04  0.25500000920E-02 0. -1.
    10030    2    1    2    0    0  0.00000000000E+00  0.00000000000E+00  0.55772498051E+03  0.35433871113E+04  0.34992192082E+04 0.  0.
        2    1    3    3  502    0 -0.35128951587E+03  0.15744253878E+04  0.96484520338E+03  0.18796664311E+04  0.25500000920E-02 0. -1.
       -2    1    3    3    0  502  0.35128951587E+03 -0.15744253878E+04 -0.40712022287E+03  0.16637206802E+04  0.25500000920E-02 0.  1.
</event>
<event>
 5   0  0.4591195E-07  0.2541733E+04  0.7818609E-02  0.8388267E-01
        1   -1    0    0  501    0  0.00000000000E+00  0.00000000000E+00  0.16804710754E+04  0.16804710754E+04  0.50400001928E-02 0. -1.
       -1   -1    0    0    0  501  0.00000000000E+00  0.00000000000E+00 -0.96110027436E+03  0.96110027437E+03  0.50400001928E-02 0.  1.
    10030    2    1    2    0    0  0.00000000000E+00  0.00000000000E+00  0.71937080106E+03  0.26415713498E+04  0.25417326466E+04 0.  0.
        4    1    3    3  502    0 -0.12448822242E+04 -0.16260007586E+03  0.56473996809E+03  0.13766275391E+04  0.12699999809E+01 0.  1.
       -4    1    3    3    0  502  0.12448822242E+04  0.16260007586E+03  0.15463083298E+03  0.12649438107E+04  0.12699999809E+01 0. -1.
</event>
<event>
 5   0  0.1378620E-06  0.3754637E+04  0.7818609E-02  0.8055960E-01
        2   -1    0    0  501    0  0.00000000000E+00  0.00000000000E+00  0.24239709783E+04  0.24239709783E+04  0.25500000920E-02 0. -1.
       -2   -1    0    0    0  501  0.00000000000E+00  0.00000000000E+00 -0.14539464109E+04  0.14539464109E+04  0.25500000920E-02 0.  1.
    10030    2    1    2    0    0  0.00000000000E+00  0.00000000000E+00  0.97002456740E+03  0.38779173893E+04  0.37546365492E+04 0.  0.
        2    1    3    3  502    0 -0.90326898213E+03 -0.99727923023E+03  0.18371431437E+04  0.22771815140E+04  0.25500000920E-02 0. -1.
       -2    1    3    3    0  502  0.90326898213E+03  0.99727923023E+03 -0.86711857630E+03  0.16007358753E+04  0.25500000920E-02 0.  1.
</event>
<event>
 5   0  0.1348388E-06  0.3529211E+04  0.7818609E-02  0.8106902E-01
        2   -1    0    0  501    0  0.00000000000E+00  0.00000000000E+00  0.17958739338E+04  0.17958739338E+04  0.25500000920E-02 0. -1.
       -2   -1    0    0    0  501  0.00000000000E+00  0.00000000000E+00 -0.17338819315E+04  0.17338819315E+04  0.25500000920E-02 0.  1.
    10030    2    1    2    0    0  0.00000000000E+00  0.00000000000E+00  0.61992002313E+02  0.35297558654E+04  0.35292114503E+04 0.  0.
        5    1    3    3  502    0  0.11001647913E+04 -0.13685258903E+04  0.20591035704E+03  0.17679498990E+04  0.46999998093E+01 0.  1.
       -5    1    3    3    0  502 -0.11001647913E+04  0.13685258903E+04 -0.14391835473E+03  0.17618059664E+04  0.46999998093E+01 0. -1.
</event>
<event>
 5   0  0.1348388E-06  0.3491750E+04  0.7818609E-02  0.8115748E-01
       -2   -1    0    0    0  501  0.00000000000E+00  0.00000000000E+00  0.14246178451E+04  0.14246178451E+04  0.25500000920E-02 0. -1.
        2   -1    0    0  501    0  0.00000000000E+00  0.00000000000E+00 -0.21395769571E+04  0.21395769571E+04  0.25500000920E-02 0.  1.
    10030    2    1    2    0    0  0.00000000000E+00  0.00000000000E+00 -0.71495911207E+03  0.35641948022E+04  0.34917499991E+04 0.  0.
        5    1    3    3  502    0  0.26064487528E+03 -0.43257754368E+03 -0.20633797938E+04  0.21242921988E+04  0.46999998093E+01 0.  1.
       -5    1    3    3    0  502 -0.26064487528E+03  0.43257754368E+03  0.13484206818E+04  0.14399026034E+04  0.46999998093E+01 0. -1.
</event>
<event>
 5   0  0.1361560E-06  0.3509344E+04  0.7818609E-02  0.8111579E-01
       -2   -1    0    0    0  501  0.00000000000E+00  0.00000000000E+00  0.11012084070E+04  0.11012084070E+04  0.25500000920E-02 0. -1.
        2   -1    0    0  501    0  0.00000000000E+00  0.00000000000E+00 -0.27959055214E+04  0.27959055214E+04  0.25500000920E-02 0.  1.
    10030    2    1    2    0    0  0.00000000000E+00  0.00000000000E+00 -0.16946971144E+04  0.38971139284E+04  0.35093444775E+04 0.  0.
        3    1    3    3  502    0 -0.15380215301E+04  0.76601571926E+03 -0.45224849082E+03  0.17767439367E+04  0.10100000352E+00 0. -1.
       -3    1    3    3    0  502  0.15380215301E+04 -0.76601571926E+03 -0.12424486236E+04  0.21203699917E+04  0.10100000352E+00 0.  1.
</event>
<event>
 5   0  0.4409125E-07  0.3475056E+04  0.7818609E-02  0.8119727E-01
       -1   -1    0    0    0  501  0.00000000000E+00  0.00000000000E+00  0.16905896539E+04  0.16905896539E+04  0.50400001928E-02 0. -1.
        1   -1    0    0  501    0  0.00000000000E+00  0.00000000000E+00 -0.17857696350E+04  0.17857696350E+04  0.50400001928E-02 0.  1.
    10030    2    1    2    0    0  0.00000000000E+00  0.00000000000E+00 -0.95179981076E+02  0.34763592889E+04  0.34750560681E+04 0.  0.
        5    1    3    3  502    0  0.31197167042E+03  0.42128763349E+03 -0.17047654848E+04  0.17835518051E+04  0.46999998093E+01 0.  1.
       -5    1    3    3    0  502 -0.31197167042E+03 -0.42128763349E+03  0.16095855037E+04  0.16928074838E+04  0.46999998093E+01 0. -1.
</event>
<event>
 5   0  0.4693374E-07  0.3434461E+04  0.7818609E-02  0.8129500E-01
       -1   -1    0    0    0  501  0.00000000000E+00  0.00000000000E+00  0.16274631212E+04  0.16274631212E+04  0.50400001928E-02 0.  1.
        1   -1    0    0  501    0  0.00000000000E+00  0.00000000000E+00 -0.18119496325E+04  0.18119496325E+04  0.50400001928E-02 0. -1.
    10030    2    1    2    0    0  0.00000000000E+00  0.00000000000E+00 -0.18448651134E+03  0.34394127537E+04  0.34344613577E+04 0.  0.
        1    1    3    3  502    0  0.11288452680E+04  0.16513045019E+02 -0.13880626971E+04  0.17892127796E+04  0.50400001928E-02 0. -1.
       -1    1    3    3    0  502 -0.11288452680E+04 -0.16513045019E+02  0.12035761857E+04  0.16501999741E+04  0.50400001928E-02 0.  1.
</event>
<event>
 5   0  0.1361560E-06  0.3393495E+04  0.7818609E-02  0.8139505E-01
       -2   -1    0    0    0  501  0.00000000000E+00  0.00000000000E+00  0.14445869039E+04  0.14445869039E+04  0.25500000920E-02 0. -1.
        2   -1    0    0  501    0  0.00000000000E+00  0.00000000000E+00 -0.19929244068E+04  0.19929244068E+04  0.25500000920E-02 0.  1.
    10030    2    1    2    0    0  0.00000000000E+00  0.00000000000E+00 -0.54833750290E+03  0.34375113107E+04  0.33934952474E+04 0.  0.
        3    1    3    3  502    0 -0.58016038199E+03 -0.67854261529E+03 -0.17357792584E+04  0.19519056825E+04  0.10100000352E+00 0.  1.
       -3    1    3    3    0  502  0.58016038199E+03  0.67854261529E+03  0.11874417555E+04  0.14856056282E+04  0.10100000352E+00 0. -1.
</event>
<event>
 5   0  0.4557237E-07  0.3391003E+04  0.7818609E-02  0.8140118E-01
       -1   -1    0    0    0  501  0.00000000000E+00  0.00000000000E+00  0.23040742227E+04  0.23040742227E+04  0.50400001928E-02 0. -1.
        1   -1    0    0  501    0  0.00000000000E+00  0.00000000000E+00 -0.12476706361E+04  0.12476706361E+04  0.50400001928E-02 0.  1.
    10030    2    1    2    0    0  0.00000000000E+00  0.00000000000E+00  0.10564035867E+04  0.35517448588E+04  0.33910032445E+04 0.  0.
        2    1    3    3  502    0 -0.10863088530E+04  0.79877370534E+03  0.16048475776E+04  0.20961016444E+04  0.25500000920E-02 0.  1.
       -2    1    3    3    0  502  0.10863088530E+04 -0.79877370534E+03 -0.54844399091E+03  0.14556432144E+04  0.25500000920E-02 0. -1.
</event>
<event>
 5   0  0.1387133E-06  0.3509225E+04  0.7818609E-02  0.8111607E-01
       -2   -1    0    0    0  501  0.00000000000E+00  0.00000000000E+00  0.11770080348E+04  0.11770080348E+04  0.25500000920E-02 0.  1.
        2   -1    0    0  501    0  0.00000000000E+00  0.00000000000E+00 -0.26156697776E+04  0.26156697776E+04  0.25500000920E-02 0. -1.
    10030    2    1    2    0    0  0.00000000000E+00  0.00000000000E+00 -0.14386617427E+04  0.37926778124E+04  0.35092246121E+04 0.  0.
        4    1    3    3  502    0 -0.12859410137E+04 -0.11165693921E+04 -0.11756826834E+04  0.20694450664E+04  0.12699999809E+01 0. -1.
       -4    1    3    3    0  502  0.12859410137E+04  0.11165693921E+04 -0.26297905933E+03  0.17232327459E+04  0.12699999809E+01 0.  1.
</event>
<event>
 5   0  0.4591195E-07  0.2959381E+04  0.7818609E-02  0.8255426E-01
       -1   -1    0    0    0  501  0.00000000000E+00  0.00000000000E+00  0.24263573844E+04  0.24263573844E+04  0.50400001928E-02 0.  1.
        1   -1    0    0  501    0  0.00000000000E+00  0.00000000000E+00 -0.90237488921E+03  0.90237488923E+03  0.50400001928E-02 0. -1.
    10030    2    1    2    0    0  0.00000000000E+00  0.00000000000E+00  0.15239824952E+04  0.33287322736E+04  0.29593810001E+04 0.  0.
        4    1    3    3  502    0  0.15802287887E+03 -0.13798692663E+04  0.18792969880E+03  0.14015454352E+04  0.12699999809E+01 0. -1.
       -4    1    3    3    0  502 -0.15802287887E+03  0.13798692663E+04  0.13360527964E+04  0.19271868384E+04  0.12699999809E+01 0.  1.
</event>
<event>
 5   0  0.1387133E-06  0.3469794E+04  0.7818609E-02  0.8120986E-01
       -2   -1    0    0    0  501  0.00000000000E+00  0.00000000000E+00  0.21425218129E+04  0.21425218129E+04  0.25500000920E-02 0. -1.
        2   -1    0    0  501    0  0.00000000000E+00  0.00000000000E+00 -0.14048246093E+04  0.14048246093E+04  0.25500000920E-02 0.  1.
    10030    2    1    2    0    0  0.00000000000E+00  0.00000000000E+00  0.73769720360E+03  0.35473464223E+04  0.34697938664E+04 0.  0.
        4    1    3    3  502    0  0.86364582047E+03  0.74500697453E+03  0.17053337298E+04  0.20516052832E+04  0.12699999809E+01 0. -1.
       -4    1    3    3    0  502 -0.86364582047E+03 -0.74500697453E+03 -0.96763652619E+03  0.14957411390E+04  0.12699999809E+01 0.  1.
</event>
<event>
 5   0  0.1442864E-06  0.3494992E+04  0.7818609E-02  0.8114978E-01
        2   -1    0    0  501    0  0.00000000000E+00  0.00000000000E+00  0.12764326850E+04  0.12764326850E+04  0.25500000920E-02 0. -1.
       -2   -1    0    0    0  501  0.00000000000E+00  0.00000000000E+00 -0.23924035402E+04  0.23924035402E+04  0.25500000920E-02 0.  1.
    10030    2    1    2    0    0  0.00000000000E+00  0.00000000000E+00 -0.11159708553E+04  0.36688362252E+04  0.34949918881E+04 0.  0.
        1    1    3    3  502    0  0.19948068573E+03  0.15124549961E+04  0.33671751210E+03  0.15622712127E+04  0.50400001928E-02 0. -1.
       -1    1    3    3    0  502 -0.19948068573E+03 -0.15124549961E+04 -0.14526883674E+04  0.21065650125E+04  0.50400001928E-02 0.  1.
</event>
<event>
 5   0  0.1378620E-06  0.3547307E+04  0.7818609E-02  0.8102669E-01
       -2   -1    0    0    0  501  0.00000000000E+00  0.00000000000E+00  0.19742990617E+04  0.19742990617E+04  0.25500000920E-02 0. -1.
        2   -1    0    0  501    0  0.00000000000E+00  0.00000000000E+00 -0.15933993915E+04  0.15933993915E+04  0.25500000920E-02 0.  1.
    10030    2    1    2    0    0  0.00000000000E+00  0.00000000000E+00  0.38089967021E+03  0.35676984532E+04  0.35473071045E+04 0.  0.
        2    1    3    3  502    0  0.12211419787E+04  0.58096548916E+03  0.13447135386E+04  0.19070823613E+04  0.25500000920E-02 0. -1.
       -2    1    3    3    0  502 -0.12211419787E+04 -0.58096548916E+03 -0.96381386835E+03  0.16606160919E+04  0.25500000920E-02 0.  1.
</event>
<event>
 5   0  0.4700769E-07  0.3537311E+04  0.7818609E-02  0.8105004E-01
        1   -1    0    0  501    0  0.00000000000E+00  0.00000000000E+00  0.26092041293E+04  0.26092041293E+04  0.50400001928E-02 0. -1.
       -1   -1    0    0    0  501  0.00000000000E+00  0.00000000000E+00 -0.11988872939E+04  0.11988872939E+04  0.50400001928E-02 0.  1.
    10030    2    1    2    0    0  0.00000000000E+00  0.00000000000E+00  0.14103168354E+04  0.38080914232E+04  0.35373106608E+04 0.  0.
        3    1    3    3  502    0 -0.61746265796E+03 -0.28393035267E+03  0.24630246608E+04  0.25550669402E+04  0.10100000352E+00 0. -1.
       -3    1    3    3    0  502  0.61746265796E+03  0.28393035267E+03 -0.10527078254E+04  0.12530244830E+04  0.10100000352E+00 0.  1.
</event>
<event>
 5   0  0.4693374E-07  0.2901887E+04  0.7818609E-02  0.8272316E-01
       -1   -1    0    0    0  501  0.00000000000E+00  0.00000000000E+00  0.17734810082E+04  0.17734810083E+04  0.50400001928E-02 0.  1.
        1   -1    0    0  501    0  0.00000000000E+00  0.00000000000E+00 -0.11870648761E+04  0.11870648761E+04  0.50400001928E-02 0. -1.
    10030    2    1    2    0    0  0.00000000000E+00  0.00000000000E+00  0.58641613211E+03  0.29605458844E+04  0.29018869815E+04 0.  0.
        1    1    3    3  502    0  0.13861819959E+03  0.13147645127E+04 -0.31671979208E+03  0.13594602443E+04  0.50400001928E-02 0. -1.
       -1    1    3    3    0  502 -0.13861819959E+03 -0.13147645127E+04  0.90313592419E+03  0.16010856401E+04  0.50400001928E-02 0.  1.
</event>
<event>
 5   0  0.4557237E-07  0.3559296E+04  0.7818609E-02  0.8099880E-01
        1   -1    0    0  501    0  0.00000000000E+00  0.00000000000E+00  0.27061559573E+04  0.27061559573E+04  0.50400001928E-02 0. -1.
       -1   -1    0    0    0  501  0.00000000000E+00  0.00000000000E+00 -0.11703489640E+04  0.11703489640E+04  0.50400001928E-02 0.  1.
    10030    2    1    2    0    0  0.00000000000E+00  0.00000000000E+00  0.15358069933E+04  0.38765049213E+04  0.35592958972E+04 0.  0.
        2    1    3    3  502    0  0.10318096580E+04 -0.12398145987E+04  0.15868295805E+04  0.22626974006E+04  0.25500000920E-02 0. -1.
       -2    1    3    3    0  502 -0.10318096580E+04  0.12398145987E+04 -0.51022587161E+02  0.16138075207E+04  0.25500000920E-02 0.  1.
</event>
<event>
 5   0  0.1378620E-06  0.3481106E+04  0.7818609E-02  0.8118282E-01
        2   -1    0    0  501    0  0.00000000000E+00  0.00000000000E+00  0.17901190276E+04  0.17901190276E+04  0.25500000920E-02 0. -1.
       -2   -1    0    0    0  501  0.00000000000E+00  0.00000000000E+00 -0.16923591353E+04  0.16923591353E+04  0.25500000920E-02 0.  1.
    10030    2    1    2    0    0  0.00000000000E+00  0.00000000000E+00  0.97759892340E+02  0.34824781629E+04  0.34811057379E+04 0.  0.
        2    1    3    3  502    0 -0.61774792272E+03  0.51530263991E+03  0.15929828749E+04  0.17845850348E+04  0.25500000920E-02 0. -1.
       -2    1    3    3    0  502  0.61774792272E+03 -0.51530263991E+03 -0.14952229826E+04  0.16978931281E+04  0.25500000920E-02 0.  1.
</event>
<event>
 5   0  0.1348388E-06  0.3499138E+04  0.7818609E-02  0.8113994E-01
       -2   -1    0    0    0  501  0.00000000000E+00  0.00000000000E+00  0.13171409535E+04  0.13171409535E+04  0.25500000920E-02 0.  1.
        2   -1    0    0  501    0  0.00000000000E+00  0.00000000000E+00 -0.23239663593E+04  0.23239663593E+04  0.25500000920E-02 0. -1.
    10030    2    1    2    0    0  0.00000000000E+00  0.00000000000E+00 -0.10068254058E+04  0.36411073128E+04  0.34991377603E+04 0.  0.
        5    1    3    3  502    0 -0.15207627038E+04  0.50212687033E+03  0.22952183030E+03  0.16178853345E+04  0.46999998093E+01 0. -1.
       -5    1    3    3    0  502  0.15207627038E+04 -0.50212687033E+03 -0.12363472361E+04  0.20232219783E+04  0.46999998093E+01 0.  1.
</event>
<event>
 5   0  0.4693374E-07  0.3601064E+04  0.7818609E-02  0.8090248E-01
       -1   -1    0    0    0  501  0.00000000000E+00  0.00000000000E+00  0.12685152534E+04  0.12685152534E+04  0.50400001928E-02 0.  1.
        1   -1    0    0  501    0  0.00000000000E+00  0.00000000000E+00 -0.25556777678E+04  0.25556777678E+04  0.50400001928E-02 0. -1.
    10030    2    1    2    0    0  0.00000000000E+00  0.00000000000E+00 -0.12871625144E+04  0.38241930211E+04  0.36010644155E+04 0.  0.
        1    1    3    3  502    0 -0.16511118733E+02  0.36034514588E+03 -0.25169117536E+04  0.25426297443E+04  0.50400001928E-02 0. -1.
       -1    1    3    3    0  502  0.16511118733E+02 -0.36034514588E+03  0.12297492392E+04  0.12815632768E+04  0.50400001928E-02 0.  1.
</event>
<event>
 5   0  0.1442864E-06  0.3528382E+04  0.7818609E-02  0.8107096E-01
       -2   -1    0    0    0  501  0.00000000000E+00  0.00000000000E+00  0.97747389322E+03  0.97747389323E+03  0.25500000920E-02 0. -1.
        2   -1    0    0  501    0  0.00000000000E+00  0.00000000000E+00 -0.31840954654E+04  0.31840954654E+04  0.25500000920E-02 0.  1.
    10030    2    1    2    0    0  0.00000000000E+00  0.00000000000E+00 -0.22066215722E+04  0.41615693586E+04  0.35283821737E+04 0.  0.
        1    1    3    3  502    0  0.16407945589E+04 -0.43369652490E+03 -0.16714983225E+04  0.23820592146E+04  0.50400001928E-02 0.  1.
       -1    1    3    3    0  502 -0.16407945589E+04  0.43369652490E+03 -0.53512324969E+03  0.17795101440E+04  0.50400001928E-02 0. -1.
</event>
<event>
 5   0  0.4693374E-07  0.3496433E+04  0.7818609E-02  0.8114636E-01
        1   -1    0    0  501    0  0.00000000000E+00  0.00000000000E+00  0.16086224853E+04  0.16086224853E+04  0.50400001928E-02 0. -1.
       -1   -1    0    0    0  501  0.00000000000E+00  0.00000000000E+00 -0.18999244829E+04  0.18999244829E+04  0.50400001928E-02 0.  1.
    10030    2    1    2    0    0  0.00000000000E+00  0.00000000000E+00 -0.29130199760E+03  0.35085469682E+04  0.34964331789E+04 0.  0.
        1    1    3    3  502    0  0.91007013196E+03 -0.10851894159E+04  0.88278887858E+03  0.16688858312E+04  0.50400001928E-02 0. -1.
       -1    1    3    3    0  502 -0.91007013196E+03  0.10851894159E+04 -0.11740908762E+04  0.18396611370E+04  0.50400001928E-02 0.  1.
</event>
<event>
 5   0  0.1348388E-06  0.3478526E+04  0.7818609E-02  0.8118898E-01
        2   -1    0    0  501    0  0.00000000000E+00  0.00000000000E+00  0.23474209675E+04  0.23474209675E+04  0.25500000920E-02 0. -1.
       -2   -1    0    0    0  501  0.00000000000E+00  0.00000000000E+00 -0.12886633376E+04  0.12886633376E+04  0.25500000920E-02 0.  1.
    10030    2    1    2    0    0  0.00000000000E+00  0.00000000000E+00  0.10587576299E+04  0.36360843052E+04  0.34785257445E+04 0.  0.
        5    1    3    3  502    0  0.15247354155E+04 -0.49670376076E+03 -0.17453266429E+03  0.16130767044E+04  0.46999998093E+01 0.  1.
       -5    1    3    3    0  502 -0.15247354155E+04  0.49670376076E+03  0.12332902942E+04  0.20230076008E+04  0.46999998093E+01 0. -1.
</event>
<event>
 5   0  0.1442864E-06  0.3504488E+04  0.7818609E-02  0.8112727E-01
        2   -1    0    0  501    0  0.00000000000E+00  0.00000000000E+00  0.16565835485E+04  0.16565835485E+04  0.25500000920E-02 0.  1.
       -2   -1    0    0    0  501  0.00000000000E+00  0.00000000000E+00 -0.18534285104E+04  0.18534285104E+04  0.25500000920E-02 0. -1.
    10030    2    1    2    0    0  0.00000000000E+00  0.00000000000E+00 -0.19684496188E+03  0.35100120589E+04  0.35044880816E+04 0.  0.
        1    1    3    3  502    0  0.12251612249E+04 -0.53895613181E+03  0.10342293900E+04  0.16914857877E+04  0.50400001928E-02 0.  1.
       -1    1    3    3    0  502 -0.12251612249E+04  0.53895613181E+03 -0.12310743519E+04  0.18185262711E+04  0.50400001928E-02 0. -1.
</event>
<event>
 5   0  0.1348388E-06  0.3533268E+04  0.7818609E-02  0.8105951E-01
        2   -1    0    0  501    0  0.00000000000E+00  0.00000000000E+00  0.22098701474E+04  0.22098701474E+04  0.25500000920E-02 0. -1.
       -2   -1    0    0    0  501  0.00000000000E+00  0.00000000000E+00 -0.14122986223E+04  0.14122986223E+04  0.25500000920E-02 0.  1.
    10030    2    1    2    0    0  0.00000000000E+00  0.00000000000E+00  0.79757152510E+03  0.36221687698E+04  0.35332684952E+04 0.  0.
        5    1    3    3  502    0 -0.78712893196E+03 -0.67544143581E+03  0.18648667323E+04  0.21339032565E+04  0.46999998093E+01 0. -1.
       -5    1    3    3    0  502  0.78712893196E+03  0.67544143581E+03 -0.10672952072E+04  0.14882655133E+04  0.46999998093E+01 0.  1.
</event>
<event>
 5   0  0.1348388E-06  0.3564676E+04  0.7818609E-02  0.8098631E-01
       -2   -1    0    0    0  501  0.00000000000E+00  0.00000000000E+00  0.15974522657E+04  0.15974522657E+04  0.25500000920E-02 0.  1.
        2   -1    0    0  501    0  0.00000000000E+00  0.00000000000E+00 -0.19886222736E+04  0.19886222736E+04  0.25500000920E-02 0. -1.
    10030    2    1    2    0    0  0.00000000000E+00  0.00000000000E+00 -0.39117000791E+03  0.35860745394E+04  0.35646762303E+04 0.  0.
        5    1    3    3  502    0 -0.15554759741E+03 -0.16631967352E+04  0.42966713466E+03  0.17248345926E+04  0.46999998093E+01 0.  1.
       -5    1    3    3    0  502  0.15554759741E+03  0.16631967352E+04 -0.82083714257E+03  0.18612399468E+04  0.46999998093E+01 0. -1.
</event>
<event>
 5   0  0.4557237E-07  0.3472900E+04  0.7818609E-02  0.8120242E-01
        1   -1    0    0  501    0  0.00000000000E+00  0.00000000000E+00  0.18628927619E+04  0.18628927619E+04  0.50400001928E-02 0. -1.
       -1   -1    0    0    0  501  0.00000000000E+00  0.00000000000E+00 -0.16185897348E+04  0.16185897349E+04  0.50400001928E-02 0.  1.
    10030    2    1    2    0    0  0.00000000000E+00  0.00000000000E+00  0.24430302701E+03  0.34814824967E+04  0.34729002874E+04 0.  0.
        2    1    3    3  502    0  0.10359965662E+04 -0.51027444172E+03 -0.11778144667E+04  0.16495198723E+04  0.25500000920E-02 0.  1.
       -2    1    3    3    0  502 -0.10359965662E+04  0.51027444172E+03  0.14221174938E+04  0.18319626244E+04  0.25500000920E-02 0. -1.
</event>
<event>
 5   0  0.1361560E-06  0.3490357E+04  0.7818609E-02  0.8116079E-01
       -2   -1    0    0    0  501  0.00000000000E+00  0.00000000000E+00  0.12339711692E+04  0.12339711692E+04  0.25500000920E-02 0. -1.
        2   -1    0    0  501    0  0.00000000000E+00  0.00000000000E+00 -0.24681685530E+04  0.24681685530E+04  0.25500000920E-02 0.  1.
    10030    2    1    2    0    0  0.00000000000E+00  0.00000000000E+00 -0.12341973838E+04  0.37021397223E+04  0.34903574804E+04 0.  0.
        3    1    3    3  502    0  0.11844398830E+03  0.24840002196E+03  0.12108124173E+04  0.12416916966E+04  0.10100000352E+00 0. -1.
       -3    1    3    3    0  502 -0.11844398830E+03 -0.24840002196E+03 -0.24450098011E+04  0.24604480257E+04  0.10100000352E+00 0.  1.
</event>
<event>
 5   0  0.4557237E-07  0.3483753E+04  0.7818609E-02  0.8117651E-01
       -1   -1    0    0    0  501  0.00000000000E+00  0.00000000000E+00  0.14853324058E+04  0.14853324058E+04  0.50400001928E-02 0. -1.
        1   -1    0    0  501    0  0.00000000000E+00  0.00000000000E+00 -0.20427309292E+04  0.20427309293E+04  0.50400001928E-02 0.  1.
    10030    2    1    2    0    0  0.00000000000E+00  0.00000000000E+00 -0.55739852343E+03  0.35280633351E+04  0.34837534044E+04 0.  0.
        2    1    3    3  502    0 -0.49608337237E+03  0.16652219695E+04 -0.15437165532E+03  0.17443891562E+04  0.25500000920E-02 0.  1.
       -2    1    3    3    0  502  0.49608337237E+03 -0.16652219695E+04 -0.40302686811E+03  0.17836741789E+04  0.25500000920E-02 0. -1.
</event>
<event>
 5   0  0.1387133E-06  0.3473689E+04  0.7818609E-02  0.8120054E-01
       -2   -1    0    0    0  501  0.00000000000E+00  0.00000000000E+00  0.14673061383E+04  0.14673061383E+04  0.25500000920E-02 0.  1.
        2   -1    0    0  501    0  0.00000000000E+00  0.00000000000E+00 -0.20558960756E+04  0.20558960756E+04  0.25500000920E-02 0. -1.
    10030    2    1    2    0    0  0.00000000000E+00  0.00000000000E+00 -0.58858993727E+03  0.35232022139E+04  0.34736890658E+04 0.  0.
        4    1    3    3  502    0  0.58941608214E+03  0.12242313451E+03 -0.19466972615E+04  0.20376532047E+04  0.12699999809E+01 0. -1.
       -4    1    3    3    0  502 -0.58941608214E+03 -0.12242313451E+03  0.13581073242E+04  0.14855490092E+04  0.12699999809E+01 0.  1.
</event>
<event>
 5   0  0.4700769E-07  0.3480266E+04  0.7818609E-02  0.8118483E-01
        1   -1    0    0  501    0  0.00000000000E+00  0.00000000000E+00  0.16546592951E+04  0.16546592951E+04  0.50400001928E-02 0. -1.
       -1   -1    0    0    0  501  0.00000000000E+00  0.00000000000E+00 -0.18300216455E+04  0.18300216455E+04  0.50400001928E-02 0.  1.
    10030    2    1    2    0    0  0.00000000000E+00  0.00000000000E+00 -0.17536235040E+03  0.34846809405E+04  0.34802656944E+04 0.  0.
        3    1    3    3  502    0 -0.59588783781E+03 -0.66696393942E+03 -0.15822701342E+04  0.18175538506E+04  0.10100000352E+00 0.  1.
       -3    1    3    3    0  502  0.59588783781E+03  0.66696393942E+03  0.14069077838E+04  0.16671270900E+04  0.10100000352E+00 0. -1.
</event>
<event>
 5   0  0.1361560E-06  0.3456580E+04  0.7818609E-02  0.8124158E-01
       -2   -1    0    0    0  501  0.00000000000E+00  0.00000000000E+00  0.13279702911E+04  0.13279702911E+04  0.25500000920E-02 0. -1.
        2   -1    0    0  501    0  0.00000000000E+00  0.00000000000E+00 -0.22492873816E+04  0.22492873816E+04  0.25500000920E-02 0.  1.
    10030    2    1    2    0    0  0.00000000000E+00  0.00000000000E+00 -0.92131709055E+03  0.35772576727E+04  0.34565802863E+04 0.  0.
        3    1    3    3  502    0 -0.76180314808E+03  0.59715141991E+03  0.10211295958E+04  0.14069966298E+04  0.10100000352E+00 0. -1.
       -3    1    3    3    0  502  0.76180314808E+03 -0.59715141991E+03 -0.19424466863E+04  0.21702610429E+04  0.10100000352E+00 0.  1.
</event>
<event>
 5   0  0.4591195E-07  0.3489487E+04  0.7818609E-02  0.8116286E-01
       -1   -1    0    0    0  501  0.00000000000E+00  0.00000000000E+00  0.12062001552E+04  0.12062001552E+04  0.50400001928E-02 0. -1.
        1   -1    0    0  501    0  0.00000000000E+00  0.00000000000E+00 -0.25237352005E+04  0.25237352005E+04  0.50400001928E-02 0.  1.
    10030    2    1    2    0    0  0.00000000000E+00  0.00000000000E+00 -0.13175350453E+04  0.37299353557E+04  0.34894869482E+04 0.  0.
        4    1    3    3  502    0 -0.82746558560E+03  0.14201957147E+04 -0.12843043812E+04  0.20859277360E+04  0.12699999809E+01 0. -1.
       -4    1    3    3    0  502  0.82746558560E+03 -0.14201957147E+04 -0.33230664094E+02  0.16440076196E+04  0.12699999809E+01 0.  1.
</event>
<event>
 5   0  0.1442864E-06  0.3327785E+04  0.7818609E-02  0.8155861E-01
       -2   -1    0    0    0  501  0.00000000000E+00  0.00000000000E+00  0.11031400783E+04  0.11031400783E+04  0.25500000920E-02 0.  1.
        2   -1    0    0  501    0  0.00000000000E+00  0.00000000000E+00 -0.25096881399E+04  0.25096881399E+04  0.25500000920E-02 0. -1.
    10030    2    1    2    0    0  0.00000000000E+00  0.00000000000E+00 -0.14065480617E+04  0.36128282182E+04  0.33277845911E+04 0.  0.
        1    1    3    3  502    0 -0.56649305552E+03  0.31047735857E+03  0.96143902626E+03  0.11583072016E+04  0.50400001928E-02 0.  1.
       -1    1    3    3    0  502  0.56649305552E+03 -0.31047735857E+03 -0.23679870879E+04  0.24545210166E+04  0.50400001928E-02 0. -1.
</event>
<event>
 5   0  0.4409125E-07  0.3500774E+04  0.7818609E-02  0.8113606E-01
        1   -1    0    0  501    0  0.00000000000E+00  0.00000000000E+00  0.18569868470E+04  0.18569868470E+04  0.50400001928E-02 0.  1.
       -1   -1    0    0    0  501  0.00000000000E+00  0.00000000000E+00 -0.16499067769E+04  0.16499067769E+04  0.50400001928E-02 0. -1.
    10030    2    1    2    0    0  0.00000000000E+00  0.00000000000E+00  0.20708007014E+03  0.35068936239E+04  0.35007743049E+04 0.  0.
        5    1    3    3  502    0 -0.80568151272E+03  0.52449051766E+03  0.15688409249E+04  0.18399719945E+04  0.46999998093E+01 0.  1.
       -5    1    3    3    0  502  0.80568151272E+03 -0.52449051766E+03 -0.13617608547E+04  0.16669216294E+04  0.46999998093E+01 0. -1.
</event>
<event>
 5   0  0.4591195E-07  0.3283126E+04  0.7818609E-02  0.8167202E-01
        1   -1    0    0  501    0  0.00000000000E+00  0.00000000000E+00  0.14269413618E+04  0.14269413618E+04  0.50400001928E-02 0. -1.
       -1   -1    0    0    0  501  0.00000000000E+00  0.00000000000E+00 -0.18884648182E+04  0.18884648182E+04  0.50400001928E-02 0.  1.
    10030    2    1    2    0    0  0.00000000000E+00  0.00000000000E+00 -0.46152345637E+03  0.33154061800E+04  0.32831256811E+04 0.  0.
        4    1    3    3  502    0  0.48357757549E+03  0.14108745589E+04 -0.92329806646E+03  0.17541080996E+04  0.12699999809E+01 0.  1.
       -4    1    3    3    0  502 -0.48357757549E+03 -0.14108745589E+04  0.46177461009E+03  0.15612980805E+04  0.12699999809E+01 0. -1.
</event>
<event>
 5   0  0.1361560E-06  0.3641108E+04  0.7818609E-02  0.8081140E-01
        2   -1    0    0  501    0  0.00000000000E+00  0.00000000000E+00  0.14100199674E+04  0.14100199674E+04  0.25500000920E-02 0. -1.
       -2   -1    0    0    0  501  0.00000000000E+00  0.00000000000E+00 -0.23506171753E+04  0.23506171753E+04  0.25500000920E-02 0.  1.
    10030    2    1    2    0    0  0.00000000000E+00  0.00000000000E+00 -0.94059720792E+03  0.37606371426E+04  0.36411081570E+04 0.  0.
        3    1    3    3  502    0 -0.15267985456E+04 -0.98430542251E+03 -0.59443649042E+03  0.19113674987E+04  0.10100000352E+00 0.  1.
       -3    1    3    3    0  502  0.15267985456E+04  0.98430542251E+03 -0.34616071750E+03  0.18492696440E+04  0.10100000352E+00 0. -1.
</event>
<event>
 5   0  0.4409125E-07  0.3489535E+04  0.7818609E-02  0.8116275E-01
        1   -1    0    0  501    0  0.00000000000E+00  0.00000000000E+00  0.20316932019E+04  0.20316932019E+04  0.50400001928E-02 0.  1.
       -1   -1    0    0    0  501  0.00000000000E+00  0.00000000000E+00 -0.14983626523E+04  0.14983626523E+04  0.50400001928E-02 0. -1.
    10030    2    1    2    0    0  0.00000000000E+00  0.00000000000E+00  0.53333054961E+03  0.35300558542E+04  0.34895347625E+04 0.  0.
        5    1    3    3  502    0 -0.96597681751E+03 -0.14480169684E+04  0.14558086775E+03  0.17467341618E+04  0.46999998093E+01 0. -1.
       -5    1    3    3    0  502  0.96597681751E+03  0.14480169684E+04  0.38774968186E+03  0.17833216924E+04  0.46999998093E+01 0.  1.
</event>
<event>
 5   0  0.4700769E-07  0.2853950E+04  0.7818609E-02  0.8286712E-01
       -1   -1    0    0    0  501  0.00000000000E+00  0.00000000000E+00  0.10444236096E+04  0.10444236096E+04  0.50400001928E-02 0.  1.
        1   -1    0    0  501    0  0.00000000000E+00  0.00000000000E+00 -0.19496474923E+04  0.19496474923E+04  0.50400001928E-02 0. -1.
    10030    2    1    2    0    0  0.00000000000E+00  0.00000000000E+00 -0.90522388270E+03  0.29940711019E+04  0.28539501547E+04 0.  0.
        3    1    3    3  502    0  0.13828758680E+04  0.35197749382E+03 -0.45775559582E+03  0.14985906773E+04  0.10100000352E+00 0.  1.
       -3    1    3    3    0  502 -0.13828758680E+04 -0.35197749382E+03 -0.44746828688E+03  0.14954804246E+04  0.10100000352E+00 0. -1.
</event>
<event>
 5   0  0.4557237E-07  0.3517042E+04  0.7818609E-02  0.8109763E-01
        1   -1    0    0  501    0  0.00000000000E+00  0.00000000000E+00  0.14366421638E+04  0.14366421638E+04  0.50400001928E-02 0.  1.
       -1   -1    0    0    0  501  0.00000000000E+00  0.00000000000E+00 -0.21525168937E+04  0.21525168937E+04  0.50400001928E-02 0. -1.
    10030    2    1    2    0    0  0.00000000000E+00  0.00000000000E+00 -0.71587472990E+03  0.35891590574E+04  0.35170422390E+04 0.  0.
        2    1    3    3  502    0 -0.15391781587E+04 -0.55292036713E+03  0.30153801243E+03  0.16630440492E+04  0.25500000920E-02 0.  1.
       -2    1    3    3    0  502  0.15391781587E+04  0.55292036713E+03 -0.10174127423E+04  0.19261150082E+04  0.25500000920E-02 0. -1.
</event>
<event>
 5   0  0.1378620E-06  0.3649871E+04  0.7818609E-02  0.8079163E-01
       -2   -1    0    0    0  501  0.00000000000E+00  0.00000000000E+00  0.12642507164E+04  0.12642507164E+04  0.25500000920E-02 0. -1.
        2   -1    0    0  501    0  0.00000000000E+00  0.00000000000E+00 -0.26342794506E+04  0.26342794506E+04  0.25500000920E-02 0.  1.
    10030    2    1    2    0    0  0.00000000000E+00  0.00000000000E+00 -0.13700287342E+04  0.38985301671E+04  0.36498710567E+04 0.  0.
        2    1    3    3  502    0 -0.18118977288E+04  0.14263441724E+03 -0.86075870815E+03  0.20110254873E+04  0.25500000920E-02 0. -1.
       -2    1    3    3    0  502  0.18118977288E+04 -0.14263441724E+03 -0.50927002608E+03  0.18875046798E+04  0.25500000920E-02 0.  1.
</event>
<event>
 5   0  0.4591195E-07  0.2632661E+04  0.7818609E-02  0.8357191E-01
        1   -1    0    0  501    0  0.00000000000E+00  0.00000000000E+00  0.89134962715E+03  0.89134962716E+03  0.50400001928E-02 0. -1.
       -1   -1    0    0    0  501  0.00000000000E+00  0.00000000000E+00 -0.19439348664E+04  0.19439348664E+04  0.50400001928E-02 0.  1.
    10030    2    1    2    0    0  0.00000000000E+00  0.00000000000E+00 -0.10525852393E+04  0.28352844936E+04  0.26326607213E+04 0.  0.
        4    1    3    3  502    0 -0.38934168470E+03  0.36561883257E+03  0.76940906488E+03  0.93661945324E+03  0.12699999809E+01 0. -1.
       -4    1    3    3    0  502  0.38934168470E+03 -0.36561883257E+03 -0.18219943041E+04  0.18986650403E+04  0.12699999809E+01 0.  1.
</event>
<event>
 5   0  0.4557237E-07  0.3033877E+04  0.7818609E-02  0.8234123E-01
        1   -1    0    0  501    0  0.00000000000E+00  0.00000000000E+00  0.32555658794E+04  0.32555658794E+04  0.50400001928E-02 0. -1.
       -1   -1    0    0    0  501  0.00000000000E+00  0.00000000000E+00 -0.70682098273E+03  0.70682098274E+03  0.50400001928E-02 0.  1.
    10030    2    1    2    0    0  0.00000000000E+00  0.00000000000E+00  0.25487448967E+04  0.39623868622E+04  0.30338769087E+04 0.  0.
        2    1    3    3  502    0  0.91234497243E+03 -0.10621451228E+04  0.20365679159E+04  0.24714640371E+04  0.25500000920E-02 0. -1.
       -2    1    3    3    0  502 -0.91234497243E+03  0.10621451228E+04  0.51217698082E+03  0.14909228251E+04  0.25500000920E-02 0.  1.
</event>
<event>
 5   0  0.4700769E-07  0.3598441E+04  0.7818609E-02  0.8090849E-01
        1   -1    0    0  501    0  0.00000000000E+00  0.00000000000E+00  0.19010086235E+04  0.19010086235E+04  0.50400001928E-02 0. -1.
       -1   -1    0    0    0  501  0.00000000000E+00  0.00000000000E+00 -0.17028824567E+04  0.17028824567E+04  0.50400001928E-02 0.  1.
    10030    2    1    2    0    0  0.00000000000E+00  0.00000000000E+00  0.19812616682E+03  0.36038910803E+04  0.35984409041E+04 0.  0.
        3    1    3    3  502    0  0.17958299770E+04  0.76737069645E+02  0.17855799046E+03  0.18063158224E+04  0.10100000352E+00 0.  1.
       -3    1    3    3    0  502 -0.17958299770E+04 -0.76737069645E+02  0.19568176360E+02  0.17975752579E+04  0.10100000352E+00 0. -1.
</event>
<event>
 5   0  0.1442864E-06  0.2669041E+04  0.7818609E-02  0.8345120E-01
        2   -1    0    0  501    0  0.00000000000E+00  0.00000000000E+00  0.15897949594E+04  0.15897949594E+04  0.25500000920E-02 0. -1.
       -2   -1    0    0    0  501  0.00000000000E+00  0.00000000000E+00 -0.11202357959E+04  0.11202357959E+04  0.25500000920E-02 0.  1.
    10030    2    1    2    0    0  0.00000000000E+00  0.00000000000E+00  0.46955916350E+03  0.27100307553E+04  0.26690411924E+04 0.  0.
        1    1    3    3  502    0 -0.11644214873E+04 -0.92770859055E+02 -0.42046933984E+03  0.12414822988E+04  0.50400001928E-02 0.  1.
       -1    1    3    3    0  502  0.11644214873E+04  0.92770859055E+02  0.89002850334E+03  0.14685484565E+04  0.50400001928E-02 0. -1.
</event>
<event>
 5   0  0.1387133E-06  0.3520751E+04  0.7818609E-02  0.8108890E-01
        2   -1    0    0  501    0  0.00000000000E+00  0.00000000000E+00  0.21431427398E+04  0.21431427398E+04  0.25500000920E-02 0. -1.
       -2   -1    0    0    0  501  0.00000000000E+00  0.00000000000E+00 -0.14459712392E+04  0.14459712392E+04  0.25500000920E-02 0.  1.
    10030    2    1    2    0    0  0.00000000000E+00  0.00000000000E+00  0.69717150064E+03  0.35891139790E+04  0.35207514898E+04 0.  0.
        4    1    3    3  502    0  0.12684784895E+04  0.13738597708E+03  0.15849871254E+04  0.20347231718E+04  0.12699999809E+01 0.  1.
       -4    1    3    3    0  502 -0.12684784895E+04 -0.13738597708E+03 -0.88781562480E+03  0.15543908072E+04  0.12699999809E+01 0. -1.
</event>
<event>
 5   0  0.4693374E-07  0.3534134E+04  0.7818609E-02  0.8105748E-01
       -1   -1    0    0    0  501  0.00000000000E+00  0.00000000000E+00  0.24179587877E+04  0.24179587877E+04  0.50400001928E-02 0.  1.
        1   -1    0    0  501    0  0.00000000000E+00  0.00000000000E+00 -0.12913892701E+04  0.12913892701E+04  0.50400001928E-02 0. -1.
    10030    2    1    2    0    0  0.00000000000E+00  0.00000000000E+00  0.11265695176E+04  0.37093480578E+04  0.35341341423E+04 0.  0.
        1    1    3    3  502    0 -0.13111665336E+04 -0.34154716448E+03 -0.62728693011E+03  0.14930844039E+04  0.50400001928E-02 0. -1.
       -1    1    3    3    0  502  0.13111665336E+04  0.34154716448E+03  0.17538564477E+04  0.22162636539E+04  0.50400001928E-02 0.  1.
</event>
<event>
 5   0  0.1442864E-06  0.2893428E+04  0.7818609E-02  0.8274836E-01
       -2   -1    0    0    0  501  0.00000000000E+00  0.00000000000E+00  0.19957797668E+04  0.19957797668E+04  0.25500000920E-02 0. -1.
        2   -1    0    0  501    0  0.00000000000E+00  0.00000000000E+00 -0.10487035683E+04  0.10487035683E+04  0.25500000920E-02 0.  1.
    10030    2    1    2    0    0  0.00000000000E+00  0.00000000000E+00  0.94707619847E+03  0.30444833351E+04  0.28934279759E+04 0.  0.
        1    1    3    3  502    0  0.95929501415E+03 -0.95603361943E+03  0.10087525222E+04  0.16887358753E+04  0.50400001928E-02 0. -1.
       -1    1    3    3    0  502 -0.95929501415E+03  0.95603361943E+03 -0.61676323700E+02  0.13557474597E+04  0.50400001928E-02 0.  1.
</event>
<event>
 5   0  0.1387133E-06  0.3521423E+04  0.7818609E-02  0.8108732E-01
       -2   -1    0    0    0  501  0.00000000000E+00  0.00000000000E+00  0.11287089689E+04  0.11287089689E+04  0.25500000920E-02 0.  1.
        2   -1    0    0  501    0  0.00000000000E+00  0.00000000000E+00 -0.27465944776E+04  0.27465944776E+04  0.25500000920E-02 0. -1.
    10030    2    1    2    0    0  0.00000000000E+00  0.00000000000E+00 -0.16178855087E+04  0.38753034465E+04  0.35214234740E+04 0.  0.
        4    1    3    3  502    0  0.53185547266E+03 -0.14801663536E+04  0.62006925726E+02  0.15740422961E+04  0.12699999809E+01 0.  1.
       -4    1    3    3    0  502 -0.53185547266E+03  0.14801663536E+04 -0.16798924344E+04  0.23012611504E+04  0.12699999809E+01 0. -1.
</event>
<event>
 5   0  0.1348388E-06  0.3478032E+04  0.7818609E-02  0.8119016E-01
       -2   -1    0    0    0  501  0.00000000000E+00  0.00000000000E+00  0.96529825563E+03  0.96529825563E+03  0.25500000920E-02 0.  1.
        2   -1    0    0  501    0  0.00000000000E+00  0.00000000000E+00 -0.31328938144E+04  0.31328938144E+04  0.25500000920E-02 0. -1.
    10030    2    1    2    0    0  0.00000000000E+00  0.00000000000E+00 -0.21675955587E+04  0.40981920700E+04  0.34780321644E+04 0.  0.
        5    1    3    3  502    0 -0.22860585315E+03  0.58411068856E+03  0.82735370742E+03  0.10382592064E+04  0.46999998093E+01 0.  1.
       -5    1    3    3    0  502  0.22860585315E+03 -0.58411068856E+03 -0.29949492662E+04  0.30599328636E+04  0.46999998093E+01 0. -1.
</event>
<event>
 5   0  0.1442864E-06  0.3483697E+04  0.7818609E-02  0.8117664E-01
       -2   -1    0    0    0  501  0.00000000000E+00  0.00000000000E+00  0.17376730069E+04  0.17376730069E+04  0.25500000920E-02 0.  1.
        2   -1    0    0  501    0  0.00000000000E+00  0.00000000000E+00 -0.17460339589E+04  0.17460339589E+04  0.25500000920E-02 0. -1.
    10030    2    1    2    0    0  0.00000000000E+00  0.00000000000E+00 -0.83609520248E+01  0.34837069658E+04  0.34836969326E+04 0.  0.
        1    1    3    3  502    0  0.16081278849E+03  0.25798605612E+03 -0.17193001410E+04  0.17459697973E+04  0.50400001928E-02 0. -1.
       -1    1    3    3    0  502 -0.16081278849E+03 -0.25798605612E+03  0.17109391890E+04  0.17377371685E+04  0.50400001928E-02 0.  1.
</event>
<event>
 5   0  0.1348388E-06  0.3487272E+04  0.7818609E-02  0.8116813E-01
        2   -1    0    0  501    0  0.00000000000E+00  0.00000000000E+00  0.17304491324E+04  0.17304491324E+04  0.25500000920E-02 0.  1.
       -2   -1    0    0    0  501  0.00000000000E+00  0.00000000000E+00 -0.17569235982E+04  0.17569235982E+04  0.25500000920E-02 0. -1.
    10030    2    1    2    0    0  0.00000000000E+00  0.00000000000E+00 -0.26474465796E+02  0.34873727307E+04  0.34872722385E+04 0.  0.
        5    1    3    3  502    0 -0.24505709766E+03 -0.69361624196E+03 -0.15941333041E+04  0.17556877722E+04  0.46999998093E+01 0. -1.
       -5    1    3    3    0  502  0.24505709766E+03  0.69361624196E+03  0.15676588383E+04  0.17316849585E+04  0.46999998093E+01 0.  1.
</event>
<event>
 5   0  0.1442864E-06  0.3518559E+04  0.7818609E-02  0.8109406E-01
        2   -1    0    0  501    0  0.00000000000E+00  0.00000000000E+00  0.16147118289E+04  0.16147118289E+04  0.25500000920E-02 0.  1.
       -2   -1    0    0    0  501  0.00000000000E+00  0.00000000000E+00 -0.19167900247E+04  0.19167900247E+04  0.25500000920E-02 0. -1.
    10030    2    1    2    0    0  0.00000000000E+00  0.00000000000E+00 -0.30207819579E+03  0.35315018536E+04  0.35185585266E+04 0.  0.
        1    1    3    3  502    0 -0.85375448651E+03  0.29528817298E+03  0.13641405392E+04  0.16361452377E+04  0.50400001928E-02 0.  1.
       -1    1    3    3    0  502  0.85375448651E+03 -0.29528817298E+03 -0.16662187350E+04  0.18953566158E+04  0.50400001928E-02 0. -1.
</event>
<event>
 5   0  0.4591195E-07  0.3511593E+04  0.7818609E-02  0.8111048E-01
        1   -1    0    0  501    0  0.00000000000E+00  0.00000000000E+00  0.10167301283E+04  0.10167301284E+04  0.50400001928E-02 0. -1.
       -1   -1    0    0    0  501  0.00000000000E+00  0.00000000000E+00 -0.30320945222E+04  0.30320945222E+04  0.50400001928E-02 0.  1.
    10030    2    1    2    0    0  0.00000000000E+00  0.00000000000E+00 -0.20153643939E+04  0.40488246506E+04  0.35115932867E+04 0.  0.
        4    1    3    3  502    0 -0.26298275719E+03  0.50991792319E+03  0.90559835170E+03  0.10720476699E+04  0.12699999809E+01 0. -1.
       -4    1    3    3    0  502  0.26298275719E+03 -0.50991792319E+03 -0.29209627456E+04  0.29767769807E+04  0.12699999809E+01 0.  1.
</event>
<event>
 5   0  0.4700769E-07  0.3225988E+04  0.7818609E-02  0.8181987E-01
        1   -1    0    0  501    0  0.00000000000E+00  0.00000000000E+00  0.17566664219E+04  0.17566664219E+04  0.50400001928E-02 0.  1.
       -1   -1    0    0    0  501  0.00000000000E+00  0.00000000000E+00 -0.14810717735E+04  0.14810717736E+04  0.50400001928E-02 0. -1.
    10030    2    1    2    0    0  0.00000000000E+00  0.00000000000E+00  0.27559464835E+03  0.32377381955E+04  0.32259876336E+04 0.  0.
        3    1    3    3  502    0 -0.13143320086E+04 -0.93421589213E+03  0.98654227751E+02  0.16155372570E+04  0.10100000352E+00 0. -1.
       -3    1    3    3    0  502  0.13143320086E+04  0.93421589213E+03  0.17694042060E+03  0.16222009384E+04  0.10100000352E+00 0.  1.
</event>
<event>
 5   0  0.1442864E-06  0.3467645E+04  0.7818609E-02  0.8121501E-01
        2   -1    0    0  501    0  0.00000000000E+00  0.00000000000E+00  0.24694503175E+04  0.24694503175E+04  0.25500000920E-02 0.  1.
       -2   -1    0    0    0  501  0.00000000000E+00  0.00000000000E+00 -0.12173315511E+04  0.12173315511E+04  0.25500000920E-02 0. -1.
    10030    2    1    2    0    0  0.00000000000E+00  0.00000000000E+00  0.12521187664E+04  0.36867818686E+04  0.34676446100E+04 0.  0.
        1    1    3    3  502    0 -0.94065681153E+03 -0.87176981186E+03 -0.61443066393E+03  0.14220910248E+04  0.50400001928E-02 0. -1.
       -1    1    3    3    0  502  0.94065681153E+03  0.87176981186E+03  0.18665494303E+04  0.22646908438E+04  0.50400001928E-02 0.  1.
</event>
<event>
 5   0  0.4557237E-07  0.3439033E+04  0.7818609E-02  0.8128392E-01
        1   -1    0    0  501    0  0.00000000000E+00  0.00000000000E+00  0.19076670474E+04  0.19076670474E+04  0.50400001928E-02 0.  1.
       -1   -1    0    0    0  501  0.00000000000E+00  0.00000000000E+00 -0.15499225973E+04  0.15499225973E+04  0.50400001928E-02 0. -1.
    10030    2    1    2    0    0  0.00000000000E+00  0.00000000000E+00  0.35774445013E+03  0.34575896447E+04  0.34390325761E+04 0.  0.
        2    1    3    3  502    0  0.14875069617E+04 -0.64505889676E+03  0.75463885162E+03  0.17883673386E+04  0.25500000920E-02 0.  1.
       -2    1    3    3    0  502 -0.14875069617E+04  0.64505889676E+03 -0.39689440149E+03  0.16692223061E+04  0.25500000920E-02 0. -1.
</event>
<event>
 5   0  0.1378620E-06  0.3398181E+04  0.7818609E-02  0.8138353E-01
       -2   -1    0    0    0  501  0.00000000000E+00  0.00000000000E+00  0.15729811273E+04  0.15729811273E+04  0.25500000920E-02 0. -1.
        2   -1    0    0  501    0  0.00000000000E+00  0.00000000000E+00 -0.18353100414E+04  0.18353100414E+04  0.25500000920E-02 0.  1.
    10030    2    1    2    0    0  0.00000000000E+00  0.00000000000E+00 -0.26232891407E+03  0.34082911687E+04  0.33981807237E+04 0.  0.
        2    1    3    3  502    0  0.16564810885E+04  0.28393193087E+03  0.11930061445E+03  0.16848678211E+04  0.25500000920E-02 0. -1.
       -2    1    3    3    0  502 -0.16564810885E+04 -0.28393193087E+03 -0.38162952852E+03  0.17234233476E+04  0.25500000920E-02 0.  1.
</event>
<event>
 5   0  0.4591195E-07  0.3479062E+04  0.7818609E-02  0.8118770E-01
        1   -1    0    0  501    0  0.00000000000E+00  0.00000000000E+00  0.19671897603E+04  0.19671897603E+04  0.50400001928E-02 0. -1.
       -1   -1    0    0    0  501  0.00000000000E+00  0.00000000000E+00 -0.15382185051E+04  0.15382185051E+04  0.50400001928E-02 0.  1.
    10030    2    1    2    0    0  0.00000000000E+00  0.00000000000E+00  0.42897125514E+03  0.35054082654E+04  0.34790617657E+04 0.  0.
        4    1    3    3  502    0 -0.80795075873E+03 -0.71616366387E+03 -0.11597681512E+04  0.15845310345E+04  0.12699999809E+01 0.  1.
       -4    1    3    3    0  502  0.80795075873E+03  0.71616366387E+03  0.15887394063E+04  0.19208772309E+04  0.12699999809E+01 0. -1.
</event>
<event>
 5   0  0.1348388E-06  0.3953427E+04  0.7818609E-02  0.8014008E-01
       -2   -1    0    0    0  501  0.00000000000E+00  0.00000000000E+00  0.21546765325E+04  0.21546765325E+04  0.25500000920E-02 0. -1.
        2   -1    0    0  501    0  0.00000000000E+00  0.00000000000E+00 -0.18134488315E+04  0.18134488315E+04  0.25500000920E-02 0.  1.
    10030    2    1    2    0    0  0.00000000000E+00  0.00000000000E+00  0.34122770100E+03  0.39681253641E+04  0.39534266859E+04 0.  0.
        5    1    3    3  502    0  0.14854528091E+04  0.12469298159E+04  0.55409393043E+03  0.20170389653E+04  0.46999998093E+01 0.  1.
       -5    1    3    3    0  502 -0.14854528091E+04 -0.12469298159E+04 -0.21286622943E+03  0.19510863988E+04  0.46999998093E+01 0. -1.
</event>
<event>
 5   0  0.4693374E-07  0.3528425E+04  0.7818609E-02  0.8107087E-01
        1   -1    0    0  501    0  0.00000000000E+00  0.00000000000E+00  0.26683522414E+04  0.26683522414E+04  0.50400001928E-02 0. -1.
       -1   -1    0    0    0  501  0.00000000000E+00  0.00000000000E+00 -0.11664295357E+04  0.11664295357E+04  0.50400001928E-02 0.  1.
    10030    2    1    2    0    0  0.00000000000E+00  0.00000000000E+00  0.15019227056E+04  0.38347817771E+04  0.35284245017E+04 0.  0.
        1    1    3    3  502    0 -0.92161561954E+03 -0.14885774919E+04  0.98709671645E+03  0.20098751771E+04  0.50400001928E-02 0. -1.
       -1    1    3    3    0  502  0.92161561954E+03  0.14885774919E+04  0.51482598919E+03  0.18249066000E+04  0.50400001928E-02 0.  1.
</event>
<event>
 5   0  0.1442864E-06  0.3517322E+04  0.7818609E-02  0.8109697E-01
        2   -1    0    0  501    0  0.00000000000E+00  0.00000000000E+00  0.12890362883E+04  0.12890362883E+04  0.25500000920E-02 0.  1.
       -2   -1    0    0    0  501  0.00000000000E+00  0.00000000000E+00 -0.23993809473E+04  0.23993809473E+04  0.25500000920E-02 0. -1.
    10030    2    1    2    0    0  0.00000000000E+00  0.00000000000E+00 -0.11103446590E+04  0.36884172357E+04  0.35173223399E+04 0.  0.
        1    1    3    3  502    0 -0.99947561404E+03  0.14243166088E+04 -0.28728587145E+03  0.17635652744E+04  0.50400001928E-02 0.  1.
       -1    1    3    3    0  502  0.99947561404E+03 -0.14243166088E+04 -0.82305878756E+03  0.19248519613E+04  0.50400001928E-02 0. -1.
</event>
<event>
 5   0  0.4557237E-07  0.2549511E+04  0.7818609E-02  0.8385556E-01
       -1   -1    0    0    0  501  0.00000000000E+00  0.00000000000E+00  0.10653577708E+04  0.10653577708E+04  0.50400001928E-02 0.  1.
        1   -1    0    0  501    0  0.00000000000E+00  0.00000000000E+00 -0.15253111772E+04  0.15253111772E+04  0.50400001928E-02 0. -1.
    10030    2    1    2    0    0  0.00000000000E+00  0.00000000000E+00 -0.45995340648E+03  0.25906689480E+04  0.25495114163E+04 0.  0.
        2    1    3    3  502    0  0.53968528729E+03 -0.40734497069E+03 -0.13280755158E+04  0.14902934979E+04  0.25500000920E-02 0. -1.
       -2    1    3    3    0  502 -0.53968528729E+03  0.40734497069E+03  0.86812210928E+03  0.11003754501E+04  0.25500000920E-02 0.  1.
</event>
<event>
 5   0  0.4557237E-07  0.3522115E+04  0.7818609E-02  0.8108569E-01
       -1   -1    0    0    0  501  0.00000000000E+00  0.00000000000E+00  0.22232614990E+04  0.22232614991E+04  0.50400001928E-02 0.  1.
        1   -1    0    0  501    0  0.00000000000E+00  0.00000000000E+00 -0.13949434462E+04  0.13949434462E+04  0.50400001928E-02 0. -1.
    10030    2    1    2    0    0  0.00000000000E+00  0.00000000000E+00  0.82831805284E+03  0.36182049453E+04  0.35221153061E+04 0.  0.
        2    1    3    3  502    0 -0.80402093408E+03  0.15492377522E+04  0.17381727352E+03  0.17540808761E+04  0.25500000920E-02 0. -1.
       -2    1    3    3    0  502  0.80402093408E+03 -0.15492377522E+04  0.65450077932E+03  0.18641240692E+04  0.25500000920E-02 0.  1.
</event>
<event>
 5   0  0.4409125E-07  0.3393070E+04  0.7818609E-02  0.8139609E-01
        1   -1    0    0  501    0  0.00000000000E+00  0.00000000000E+00  0.17558759325E+04  0.17558759325E+04  0.50400001928E-02 0.  1.
       -1   -1    0    0    0  501  0.00000000000E+00  0.00000000000E+00 -0.16391999666E+04  0.16391999666E+04  0.50400001928E-02 0. -1.
    10030    2    1    2    0    0  0.00000000000E+00  0.00000000000E+00  0.11667596597E+03  0.33950758991E+04  0.33930704501E+04 0.  0.
        5    1    3    3  502    0  0.10182981361E+04 -0.51158750023E+03 -0.11992090491E+04  0.16543207965E+04  0.46999998093E+01 0. -1.
       -5    1    3    3    0  502 -0.10182981361E+04  0.51158750023E+03  0.13158850151E+04  0.17407551026E+04  0.46999998093E+01 0.  1.
</event>
<event>
 5   0  0.4409125E-07  0.3483271E+04  0.7818609E-02  0.8117766E-01
       -1   -1    0    0    0  501  0.00000000000E+00  0.00000000000E+00  0.21138443971E+04  0.21138443971E+04  0.50400001928E-02 0. -1.
        1   -1    0    0  501    0  0.00000000000E+00  0.00000000000E+00 -0.14349657342E+04  0.14349657342E+04  0.50400001928E-02 0.  1.
    10030    2    1    2    0    0  0.00000000000E+00  0.00000000000E+00  0.67887866292E+03  0.35488101314E+04  0.34832710359E+04 0.  0.
        5    1    3    3  502    0 -0.74462118714E+03 -0.11428056283E+04  0.14427777180E+04  0.19854709894E+04  0.46999998093E+01 0. -1.
       -5    1    3    3    0  502  0.74462118714E+03  0.11428056283E+04 -0.76389905507E+03  0.15633391419E+04  0.46999998093E+01 0.  1.
</event>
<event>
 5   0  0.4591195E-07  0.3523986E+04  0.7818609E-02  0.8108129E-01
       -1   -1    0    0    0  501  0.00000000000E+00  0.00000000000E+00  0.17777980882E+04  0.17777980882E+04  0.50400001928E-02 0. -1.
        1   -1    0    0  501    0  0.00000000000E+00  0.00000000000E+00 -0.17463288586E+04  0.17463288586E+04  0.50400001928E-02 0.  1.
    10030    2    1    2    0    0  0.00000000000E+00  0.00000000000E+00  0.31469229562E+02  0.35241269468E+04  0.35239864394E+04 0.  0.
        4    1    3    3  502    0  0.43901736147E+03  0.15447209791E+03  0.17152201034E+04  0.17772392885E+04  0.12699999809E+01 0. -1.
       -4    1    3    3    0  502 -0.43901736147E+03 -0.15447209791E+03 -0.16837508738E+04  0.17468876583E+04  0.12699999809E+01 0.  1.
</event>
<event>
 5   0  0.1387133E-06  0.3627149E+04  0.7818609E-02  0.8084301E-01
       -2   -1    0    0    0  501  0.00000000000E+00  0.00000000000E+00  0.17487356488E+04  0.17487356488E+04  0.25500000920E-02 0. -1.
        2   -1    0    0  501    0  0.00000000000E+00  0.00000000000E+00 -0.18808169011E+04  0.18808169011E+04  0.25500000920E-02 0.  1.
    10030    2    1    2    0    0  0.00000000000E+00  0.00000000000E+00 -0.13208125228E+03  0.36295525499E+04  0.36271485020E+04 0.  0.
        4    1    3    3  502    0  0.22282262691E+03 -0.25809731232E+03 -0.18484527553E+04  0.18796391535E+04  0.12699999809E+01 0.  1.
       -4    1    3    3    0  502 -0.22282262691E+03  0.25809731232E+03  0.17163715031E+04  0.17499133965E+04  0.12699999809E+01 0. -1.
</event>
<event>
 5   0  0.1442864E-06  0.3508643E+04  0.7818609E-02  0.8111745E-01
        2   -1    0    0  501    0  0.00000000000E+00  0.00000000000E+00  0.23691686914E+04  0.23691686914E+04  0.25500000920E-02 0. -1.
       -2   -1    0    0    0  501  0.00000000000E+00  0.00000000000E+00 -0.12990395723E+04  0.12990395723E+04  0.25500000920E-02 0.  1.
    10030    2    1    2    0    0  0.00000000000E+00  0.00000000000E+00  0.10701291191E+04  0.36682082638E+04  0.35086429763E+04 0.  0.
        1    1    3    3  502    0 -0.60643676220E+03 -0.67388691865E+02 -0.11845277753E+04  0.13324461839E+04  0.50400001928E-02 0.  1.
       -1    1    3    3    0  502  0.60643676220E+03  0.67388691865E+02  0.22546568944E+04  0.23357620799E+04  0.50400001928E-02 0. -1.
</event>
<event>
 5   0  0.1348388E-06  0.3437118E+04  0.7818609E-02  0.8128856E-01
       -2   -1    0    0    0  501  0.00000000000E+00  0.00000000000E+00  0.25652603177E+04  0.25652603177E+04  0.25500000920E-02 0.  1.
        2   -1    0    0  501    0  0.00000000000E+00  0.00000000000E+00 -0.11513234542E+04  0.11513234542E+04  0.25500000920E-02 0. -1.
    10030    2    1    2    0    0  0.00000000000E+00  0.00000000000E+00  0.14139368635E+04  0.37165837719E+04  0.34371176121E+04 0.  0.
        5    1    3    3  502    0  0.10356476309E+04 -0.17277529586E+03  0.21781061300E+04  0.24179714063E+04  0.46999998093E+01 0.  1.
       -5    1    3    3    0  502 -0.10356476309E+04  0.17277529586E+03 -0.76416926651E+03  0.12986123656E+04  0.46999998093E+01 0. -1.
</event>
<event>
 5   0  0.1378620E-06  0.3541884E+04  0.7818609E-02  0.8103935E-01
        2   -1    0    0  501    0  0.00000000000E+00  0.00000000000E+00  0.20204225079E+04  0.20204225079E+04  0.25500000920E-02 0.  1.
       -2   -1    0    0    0  501  0.00000000000E+00  0.00000000000E+00 -0.15522671958E+04  0.15522671958E+04  0.25500000920E-02 0. -1.
    10030    2    1    2    0    0  0.00000000000E+00  0.00000000000E+00  0.46815531211E+03  0.35726897037E+04  0.35418840075E+04 0.  0.
        2    1    3    3  502    0 -0.15283818446E+04  0.77853706511E+02  0.11330209164E+04  0.19041398740E+04  0.25500000920E-02 0.  1.
       -2    1    3    3    0  502  0.15283818446E+04 -0.77853706511E+02 -0.66486560433E+03  0.16685498297E+04  0.25500000920E-02 0. -1.
</event>
<event>
 5   0  0.4557237E-07  0.3540615E+04  0.7818609E-02  0.8104232E-01
       -1   -1    0    0    0  501  0.00000000000E+00  0.00000000000E+00  0.15259555048E+04  0.15259555048E+04  0.50400001928E-02 0.  1.
        1   -1    0    0  501    0  0.00000000000E+00  0.00000000000E+00 -0.20537881410E+04  0.20537881410E+04  0.50400001928E-02 0. -1.
    10030    2    1    2    0    0  0.00000000000E+00  0.00000000000E+00 -0.52783263618E+03  0.35797436458E+04  0.35406153813E+04 0.  0.
        2    1    3    3  502    0  0.84871098831E+03  0.14720152021E+04 -0.76624726772E+03  0.18639404422E+04  0.25500000920E-02 0. -1.
       -2    1    3    3    0  502 -0.84871098831E+03 -0.14720152021E+04  0.23841463155E+03  0.17158032036E+04  0.25500000920E-02 0.  1.
</event>
<event>
 5   0  0.4693374E-07  0.3374310E+04  0.7818609E-02  0.8144240E-01
       -1   -1    0    0    0  501  0.00000000000E+00  0.00000000000E+00  0.88384859951E+03  0.88384859952E+03  0.50400001928E-02 0.  1.
        1   -1    0    0  501    0  0.00000000000E+00  0.00000000000E+00 -0.32205651461E+04  0.32205651461E+04  0.50400001928E-02 0. -1.
    10030    2    1    2    0    0  0.00000000000E+00  0.00000000000E+00 -0.23367165465E+04  0.41044137456E+04  0.33743100000E+04 0.  0.
        1    1    3    3  502    0  0.22819925870E+03 -0.89343236257E+03 -0.28869301987E+04  0.30306207715E+04  0.50400001928E-02 0. -1.
       -1    1    3    3    0  502 -0.22819925870E+03  0.89343236257E+03  0.55021365219E+03  0.10737929741E+04  0.50400001928E-02 0.  1.
</event>
<event>
 5   0  0.1348388E-06  0.3324884E+04  0.7818609E-02  0.8156592E-01
       -2   -1    0    0    0  501  0.00000000000E+00  0.00000000000E+00  0.12346145324E+04  0.12346145324E+04  0.25500000920E-02 0.  1.
        2   -1    0    0  501    0  0.00000000000E+00  0.00000000000E+00 -0.22385237433E+04  0.22385237433E+04  0.25500000920E-02 0. -1.
    10030    2    1    2    0    0  0.00000000000E+00  0.00000000000E+00 -0.10039092109E+04  0.34731382756E+04  0.33248843255E+04 0.  0.
        5    1    3    3  502    0 -0.70522261518E+03 -0.92082109316E+03  0.74213378609E+03  0.13769658925E+04  0.46999998093E+01 0.  1.
       -5    1    3    3    0  502  0.70522261518E+03  0.92082109316E+03 -0.17460429970E+04  0.20961723831E+04  0.46999998093E+01 0. -1.
</event>
<event>
 5   0  0.1442864E-06  0.3425432E+04  0.7818609E-02  0.8131692E-01
       -2   -1    0    0    0  501  0.00000000000E+00  0.00000000000E+00  0.17905688748E+04  0.17905688748E+04  0.25500000920E-02 0.  1.
        2   -1    0    0  501    0  0.00000000000E+00  0.00000000000E+00 -0.16382484166E+04  0.16382484166E+04  0.25500000920E-02 0. -1.
    10030    2    1    2    0    0  0.00000000000E+00  0.00000000000E+00  0.15232045818E+03  0.34288172913E+04  0.34254323078E+04 0.  0.
        1    1    3    3  502    0 -0.87837833364E+03 -0.63185834768E+03 -0.12527823791E+04  0.16553722113E+04  0.50400001928E-02 0. -1.
       -1    1    3    3    0  502  0.87837833364E+03  0.63185834768E+03  0.14051028373E+04  0.17734450800E+04  0.50400001928E-02 0.  1.
</event>
<event>
 5   0  0.4409125E-07  0.3479178E+04  0.7818609E-02  0.8118742E-01
        3   -1    0    0  501    0  0.00000000000E+00  0.00000000000E+00  0.16655032310E+04  0.16655032340E+04  0.10100000352E+00 0.  1.
       -3   -1    0    0    0  501  0.00000000000E+00  0.00000000000E+00 -0.18169699994E+04  0.18169700022E+04  0.10100000352E+00 0. -1.
    10030    2    1    2    0    0  0.00000000000E+00  0.00000000000E+00 -0.15146676847E+03  0.34824732363E+04  0.34791777275E+04 0.  0.
        2    1    3    3  502    0 -0.16526104269E+04 -0.53138668861E+03  0.36962688241E+02  0.17363350126E+04  0.25500000920E-02 0.  1.
       -2    1    3    3    0  502  0.16526104269E+04  0.53138668861E+03 -0.18842945671E+03  0.17461382236E+04  0.25500000920E-02 0. -1.
</event>
<event>
 5   0  0.4700769E-07  0.3514824E+04  0.7818609E-02  0.8110286E-01
       -1   -1    0    0    0  501  0.00000000000E+00  0.00000000000E+00  0.12828284138E+04  0.12828284138E+04  0.50400001928E-02 0.  1.
        1   -1    0    0  501    0  0.00000000000E+00  0.00000000000E+00 -0.24075688197E+04  0.24075688197E+04  0.50400001928E-02 0. -1.
    10030    2    1    2    0    0  0.00000000000E+00  0.00000000000E+00 -0.11247404059E+04  0.36903972335E+04  0.35148244281E+04 0.  0.
        3    1    3    3  502    0  0.12284487894E+03  0.63178711773E+03  0.11546311314E+04  0.13218997262E+04  0.10100000352E+00 0.  1.
       -3    1    3    3    0  502 -0.12284487894E+03 -0.63178711773E+03 -0.22793715373E+04  0.23684975072E+04  0.10100000352E+00 0. -1.
</event>
<event>
 5   0  0.1348388E-06  0.3184216E+04  0.7818609E-02  0.8192998E-01
        2   -1    0    0  501    0  0.00000000000E+00  0.00000000000E+00  0.13640785295E+04  0.13640785295E+04  0.25500000920E-02 0. -1.
       -2   -1    0    0    0  501  0.00000000000E+00  0.00000000000E+00 -0.18582566547E+04  0.18582566547E+04  0.25500000920E-02 0.  1.
    10030    2    1    2    0    0  0.00000000000E+00  0.00000000000E+00 -0.49417812517E+03  0.32223351842E+04  0.31842160762E+04 0.  0.
        5    1    3    3  502    0  0.98367984791E+03 -0.21871673678E+03  0.10002749753E+04  0.14198715331E+04  0.46999998093E+01 0. -1.
       -5    1    3    3    0  502 -0.98367984791E+03  0.21871673678E+03 -0.14944531005E+04  0.18024636512E+04  0.46999998093E+01 0.  1.
</event>
<event>
 5   0  0.4700769E-07  0.3500563E+04  0.7818609E-02  0.8113656E-01
       -1   -1    0    0    0  501  0.00000000000E+00  0.00000000000E+00  0.15430754768E+04  0.15430754768E+04  0.50400001928E-02 0.  1.
        1   -1    0    0  501    0  0.00000000000E+00  0.00000000000E+00 -0.19853118048E+04  0.19853118048E+04  0.50400001928E-02 0. -1.
    10030    2    1    2    0    0  0.00000000000E+00  0.00000000000E+00 -0.44223632805E+03  0.35283872816E+04  0.35005633603E+04 0.  0.
        3    1    3    3  502    0 -0.10338602788E+04  0.34198684411E+03  0.11600521338E+04  0.15910823488E+04  0.10100000352E+00 0.  1.
       -3    1    3    3    0  502  0.10338602788E+04 -0.34198684411E+03 -0.16022884618E+04  0.19373049328E+04  0.10100000352E+00 0. -1.
</event>
<event>
 5   0  0.1348388E-06  0.3512587E+04  0.7818609E-02  0.8110814E-01
        2   -1    0    0  501    0  0.00000000000E+00  0.00000000000E+00  0.12807678094E+04  0.12807678094E+04  0.25500000920E-02 0. -1.
       -2   -1    0    0    0  501  0.00000000000E+00  0.00000000000E+00 -0.24083726690E+04  0.24083726690E+04  0.25500000920E-02 0.  1.
    10030    2    1    2    0    0  0.00000000000E+00  0.00000000000E+00 -0.11276048597E+04  0.36891404784E+04  0.35125866181E+04 0.  0.
        5    1    3    3  502    0 -0.45469904843E+03 -0.16232784625E+04 -0.10812741622E+04  0.20027381495E+04  0.46999998093E+01 0. -1.
       -5    1    3    3    0  502  0.45469904843E+03  0.16232784625E+04 -0.46330697448E+02  0.16864023289E+04  0.46999998093E+01 0.  1.
</event>
<event>
 5   0  0.4557237E-07  0.3520078E+04  0.7818609E-02  0.8109048E-01
       -1   -1    0    0    0  501  0.00000000000E+00  0.00000000000E+00  0.10692604814E+04  0.10692604814E+04  0.50400001928E-02 0. -1.
        1   -1    0    0  501    0  0.00000000000E+00  0.00000000000E+00 -0.28970844202E+04  0.28970844202E+04  0.50400001928E-02 0.  1.
    10030    2    1    2    0    0  0.00000000000E+00  0.00000000000E+00 -0.18278239389E+04  0.39663449016E+04  0.35200783411E+04 0.  0.
        2    1    3    3  502    0 -0.57889347826E+03 -0.15827321490E+04 -0.34204697249E+03  0.17196379985E+04  0.25500000920E-02 0. -1.
       -2    1    3    3    0  502  0.57889347826E+03  0.15827321490E+04 -0.14857769664E+04  0.22467069031E+04  0.25500000920E-02 0.  1.
</event>
<event>
 5   0  0.1442864E-06  0.3155291E+04  0.7818609E-02  0.8200726E-01
        2   -1    0    0  501    0  0.00000000000E+00  0.00000000000E+00  0.17221741042E+04  0.17221741042E+04  0.25500000920E-02 0. -1.
       -2   -1    0    0    0  501  0.00000000000E+00  0.00000000000E+00 -0.14452456439E+04  0.14452456439E+04  0.25500000920E-02 0.  1.
    10030    2    1    2    0    0  0.00000000000E+00  0.00000000000E+00  0.27692846032E+03  0.31674197481E+04  0.31552905553E+04 0.  0.
        1    1    3    3  502    0 -0.62087361009E+03  0.14502372427E+04  0.15563325758E+03  0.15852109673E+04  0.50400001928E-02 0.  1.
       -1    1    3    3    0  502  0.62087361009E+03 -0.14502372427E+04  0.12129520274E+03  0.15822087808E+04  0.50400001928E-02 0. -1.
</event>
<event>
 5   0  0.4557237E-07  0.3501967E+04  0.7818609E-02  0.8113324E-01
       -1   -1    0    0    0  501  0.00000000000E+00  0.00000000000E+00  0.16236516040E+04  0.16236516040E+04  0.50400001928E-02 0.  1.
        1   -1    0    0  501    0  0.00000000000E+00  0.00000000000E+00 -0.18883006964E+04  0.18883006964E+04  0.50400001928E-02 0. -1.
    10030    2    1    2    0    0  0.00000000000E+00  0.00000000000E+00 -0.26464909238E+03  0.35119523005E+04  0.35019665645E+04 0.  0.
        2    1    3    3  502    0  0.14272408532E+03 -0.13727690249E+04 -0.12129301538E+04  0.18374070094E+04  0.25500000920E-02 0. -1.
       -2    1    3    3    0  502 -0.14272408532E+03  0.13727690249E+04  0.94828106145E+03  0.16745452910E+04  0.25500000920E-02 0.  1.
</event>
<event>
 5   0  0.1387133E-06  0.3456073E+04  0.7818609E-02  0.8124280E-01
        2   -1    0    0  501    0  0.00000000000E+00  0.00000000000E+00  0.25919729786E+04  0.25919729786E+04  0.25500000920E-02 0. -1.
       -2   -1    0    0    0  501  0.00000000000E+00  0.00000000000E+00 -0.11520603570E+04  0.11520603570E+04  0.25500000920E-02 0.  1.
    10030    2    1    2    0    0  0.00000000000E+00  0.00000000000E+00  0.14399126215E+04  0.37440333356E+04  0.34560725195E+04 0.  0.
        4    1    3    3  502    0  0.80833646345E+03 -0.16298802377E+03  0.23650824459E+04  0.25047134613E+04  0.12699999809E+01 0. -1.
       -4    1    3    3    0  502 -0.80833646345E+03  0.16298802377E+03 -0.92516982440E+03  0.12393198743E+04  0.12699999809E+01 0.  1.
</event>
<event>
 5   0  0.4591195E-07  0.3476637E+04  0.7818609E-02  0.8119349E-01
       -1   -1    0    0    0  501  0.00000000000E+00  0.00000000000E+00  0.17974274882E+04  0.17974274882E+04  0.50400001928E-02 0.  1.
        1   -1    0    0  501    0  0.00000000000E+00  0.00000000000E+00 -0.16811537795E+04  0.16811537795E+04  0.50400001928E-02 0. -1.
    10030    2    1    2    0    0  0.00000000000E+00  0.00000000000E+00  0.11627370872E+03  0.34785812677E+04  0.34766374647E+04 0.  0.
        4    1    3    3  502    0 -0.11878872403E+03 -0.11689889186E+04 -0.12236354186E+04  0.16964466108E+04  0.12699999809E+01 0. -1.
       -4    1    3    3    0  502  0.11878872403E+03  0.11689889186E+04  0.13399091274E+04  0.17821346569E+04  0.12699999809E+01 0.  1.
</event>
<event>
 5   0  0.4557237E-07  0.3472127E+04  0.7818609E-02  0.8120427E-01
       -1   -1    0    0    0  501  0.00000000000E+00  0.00000000000E+00  0.27536664024E+04  0.27536664025E+04  0.50400001928E-02 0.  1.
        1   -1    0    0  501    0  0.00000000000E+00  0.00000000000E+00 -0.10945103673E+04  0.10945103673E+04  0.50400001928E-02 0. -1.
    10030    2    1    2    0    0  0.00000000000E+00  0.00000000000E+00  0.16591560351E+04  0.38481767698E+04  0.34721269710E+04 0.  0.
        2    1    3    3  502    0  0.26481717732E+03  0.58535765449E+03 -0.95790396042E+03  0.11534087387E+04  0.25500000920E-02 0. -1.
       -2    1    3    3    0  502 -0.26481717732E+03 -0.58535765449E+03  0.26170599956E+04  0.26947680311E+04  0.25500000920E-02 0.  1.
</event>
<event>
 5   0  0.4409125E-07  0.3484930E+04  0.7818609E-02  0.8117371E-01
       -1   -1    0    0    0  501  0.00000000000E+00  0.00000000000E+00  0.30237271447E+04  0.30237271448E+04  0.50400001928E-02 0.  1.
        1   -1    0    0  501    0  0.00000000000E+00  0.00000000000E+00 -0.10041197275E+04  0.10041197276E+04  0.50400001928E-02 0. -1.
    10030    2    1    2    0    0  0.00000000000E+00  0.00000000000E+00  0.20196074172E+04  0.40278468723E+04  0.34849298855E+04 0.  0.
        5    1    3    3  502    0 -0.12255409547E+04 -0.97157493769E+03  0.18977734984E+04  0.24591614083E+04  0.46999998093E+01 0.  1.
       -5    1    3    3    0  502  0.12255409547E+04  0.97157493769E+03  0.12183391883E+03  0.15686854640E+04  0.46999998093E+01 0. -1.
</event>
<event>
 5   0  0.4557237E-07  0.3429591E+04  0.7818609E-02  0.8130682E-01
        1   -1    0    0  501    0  0.00000000000E+00  0.00000000000E+00  0.14895753543E+04  0.14895753543E+04  0.50400001928E-02 0.  1.
       -1   -1    0    0    0  501  0.00000000000E+00  0.00000000000E+00 -0.19740681858E+04  0.19740681858E+04  0.50400001928E-02 0. -1.
    10030    2    1    2    0    0  0.00000000000E+00  0.00000000000E+00 -0.48449283145E+03  0.34636435401E+04  0.34295908312E+04 0.  0.
        2    1    3    3  502    0  0.12228753887E+04  0.66532580464E+03 -0.12534072067E+04  0.18732624665E+04  0.25500000920E-02 0.  1.
       -2    1    3    3    0  502 -0.12228753887E+04 -0.66532580464E+03  0.76891437530E+03  0.15903810736E+04  0.25500000920E-02 0. -1.
</event>
<event>
 5   0  0.4700769E-07  0.3466935E+04  0.7818609E-02  0.8121671E-01
       -1   -1    0    0    0  501  0.00000000000E+00  0.00000000000E+00  0.15514131282E+04  0.15514131282E+04  0.50400001928E-02 0.  1.
        1   -1    0    0  501    0  0.00000000000E+00  0.00000000000E+00 -0.19368855018E+04  0.19368855018E+04  0.50400001928E-02 0. -1.
    10030    2    1    2    0    0  0.00000000000E+00  0.00000000000E+00 -0.38547237362E+03  0.34882986300E+04  0.34669350125E+04 0.  0.
        3    1    3    3  502    0  0.70086039205E+02 -0.93628511974E+03  0.12734210911E+04  0.15821324736E+04  0.10100000352E+00 0.  1.
       -3    1    3    3    0  502 -0.70086039205E+02  0.93628511974E+03 -0.16588934648E+04  0.19061661564E+04  0.10100000352E+00 0. -1.
</event>
<event>
 5   0  0.4409125E-07  0.3567055E+04  0.7818609E-02  0.8098080E-01
       -1   -1    0    0    0  501  0.00000000000E+00  0.00000000000E+00  0.22457032735E+04  0.22457032735E+04  0.50400001928E-02 0.  1.
        1   -1    0    0  501    0  0.00000000000E+00  0.00000000000E+00 -0.14164696408E+04  0.14164696408E+04  0.50400001928E-02 0. -1.
    10030    2    1    2    0    0  0.00000000000E+00  0.00000000000E+00  0.82923363268E+03  0.36621729143E+04  0.35670550930E+04 0.  0.
        5    1    3    3  502    0  0.20459326939E+02 -0.16712146688E+04  0.10537698739E+04  0.19758112487E+04  0.46999998093E+01 0.  1.
       -5    1    3    3    0  502 -0.20459326939E+02  0.16712146688E+04 -0.22453624126E+03  0.16863616656E+04  0.46999998093E+01 0. -1.
</event>
<event>
 5   0  0.4409125E-07  0.3476236E+04  0.7818609E-02  0.8119445E-01
       -1   -1    0    0    0  501  0.00000000000E+00  0.00000000000E+00  0.16823854660E+04  0.16823854660E+04  0.50400001928E-02 0.  1.
        1   -1    0    0  501    0  0.00000000000E+00  0.00000000000E+00 -0.17956970417E+04  0.17956970417E+04  0.50400001928E-02 0. -1.
    10030    2    1    2    0    0  0.00000000000E+00  0.00000000000E+00 -0.11331157569E+03  0.34780825077E+04  0.34762362430E+04 0.  0.
        5    1    3    3  502    0  0.16914223233E+03 -0.99544771018E+03 -0.14721535387E+04  0.17851563993E+04  0.46999998093E+01 0. -1.
       -5    1    3    3    0  502 -0.16914223233E+03  0.99544771018E+03  0.13588419630E+04  0.16929261085E+04  0.46999998093E+01 0.  1.
</event>
<event>
 5   0  0.4409125E-07  0.3357300E+04  0.7818609E-02  0.8148467E-01
        1   -1    0    0  501    0  0.00000000000E+00  0.00000000000E+00  0.17359974285E+04  0.17359974285E+04  0.50400001928E-02 0.  1.
       -1   -1    0    0    0  501  0.00000000000E+00  0.00000000000E+00 -0.16231970307E+04  0.16231970307E+04  0.50400001928E-02 0. -1.
    10030    2    1    2    0    0  0.00000000000E+00  0.00000000000E+00  0.11280039784E+03  0.33591944592E+04  0.33573000291E+04 0.  0.
        5    1    3    3  502    0  0.10186296818E+04  0.23014186723E+03  0.13713990301E+04  0.17237543611E+04  0.46999998093E+01 0.  1.
       -5    1    3    3    0  502 -0.10186296818E+04 -0.23014186723E+03 -0.12585986322E+04  0.16354400982E+04  0.46999998093E+01 0. -1.
</event>
<event>
 5   0  0.1387133E-06  0.3471585E+04  0.7818609E-02  0.8120557E-01
       -2   -1    0    0    0  501  0.00000000000E+00  0.00000000000E+00  0.10480101154E+04  0.10480101154E+04  0.25500000920E-02 0. -1.
        2   -1    0    0  501    0  0.00000000000E+00  0.00000000000E+00 -0.28749483182E+04  0.28749483182E+04  0.25500000920E-02 0.  1.
    10030    2    1    2    0    0  0.00000000000E+00  0.00000000000E+00 -0.18269382028E+04  0.39229584337E+04  0.34715846058E+04 0.  0.
        4    1    3    3  502    0 -0.12504923667E+04  0.95956582256E+03 -0.17349517870E+04  0.23440471503E+04  0.12699999809E+01 0. -1.
       -4    1    3    3    0  502  0.12504923667E+04 -0.95956582256E+03 -0.91986415854E+02  0.15789112833E+04  0.12699999809E+01 0.  1.
</event>
<event>
 5   0  0.4591195E-07  0.3567851E+04  0.7818609E-02  0.8097896E-01
        1   -1    0    0  501    0  0.00000000000E+00  0.00000000000E+00  0.22383727497E+04  0.22383727497E+04  0.50400001928E-02 0.  1.
       -1   -1    0    0    0  501  0.00000000000E+00  0.00000000000E+00 -0.14217425812E+04  0.14217425812E+04  0.50400001928E-02 0. -1.
    10030    2    1    2    0    0  0.00000000000E+00  0.00000000000E+00  0.81663016849E+03  0.36601153309E+04  0.35678508102E+04 0.  0.
        4    1    3    3  502    0 -0.70936301281E+03  0.10588257497E+04  0.16888252024E+04  0.21157599177E+04  0.12699999809E+01 0.  1.
       -4    1    3    3    0  502  0.70936301281E+03 -0.10588257497E+04 -0.87219503395E+03  0.15443554132E+04  0.12699999809E+01 0. -1.
</event>
<event>
 5   0  0.1361560E-06  0.3533989E+04  0.7818609E-02  0.8105782E-01
       -2   -1    0    0    0  501  0.00000000000E+00  0.00000000000E+00  0.14877661024E+04  0.14877661024E+04  0.25500000920E-02 0.  1.
        2   -1    0    0  501    0  0.00000000000E+00  0.00000000000E+00 -0.20986296708E+04  0.20986296708E+04  0.25500000920E-02 0. -1.
    10030    2    1    2    0    0  0.00000000000E+00  0.00000000000E+00 -0.61086356844E+03  0.35863957732E+04  0.35339892958E+04 0.  0.
        3    1    3    3  502    0 -0.17115290449E+04  0.30380272886E+03 -0.62737796227E+03  0.18480343306E+04  0.10100000352E+00 0. -1.
       -3    1    3    3    0  502  0.17115290449E+04 -0.30380272886E+03  0.16514393827E+02  0.17383614425E+04  0.10100000352E+00 0.  1.
</event>
<event>
 5   0  0.1442864E-06  0.3528772E+04  0.7818609E-02  0.8107005E-01
       -2   -1    0    0    0  501  0.00000000000E+00  0.00000000000E+00  0.12327175892E+04  0.12327175892E+04  0.25500000920E-02 0.  1.
        2   -1    0    0  501    0  0.00000000000E+00  0.00000000000E+00 -0.25253612052E+04  0.25253612052E+04  0.25500000920E-02 0. -1.
    10030    2    1    2    0    0  0.00000000000E+00  0.00000000000E+00 -0.12926436160E+04  0.37580787944E+04  0.35287715577E+04 0.  0.
        1    1    3    3  502    0  0.29042073255E+03  0.13617303152E+04  0.50779830605E+03  0.14820636872E+04  0.50400001928E-02 0. -1.
       -1    1    3    3    0  502 -0.29042073255E+03 -0.13617303152E+04 -0.18004419220E+04  0.22760151071E+04  0.50400001928E-02 0.  1.
</event>
<event>
 5   0  0.4591195E-07  0.3467455E+04  0.7818609E-02  0.8121546E-01
        1   -1    0    0  501    0  0.00000000000E+00  0.00000000000E+00  0.25436943388E+04  0.25436943388E+04  0.50400001928E-02 0.  1.
       -1   -1    0    0    0  501  0.00000000000E+00  0.00000000000E+00 -0.11816713367E+04  0.11816713367E+04  0.50400001928E-02 0. -1.
    10030    2    1    2    0    0  0.00000000000E+00  0.00000000000E+00  0.13620230022E+04  0.37253656755E+04  0.34674547953E+04 0.  0.
        4    1    3    3  502    0 -0.17504512135E+03  0.92145672073E+03 -0.88555376680E+03  0.12899342501E+04  0.12699999809E+01 0. -1.
       -4    1    3    3    0  502  0.17504512135E+03 -0.92145672073E+03  0.22475767689E+04  0.24354314254E+04  0.12699999809E+01 0.  1.
</event>
<event>
 5   0  0.1442864E-06  0.3393861E+04  0.7818609E-02  0.8139415E-01
       -2   -1    0    0    0  501  0.00000000000E+00  0.00000000000E+00  0.19846407942E+04  0.19846407942E+04  0.25500000920E-02 0.  1.
        2   -1    0    0  501    0  0.00000000000E+00  0.00000000000E+00 -0.14509288695E+04  0.14509288695E+04  0.25500000920E-02 0. -1.
    10030    2    1    2    0    0  0.00000000000E+00  0.00000000000E+00  0.53371192476E+03  0.34355696637E+04  0.33938607065E+04 0.  0.
        1    1    3    3  502    0  0.10930335365E+04 -0.11729432342E+04 -0.29590280288E+03  0.16303608838E+04  0.50400001928E-02 0. -1.
       -1    1    3    3    0  502 -0.10930335365E+04  0.11729432342E+04  0.82961472763E+03  0.18052087799E+04  0.50400001928E-02 0.  1.
</event>
<event>
 5   0  0.1361560E-06  0.3393907E+04  0.7818609E-02  0.8139403E-01
       -2   -1    0    0    0  501  0.00000000000E+00  0.00000000000E+00  0.13833662671E+04  0.13833662671E+04  0.25500000920E-02 0.  1.
        2   -1    0    0  501    0  0.00000000000E+00  0.00000000000E+00 -0.20816254578E+04  0.20816254578E+04  0.25500000920E-02 0. -1.
    10030    2    1    2    0    0  0.00000000000E+00  0.00000000000E+00 -0.69825919067E+03  0.34649917249E+04  0.33939065626E+04 0.  0.
        3    1    3    3  502    0 -0.32111634592E+03  0.12205384985E+04 -0.15072702437E+04  0.19658823799E+04  0.10100000352E+00 0. -1.
       -3    1    3    3    0  502  0.32111634592E+03 -0.12205384985E+04  0.80901105305E+03  0.14991093449E+04  0.10100000352E+00 0.  1.
</event>
<event>
 5   0  0.4557237E-07  0.3458716E+04  0.7818609E-02  0.8123644E-01
        1   -1    0    0  501    0  0.00000000000E+00  0.00000000000E+00  0.22012159643E+04  0.22012159643E+04  0.50400001928E-02 0. -1.
       -1   -1    0    0    0  501  0.00000000000E+00  0.00000000000E+00 -0.13586487497E+04  0.13586487497E+04  0.50400001928E-02 0.  1.
    10030    2    1    2    0    0  0.00000000000E+00  0.00000000000E+00  0.84256721460E+03  0.35598647140E+04  0.34587161305E+04 0.  0.
        2    1    3    3  502    0 -0.15578512483E+04  0.63198692377E+03  0.83856749362E+03  0.18786972681E+04  0.25500000920E-02 0. -1.
       -2    1    3    3    0  502  0.15578512483E+04 -0.63198692377E+03  0.39997209742E+01  0.16811674460E+04  0.25500000920E-02 0.  1.
</event>
<event>
 5   0  0.1361560E-06  0.3390335E+04  0.7818609E-02  0.8140282E-01
       -2   -1    0    0    0  501  0.00000000000E+00  0.00000000000E+00  0.18758065344E+04  0.18758065344E+04  0.25500000920E-02 0. -1.
        2   -1    0    0  501    0  0.00000000000E+00  0.00000000000E+00 -0.15319238964E+04  0.15319238964E+04  0.25500000920E-02 0.  1.
    10030    2    1    2    0    0  0.00000000000E+00  0.00000000000E+00  0.34388263796E+03  0.34077304308E+04  0.33903350011E+04 0.  0.
        3    1    3    3  502    0 -0.13825429403E+04 -0.14257162439E+03 -0.80352316194E+03  0.16054286442E+04  0.10100000352E+00 0.  1.
       -3    1    3    3    0  502  0.13825429403E+04  0.14257162439E+03  0.11474057999E+04  0.18023017865E+04  0.10100000352E+00 0. -1.
</event>
<event>
 5   0  0.4693374E-07  0.3414330E+04  0.7818609E-02  0.8134398E-01
       -1   -1    0    0    0  501  0.00000000000E+00  0.00000000000E+00  0.25956403129E+04  0.25956403129E+04  0.50400001928E-02 0.  1.
        1   -1    0    0  501    0  0.00000000000E+00  0.00000000000E+00 -0.11228108168E+04  0.11228108168E+04  0.50400001928E-02 0. -1.
    10030    2    1    2    0    0  0.00000000000E+00  0.00000000000E+00  0.14728294961E+04  0.37184511297E+04  0.34143303999E+04 0.  0.
        1    1    3    3  502    0  0.14009681210E+03  0.96372408419E+03 -0.79062624933E+03  0.12543847469E+04  0.50400001928E-02 0. -1.
       -1    1    3    3    0  502 -0.14009681210E+03 -0.96372408419E+03  0.22634557455E+04  0.24640663828E+04  0.50400001928E-02 0.  1.
</event>
<event>
 5   0  0.4557237E-07  0.3328193E+04  0.7818609E-02  0.8155758E-01
        1   -1    0    0  501    0  0.00000000000E+00  0.00000000000E+00  0.21479945985E+04  0.21479945985E+04  0.50400001928E-02 0. -1.
       -1   -1    0    0    0  501  0.00000000000E+00  0.00000000000E+00 -0.12892107074E+04  0.12892107075E+04  0.50400001928E-02 0.  1.
    10030    2    1    2    0    0  0.00000000000E+00  0.00000000000E+00  0.85878389103E+03  0.34372053059E+04  0.33281932852E+04 0.  0.
        2    1    3    3  502    0  0.15529680781E+04  0.28461733572E+03 -0.11366465356E+03  0.15829202547E+04  0.25500000920E-02 0.  1.
       -2    1    3    3    0  502 -0.15529680781E+04 -0.28461733572E+03  0.97244854459E+03  0.18542850512E+04  0.25500000920E-02 0. -1.
</event>
<event>
 5   0  0.4693374E-07  0.2644472E+04  0.7818609E-02  0.8353250E-01
        1   -1    0    0  501    0  0.00000000000E+00  0.00000000000E+00  0.13334307663E+04  0.13334307663E+04  0.50400001928E-02 0. -1.
       -1   -1    0    0    0  501  0.00000000000E+00  0.00000000000E+00 -0.13111352114E+04  0.13111352115E+04  0.50400001928E-02 0.  1.
    10030    2    1    2    0    0  0.00000000000E+00  0.00000000000E+00  0.22295554879E+02  0.26445659778E+04  0.26444719925E+04 0.  0.
        1    1    3    3  502    0  0.13621621471E+03  0.10522878489E+04 -0.77783111969E+03  0.13156313408E+04  0.50400001928E-02 0.  1.
       -1    1    3    3    0  502 -0.13621621471E+03 -0.10522878489E+04  0.80012667457E+03  0.13289346370E+04  0.50400001928E-02 0. -1.
</event>
<event>
 5   0  0.1442864E-06  0.3483926E+04  0.7818609E-02  0.8117610E-01
        2   -1    0    0  501    0  0.00000000000E+00  0.00000000000E+00  0.20873958938E+04  0.20873958938E+04  0.25500000920E-02 0.  1.
       -2   -1    0    0    0  501  0.00000000000E+00  0.00000000000E+00 -0.14536937643E+04  0.14536937643E+04  0.25500000920E-02 0. -1.
    10030    2    1    2    0    0  0.00000000000E+00  0.00000000000E+00  0.63370212946E+03  0.35410896582E+04  0.34839255988E+04 0.  0.
        1    1    3    3  502    0  0.13730895030E+04  0.95935164673E+03  0.80292793866E+03  0.18575315986E+04  0.50400001928E-02 0.  1.
       -1    1    3    3    0  502 -0.13730895030E+04 -0.95935164673E+03 -0.16922580920E+03  0.16835580595E+04  0.50400001928E-02 0. -1.
</event>
<event>
 5   0  0.4693374E-07  0.3463219E+04  0.7818609E-02  0.8122562E-01
        1   -1    0    0  501    0  0.00000000000E+00  0.00000000000E+00  0.19523000553E+04  0.19523000553E+04  0.50400001928E-02 0. -1.
       -1   -1    0    0    0  501  0.00000000000E+00  0.00000000000E+00 -0.15358657844E+04  0.15358657845E+04  0.50400001928E-02 0.  1.
    10030    2    1    2    0    0  0.00000000000E+00  0.00000000000E+00  0.41643427084E+03  0.34881658397E+04  0.34632186509E+04 0.  0.
        1    1    3    3  502    0  0.31091820271E+02 -0.88861562614E+03 -0.12883755230E+04  0.15654123804E+04  0.50400001928E-02 0.  1.
       -1    1    3    3    0  502 -0.31091820271E+02  0.88861562614E+03  0.17048097938E+04  0.19227534594E+04  0.50400001928E-02 0. -1.
</event>
<event>
 5   0  0.4591195E-07  0.3512600E+04  0.7818609E-02  0.8110810E-01
       -1   -1    0    0    0  501  0.00000000000E+00  0.00000000000E+00  0.18929678938E+04  0.18929678938E+04  0.50400001928E-02 0.  1.
        1   -1    0    0  501    0  0.00000000000E+00  0.00000000000E+00 -0.16294994292E+04  0.16294994292E+04  0.50400001928E-02 0. -1.
    10030    2    1    2    0    0  0.00000000000E+00  0.00000000000E+00  0.26346846460E+03  0.35224673231E+04  0.35126002349E+04 0.  0.
        4    1    3    3  502    0 -0.95845809549E+02 -0.11331575172E+03  0.18866677315E+04  0.18924966633E+04  0.12699999809E+01 0.  1.
       -4    1    3    3    0  502  0.95845809549E+02  0.11331575172E+03 -0.16231992669E+04  0.16299706598E+04  0.12699999809E+01 0. -1.
</event>
<event>
 5   0  0.1378620E-06  0.3569867E+04  0.7818609E-02  0.8097429E-01
        2   -1    0    0  501    0  0.00000000000E+00  0.00000000000E+00  0.20710920786E+04  0.20710920786E+04  0.25500000920E-02 0. -1.
       -2   -1    0    0    0  501  0.00000000000E+00  0.00000000000E+00 -0.15383130338E+04  0.15383130338E+04  0.25500000920E-02 0.  1.
    10030    2    1    2    0    0  0.00000000000E+00  0.00000000000E+00  0.53277904483E+03  0.36094051123E+04  0.35698671900E+04 0.  0.
        2    1    3    3  502    0 -0.51084342863E+03 -0.14130553940E+04  0.12405445329E+04  0.19484961620E+04  0.25500000920E-02 0. -1.
       -2    1    3    3    0  502  0.51084342863E+03  0.14130553940E+04 -0.70776548811E+03  0.16609089503E+04  0.25500000920E-02 0.  1.
</event>
<event>
 5   0  0.1378620E-06  0.3431899E+04  0.7818609E-02  0.8130121E-01
        2   -1    0    0  501    0  0.00000000000E+00  0.00000000000E+00  0.18616991170E+04  0.18616991170E+04  0.25500000920E-02 0.  1.
       -2   -1    0    0    0  501  0.00000000000E+00  0.00000000000E+00 -0.15816103488E+04  0.15816103488E+04  0.25500000920E-02 0. -1.
    10030    2    1    2    0    0  0.00000000000E+00  0.00000000000E+00  0.28008876821E+03  0.34433094658E+04  0.34318989437E+04 0.  0.
        2    1    3    3  502    0  0.36857362536E+03  0.61216822608E+03 -0.14252343819E+04  0.15943304230E+04  0.25500000920E-02 0. -1.
       -2    1    3    3    0  502 -0.36857362536E+03 -0.61216822608E+03  0.17053231501E+04  0.18489790428E+04  0.25500000920E-02 0.  1.
</event>
<event>
 5   0  0.4409125E-07  0.3541731E+04  0.7818609E-02  0.8103971E-01
       -4   -1    0    0    0  501  0.00000000000E+00  0.00000000000E+00  0.16119157238E+04  0.16119162241E+04  0.12699999809E+01 0. -1.
        4   -1    0    0  501    0  0.00000000000E+00  0.00000000000E+00 -0.19454881875E+04  0.19454886020E+04  0.12699999809E+01 0.  1.
    10030    2    1    2    0    0  0.00000000000E+00  0.00000000000E+00 -0.33357246371E+03  0.35574048261E+04  0.35417310045E+04 0.  0.
        4    1    3    3  502    0 -0.10592875359E+04  0.10301260093E+04  0.81360369126E+03  0.16867727345E+04  0.12699999809E+01 0. -1.
       -4    1    3    3    0  502  0.10592875359E+04 -0.10301260093E+04 -0.11471761550E+04  0.18706320916E+04  0.12699999809E+01 0.  1.
</event>
<event>
 5   0  0.1442864E-06  0.3522557E+04  0.7818609E-02  0.8108465E-01
       -2   -1    0    0    0  501  0.00000000000E+00  0.00000000000E+00  0.14604389680E+04  0.14604389680E+04  0.25500000920E-02 0. -1.
        2   -1    0    0  501    0  0.00000000000E+00  0.00000000000E+00 -0.21240889840E+04  0.21240889840E+04  0.25500000920E-02 0.  1.
    10030    2    1    2    0    0  0.00000000000E+00  0.00000000000E+00 -0.66365001600E+03  0.35845279520E+04  0.35225572096E+04 0.  0.
        1    1    3    3  502    0  0.62555919986E+03  0.66276052726E+03 -0.18654981759E+04  0.20762127235E+04  0.50400001928E-02 0.  1.
       -1    1    3    3    0  502 -0.62555919986E+03 -0.66276052726E+03  0.12018481599E+04  0.15083152285E+04  0.50400001928E-02 0. -1.
</event>
<event>
 5   0  0.4700769E-07  0.3652537E+04  0.7818609E-02  0.8078562E-01
        1   -1    0    0  501    0  0.00000000000E+00  0.00000000000E+00  0.30123436557E+04  0.30123436557E+04  0.50400001928E-02 0. -1.
       -1   -1    0    0    0  501  0.00000000000E+00  0.00000000000E+00 -0.11071966742E+04  0.11071966742E+04  0.50400001928E-02 0.  1.
    10030    2    1    2    0    0  0.00000000000E+00  0.00000000000E+00  0.19051469815E+04  0.41195403299E+04  0.36525371330E+04 0.  0.
        3    1    3    3  502    0  0.13652651907E+04  0.77325239153E+03  0.20066153777E+04  0.25472286090E+04  0.10100000352E+00 0. -1.
       -3    1    3    3    0  502 -0.13652651907E+04 -0.77325239153E+03 -0.10146839617E+03  0.15723117209E+04  0.10100000352E+00 0.  1.
</event>
<event>
 5   0  0.1387133E-06  0.3516196E+04  0.7818609E-02  0.8109962E-01
        2   -1    0    0  501    0  0.00000000000E+00  0.00000000000E+00  0.19895491542E+04  0.19895491542E+04  0.25500000920E-02 0.  1.
       -2   -1    0    0    0  501  0.00000000000E+00  0.00000000000E+00 -0.15535725704E+04  0.15535725704E+04  0.25500000920E-02 0. -1.
    10030    2    1    2    0    0  0.00000000000E+00  0.00000000000E+00  0.43597658380E+03  0.35431217247E+04  0.35161962366E+04 0.  0.
        4    1    3    3  502    0  0.11166529735E+04 -0.13192920702E+04  0.54210640344E+03  0.18114431802E+04  0.12699999809E+01 0.  1.
       -4    1    3    3    0  502 -0.11166529735E+04  0.13192920702E+04 -0.10612981965E+03  0.17316785444E+04  0.12699999809E+01 0. -1.
</event>
<event>
 5   0  0.1348388E-06  0.3479337E+04  0.7818609E-02  0.8118704E-01
        2   -1    0    0  501    0  0.00000000000E+00  0.00000000000E+00  0.16179678501E+04  0.16179678501E+04  0.25500000920E-02 0.  1.
       -2   -1    0    0    0  501  0.00000000000E+00  0.00000000000E+00 -0.18705230763E+04  0.18705230763E+04  0.25500000920E-02 0. -1.
    10030    2    1    2    0    0  0.00000000000E+00  0.00000000000E+00 -0.25255522624E+03  0.34884909264E+04  0.34793368336E+04 0.  0.
        5    1    3    3  502    0 -0.74814069896E+03  0.10381778041E+04  0.10553375550E+04  0.16587004260E+04  0.46999998093E+01 0.  1.
       -5    1    3    3    0  502  0.74814069896E+03 -0.10381778041E+04 -0.13078927812E+04  0.18297905004E+04  0.46999998093E+01 0. -1.
</event>
<event>
 5   0  0.1361560E-06  0.3534317E+04  0.7818609E-02  0.8105705E-01
        2   -1    0    0  501    0  0.00000000000E+00  0.00000000000E+00  0.23018772440E+04  0.23018772440E+04  0.25500000920E-02 0.  1.
       -2   -1    0    0    0  501  0.00000000000E+00  0.00000000000E+00 -0.13566531491E+04  0.13566531491E+04  0.25500000920E-02 0. -1.
    10030    2    1    2    0    0  0.00000000000E+00  0.00000000000E+00  0.94522409494E+03  0.36585303932E+04  0.35343169139E+04 0.  0.
        3    1    3    3  502    0  0.29750980107E+03  0.17335267407E+04  0.64956419818E+03  0.18749828533E+04  0.10100000352E+00 0.  1.
       -3    1    3    3    0  502 -0.29750980107E+03 -0.17335267407E+04  0.29565989676E+03  0.17835475399E+04  0.10100000352E+00 0. -1.
</event>
<event>
 5   0  0.4693374E-07  0.3429226E+04  0.7818609E-02  0.8130770E-01
        1   -1    0    0  501    0  0.00000000000E+00  0.00000000000E+00  0.19024745463E+04  0.19024745463E+04  0.50400001928E-02 0. -1.
       -1   -1    0    0    0  501  0.00000000000E+00  0.00000000000E+00 -0.15453018969E+04  0.15453018969E+04  0.50400001928E-02 0.  1.
    10030    2    1    2    0    0  0.00000000000E+00  0.00000000000E+00  0.35717264937E+03  0.34477764432E+04  0.34292258748E+04 0.  0.
        1    1    3    3  502    0 -0.47788155650E+03  0.92640540320E+03  0.15473101977E+04  0.18656812700E+04  0.50400001928E-02 0. -1.
       -1    1    3    3    0  502  0.47788155650E+03 -0.92640540320E+03 -0.11901375484E+04  0.15820951732E+04  0.50400001928E-02 0.  1.
</event>
<event>
 5   0  0.4557237E-07  0.3525131E+04  0.7818609E-02  0.8107860E-01
        1   -1    0    0  501    0  0.00000000000E+00  0.00000000000E+00  0.19847754561E+04  0.19847754561E+04  0.50400001928E-02 0. -1.
       -1   -1    0    0    0  501  0.00000000000E+00  0.00000000000E+00 -0.15652339719E+04  0.15652339719E+04  0.50400001928E-02 0.  1.
    10030    2    1    2    0    0  0.00000000000E+00  0.00000000000E+00  0.41954148416E+03  0.35500094280E+04  0.35251314702E+04 0.  0.
        2    1    3    3  502    0 -0.58375137748E+03  0.15059675750E+04 -0.50085357136E+03  0.16910228584E+04  0.25500000920E-02 0.  1.
       -2    1    3    3    0  502  0.58375137748E+03 -0.15059675750E+04  0.92039505552E+03  0.18589865696E+04  0.25500000920E-02 0. -1.
</event>
<event>
 5   0  0.4557237E-07  0.3515431E+04  0.7818609E-02  0.8110143E-01
       -1   -1    0    0    0  501  0.00000000000E+00  0.00000000000E+00  0.14403862504E+04  0.14403862504E+04  0.50400001928E-02 0.  1.
        1   -1    0    0  501    0  0.00000000000E+00  0.00000000000E+00 -0.21449554360E+04  0.21449554360E+04  0.50400001928E-02 0. -1.
    10030    2    1    2    0    0  0.00000000000E+00  0.00000000000E+00 -0.70456918569E+03  0.35853416864E+04  0.35154313065E+04 0.  0.
        2    1    3    3  502    0  0.21079369719E+03 -0.27080975896E+03 -0.21104558230E+04  0.21381757853E+04  0.25500000920E-02 0. -1.
       -2    1    3    3    0  502 -0.21079369719E+03  0.27080975896E+03  0.14058866373E+04  0.14471659011E+04  0.25500000920E-02 0.  1.
</event>
<event>
 5   0  0.1378620E-06  0.3509610E+04  0.7818609E-02  0.8111516E-01
        2   -1    0    0  501    0  0.00000000000E+00  0.00000000000E+00  0.19105535328E+04  0.19105535328E+04  0.25500000920E-02 0.  1.
       -2   -1    0    0    0  501  0.00000000000E+00  0.00000000000E+00 -0.16117533131E+04  0.16117533131E+04  0.25500000920E-02 0. -1.
    10030    2    1    2    0    0  0.00000000000E+00  0.00000000000E+00  0.29880021967E+03  0.35223068460E+04  0.35096102271E+04 0.  0.
        2    1    3    3  502    0  0.14225992363E+03  0.34294903484E+03 -0.15718814600E+04  0.16151356756E+04  0.25500000920E-02 0. -1.
       -2    1    3    3    0  502 -0.14225992363E+03 -0.34294903484E+03  0.18706816797E+04  0.19071711703E+04  0.25500000920E-02 0.  1.
</event>
<event>
 5   0  0.1387133E-06  0.3513731E+04  0.7818609E-02  0.8110543E-01
       -2   -1    0    0    0  501  0.00000000000E+00  0.00000000000E+00  0.12438652621E+04  0.12438652621E+04  0.25500000920E-02 0.  1.
        2   -1    0    0  501    0  0.00000000000E+00  0.00000000000E+00 -0.24814401326E+04  0.24814401326E+04  0.25500000920E-02 0. -1.
    10030    2    1    2    0    0  0.00000000000E+00  0.00000000000E+00 -0.12375748706E+04  0.37253053947E+04  0.35137314529E+04 0.  0.
        4    1    3    3  502    0 -0.29819689781E+03 -0.17304448686E+04 -0.55867478264E+03  0.18426828156E+04  0.12699999809E+01 0. -1.
       -4    1    3    3    0  502  0.29819689781E+03  0.17304448686E+04 -0.67890008791E+03  0.18826225791E+04  0.12699999809E+01 0.  1.
</event>
<event>
 5   0  0.1348388E-06  0.3618539E+04  0.7818609E-02  0.8086258E-01
       -2   -1    0    0    0  501  0.00000000000E+00  0.00000000000E+00  0.15446759542E+04  0.15446759542E+04  0.25500000920E-02 0. -1.
        2   -1    0    0  501    0  0.00000000000E+00  0.00000000000E+00 -0.21191867149E+04  0.21191867149E+04  0.25500000920E-02 0.  1.
    10030    2    1    2    0    0  0.00000000000E+00  0.00000000000E+00 -0.57451076065E+03  0.36638626691E+04  0.36185393522E+04 0.  0.
        5    1    3    3  502    0 -0.73874084095E+03  0.15131753178E+04 -0.95735828984E+03  0.19370065972E+04  0.46999998093E+01 0.  1.
       -5    1    3    3    0  502  0.73874084095E+03 -0.15131753178E+04  0.38284752919E+03  0.17268560719E+04  0.46999998093E+01 0. -1.
</event>
<event>
 5   0  0.4693374E-07  0.3509844E+04  0.7818609E-02  0.8111461E-01
       -1   -1    0    0    0  501  0.00000000000E+00  0.00000000000E+00  0.16677669121E+04  0.16677669121E+04  0.50400001928E-02 0. -1.
        1   -1    0    0  501    0  0.00000000000E+00  0.00000000000E+00 -0.18466318717E+04  0.18466318717E+04  0.50400001928E-02 0.  1.
    10030    2    1    2    0    0  0.00000000000E+00  0.00000000000E+00 -0.17886495962E+03  0.35143987839E+04  0.35098441758E+04 0.  0.
        1    1    3    3  502    0 -0.66182485018E+03  0.39851512190E+03  0.14883423139E+04  0.16768987083E+04  0.50400001928E-02 0. -1.
       -1    1    3    3    0  502  0.66182485018E+03 -0.39851512190E+03 -0.16672072735E+04  0.18375000755E+04  0.50400001928E-02 0.  1.
</event>
<event>
 5   0  0.4591195E-07  0.3583362E+04  0.7818609E-02  0.8094314E-01
        1   -1    0    0  501    0  0.00000000000E+00  0.00000000000E+00  0.22163804780E+04  0.22163804780E+04  0.50400001928E-02 0.  1.
       -1   -1    0    0    0  501  0.00000000000E+00  0.00000000000E+00 -0.14483617090E+04  0.14483617090E+04  0.50400001928E-02 0. -1.
    10030    2    1    2    0    0  0.00000000000E+00  0.00000000000E+00  0.76801876897E+03  0.36647421870E+04  0.35833618946E+04 0.  0.
        4    1    3    3  502    0 -0.88372816017E+03  0.56979131839E+03  0.18676383443E+04  0.21432947081E+04  0.12699999809E+01 0.  1.
       -4    1    3    3    0  502  0.88372816017E+03 -0.56979131839E+03 -0.10996195754E+04  0.15214474789E+04  0.12699999809E+01 0. -1.
</event>
<event>
 5   0  0.1378620E-06  0.3094726E+04  0.7818609E-02  0.8217187E-01
       -2   -1    0    0    0  501  0.00000000000E+00  0.00000000000E+00  0.14148381122E+04  0.14148381122E+04  0.25500000920E-02 0.  1.
        2   -1    0    0  501    0  0.00000000000E+00  0.00000000000E+00 -0.16923010211E+04  0.16923010211E+04  0.25500000920E-02 0. -1.
    10030    2    1    2    0    0  0.00000000000E+00  0.00000000000E+00 -0.27746290891E+03  0.31071391332E+04  0.30947258243E+04 0.  0.
        2    1    3    3  502    0 -0.30691273185E+03  0.14927604102E+04 -0.40776693465E+03  0.15775940353E+04  0.25500000920E-02 0.  1.
       -2    1    3    3    0  502  0.30691273185E+03 -0.14927604102E+04  0.13030402574E+03  0.15295450979E+04  0.25500000920E-02 0. -1.
</event>
<event>
 5   0  0.1442864E-06  0.3477946E+04  0.7818609E-02  0.8119037E-01
       -2   -1    0    0    0  501  0.00000000000E+00  0.00000000000E+00  0.15403148859E+04  0.15403148859E+04  0.25500000920E-02 0.  1.
        2   -1    0    0  501    0  0.00000000000E+00  0.00000000000E+00 -0.19632520901E+04  0.19632520901E+04  0.25500000920E-02 0. -1.
    10030    2    1    2    0    0  0.00000000000E+00  0.00000000000E+00 -0.42293720418E+03  0.35035669760E+04  0.34779456115E+04 0.  0.
        1    1    3    3  502    0 -0.65075811891E+03  0.14520305992E+04 -0.91816885727E+03  0.18370936397E+04  0.50400001928E-02 0. -1.
       -1    1    3    3    0  502  0.65075811891E+03 -0.14520305992E+04  0.49523165309E+03  0.16664733363E+04  0.50400001928E-02 0.  1.
</event>
<event>
 5   0  0.1442864E-06  0.3493493E+04  0.7818609E-02  0.8115334E-01
        2   -1    0    0  501    0  0.00000000000E+00  0.00000000000E+00  0.21970576158E+04  0.21970576158E+04  0.25500000920E-02 0. -1.
       -2   -1    0    0    0  501  0.00000000000E+00  0.00000000000E+00 -0.13887315049E+04  0.13887315049E+04  0.25500000920E-02 0.  1.
    10030    2    1    2    0    0  0.00000000000E+00  0.00000000000E+00  0.80832611086E+03  0.35857891207E+04  0.34934928820E+04 0.  0.
        1    1    3    3  502    0 -0.50341073584E+03  0.11849559023E+04  0.16158512511E+04  0.20660392361E+04  0.50400001928E-02 0. -1.
       -1    1    3    3    0  502  0.50341073584E+03 -0.11849559023E+04 -0.80752514027E+03  0.15197498845E+04  0.50400001928E-02 0.  1.
</event>
<event>
 5   0  0.4557237E-07  0.3252913E+04  0.7818609E-02  0.8174981E-01
       -1   -1    0    0    0  501  0.00000000000E+00  0.00000000000E+00  0.14135333921E+04  0.14135333921E+04  0.50400001928E-02 0. -1.
        1   -1    0    0  501    0  0.00000000000E+00  0.00000000000E+00 -0.18714523816E+04  0.18714523816E+04  0.50400001928E-02 0.  1.
    10030    2    1    2    0    0  0.00000000000E+00  0.00000000000E+00 -0.45791898950E+03  0.32849857737E+04  0.32529128074E+04 0.  0.
        2    1    3    3  502    0  0.39766553645E+02 -0.14709725044E+04 -0.92862467317E+03  0.17400245030E+04  0.25500000920E-02 0. -1.
       -2    1    3    3    0  502 -0.39766553645E+02  0.14709725044E+04  0.47070568368E+03  0.15449612707E+04  0.25500000920E-02 0.  1.
</event>
<event>
 5   0  0.1348388E-06  0.3479501E+04  0.7818609E-02  0.8118665E-01
        2   -1    0    0  501    0  0.00000000000E+00  0.00000000000E+00  0.23757404542E+04  0.23757404542E+04  0.25500000920E-02 0.  1.
       -2   -1    0    0    0  501  0.00000000000E+00  0.00000000000E+00 -0.12740161411E+04  0.12740161411E+04  0.25500000920E-02 0. -1.
    10030    2    1    2    0    0  0.00000000000E+00  0.00000000000E+00  0.11017243131E+04  0.36497565953E+04  0.34795009330E+04 0.  0.
        5    1    3    3  502    0  0.10936440283E+04  0.80424146106E+03  0.16921492829E+04  0.21693899774E+04  0.46999998093E+01 0.  1.
       -5    1    3    3    0  502 -0.10936440283E+04 -0.80424146106E+03 -0.59042496986E+03  0.14803666179E+04  0.46999998093E+01 0. -1.
</event>
<event>
 5   0  0.4591195E-07  0.3557643E+04  0.7818609E-02  0.8100264E-01
        1   -1    0    0  501    0  0.00000000000E+00  0.00000000000E+00  0.18003058831E+04  0.18003058831E+04  0.50400001928E-02 0. -1.
       -1   -1    0    0    0  501  0.00000000000E+00  0.00000000000E+00 -0.17575934937E+04  0.17575934937E+04  0.50400001928E-02 0.  1.
    10030    2    1    2    0    0  0.00000000000E+00  0.00000000000E+00  0.42712389351E+02  0.35578993768E+04  0.35576429876E+04 0.  0.
        4    1    3    3  502    0 -0.78319687018E+03 -0.14040150492E+04 -0.73997962737E+03  0.17698098931E+04  0.12699999809E+01 0. -1.
       -4    1    3    3    0  502  0.78319687018E+03  0.14040150492E+04  0.78269201672E+03  0.17880894837E+04  0.12699999809E+01 0.  1.
</event>
<event>
 5   0  0.4693374E-07  0.3505641E+04  0.7818609E-02  0.8112454E-01
       -1   -1    0    0    0  501  0.00000000000E+00  0.00000000000E+00  0.14317229263E+04  0.14317229263E+04  0.50400001928E-02 0. -1.
        1   -1    0    0  501    0  0.00000000000E+00  0.00000000000E+00 -0.21459317088E+04  0.21459317088E+04  0.50400001928E-02 0.  1.
    10030    2    1    2    0    0  0.00000000000E+00  0.00000000000E+00 -0.71420878256E+03  0.35776546351E+04  0.35056409546E+04 0.  0.
        1    1    3    3  502    0 -0.24820177052E+03 -0.93837490367E+03 -0.18466164703E+04  0.20861792749E+04  0.50400001928E-02 0.  1.
       -1    1    3    3    0  502  0.24820177052E+03  0.93837490367E+03  0.11324076877E+04  0.14914753602E+04  0.50400001928E-02 0. -1.
</event>
<event>
 5   0  0.4693374E-07  0.3510988E+04  0.7818609E-02  0.8111191E-01
       -1   -1    0    0    0  501  0.00000000000E+00  0.00000000000E+00  0.14188202061E+04  0.14188202061E+04  0.50400001928E-02 0.  1.
        1   -1    0    0  501    0  0.00000000000E+00  0.00000000000E+00 -0.21720575137E+04  0.21720575137E+04  0.50400001928E-02 0. -1.
    10030    2    1    2    0    0  0.00000000000E+00  0.00000000000E+00 -0.75323730760E+03  0.35908777198E+04  0.35109879460E+04 0.  0.
        1    1    3    3  502    0 -0.85096092435E+03 -0.29256515371E+03  0.11650048755E+04  0.14720615558E+04  0.50400001928E-02 0.  1.
       -1    1    3    3    0  502  0.85096092435E+03  0.29256515371E+03 -0.19182421831E+04  0.21188161641E+04  0.50400001928E-02 0. -1.
</event>
<event>
 5   0  0.4557237E-07  0.3548273E+04  0.7818609E-02  0.8102444E-01
       -1   -1    0    0    0  501  0.00000000000E+00  0.00000000000E+00  0.18599911596E+04  0.18599911596E+04  0.50400001928E-02 0. -1.
        1   -1    0    0  501    0  0.00000000000E+00  0.00000000000E+00 -0.16922443012E+04  0.16922443012E+04  0.50400001928E-02 0.  1.
    10030    2    1    2    0    0  0.00000000000E+00  0.00000000000E+00  0.16774685840E+03  0.35522354608E+04  0.35482725037E+04 0.  0.
        2    1    3    3  502    0 -0.74777675291E+03 -0.11284320213E+04 -0.10641551490E+04  0.17219044921E+04  0.25500000920E-02 0.  1.
       -2    1    3    3    0  502  0.74777675291E+03  0.11284320213E+04  0.12319020074E+04  0.18303309686E+04  0.25500000920E-02 0. -1.
</event>
<event>
 5   0  0.4700769E-07  0.3445399E+04  0.7818609E-02  0.8126853E-01
       -1   -1    0    0    0  501  0.00000000000E+00  0.00000000000E+00  0.22479528730E+04  0.22479528730E+04  0.50400001928E-02 0.  1.
        1   -1    0    0  501    0  0.00000000000E+00  0.00000000000E+00 -0.13201761686E+04  0.13201761686E+04  0.50400001928E-02 0. -1.
    10030    2    1    2    0    0  0.00000000000E+00  0.00000000000E+00  0.92777670439E+03  0.35681290417E+04  0.34453991416E+04 0.  0.
        3    1    3    3  502    0  0.63160063585E+03  0.15455155676E+04  0.24320969828E+02  0.16697692214E+04  0.10100000352E+00 0. -1.
       -3    1    3    3    0  502 -0.63160063585E+03 -0.15455155676E+04  0.90345573456E+03  0.18983598203E+04  0.10100000352E+00 0.  1.
</event>
<event>
 5   0  0.1361560E-06  0.2873106E+04  0.7818609E-02  0.8280925E-01
        2   -1    0    0  501    0  0.00000000000E+00  0.00000000000E+00  0.23559920681E+04  0.23559920681E+04  0.25500000920E-02 0.  1.
       -2   -1    0    0    0  501  0.00000000000E+00  0.00000000000E+00 -0.87592987158E+03  0.87592987159E+03  0.25500000920E-02 0. -1.
    10030    2    1    2    0    0  0.00000000000E+00  0.00000000000E+00  0.14800621965E+04  0.32319219397E+04  0.28731055182E+04 0.  0.
        3    1    3    3  502    0  0.53553629265E+03  0.47454855799E+03 -0.66120571416E+03  0.97426303495E+03  0.10100000352E+00 0. -1.
       -3    1    3    3    0  502 -0.53553629265E+03 -0.47454855799E+03  0.21412679107E+04  0.22576589047E+04  0.10100000352E+00 0.  1.
</event>
<event>
 5   0  0.4700769E-07  0.3281578E+04  0.7818609E-02  0.8167599E-01
       -1   -1    0    0    0  501  0.00000000000E+00  0.00000000000E+00  0.16838153529E+04  0.16838153529E+04  0.50400001928E-02 0. -1.
        1   -1    0    0  501    0  0.00000000000E+00  0.00000000000E+00 -0.15988618542E+04  0.15988618542E+04  0.50400001928E-02 0.  1.
    10030    2    1    2    0    0  0.00000000000E+00  0.00000000000E+00  0.84953498652E+02  0.32826772071E+04  0.32815777531E+04 0.  0.
        3    1    3    3  502    0 -0.91675082219E+03  0.13551515440E+04  0.16629362045E+03  0.16445429017E+04  0.10100000352E+00 0.  1.
       -3    1    3    3    0  502  0.91675082219E+03 -0.13551515440E+04 -0.81340121795E+02  0.16381343055E+04  0.10100000352E+00 0. -1.
</event>
<event>
 5   0  0.1387133E-06  0.3499409E+04  0.7818609E-02  0.8113930E-01
       -2   -1    0    0    0  501  0.00000000000E+00  0.00000000000E+00  0.20996669606E+04  0.20996669606E+04  0.25500000920E-02 0.  1.
        2   -1    0    0  501    0  0.00000000000E+00  0.00000000000E+00 -0.14580722682E+04  0.14580722682E+04  0.25500000920E-02 0. -1.
    10030    2    1    2    0    0  0.00000000000E+00  0.00000000000E+00  0.64159469233E+03  0.35577392288E+04  0.34994091888E+04 0.  0.
        4    1    3    3  502    0  0.23893770387E+03 -0.12780338181E+03 -0.14366104989E+04  0.14619426354E+04  0.12699999809E+01 0. -1.
       -4    1    3    3    0  502 -0.23893770387E+03  0.12780338181E+03  0.20782051913E+04  0.20957965933E+04  0.12699999809E+01 0.  1.
</event>
<event>
 5   0  0.1361560E-06  0.3514739E+04  0.7818609E-02  0.8110306E-01
       -2   -1    0    0    0  501  0.00000000000E+00  0.00000000000E+00  0.20979370197E+04  0.20979370197E+04  0.25500000920E-02 0.  1.
        2   -1    0    0  501    0  0.00000000000E+00  0.00000000000E+00 -0.14720880330E+04  0.14720880330E+04  0.25500000920E-02 0. -1.
    10030    2    1    2    0    0  0.00000000000E+00  0.00000000000E+00  0.62584898669E+03  0.35700250527E+04  0.35147392397E+04 0.  0.
        3    1    3    3  502    0 -0.13340036992E+04  0.84628731983E+03 -0.46897620714E+03  0.16479401658E+04  0.10100000352E+00 0. -1.
       -3    1    3    3    0  502  0.13340036992E+04 -0.84628731983E+03  0.10948251938E+04  0.19220848869E+04  0.10100000352E+00 0.  1.
</event>
<event>
 5   0  0.1378620E-06  0.3505237E+04  0.7818609E-02  0.8112550E-01
       -2   -1    0    0    0  501  0.00000000000E+00  0.00000000000E+00  0.17249524717E+04  0.17249524717E+04  0.25500000920E-02 0.  1.
        2   -1    0    0  501    0  0.00000000000E+00  0.00000000000E+00 -0.17807284909E+04  0.17807284909E+04  0.25500000920E-02 0. -1.
    10030    2    1    2    0    0  0.00000000000E+00  0.00000000000E+00 -0.55776019200E+02  0.35056809626E+04  0.35052372312E+04 0.  0.
        2    1    3    3  502    0 -0.10659467974E+04  0.68812559414E+03  0.11813608303E+04  0.17336011132E+04  0.25500000920E-02 0.  1.
       -2    1    3    3    0  502  0.10659467974E+04 -0.68812559414E+03 -0.12371368495E+04  0.17720798494E+04  0.25500000920E-02 0. -1.
</event>
<event>
 5   0  0.4409125E-07  0.3504827E+04  0.7818609E-02  0.8112647E-01
        1   -1    0    0  501    0  0.00000000000E+00  0.00000000000E+00  0.10011149132E+04  0.10011149132E+04  0.50400001928E-02 0. -1.
       -1   -1    0    0    0  501  0.00000000000E+00  0.00000000000E+00 -0.30675324564E+04  0.30675324564E+04  0.50400001928E-02 0.  1.
    10030    2    1    2    0    0  0.00000000000E+00  0.00000000000E+00 -0.20664175432E+04  0.40686473696E+04  0.35048266655E+04 0.  0.
        5    1    3    3  502    0 -0.15544410038E+04  0.72436325465E+03 -0.61474550215E+03  0.18217911740E+04  0.46999998093E+01 0. -1.
       -5    1    3    3    0  502  0.15544410038E+04 -0.72436325465E+03 -0.14516720411E+04  0.22468561956E+04  0.46999998093E+01 0.  1.
</event>
<event>
 5   0  0.4693374E-07  0.3516381E+04  0.7818609E-02  0.8109919E-01
       -1   -1    0    0    0  501  0.00000000000E+00  0.00000000000E+00  0.11271131215E+04  0.11271131215E+04  0.50400001928E-02 0. -1.
        1   -1    0    0  501    0  0.00000000000E+00  0.00000000000E+00 -0.27426115624E+04  0.27426115624E+04  0.50400001928E-02 0.  1.
    10030    2    1    2    0    0  0.00000000000E+00  0.00000000000E+00 -0.16154984409E+04  0.38697246839E+04  0.35163807981E+04 0.  0.
        1    1    3    3  502    0  0.92913424148E+03  0.51976892358E+03  0.73205844909E+03  0.12920370527E+04  0.50400001928E-02 0. -1.
       -1    1    3    3    0  502 -0.92913424148E+03 -0.51976892358E+03 -0.23475568900E+04  0.25776876313E+04  0.50400001928E-02 0.  1.
</event>
<event>
 5   0  0.1387133E-06  0.3481857E+04  0.7818609E-02  0.8118103E-01
       -2   -1    0    0    0  501  0.00000000000E+00  0.00000000000E+00  0.16345161172E+04  0.16345161172E+04  0.25500000920E-02 0.  1.
        2   -1    0    0  501    0  0.00000000000E+00  0.00000000000E+00 -0.18542687380E+04  0.18542687380E+04  0.25500000920E-02 0. -1.
    10030    2    1    2    0    0  0.00000000000E+00  0.00000000000E+00 -0.21975262087E+03  0.34887848552E+04  0.34818570550E+04 0.  0.
        4    1    3    3  502    0 -0.44481955784E+03 -0.45738406571E+03  0.15131508695E+04  0.16421607076E+04  0.12699999809E+01 0.  1.
       -4    1    3    3    0  502  0.44481955784E+03  0.45738406571E+03 -0.17329034904E+04  0.18466241476E+04  0.12699999809E+01 0. -1.
</event>
<event>
 5   0  0.1387133E-06  0.3482904E+04  0.7818609E-02  0.8117853E-01
        2   -1    0    0  501    0  0.00000000000E+00  0.00000000000E+00  0.28200593741E+04  0.28200593741E+04  0.25500000920E-02 0.  1.
       -2   -1    0    0    0  501  0.00000000000E+00  0.00000000000E+00 -0.10753869998E+04  0.10753869998E+04  0.25500000920E-02 0. -1.
    10030    2    1    2    0    0  0.00000000000E+00  0.00000000000E+00  0.17446723743E+04  0.38954463739E+04  0.34829040696E+04 0.  0.
        4    1    3    3  502    0  0.26856462995E+02 -0.14505729605E+04 -0.20496210649E+03  0.14652283990E+04  0.12699999809E+01 0. -1.
       -4    1    3    3    0  502 -0.26856462995E+02  0.14505729605E+04  0.19496344808E+04  0.24302179748E+04  0.12699999809E+01 0.  1.
</event>
<event>
 5   0  0.1348388E-06  0.3431375E+04  0.7818609E-02  0.8130248E-01
        2   -1    0    0  501    0  0.00000000000E+00  0.00000000000E+00  0.22007005120E+04  0.22007005120E+04  0.25500000920E-02 0.  1.
       -2   -1    0    0    0  501  0.00000000000E+00  0.00000000000E+00 -0.13375669341E+04  0.13375669341E+04  0.25500000920E-02 0. -1.
    10030    2    1    2    0    0  0.00000000000E+00  0.00000000000E+00  0.86313357790E+03  0.35382674461E+04  0.34313753725E+04 0.  0.
        5    1    3    3  502    0  0.19518242228E+02  0.23421116343E+03 -0.13208828867E+04  0.13416368813E+04  0.46999998093E+01 0. -1.
       -5    1    3    3    0  502 -0.19518242228E+02 -0.23421116343E+03  0.21840164646E+04  0.21966305648E+04  0.46999998093E+01 0.  1.
</event>
<event>
 5   0  0.1361560E-06  0.3514711E+04  0.7818609E-02  0.8110313E-01
        2   -1    0    0  501    0  0.00000000000E+00  0.00000000000E+00  0.19824319153E+04  0.19824319153E+04  0.25500000920E-02 0. -1.
       -2   -1    0    0    0  501  0.00000000000E+00  0.00000000000E+00 -0.15578329435E+04  0.15578329435E+04  0.25500000920E-02 0.  1.
    10030    2    1    2    0    0  0.00000000000E+00  0.00000000000E+00  0.42459897177E+03  0.35402648588E+04  0.35147106544E+04 0.  0.
        3    1    3    3  502    0 -0.41517041465E+03 -0.10755741300E+04  0.15482424871E+04  0.19303577366E+04  0.10100000352E+00 0. -1.
       -3    1    3    3    0  502  0.41517041465E+03  0.10755741300E+04 -0.11236435153E+04  0.16099071222E+04  0.10100000352E+00 0.  1.
</event>
<event>
 5   0  0.1387133E-06  0.3528859E+04  0.7818609E-02  0.8106985E-01
        2   -1    0    0  501    0  0.00000000000E+00  0.00000000000E+00  0.15898290901E+04  0.15898290901E+04  0.25500000920E-02 0.  1.
       -2   -1    0    0    0  501  0.00000000000E+00  0.00000000000E+00 -0.19582051724E+04  0.19582051724E+04  0.25500000920E-02 0. -1.
    10030    2    1    2    0    0  0.00000000000E+00  0.00000000000E+00 -0.36837608233E+03  0.35480342625E+04  0.35288590493E+04 0.  0.
        4    1    3    3  502    0  0.10582937913E+04 -0.79444128864E+03 -0.13576147061E+04  0.18958486260E+04  0.12699999809E+01 0. -1.
       -4    1    3    3    0  502 -0.10582937913E+04  0.79444128864E+03  0.98923862373E+03  0.16521856365E+04  0.12699999809E+01 0.  1.
</event>
<event>
 5   0  0.4409125E-07  0.3488705E+04  0.7818609E-02  0.8116472E-01
        1   -1    0    0  501    0  0.00000000000E+00  0.00000000000E+00  0.21845468236E+04  0.21845468236E+04  0.50400001928E-02 0.  1.
       -1   -1    0    0    0  501  0.00000000000E+00  0.00000000000E+00 -0.13928589795E+04  0.13928589795E+04  0.50400001928E-02 0. -1.
    10030    2    1    2    0    0  0.00000000000E+00  0.00000000000E+00  0.79168784413E+03  0.35774058031E+04  0.34887050087E+04 0.  0.
        5    1    3    3  502    0  0.13622614671E+04 -0.25616459944E+03  0.14817139273E+04  0.20290083437E+04  0.46999998093E+01 0.  1.
       -5    1    3    3    0  502 -0.13622614671E+04  0.25616459944E+03 -0.69002608317E+03  0.15483974593E+04  0.46999998093E+01 0. -1.
</event>
<event>
 5   0  0.4557237E-07  0.3511102E+04  0.7818609E-02  0.8111164E-01
        1   -1    0    0  501    0  0.00000000000E+00  0.00000000000E+00  0.18337807848E+04  0.18337807848E+04  0.50400001928E-02 0. -1.
       -1   -1    0    0    0  501  0.00000000000E+00  0.00000000000E+00 -0.16806586660E+04  0.16806586660E+04  0.50400001928E-02 0.  1.
    10030    2    1    2    0    0  0.00000000000E+00  0.00000000000E+00  0.15312211882E+03  0.35144394509E+04  0.35111021447E+04 0.  0.
        2    1    3    3  502    0 -0.31263683281E+03 -0.17272943328E+04  0.50612177971E+02  0.17560891475E+04  0.25500000920E-02 0.  1.
       -2    1    3    3    0  502  0.31263683281E+03  0.17272943328E+04  0.10250994085E+03  0.17583503034E+04  0.25500000920E-02 0. -1.
</event>
<event>
 5   0  0.1387133E-06  0.3549007E+04  0.7818609E-02  0.8102273E-01
        2   -1    0    0  501    0  0.00000000000E+00  0.00000000000E+00  0.26225549680E+04  0.26225549680E+04  0.25500000920E-02 0.  1.
       -2   -1    0    0    0  501  0.00000000000E+00  0.00000000000E+00 -0.12006849731E+04  0.12006849731E+04  0.25500000920E-02 0. -1.
    10030    2    1    2    0    0  0.00000000000E+00  0.00000000000E+00  0.14218699948E+04  0.38232399411E+04  0.35490068139E+04 0.  0.
        4    1    3    3  502    0  0.49166401539E+03  0.70078752540E+03 -0.96352720870E+03  0.12888843837E+04  0.12699999809E+01 0. -1.
       -4    1    3    3    0  502 -0.49166401539E+03 -0.70078752540E+03  0.23853972035E+04  0.25343555574E+04  0.12699999809E+01 0.  1.
</event>
<event>
 5   0  0.1361560E-06  0.3418387E+04  0.7818609E-02  0.8133408E-01
       -2   -1    0    0    0  501  0.00000000000E+00  0.00000000000E+00  0.13838155652E+04  0.13838155652E+04  0.25500000920E-02 0. -1.
        2   -1    0    0  501    0  0.00000000000E+00  0.00000000000E+00 -0.21110784343E+04  0.21110784343E+04  0.25500000920E-02 0.  1.
    10030    2    1    2    0    0  0.00000000000E+00  0.00000000000E+00 -0.72726286907E+03  0.34948939995E+04  0.34183874542E+04 0.  0.
        3    1    3    3  502    0 -0.11372568208E+04  0.92940167860E+03 -0.12573833512E+04  0.19334304897E+04  0.10100000352E+00 0.  1.
       -3    1    3    3    0  502  0.11372568208E+04 -0.92940167860E+03  0.53012048208E+03  0.15614635098E+04  0.10100000352E+00 0. -1.
</event>
<event>
 5   0  0.1378620E-06  0.3532320E+04  0.7818609E-02  0.8106173E-01
        2   -1    0    0  501    0  0.00000000000E+00  0.00000000000E+00  0.20999794974E+04  0.20999794974E+04  0.25500000920E-02 0. -1.
       -2   -1    0    0    0  501  0.00000000000E+00  0.00000000000E+00 -0.14854057385E+04  0.14854057385E+04  0.25500000920E-02 0.  1.
    10030    2    1    2    0    0  0.00000000000E+00  0.00000000000E+00  0.61457375894E+03  0.35853852359E+04  0.35323202551E+04 0.  0.
        2    1    3    3  502    0 -0.87701863156E+03 -0.10827353396E+04  0.14088760545E+04  0.19815169020E+04  0.25500000920E-02 0. -1.
       -2    1    3    3    0  502  0.87701863156E+03  0.10827353396E+04 -0.79430229555E+03  0.16038683339E+04  0.25500000920E-02 0.  1.
</event>
<event>
 5   0  0.1387133E-06  0.3503511E+04  0.7818609E-02  0.8112958E-01
       -2   -1    0    0    0  501  0.00000000000E+00  0.00000000000E+00  0.20132320073E+04  0.20132320073E+04  0.25500000920E-02 0.  1.
        2   -1    0    0  501    0  0.00000000000E+00  0.00000000000E+00 -0.15242391569E+04  0.15242391569E+04  0.25500000920E-02 0. -1.
    10030    2    1    2    0    0  0.00000000000E+00  0.00000000000E+00  0.48899285038E+03  0.35374711642E+04  0.35035108434E+04 0.  0.
        4    1    3    3  502    0  0.52697025563E+03 -0.11987536685E+04 -0.93037067044E+03  0.16063309763E+04  0.12699999809E+01 0. -1.
       -4    1    3    3    0  502 -0.52697025563E+03  0.11987536685E+04  0.14193635208E+04  0.19311401879E+04  0.12699999809E+01 0.  1.
</event>
<event>
 5   0  0.4693374E-07  0.2925703E+04  0.7818609E-02  0.8265271E-01
       -1   -1    0    0    0  501  0.00000000000E+00  0.00000000000E+00  0.75843916666E+03  0.75843916667E+03  0.50400001928E-02 0.  1.
        1   -1    0    0  501    0  0.00000000000E+00  0.00000000000E+00 -0.28214986319E+04  0.28214986319E+04  0.50400001928E-02 0. -1.
    10030    2    1    2    0    0  0.00000000000E+00  0.00000000000E+00 -0.20630594653E+04  0.35799377986E+04  0.29257033829E+04 0.  0.
        1    1    3    3  502    0  0.10071501100E+03  0.83791745112E+03  0.43051790235E+03  0.94741481549E+03  0.50400001928E-02 0.  1.
       -1    1    3    3    0  502 -0.10071501100E+03 -0.83791745112E+03 -0.24935773676E+04  0.26325229831E+04  0.50400001928E-02 0. -1.
</event>
<event>
 5   0  0.1378620E-06  0.3589606E+04  0.7818609E-02  0.8092877E-01
       -2   -1    0    0    0  501  0.00000000000E+00  0.00000000000E+00  0.14367774243E+04  0.14367774243E+04  0.25500000920E-02 0.  1.
        2   -1    0    0  501    0  0.00000000000E+00  0.00000000000E+00 -0.22420431866E+04  0.22420431866E+04  0.25500000920E-02 0. -1.
    10030    2    1    2    0    0  0.00000000000E+00  0.00000000000E+00 -0.80526576231E+03  0.36788206109E+04  0.35896055687E+04 0.  0.
        2    1    3    3  502    0  0.14638782032E+04  0.83925459242E+03  0.22414654684E+03  0.17022130710E+04  0.25500000920E-02 0.  1.
       -2    1    3    3    0  502 -0.14638782032E+04 -0.83925459242E+03 -0.10294123092E+04  0.19766075399E+04  0.25500000920E-02 0. -1.
</event>
<event>
 5   0  0.4409125E-07  0.3491936E+04  0.7818609E-02  0.8115704E-01
        1   -1    0    0  501    0  0.00000000000E+00  0.00000000000E+00  0.23369789418E+04  0.23369789418E+04  0.50400001928E-02 0.  1.
       -1   -1    0    0    0  501  0.00000000000E+00  0.00000000000E+00 -0.13044206373E+04  0.13044206373E+04  0.50400001928E-02 0. -1.
    10030    2    1    2    0    0  0.00000000000E+00  0.00000000000E+00  0.10325583045E+04  0.36413995791E+04  0.34919356011E+04 0.  0.
        5    1    3    3  502    0  0.17207394737E+04  0.13525018745E+03  0.79048770580E+03  0.18984545959E+04  0.46999998093E+01 0.  1.
       -5    1    3    3    0  502 -0.17207394737E+04 -0.13525018745E+03  0.24207059870E+03  0.17429449832E+04  0.46999998093E+01 0. -1.
</event>
<event>
 5   0  0.4700769E-07  0.2830127E+04  0.7818609E-02  0.8293976E-01
        1   -1    0    0  501    0  0.00000000000E+00  0.00000000000E+00  0.24092520197E+04  0.24092520197E+04  0.50400001928E-02 0.  1.
       -1   -1    0    0    0  501  0.00000000000E+00  0.00000000000E+00 -0.83113150315E+03  0.83113150317E+03  0.50400001928E-02 0. -1.
    10030    2    1    2    0    0  0.00000000000E+00  0.00000000000E+00  0.15781205165E+04  0.32403835229E+04  0.28301273842E+04 0.  0.
        3    1    3    3  502    0  0.10376434194E+03 -0.10586725502E+04  0.18575300991E+04  0.21405542942E+04  0.10100000352E+00 0.  1.
       -3    1    3    3    0  502 -0.10376434194E+03  0.10586725502E+04 -0.27940958255E+03  0.10998292287E+04  0.10100000352E+00 0. -1.
</event>
<event>
 5   0  0.1348388E-06  0.3570320E+04  0.7818609E-02  0.8097324E-01
        2   -1    0    0  501    0  0.00000000000E+00  0.00000000000E+00  0.16062843806E+04  0.16062843806E+04  0.25500000920E-02 0.  1.
       -2   -1    0    0    0  501  0.00000000000E+00  0.00000000000E+00 -0.19839552982E+04  0.19839552982E+04  0.25500000920E-02 0. -1.
    10030    2    1    2    0    0  0.00000000000E+00  0.00000000000E+00 -0.37767091763E+03  0.35902396788E+04  0.35703201018E+04 0.  0.
        5    1    3    3  502    0 -0.99990598345E+03  0.37663987461E+03  0.12492148033E+04  0.16438458826E+04  0.46999998093E+01 0.  1.
       -5    1    3    3    0  502  0.99990598345E+03 -0.37663987461E+03 -0.16268857210E+04  0.19463937962E+04  0.46999998093E+01 0. -1.
</event>
<event>
 5   0  0.4409125E-07  0.3512114E+04  0.7818609E-02  0.8110925E-01
        1   -1    0    0  501    0  0.00000000000E+00  0.00000000000E+00  0.12262786865E+04  0.12262786865E+04  0.50400001928E-02 0. -1.
       -1   -1    0    0    0  501  0.00000000000E+00  0.00000000000E+00 -0.25147103933E+04  0.25147103933E+04  0.50400001928E-02 0.  1.
    10030    2    1    2    0    0  0.00000000000E+00  0.00000000000E+00 -0.12884317067E+04  0.37409890798E+04  0.35121137556E+04 0.  0.
        5    1    3    3  502    0 -0.12808914735E+04 -0.65943307315E+03 -0.17137302385E+04  0.22388453197E+04  0.46999998093E+01 0.  1.
       -5    1    3    3    0  502  0.12808914735E+04  0.65943307315E+03  0.42529853180E+03  0.15021437601E+04  0.46999998093E+01 0. -1.
</event>
<event>
 5   0  0.1361560E-06  0.3475736E+04  0.7818609E-02  0.8119564E-01
       -2   -1    0    0    0  501  0.00000000000E+00  0.00000000000E+00  0.23638617956E+04  0.23638617956E+04  0.25500000920E-02 0. -1.
        2   -1    0    0  501    0  0.00000000000E+00  0.00000000000E+00 -0.12776489456E+04  0.12776489456E+04  0.25500000920E-02 0.  1.
    10030    2    1    2    0    0  0.00000000000E+00  0.00000000000E+00  0.10862128500E+04  0.36415107412E+04  0.34757361987E+04 0.  0.
        3    1    3    3  502    0 -0.33165392229E+03  0.16838016607E+04  0.83003551408E+03  0.19063423936E+04  0.10100000352E+00 0. -1.
       -3    1    3    3    0  502  0.33165392229E+03 -0.16838016607E+04  0.25617733589E+03  0.17351683476E+04  0.10100000352E+00 0.  1.
</event>
<event>
 5   0  0.4693374E-07  0.2920613E+04  0.7818609E-02  0.8266771E-01
       -1   -1    0    0    0  501  0.00000000000E+00  0.00000000000E+00  0.11754816980E+04  0.11754816980E+04  0.50400001928E-02 0. -1.
        1   -1    0    0  501    0  0.00000000000E+00  0.00000000000E+00 -0.18141454982E+04  0.18141454982E+04  0.50400001928E-02 0.  1.
    10030    2    1    2    0    0  0.00000000000E+00  0.00000000000E+00 -0.63866380015E+03  0.29896271962E+04  0.29206128334E+04 0.  0.
        1    1    3    3  502    0 -0.30646131463E+03  0.14162877806E+04 -0.13421266149E+03  0.14552672103E+04  0.50400001928E-02 0.  1.
       -1    1    3    3    0  502  0.30646131463E+03 -0.14162877806E+04 -0.50445113866E+03  0.15343599859E+04  0.50400001928E-02 0. -1.
</event>
<event>
 5   0  0.4409125E-07  0.3509384E+04  0.7818609E-02  0.8111570E-01
        1   -1    0    0  501    0  0.00000000000E+00  0.00000000000E+00  0.23241633311E+04  0.23241633311E+04  0.50400001928E-02 0.  1.
       -1   -1    0    0    0  501  0.00000000000E+00  0.00000000000E+00 -0.13247538648E+04  0.13247538648E+04  0.50400001928E-02 0. -1.
    10030    2    1    2    0    0  0.00000000000E+00  0.00000000000E+00  0.99940946632E+03  0.36489171959E+04  0.35093841940E+04 0.  0.
        5    1    3    3  502    0 -0.63169410752E+03 -0.34437554218E+03 -0.11643304148E+04  0.13686925748E+04  0.46999998093E+01 0. -1.
       -5    1    3    3    0  502  0.63169410752E+03  0.34437554218E+03  0.21637398811E+04  0.22802246211E+04  0.46999998093E+01 0.  1.
</event>
<event>
 5   0  0.1361560E-06  0.3495303E+04  0.7818609E-02  0.8114904E-01
        2   -1    0    0  501    0  0.00000000000E+00  0.00000000000E+00  0.23485055653E+04  0.23485055653E+04  0.25500000920E-02 0.  1.
       -2   -1    0    0    0  501  0.00000000000E+00  0.00000000000E+00 -0.13005231376E+04  0.13005231376E+04  0.25500000920E-02 0. -1.
    10030    2    1    2    0    0  0.00000000000E+00  0.00000000000E+00  0.10479824277E+04  0.36490287029E+04  0.34953030348E+04 0.  0.
        3    1    3    3  502    0 -0.98963440413E+03 -0.18689043352E+03  0.20150870687E+04  0.22527494740E+04  0.10100000352E+00 0.  1.
       -3    1    3    3    0  502  0.98963440413E+03  0.18689043352E+03 -0.96710464099E+03  0.13962792288E+04  0.10100000352E+00 0. -1.
</event>
<event>
 5   0  0.1348388E-06  0.3489809E+04  0.7818609E-02  0.8116209E-01
       -2   -1    0    0    0  501  0.00000000000E+00  0.00000000000E+00  0.14362698004E+04  0.14362698004E+04  0.25500000920E-02 0.  1.
        2   -1    0    0  501    0  0.00000000000E+00  0.00000000000E+00 -0.21198603586E+04  0.21198603586E+04  0.25500000920E-02 0. -1.
    10030    2    1    2    0    0  0.00000000000E+00  0.00000000000E+00 -0.68359055825E+03  0.35561301590E+04  0.34898088281E+04 0.  0.
        5    1    3    3  502    0  0.72153104041E+03 -0.41766843524E+02  0.12765676243E+04  0.14669691547E+04  0.46999998093E+01 0.  1.
       -5    1    3    3    0  502 -0.72153104041E+03  0.41766843524E+02 -0.19601581825E+04  0.20891610043E+04  0.46999998093E+01 0. -1.
</event>
<event>
 5   0  0.1348388E-06  0.3404626E+04  0.7818609E-02  0.8136772E-01
        2   -1    0    0  501    0  0.00000000000E+00  0.00000000000E+00  0.12894115844E+04  0.12894115844E+04  0.25500000920E-02 0.  1.
       -2   -1    0    0    0  501  0.00000000000E+00  0.00000000000E+00 -0.22474353692E+04  0.22474353692E+04  0.25500000920E-02 0. -1.
    10030    2    1    2    0    0  0.00000000000E+00  0.00000000000E+00 -0.95802378481E+03  0.35368469536E+04  0.34046257945E+04 0.  0.
        5    1    3    3  502    0 -0.58383479349E+03 -0.36171184372E+03  0.11390889345E+04  0.13301293977E+04  0.46999998093E+01 0.  1.
       -5    1    3    3    0  502  0.58383479349E+03  0.36171184372E+03 -0.20971127193E+04  0.22067175559E+04  0.46999998093E+01 0. -1.
</event>
<event>
 5   0  0.4591195E-07  0.3512956E+04  0.7818609E-02  0.8110726E-01
       -1   -1    0    0    0  501  0.00000000000E+00  0.00000000000E+00  0.12473184559E+04  0.12473184559E+04  0.50400001928E-02 0.  1.
        1   -1    0    0  501    0  0.00000000000E+00  0.00000000000E+00 -0.24734779534E+04  0.24734779534E+04  0.50400001928E-02 0. -1.
    10030    2    1    2    0    0  0.00000000000E+00  0.00000000000E+00 -0.12261594974E+04  0.37207964093E+04  0.35129558503E+04 0.  0.
        4    1    3    3  502    0  0.12073811726E+04  0.77733483610E+03 -0.16844566561E+04  0.22134621259E+04  0.12699999809E+01 0. -1.
       -4    1    3    3    0  502 -0.12073811726E+04 -0.77733483610E+03  0.45829715872E+03  0.15073342834E+04  0.12699999809E+01 0.  1.
</event>
<event>
 5   0  0.4409125E-07  0.3200653E+04  0.7818609E-02  0.8188645E-01
        3   -1    0    0  501    0  0.00000000000E+00  0.00000000000E+00  0.20416620410E+04  0.20416620435E+04  0.10100000352E+00 0.  1.
       -3   -1    0    0    0  501  0.00000000000E+00  0.00000000000E+00 -0.12543919775E+04  0.12543919816E+04  0.10100000352E+00 0. -1.
    10030    2    1    2    0    0  0.00000000000E+00  0.00000000000E+00  0.78727006350E+03  0.32960540251E+04  0.32006527434E+04 0.  0.
        3    1    3    3  502    0  0.88328936289E+03 -0.98086739625E+03 -0.53817998812E+03  0.14254608579E+04  0.10100000352E+00 0. -1.
       -3    1    3    3    0  502 -0.88328936289E+03  0.98086739625E+03  0.13254500516E+04  0.18705931672E+04  0.10100000352E+00 0.  1.
</event>
<event>
 5   0  0.4591195E-07  0.3547826E+04  0.7818609E-02  0.8102548E-01
       -1   -1    0    0    0  501  0.00000000000E+00  0.00000000000E+00  0.13098406662E+04  0.13098406662E+04  0.50400001928E-02 0. -1.
        1   -1    0    0  501    0  0.00000000000E+00  0.00000000000E+00 -0.24024048860E+04  0.24024048860E+04  0.50400001928E-02 0.  1.
    10030    2    1    2    0    0  0.00000000000E+00  0.00000000000E+00 -0.10925642198E+04  0.37122455521E+04  0.35478261605E+04 0.  0.
        4    1    3    3  502    0 -0.98628386660E+02  0.56373472842E+03  0.12105914681E+04  0.13390510514E+04  0.12699999809E+01 0. -1.
       -4    1    3    3    0  502  0.98628386660E+02 -0.56373472842E+03 -0.23031556879E+04  0.23731945007E+04  0.12699999809E+01 0.  1.
</event>
<event>
 5   0  0.4700769E-07  0.3533272E+04  0.7818609E-02  0.8105950E-01
       -1   -1    0    0    0  501  0.00000000000E+00  0.00000000000E+00  0.12457519388E+04  0.12457519388E+04  0.50400001928E-02 0.  1.
        1   -1    0    0  501    0  0.00000000000E+00  0.00000000000E+00 -0.25053163912E+04  0.25053163912E+04  0.50400001928E-02 0. -1.
    10030    2    1    2    0    0  0.00000000000E+00  0.00000000000E+00 -0.12595644524E+04  0.37510683300E+04  0.35332719973E+04 0.  0.
        3    1    3    3  502    0 -0.15627198860E+03 -0.15078820000E+04  0.33325813746E+03  0.15521565825E+04  0.10100000352E+00 0. -1.
       -3    1    3    3    0  502  0.15627198860E+03  0.15078820000E+04 -0.15928225898E+04  0.21989117475E+04  0.10100000352E+00 0.  1.
</event>
<event>
 5   0  0.4693374E-07  0.3512723E+04  0.7818609E-02  0.8110781E-01
       -1   -1    0    0    0  501  0.00000000000E+00  0.00000000000E+00  0.28445869323E+04  0.28445869323E+04  0.50400001928E-02 0.  1.
        1   -1    0    0  501    0  0.00000000000E+00  0.00000000000E+00 -0.10844473843E+04  0.10844473843E+04  0.50400001928E-02 0. -1.
    10030    2    1    2    0    0  0.00000000000E+00  0.00000000000E+00  0.17601395480E+04  0.39290343165E+04  0.35127225100E+04 0.  0.
        1    1    3    3  502    0 -0.10675624919E+04  0.58702049781E+03  0.22951231391E+04  0.25984366381E+04  0.50400001928E-02 0.  1.
       -1    1    3    3    0  502  0.10675624919E+04 -0.58702049781E+03 -0.53498359105E+03  0.13305976784E+04  0.50400001928E-02 0. -1.
</event>
<event>
 5   0  0.1361560E-06  0.3493740E+04  0.7818609E-02  0.8115275E-01
       -2   -1    0    0    0  501  0.00000000000E+00  0.00000000000E+00  0.10932291913E+04  0.10932291913E+04  0.25500000920E-02 0. -1.
        2   -1    0    0  501    0  0.00000000000E+00  0.00000000000E+00 -0.27913224754E+04  0.27913224754E+04  0.25500000920E-02 0.  1.
    10030    2    1    2    0    0  0.00000000000E+00  0.00000000000E+00 -0.16980932842E+04  0.38845516667E+04  0.34937402378E+04 0.  0.
        3    1    3    3  502    0 -0.13258310040E+04  0.10032283928E+04 -0.14449666631E+04  0.22027763679E+04  0.10100000352E+00 0.  1.
       -3    1    3    3    0  502  0.13258310040E+04 -0.10032283928E+04 -0.25312662107E+03  0.16817752988E+04  0.10100000352E+00 0. -1.
</event>
<event>
 5   0  0.1348388E-06  0.3347263E+04  0.7818609E-02  0.8150972E-01
       -2   -1    0    0    0  501  0.00000000000E+00  0.00000000000E+00  0.17738299818E+04  0.17738299818E+04  0.25500000920E-02 0.  1.
        2   -1    0    0  501    0  0.00000000000E+00  0.00000000000E+00 -0.15790926585E+04  0.15790926585E+04  0.25500000920E-02 0. -1.
    10030    2    1    2    0    0  0.00000000000E+00  0.00000000000E+00  0.19473732329E+03  0.33529226403E+04  0.33472627036E+04 0.  0.
        5    1    3    3  502    0  0.35309924632E+03 -0.14192654829E+04  0.91239441349E+03  0.17237979129E+04  0.46999998093E+01 0.  1.
       -5    1    3    3    0  502 -0.35309924632E+03  0.14192654829E+04 -0.71765709020E+03  0.16291247275E+04  0.46999998093E+01 0. -1.
</event>
<event>
 5   0  0.1348388E-06  0.3683152E+04  0.7818609E-02  0.8071706E-01
        2   -1    0    0  501    0  0.00000000000E+00  0.00000000000E+00  0.19543332090E+04  0.19543332090E+04  0.25500000920E-02 0. -1.
       -2   -1    0    0    0  501  0.00000000000E+00  0.00000000000E+00 -0.17353242927E+04  0.17353242927E+04  0.25500000920E-02 0.  1.
    10030    2    1    2    0    0  0.00000000000E+00  0.00000000000E+00  0.21900891629E+03  0.36896575016E+04  0.36831518532E+04 0.  0.
        5    1    3    3  502    0 -0.55531665842E+03 -0.21555815362E+03 -0.16361399509E+04  0.17412116292E+04  0.46999998093E+01 0.  1.
       -5    1    3    3    0  502  0.55531665842E+03  0.21555815362E+03  0.18551488672E+04  0.19484458725E+04  0.46999998093E+01 0. -1.
</event>
<event>
 5   0  0.4693374E-07  0.2740686E+04  0.7818609E-02  0.8321923E-01
       -1   -1    0    0    0  501  0.00000000000E+00  0.00000000000E+00  0.92324410791E+03  0.92324410792E+03  0.50400001928E-02 0.  1.
        1   -1    0    0  501    0  0.00000000000E+00  0.00000000000E+00 -0.20339576460E+04  0.20339576460E+04  0.50400001928E-02 0. -1.
    10030    2    1    2    0    0  0.00000000000E+00  0.00000000000E+00 -0.11107135381E+04  0.29572017539E+04  0.27406856167E+04 0.  0.
        1    1    3    3  502    0  0.80999239864E+02  0.47901000470E+02 -0.20304671852E+04  0.20326466424E+04  0.50400001928E-02 0. -1.
       -1    1    3    3    0  502 -0.80999239864E+02 -0.47901000470E+02  0.91975364714E+03  0.92455511148E+03  0.50400001928E-02 0.  1.
</event>
<event>
 5   0  0.1442864E-06  0.3445778E+04  0.7818609E-02  0.8126762E-01
       -2   -1    0    0    0  501  0.00000000000E+00  0.00000000000E+00  0.11566186135E+04  0.11566186135E+04  0.25500000920E-02 0.  1.
        2   -1    0    0  501    0  0.00000000000E+00  0.00000000000E+00 -0.25663999101E+04  0.25663999101E+04  0.25500000920E-02 0. -1.
    10030    2    1    2    0    0  0.00000000000E+00  0.00000000000E+00 -0.14097812965E+04  0.37230185236E+04  0.34457776514E+04 0.  0.
        1    1    3    3  502    0  0.11344751550E+04 -0.12731792765E+04 -0.97026700150E+03  0.19619983185E+04  0.50400001928E-02 0. -1.
       -1    1    3    3    0  502 -0.11344751550E+04  0.12731792765E+04 -0.43951429503E+03  0.17610202051E+04  0.50400001928E-02 0.  1.
</event>
<event>
 5   0  0.1442864E-06  0.3511715E+04  0.7818609E-02  0.8111019E-01
       -2   -1    0    0    0  501  0.00000000000E+00  0.00000000000E+00  0.15198308658E+04  0.15198308658E+04  0.25500000920E-02 0. -1.
        2   -1    0    0  501    0  0.00000000000E+00  0.00000000000E+00 -0.20285380492E+04  0.20285380492E+04  0.25500000920E-02 0.  1.
    10030    2    1    2    0    0  0.00000000000E+00  0.00000000000E+00 -0.50870718343E+03  0.35483689150E+04  0.35117145326E+04 0.  0.
        1    1    3    3  502    0 -0.64180450504E+03  0.27020001236E+03 -0.18830443616E+04  0.20076795405E+04  0.50400001928E-02 0.  1.
       -1    1    3    3    0  502  0.64180450504E+03 -0.27020001236E+03  0.13743371782E+04  0.15406893745E+04  0.50400001928E-02 0. -1.
</event>
<event>
 5   0  0.4700769E-07  0.3280801E+04  0.7818609E-02  0.8167798E-01
        1   -1    0    0  501    0  0.00000000000E+00  0.00000000000E+00  0.11149348846E+04  0.11149348847E+04  0.50400001928E-02 0.  1.
       -1   -1    0    0    0  501  0.00000000000E+00  0.00000000000E+00 -0.24135169737E+04  0.24135169737E+04  0.50400001928E-02 0. -1.
    10030    2    1    2    0    0  0.00000000000E+00  0.00000000000E+00 -0.12985820891E+04  0.35284518584E+04  0.32808012855E+04 0.  0.
        3    1    3    3  502    0  0.87839852593E+03  0.55132769872E+03  0.71761925296E+03  0.12611596268E+04  0.10100000352E+00 0.  1.
       -3    1    3    3    0  502 -0.87839852593E+03 -0.55132769872E+03 -0.20162013421E+04  0.22672922316E+04  0.10100000352E+00 0. -1.
</event>
<event>
 5   0  0.1387133E-06  0.3526933E+04  0.7818609E-02  0.8107437E-01
        2   -1    0    0  501    0  0.00000000000E+00  0.00000000000E+00  0.20131679229E+04  0.20131679229E+04  0.25500000920E-02 0.  1.
       -2   -1    0    0    0  501  0.00000000000E+00  0.00000000000E+00 -0.15447366782E+04  0.15447366782E+04  0.25500000920E-02 0. -1.
    10030    2    1    2    0    0  0.00000000000E+00  0.00000000000E+00  0.46843124467E+03  0.35579046011E+04  0.35269331322E+04 0.  0.
        4    1    3    3  502    0  0.10579779389E+04  0.76756689779E+03  0.14283914699E+04  0.19361766619E+04  0.12699999809E+01 0.  1.
       -4    1    3    3    0  502 -0.10579779389E+04 -0.76756689779E+03 -0.95996022527E+03  0.16217279392E+04  0.12699999809E+01 0. -1.
</event>
<event>
 5   0  0.4557237E-07  0.3505434E+04  0.7818609E-02  0.8112503E-01
        1   -1    0    0  501    0  0.00000000000E+00  0.00000000000E+00  0.13481280035E+04  0.13481280035E+04  0.50400001928E-02 0. -1.
       -1   -1    0    0    0  501  0.00000000000E+00  0.00000000000E+00 -0.22787274318E+04  0.22787274318E+04  0.50400001928E-02 0.  1.
    10030    2    1    2    0    0  0.00000000000E+00  0.00000000000E+00 -0.93059942829E+03  0.36268554353E+04  0.35054336468E+04 0.  0.
        2    1    3    3  502    0 -0.11423139726E+04 -0.83441685922E+03  0.60538011060E+03  0.15387065299E+04  0.25500000920E-02 0. -1.
       -2    1    3    3    0  502  0.11423139726E+04  0.83441685922E+03 -0.15359795389E+04  0.20881489053E+04  0.25500000920E-02 0.  1.
</event>
<event>
 5   0  0.1378620E-06  0.2756883E+04  0.7818609E-02  0.8316781E-01
       -2   -1    0    0    0  501  0.00000000000E+00  0.00000000000E+00  0.16748787914E+04  0.16748787914E+04  0.25500000920E-02 0. -1.
        2   -1    0    0  501    0  0.00000000000E+00  0.00000000000E+00 -0.11344703724E+04  0.11344703724E+04  0.25500000920E-02 0.  1.
    10030    2    1    2    0    0  0.00000000000E+00  0.00000000000E+00  0.54040841894E+03  0.28093491638E+04  0.27568825628E+04 0.  0.
        2    1    3    3  502    0 -0.28464879301E+03 -0.99166268626E+03  0.12017572753E+04  0.15838687974E+04  0.25500000920E-02 0. -1.
       -2    1    3    3    0  502  0.28464879301E+03  0.99166268626E+03 -0.66134885633E+03  0.12254803664E+04  0.25500000920E-02 0.  1.
</event>
<event>
 5   0  0.4693374E-07  0.2905051E+04  0.7818609E-02  0.8271376E-01
        1   -1    0    0  501    0  0.00000000000E+00  0.00000000000E+00  0.17507919180E+04  0.17507919180E+04  0.50400001928E-02 0.  1.
       -1   -1    0    0    0  501  0.00000000000E+00  0.00000000000E+00 -0.12050723862E+04  0.12050723862E+04  0.50400001928E-02 0. -1.
    10030    2    1    2    0    0  0.00000000000E+00  0.00000000000E+00  0.54571953174E+03  0.29558643042E+04  0.29050514587E+04 0.  0.
        1    1    3    3  502    0  0.96924077826E+03 -0.54187009741E+03 -0.67988376087E+03  0.13020341075E+04  0.50400001928E-02 0. -1.
       -1    1    3    3    0  502 -0.96924077826E+03  0.54187009741E+03  0.12256032926E+04  0.16538301967E+04  0.50400001928E-02 0.  1.
</event>
<event>
 5   0  0.1378620E-06  0.3361200E+04  0.7818609E-02  0.8147495E-01
        2   -1    0    0  501    0  0.00000000000E+00  0.00000000000E+00  0.15883423042E+04  0.15883423042E+04  0.25500000920E-02 0.  1.
       -2   -1    0    0    0  501  0.00000000000E+00  0.00000000000E+00 -0.17782167635E+04  0.17782167635E+04  0.25500000920E-02 0. -1.
    10030    2    1    2    0    0  0.00000000000E+00  0.00000000000E+00 -0.18987445931E+03  0.33665590676E+04  0.33612003281E+04 0.  0.
        2    1    3    3  502    0  0.72830172251E+03  0.11082268693E+04 -0.11289720011E+04  0.17415992571E+04  0.25500000920E-02 0. -1.
       -2    1    3    3    0  502 -0.72830172251E+03 -0.11082268693E+04  0.93909754179E+03  0.16249598106E+04  0.25500000920E-02 0.  1.
</event>
<event>
 5   0  0.1348388E-06  0.3222796E+04  0.7818609E-02  0.8182823E-01
        2   -1    0    0  501    0  0.00000000000E+00  0.00000000000E+00  0.24187376524E+04  0.24187376524E+04  0.25500000920E-02 0. -1.
       -2   -1    0    0    0  501  0.00000000000E+00  0.00000000000E+00 -0.10735367104E+04  0.10735367104E+04  0.25500000920E-02 0.  1.
    10030    2    1    2    0    0  0.00000000000E+00  0.00000000000E+00  0.13452009420E+04  0.34922743628E+04  0.32227960920E+04 0.  0.
        5    1    3    3  502    0 -0.26571538151E+03  0.27191448014E+03 -0.10242331148E+04  0.10925281287E+04  0.46999998093E+01 0.  1.
       -5    1    3    3    0  502  0.26571538151E+03 -0.27191448014E+03  0.23694340569E+04  0.23997462341E+04  0.46999998093E+01 0. -1.
</event>
<event>
 5   0  0.1348388E-06  0.3565280E+04  0.7818609E-02  0.8098491E-01
        2   -1    0    0  501    0  0.00000000000E+00  0.00000000000E+00  0.12968382197E+04  0.12968382197E+04  0.25500000920E-02 0.  1.
       -2   -1    0    0    0  501  0.00000000000E+00  0.00000000000E+00 -0.24504249817E+04  0.24504249817E+04  0.25500000920E-02 0. -1.
    10030    2    1    2    0    0  0.00000000000E+00  0.00000000000E+00 -0.11535867619E+04  0.37472632014E+04  0.35652796641E+04 0.  0.
        5    1    3    3  502    0 -0.16215510715E+04  0.16464632958E+03  0.18203248495E+03  0.16400287213E+04  0.46999998093E+01 0.  1.
       -5    1    3    3    0  502  0.16215510715E+04 -0.16464632958E+03 -0.13356192469E+04  0.21072344801E+04  0.46999998093E+01 0. -1.
</event>
<event>
 5   0  0.1348388E-06  0.3426668E+04  0.7818609E-02  0.8131392E-01
       -2   -1    0    0    0  501  0.00000000000E+00  0.00000000000E+00  0.20746420211E+04  0.20746420211E+04  0.25500000920E-02 0.  1.
        2   -1    0    0  501    0  0.00000000000E+00  0.00000000000E+00 -0.14149496950E+04  0.14149496950E+04  0.25500000920E-02 0. -1.
    10030    2    1    2    0    0  0.00000000000E+00  0.00000000000E+00  0.65969232615E+03  0.34895917161E+04  0.34266684082E+04 0.  0.
        5    1    3    3  502    0  0.49195620512E+03 -0.95695930379E+03 -0.10279412281E+04  0.14881119834E+04  0.46999998093E+01 0. -1.
       -5    1    3    3    0  502 -0.49195620512E+03  0.95695930379E+03  0.16876335542E+04  0.20014797327E+04  0.46999998093E+01 0.  1.
</event>
<event>
 5   0  0.4700769E-07  0.3510545E+04  0.7818609E-02  0.8111295E-01
       -1   -1    0    0    0  501  0.00000000000E+00  0.00000000000E+00  0.17689378793E+04  0.17689378793E+04  0.50400001928E-02 0.  1.
        1   -1    0    0  501    0  0.00000000000E+00  0.00000000000E+00 -0.17417131056E+04  0.17417131056E+04  0.50400001928E-02 0. -1.
    10030    2    1    2    0    0  0.00000000000E+00  0.00000000000E+00  0.27224773656E+02  0.35106509849E+04  0.35105454205E+04 0.  0.
        3    1    3    3  502    0  0.69726648918E+03 -0.54838660497E+03 -0.15010531942E+04  0.17435794010E+04  0.10100000352E+00 0. -1.
       -3    1    3    3    0  502 -0.69726648918E+03  0.54838660497E+03  0.15282779678E+04  0.17670715839E+04  0.10100000352E+00 0.  1.
</event>
<event>
 5   0  0.4700769E-07  0.3219824E+04  0.7818609E-02  0.8183601E-01
       -1   -1    0    0    0  501  0.00000000000E+00  0.00000000000E+00  0.11852905417E+04  0.11852905417E+04  0.50400001928E-02 0.  1.
        1   -1    0    0  501    0  0.00000000000E+00  0.00000000000E+00 -0.21866503920E+04  0.21866503920E+04  0.50400001928E-02 0. -1.
    10030    2    1    2    0    0  0.00000000000E+00  0.00000000000E+00 -0.10013598503E+04  0.33719409337E+04  0.32198236148E+04 0.  0.
        3    1    3    3  502    0  0.12839918737E+04 -0.56292793165E+03  0.32809512109E+03  0.14398504806E+04  0.10100000352E+00 0.  1.
       -3    1    3    3    0  502 -0.12839918737E+04  0.56292793165E+03 -0.13294549714E+04  0.19320904531E+04  0.10100000352E+00 0. -1.
</event>
<event>
 5   0  0.4409125E-07  0.3011716E+04  0.7818609E-02  0.8240393E-01
       -1   -1    0    0    0  501  0.00000000000E+00  0.00000000000E+00  0.16706513740E+04  0.16706513740E+04  0.50400001928E-02 0.  1.
        1   -1    0    0  501    0  0.00000000000E+00  0.00000000000E+00 -0.13573199745E+04  0.13573199745E+04  0.50400001928E-02 0. -1.
    10030    2    1    2    0    0  0.00000000000E+00  0.00000000000E+00  0.31333139950E+03  0.30279713485E+04  0.30117161090E+04 0.  0.
        5    1    3    3  502    0  0.12222107596E+04 -0.60720412603E+03 -0.48323664930E+03  0.14477692291E+04  0.46999998093E+01 0. -1.
       -5    1    3    3    0  502 -0.12222107596E+04  0.60720412603E+03  0.79656804880E+03  0.15802021193E+04  0.46999998093E+01 0.  1.
</event>
<event>
 5   0  0.1442864E-06  0.3411831E+04  0.7818609E-02  0.8135009E-01
        2   -1    0    0  501    0  0.00000000000E+00  0.00000000000E+00  0.17880195953E+04  0.17880195953E+04  0.25500000920E-02 0. -1.
       -2   -1    0    0    0  501  0.00000000000E+00  0.00000000000E+00 -0.16275815755E+04  0.16275815755E+04  0.25500000920E-02 0.  1.
    10030    2    1    2    0    0  0.00000000000E+00  0.00000000000E+00  0.16043801979E+03  0.34156011708E+04  0.34118310333E+04 0.  0.
        1    1    3    3  502    0  0.16754678338E+04 -0.37975332904E+02  0.39918238365E+03  0.17227829705E+04  0.50400001928E-02 0.  1.
       -1    1    3    3    0  502 -0.16754678338E+04  0.37975332904E+02 -0.23874436385E+03  0.16928182003E+04  0.50400001928E-02 0. -1.
</event>
<event>
 5   0  0.4409125E-07  0.3381509E+04  0.7818609E-02  0.8142460E-01
       -1   -1    0    0    0  501  0.00000000000E+00  0.00000000000E+00  0.12304609057E+04  0.12304609057E+04  0.50400001928E-02 0.  1.
        1   -1    0    0  501    0  0.00000000000E+00  0.00000000000E+00 -0.23232352506E+04  0.23232352506E+04  0.50400001928E-02 0. -1.
    10030    2    1    2    0    0  0.00000000000E+00  0.00000000000E+00 -0.10927743449E+04  0.35536961564E+04  0.33815086282E+04 0.  0.
        5    1    3    3  502    0  0.59897669643E+03  0.12966170189E+04  0.40447174397E+03  0.14844555427E+04  0.46999998093E+01 0.  1.
       -5    1    3    3    0  502 -0.59897669643E+03 -0.12966170189E+04 -0.14972460888E+04  0.20692406136E+04  0.46999998093E+01 0. -1.
</event>
<event>
 5   0  0.1442864E-06  0.2642731E+04  0.7818609E-02  0.8353830E-01
        2   -1    0    0  501    0  0.00000000000E+00  0.00000000000E+00  0.24487630374E+04  0.24487630374E+04  0.25500000920E-02 0.  1.
       -2   -1    0    0    0  501  0.00000000000E+00  0.00000000000E+00 -0.71301577957E+03  0.71301577957E+03  0.25500000920E-02 0. -1.
    10030    2    1    2    0    0  0.00000000000E+00  0.00000000000E+00  0.17357472578E+04  0.31617788170E+04  0.26427309255E+04 0.  0.
        1    1    3    3  502    0  0.68163279892E+03  0.28087633578E+03 -0.44408342212E+03  0.86065374826E+03  0.50400001928E-02 0. -1.
       -1    1    3    3    0  502 -0.68163279892E+03 -0.28087633578E+03  0.21798306799E+04  0.23011250687E+04  0.50400001928E-02 0.  1.
</event>
<event>
 5   0  0.1361560E-06  0.2852230E+04  0.7818609E-02  0.8287234E-01
        2   -1    0    0  501    0  0.00000000000E+00  0.00000000000E+00  0.16254374060E+04  0.16254374060E+04  0.25500000920E-02 0. -1.
       -2   -1    0    0    0  501  0.00000000000E+00  0.00000000000E+00 -0.12512350867E+04  0.12512350867E+04  0.25500000920E-02 0.  1.
    10030    2    1    2    0    0  0.00000000000E+00  0.00000000000E+00  0.37420231925E+03  0.28766724927E+04  0.28522302247E+04 0.  0.
        3    1    3    3  502    0 -0.11542539217E+04 -0.25163235907E+03 -0.61860850918E+03  0.13335281991E+04  0.10100000352E+00 0.  1.
       -3    1    3    3    0  502  0.11542539217E+04  0.25163235907E+03  0.99281082843E+03  0.15431442937E+04  0.10100000352E+00 0. -1.
</event>
<event>
 5   0  0.1378620E-06  0.3442206E+04  0.7818609E-02  0.8127625E-01
       -2   -1    0    0    0  501  0.00000000000E+00  0.00000000000E+00  0.12875823970E+04  0.12875823970E+04  0.25500000920E-02 0. -1.
        2   -1    0    0  501    0  0.00000000000E+00  0.00000000000E+00 -0.23005876415E+04  0.23005876415E+04  0.25500000920E-02 0.  1.
    10030    2    1    2    0    0  0.00000000000E+00  0.00000000000E+00 -0.10130052445E+04  0.35881700385E+04  0.34422063564E+04 0.  0.
        2    1    3    3  502    0 -0.21341621164E+03  0.13426462259E+04 -0.16066962234E+04  0.21046895547E+04  0.25500000920E-02 0.  1.
       -2    1    3    3    0  502  0.21341621164E+03 -0.13426462259E+04  0.59369097890E+03  0.14834804838E+04  0.25500000920E-02 0. -1.
</event>
<event>
 5   0  0.4557237E-07  0.3510384E+04  0.7818609E-02  0.8111333E-01
       -1   -1    0    0    0  501  0.00000000000E+00  0.00000000000E+00  0.12674851591E+04  0.12674851591E+04  0.50400001928E-02 0. -1.
        1   -1    0    0  501    0  0.00000000000E+00  0.00000000000E+00 -0.24305600454E+04  0.24305600454E+04  0.50400001928E-02 0.  1.
    10030    2    1    2    0    0  0.00000000000E+00  0.00000000000E+00 -0.11630748863E+04  0.36980452045E+04  0.35103839026E+04 0.  0.
        2    1    3    3  502    0  0.17060894746E+04 -0.13050791212E+03 -0.99349938334E+03  0.19785890516E+04  0.25500000920E-02 0.  1.
       -2    1    3    3    0  502 -0.17060894746E+04  0.13050791212E+03 -0.16957550292E+03  0.17194561529E+04  0.25500000920E-02 0. -1.
</event>
<event>
 5   0  0.1348388E-06  0.3439274E+04  0.7818609E-02  0.8128334E-01
        2   -1    0    0  501    0  0.00000000000E+00  0.00000000000E+00  0.30237977616E+04  0.30237977616E+04  0.25500000920E-02 0. -1.
       -2   -1    0    0    0  501  0.00000000000E+00  0.00000000000E+00 -0.97795915892E+03  0.97795915893E+03  0.25500000920E-02 0.  1.
    10030    2    1    2    0    0  0.00000000000E+00  0.00000000000E+00  0.20458386027E+04  0.40017569205E+04  0.34392735952E+04 0.  0.
        5    1    3    3  502    0 -0.14099979590E+04  0.35145898169E+03  0.20928203209E+04  0.25478494158E+04  0.46999998093E+01 0. -1.
       -5    1    3    3    0  502  0.14099979590E+04 -0.35145898169E+03 -0.46981718241E+02  0.14539075047E+04  0.46999998093E+01 0.  1.
</event>
<event>
 5   0  0.1348388E-06  0.3194933E+04  0.7818609E-02  0.8190157E-01
        2   -1    0    0  501    0  0.00000000000E+00  0.00000000000E+00  0.18768758140E+04  0.18768758140E+04  0.25500000920E-02 0. -1.
       -2   -1    0    0    0  501  0.00000000000E+00  0.00000000000E+00 -0.13596525612E+04  0.13596525612E+04  0.25500000920E-02 0.  1.
    10030    2    1    2    0    0  0.00000000000E+00  0.00000000000E+00  0.51722325281E+03  0.32365283753E+04  0.31949328679E+04 0.  0.
        5    1    3    3  502    0  0.52436722914E+03 -0.10979955753E+04 -0.78991055202E+03  0.14507019144E+04  0.46999998093E+01 0.  1.
       -5    1    3    3    0  502 -0.52436722914E+03  0.10979955753E+04  0.13071338048E+04  0.17858264608E+04  0.46999998093E+01 0. -1.
</event>
<event>
 5   0  0.1442864E-06  0.3496925E+04  0.7818609E-02  0.8114519E-01
        2   -1    0    0  501    0  0.00000000000E+00  0.00000000000E+00  0.33159645810E+04  0.33159645810E+04  0.25500000920E-02 0.  1.
       -2   -1    0    0    0  501  0.00000000000E+00  0.00000000000E+00 -0.92194035118E+03  0.92194035119E+03  0.25500000920E-02 0. -1.
    10030    2    1    2    0    0  0.00000000000E+00  0.00000000000E+00  0.23940242299E+04  0.42379049322E+04  0.34969252496E+04 0.  0.
        1    1    3    3  502    0 -0.12665212959E+04 -0.43299488426E+03 -0.16633475753E+03  0.13487876091E+04  0.50400001928E-02 0. -1.
       -1    1    3    3    0  502  0.12665212959E+04  0.43299488426E+03  0.25603589874E+04  0.28891173232E+04  0.50400001928E-02 0.  1.
</event>
<event>
 5   0  0.1387133E-06  0.3570111E+04  0.7818609E-02  0.8097373E-01
       -2   -1    0    0    0  501  0.00000000000E+00  0.00000000000E+00  0.14340569749E+04  0.14340569749E+04  0.25500000920E-02 0.  1.
        2   -1    0    0  501    0  0.00000000000E+00  0.00000000000E+00 -0.22219646602E+04  0.22219646602E+04  0.25500000920E-02 0. -1.
    10030    2    1    2    0    0  0.00000000000E+00  0.00000000000E+00 -0.78790768530E+03  0.36560216351E+04  0.35701114375E+04 0.  0.
        4    1    3    3  502    0 -0.79678160926E+03 -0.37180744719E+03  0.11969154325E+04  0.14851632490E+04  0.12699999809E+01 0.  1.
       -4    1    3    3    0  502  0.79678160926E+03  0.37180744719E+03 -0.19848231178E+04  0.21708583861E+04  0.12699999809E+01 0. -1.
</event>
<event>
 5   0  0.4557237E-07  0.3502237E+04  0.7818609E-02  0.8113260E-01
        1   -1    0    0  501    0  0.00000000000E+00  0.00000000000E+00  0.20678625275E+04  0.20678625275E+04  0.50400001928E-02 0.  1.
       -1   -1    0    0    0  501  0.00000000000E+00  0.00000000000E+00 -0.14828916138E+04  0.14828916138E+04  0.50400001928E-02 0. -1.
    10030    2    1    2    0    0  0.00000000000E+00  0.00000000000E+00  0.58497091369E+03  0.35507541413E+04  0.35022369997E+04 0.  0.
        2    1    3    3  502    0 -0.71597987319E+03  0.80968403181E+03  0.16893237181E+04  0.20054999464E+04  0.25500000920E-02 0.  1.
       -2    1    3    3    0  502  0.71597987319E+03 -0.80968403181E+03 -0.11043528044E+04  0.15452541949E+04  0.25500000920E-02 0. -1.
</event>
<event>
 5   0  0.4557237E-07  0.3490247E+04  0.7818609E-02  0.8116105E-01
        1   -1    0    0  501    0  0.00000000000E+00  0.00000000000E+00  0.23821661431E+04  0.23821661431E+04  0.50400001928E-02 0. -1.
       -1   -1    0    0    0  501  0.00000000000E+00  0.00000000000E+00 -0.12784395923E+04  0.12784395923E+04  0.50400001928E-02 0.  1.
    10030    2    1    2    0    0  0.00000000000E+00  0.00000000000E+00  0.11037265508E+04  0.36606057353E+04  0.34902467034E+04 0.  0.
        2    1    3    3  502    0 -0.11350865906E+03  0.97071925398E+03  0.20682102454E+04  0.22875038153E+04  0.25500000920E-02 0. -1.
       -2    1    3    3    0  502  0.11350865906E+03 -0.97071925398E+03 -0.96448369460E+03  0.13731019201E+04  0.25500000920E-02 0.  1.
</event>
<event>
 5   0  0.1348388E-06  0.3524908E+04  0.7818609E-02  0.8107912E-01
        2   -1    0    0  501    0  0.00000000000E+00  0.00000000000E+00  0.24725354054E+04  0.24725354054E+04  0.25500000920E-02 0.  1.
       -2   -1    0    0    0  501  0.00000000000E+00  0.00000000000E+00 -0.12562993131E+04  0.12562993131E+04  0.25500000920E-02 0. -1.
    10030    2    1    2    0    0  0.00000000000E+00  0.00000000000E+00  0.12162360923E+04  0.37288347186E+04  0.35249082437E+04 0.  0.
        5    1    3    3  502    0  0.96324057358E+03 -0.77032761654E+03  0.19399147954E+04  0.22988102451E+04  0.46999998093E+01 0.  1.
       -5    1    3    3    0  502 -0.96324057358E+03  0.77032761654E+03 -0.72367870313E+03  0.14300244735E+04  0.46999998093E+01 0. -1.
</event>
<event>
 5   0  0.1361560E-06  0.3488963E+04  0.7818609E-02  0.8116411E-01
        2   -1    0    0  501    0  0.00000000000E+00  0.00000000000E+00  0.12394869430E+04  0.12394869430E+04  0.25500000920E-02 0.  1.
       -2   -1    0    0    0  501  0.00000000000E+00  0.00000000000E+00 -0.24552214212E+04  0.24552214212E+04  0.25500000920E-02 0. -1.
    10030    2    1    2    0    0  0.00000000000E+00  0.00000000000E+00 -0.12157344782E+04  0.36947083642E+04  0.34889625356E+04 0.  0.
        3    1    3    3  502    0 -0.13134398411E+04 -0.58456158621E+03  0.43852122605E+03  0.15030426941E+04  0.10100000352E+00 0.  1.
       -3    1    3    3    0  502  0.13134398411E+04  0.58456158621E+03 -0.16542557043E+04  0.21916656701E+04  0.10100000352E+00 0. -1.
</event>
<event>
 5   0  0.4557237E-07  0.3474368E+04  0.7818609E-02  0.8119891E-01
       -1   -1    0    0    0  501  0.00000000000E+00  0.00000000000E+00  0.11306945001E+04  0.11306945001E+04  0.50400001928E-02 0. -1.
        1   -1    0    0  501    0  0.00000000000E+00  0.00000000000E+00 -0.26689865568E+04  0.26689865568E+04  0.50400001928E-02 0.  1.
    10030    2    1    2    0    0  0.00000000000E+00  0.00000000000E+00 -0.15382920567E+04  0.37996810569E+04  0.34743680983E+04 0.  0.
        2    1    3    3  502    0  0.14252188529E+04  0.40164751667E+03  0.22433862901E+03  0.14976305708E+04  0.25500000920E-02 0. -1.
       -2    1    3    3    0  502 -0.14252188529E+04 -0.40164751667E+03 -0.17626306857E+04  0.23020504861E+04  0.25500000920E-02 0.  1.
</event>
<event>
 5   0  0.1387133E-06  0.3549384E+04  0.7818609E-02  0.8102185E-01
       -2   -1    0    0    0  501  0.00000000000E+00  0.00000000000E+00  0.12170942552E+04  0.12170942552E+04  0.25500000920E-02 0.  1.
        2   -1    0    0  501    0  0.00000000000E+00  0.00000000000E+00 -0.25877472767E+04  0.25877472767E+04  0.25500000920E-02 0. -1.
    10030    2    1    2    0    0  0.00000000000E+00  0.00000000000E+00 -0.13706530216E+04  0.38048415319E+04  0.35493843659E+04 0.  0.
        4    1    3    3  502    0  0.14697131922E+04 -0.45768679831E+03 -0.16320647365E+04  0.22434729750E+04  0.12699999809E+01 0. -1.
       -4    1    3    3    0  502 -0.14697131922E+04  0.45768679831E+03  0.26141171492E+03  0.15613685568E+04  0.12699999809E+01 0.  1.
</event>
<event>
 5   0  0.4591195E-07  0.3351452E+04  0.7818609E-02  0.8149925E-01
       -1   -1    0    0    0  501  0.00000000000E+00  0.00000000000E+00  0.24177290374E+04  0.24177290374E+04  0.50400001928E-02 0. -1.
        1   -1    0    0  501    0  0.00000000000E+00  0.00000000000E+00 -0.11614444614E+04  0.11614444615E+04  0.50400001928E-02 0.  1.
    10030    2    1    2    0    0  0.00000000000E+00  0.00000000000E+00  0.12562845760E+04  0.35791734989E+04  0.33514522224E+04 0.  0.
        4    1    3    3  502    0 -0.61469435909E+03  0.35942140256E+03 -0.99183991857E+03  0.12209754038E+04  0.12699999809E+01 0.  1.
       -4    1    3    3    0  502  0.61469435909E+03 -0.35942140256E+03  0.22481244946E+04  0.23581980951E+04  0.12699999809E+01 0. -1.
</event>
<event>
 5   0  0.4700769E-07  0.3460470E+04  0.7818609E-02  0.8123223E-01
        1   -1    0    0  501    0  0.00000000000E+00  0.00000000000E+00  0.18896302214E+04  0.18896302214E+04  0.50400001928E-02 0.  1.
       -1   -1    0    0    0  501  0.00000000000E+00  0.00000000000E+00 -0.15842849488E+04  0.15842849488E+04  0.50400001928E-02 0. -1.
    10030    2    1    2    0    0  0.00000000000E+00  0.00000000000E+00  0.30534527262E+03  0.34739151703E+04  0.34604697477E+04 0.  0.
        3    1    3    3  502    0  0.57442306163E+03 -0.96487229168E+03  0.14741353165E+04  0.18531096391E+04  0.10100000352E+00 0.  1.
       -3    1    3    3    0  502 -0.57442306163E+03  0.96487229168E+03 -0.11687900439E+04  0.16208055312E+04  0.10100000352E+00 0. -1.
</event>
<event>
 5   0  0.1361560E-06  0.3390257E+04  0.7818609E-02  0.8140302E-01
        2   -1    0    0  501    0  0.00000000000E+00  0.00000000000E+00  0.23044123313E+04  0.23044123313E+04  0.25500000920E-02 0. -1.
       -2   -1    0    0    0  501  0.00000000000E+00  0.00000000000E+00 -0.12469385986E+04  0.12469385986E+04  0.25500000920E-02 0.  1.
    10030    2    1    2    0    0  0.00000000000E+00  0.00000000000E+00  0.10574737327E+04  0.35513509299E+04  0.33902570304E+04 0.  0.
        3    1    3    3  502    0  0.12746621444E+04  0.28607504667E+03  0.16602770929E+04  0.21126103640E+04  0.10100000352E+00 0.  1.
       -3    1    3    3    0  502 -0.12746621444E+04 -0.28607504667E+03 -0.60280336020E+03  0.14387405659E+04  0.10100000352E+00 0. -1.
</event>
<event>
 5   0  0.4557237E-07  0.3488179E+04  0.7818609E-02  0.8116597E-01
        1   -1    0    0  501    0  0.00000000000E+00  0.00000000000E+00  0.22812263966E+04  0.22812263966E+04  0.50400001928E-02 0.  1.
       -1   -1    0    0    0  501  0.00000000000E+00  0.00000000000E+00 -0.13334266019E+04  0.13334266020E+04  0.50400001928E-02 0. -1.
    10030    2    1    2    0    0  0.00000000000E+00  0.00000000000E+00  0.94779979460E+03  0.36146529985E+04  0.34881788729E+04 0.  0.
        2    1    3    3  502    0  0.44301270932E+02 -0.14267897611E+04  0.15123091072E+04  0.20796082470E+04  0.25500000920E-02 0.  1.
       -2    1    3    3    0  502 -0.44301270932E+02  0.14267897611E+04 -0.56450931265E+03  0.15350447515E+04  0.25500000920E-02 0. -1.
</event>
<event>
 5   0  0.1442864E-06  0.3549664E+04  0.7818609E-02  0.8102120E-01
        2   -1    0    0  501    0  0.00000000000E+00  0.00000000000E+00  0.18916833511E+04  0.18916833511E+04  0.25500000920E-02 0.  1.
       -2   -1    0    0    0  501  0.00000000000E+00  0.00000000000E+00 -0.16651989153E+04  0.16651989153E+04  0.25500000920E-02 0. -1.
    10030    2    1    2    0    0  0.00000000000E+00  0.00000000000E+00  0.22648443579E+03  0.35568822665E+04  0.35496642458E+04 0.  0.
        1    1    3    3  502    0 -0.14648648212E+04  0.36067778815E+03 -0.82359830781E+03  0.17187878240E+04  0.50400001928E-02 0. -1.
       -1    1    3    3    0  502  0.14648648212E+04 -0.36067778815E+03  0.10500827436E+04  0.18380944425E+04  0.50400001928E-02 0.  1.
</event>
<event>
 5   0  0.1361560E-06  0.3454434E+04  0.7818609E-02  0.8124674E-01
        2   -1    0    0  501    0  0.00000000000E+00  0.00000000000E+00  0.20348876795E+04  0.20348876795E+04  0.25500000920E-02 0.  1.
       -2   -1    0    0    0  501  0.00000000000E+00  0.00000000000E+00 -0.14660657386E+04  0.14660657386E+04  0.25500000920E-02 0. -1.
    10030    2    1    2    0    0  0.00000000000E+00  0.00000000000E+00  0.56882194087E+03  0.35009534181E+04  0.34544343148E+04 0.  0.
        3    1    3    3  502    0 -0.12731189891E+03 -0.57590409211E+03  0.19296655073E+04  0.20177915708E+04  0.10100000352E+00 0.  1.
       -3    1    3    3    0  502  0.12731189891E+03  0.57590409211E+03 -0.13608435664E+04  0.14831618473E+04  0.10100000352E+00 0. -1.
</event>
<event>
 5   0  0.4693374E-07  0.3577128E+04  0.7818609E-02  0.8095751E-01
       -1   -1    0    0    0  501  0.00000000000E+00  0.00000000000E+00  0.14263026301E+04  0.14263026302E+04  0.50400001928E-02 0. -1.
        1   -1    0    0  501    0  0.00000000000E+00  0.00000000000E+00 -0.22428348588E+04  0.22428348588E+04  0.50400001928E-02 0.  1.
    10030    2    1    2    0    0  0.00000000000E+00  0.00000000000E+00 -0.81653222862E+03  0.36691374889E+04  0.35771280425E+04 0.  0.
        1    1    3    3  502    0 -0.14713139010E+03  0.82226375669E+03 -0.20304622267E+04  0.21955733160E+04  0.50400001928E-02 0.  1.
       -1    1    3    3    0  502  0.14713139010E+03 -0.82226375669E+03  0.12139299981E+04  0.14735641730E+04  0.50400001928E-02 0. -1.
</event>
<event>
 5   0  0.4693374E-07  0.3396809E+04  0.7818609E-02  0.8138690E-01
        1   -1    0    0  501    0  0.00000000000E+00  0.00000000000E+00  0.29434878010E+04  0.29434878010E+04  0.50400001928E-02 0. -1.
       -1   -1    0    0    0  501  0.00000000000E+00  0.00000000000E+00 -0.97998649914E+03  0.97998649915E+03  0.50400001928E-02 0.  1.
    10030    2    1    2    0    0  0.00000000000E+00  0.00000000000E+00  0.19635013019E+04  0.39234743002E+04  0.33968092707E+04 0.  0.
        1    1    3    3  502    0 -0.37141025669E+03  0.12054919421E+04 -0.33186936063E+03  0.13043364879E+04  0.50400001928E-02 0.  1.
       -1    1    3    3    0  502  0.37141025669E+03 -0.12054919421E+04  0.22953706625E+04  0.26191378123E+04  0.50400001928E-02 0. -1.
</event>
<event>
 5   0  0.1442864E-06  0.3505016E+04  0.7818609E-02  0.8112602E-01
       -2   -1    0    0    0  501  0.00000000000E+00  0.00000000000E+00  0.17759737174E+04  0.17759737174E+04  0.25500000920E-02 0.  1.
        2   -1    0    0  501    0  0.00000000000E+00  0.00000000000E+00 -0.17293519774E+04  0.17293519774E+04  0.25500000920E-02 0. -1.
    10030    2    1    2    0    0  0.00000000000E+00  0.00000000000E+00  0.46621739987E+02  0.35053256948E+04  0.35050156405E+04 0.  0.
        1    1    3    3  502    0  0.17531619616E+03  0.69329408984E+03 -0.15767966618E+04  0.17313810026E+04  0.50400001928E-02 0. -1.
       -1    1    3    3    0  502 -0.17531619616E+03 -0.69329408984E+03  0.16234184018E+04  0.17739446922E+04  0.50400001928E-02 0.  1.
</event>
<event>
 5   0  0.4557237E-07  0.3539626E+04  0.7818609E-02  0.8104463E-01
       -1   -1    0    0    0  501  0.00000000000E+00  0.00000000000E+00  0.28278433393E+04  0.28278433393E+04  0.50400001928E-02 0.  1.
        1   -1    0    0  501    0  0.00000000000E+00  0.00000000000E+00 -0.11076423013E+04  0.11076423013E+04  0.50400001928E-02 0. -1.
    10030    2    1    2    0    0  0.00000000000E+00  0.00000000000E+00  0.17202010380E+04  0.39354856406E+04  0.35396264798E+04 0.  0.
        2    1    3    3  502    0  0.47500481065E+03  0.31131849665E+02  0.27553300294E+04  0.27961477667E+04  0.25500000920E-02 0.  1.
       -2    1    3    3    0  502 -0.47500481065E+03 -0.31131849665E+02 -0.10351289914E+04  0.11393378739E+04  0.25500000920E-02 0. -1.
</event>
<event>
 5   0  0.4693374E-07  0.3577163E+04  0.7818609E-02  0.8095743E-01
        1   -1    0    0  501    0  0.00000000000E+00  0.00000000000E+00  0.12840385412E+04  0.12840385412E+04  0.50400001928E-02 0. -1.
       -1   -1    0    0    0  501  0.00000000000E+00  0.00000000000E+00 -0.24913772583E+04  0.24913772583E+04  0.50400001928E-02 0.  1.
    10030    2    1    2    0    0  0.00000000000E+00  0.00000000000E+00 -0.12073387171E+04  0.37754157995E+04  0.35771633568E+04 0.  0.
        1    1    3    3  502    0  0.15937405816E+03  0.93566269623E+03  0.99631638551E+03  0.13760490949E+04  0.50400001928E-02 0. -1.
       -1    1    3    3    0  502 -0.15937405816E+03 -0.93566269623E+03 -0.22036551026E+04  0.23993667046E+04  0.50400001928E-02 0.  1.
</event>
<event>
 5   0  0.1361560E-06  0.2996052E+04  0.7818609E-02  0.8244859E-01
        2   -1    0    0  501    0  0.00000000000E+00  0.00000000000E+00  0.17778376980E+04  0.17778376980E+04  0.25500000920E-02 0. -1.
       -2   -1    0    0    0  501  0.00000000000E+00  0.00000000000E+00 -0.12622537351E+04  0.12622537351E+04  0.25500000920E-02 0.  1.
    10030    2    1    2    0    0  0.00000000000E+00  0.00000000000E+00  0.51558396290E+03  0.30400914331E+04  0.29960522523E+04 0.  0.
        3    1    3    3  502    0 -0.87253362472E+03  0.12061664973E+04  0.88213576579E+02  0.14912860861E+04  0.10100000352E+00 0.  1.
       -3    1    3    3    0  502  0.87253362472E+03 -0.12061664973E+04  0.42737038632E+03  0.15488053469E+04  0.10100000352E+00 0. -1.
</event>
<event>
 5   0  0.4591195E-07  0.3460249E+04  0.7818609E-02  0.8123275E-01
        1   -1    0    0  501    0  0.00000000000E+00  0.00000000000E+00  0.17245348735E+04  0.17245348735E+04  0.50400001928E-02 0.  1.
       -1   -1    0    0    0  501  0.00000000000E+00  0.00000000000E+00 -0.17357325101E+04  0.17357325101E+04  0.50400001928E-02 0. -1.
    10030    2    1    2    0    0  0.00000000000E+00  0.00000000000E+00 -0.11197636592E+02  0.34602673836E+04  0.34602492655E+04 0.  0.
        4    1    3    3  502    0  0.28942451800E+03 -0.66078679606E+03  0.15669627186E+04  0.17250447866E+04  0.12699999809E+01 0.  1.
       -4    1    3    3    0  502 -0.28942451800E+03  0.66078679606E+03 -0.15781603552E+04  0.17352225970E+04  0.12699999809E+01 0. -1.
</event>
<event>
 5   0  0.4693374E-07  0.3509541E+04  0.7818609E-02  0.8111533E-01
        1   -1    0    0  501    0  0.00000000000E+00  0.00000000000E+00  0.20278088309E+04  0.20278088309E+04  0.50400001928E-02 0. -1.
       -1   -1    0    0    0  501  0.00000000000E+00  0.00000000000E+00 -0.15184957690E+04  0.15184957690E+04  0.50400001928E-02 0.  1.
    10030    2    1    2    0    0  0.00000000000E+00  0.00000000000E+00  0.50931306192E+03  0.35463045999E+04  0.35095407849E+04 0.  0.
        1    1    3    3  502    0 -0.17402526081E+04  0.16142026670E+03  0.41341211200E+03  0.17959524540E+04  0.50400001928E-02 0.  1.
       -1    1    3    3    0  502  0.17402526081E+04 -0.16142026670E+03  0.95900949922E+02  0.17503521460E+04  0.50400001928E-02 0. -1.
</event>
<event>
 5   0  0.4693374E-07  0.3579586E+04  0.7818609E-02  0.8095184E-01
       -1   -1    0    0    0  501  0.00000000000E+00  0.00000000000E+00  0.20314159810E+04  0.20314159810E+04  0.50400001928E-02 0.  1.
        1   -1    0    0  501    0  0.00000000000E+00  0.00000000000E+00 -0.15769095433E+04  0.15769095433E+04  0.50400001928E-02 0. -1.
    10030    2    1    2    0    0  0.00000000000E+00  0.00000000000E+00  0.45450643771E+03  0.36083255244E+04  0.35795861476E+04 0.  0.
        1    1    3    3  502    0  0.38005429609E+03 -0.15910056257E+04  0.95945897211E+03  0.18963917549E+04  0.50400001928E-02 0.  1.
       -1    1    3    3    0  502 -0.38005429609E+03  0.15910056257E+04 -0.50495253440E+03  0.17119337694E+04  0.50400001928E-02 0. -1.
</event>
<event>
 5   0  0.1378620E-06  0.3489885E+04  0.7818609E-02  0.8116191E-01
       -2   -1    0    0    0  501  0.00000000000E+00  0.00000000000E+00  0.14110486789E+04  0.14110486789E+04  0.25500000920E-02 0.  1.
        2   -1    0    0  501    0  0.00000000000E+00  0.00000000000E+00 -0.21578449896E+04  0.21578449896E+04  0.25500000920E-02 0. -1.
    10030    2    1    2    0    0  0.00000000000E+00  0.00000000000E+00 -0.74679631075E+03  0.35688936685E+04  0.34898849963E+04 0.  0.
        2    1    3    3  502    0  0.10780325149E+04  0.91482634062E+03 -0.14191752516E+04  0.20032772478E+04  0.25500000920E-02 0. -1.
       -2    1    3    3    0  502 -0.10780325149E+04 -0.91482634062E+03  0.67237894090E+03  0.15656164207E+04  0.25500000920E-02 0.  1.
</event>
<event>
 5   0  0.1387133E-06  0.3482996E+04  0.7818609E-02  0.8117831E-01
       -2   -1    0    0    0  501  0.00000000000E+00  0.00000000000E+00  0.14878567136E+04  0.14878567136E+04  0.25500000920E-02 0. -1.
        2   -1    0    0  501    0  0.00000000000E+00  0.00000000000E+00 -0.20383790064E+04  0.20383790064E+04  0.25500000920E-02 0.  1.
    10030    2    1    2    0    0  0.00000000000E+00  0.00000000000E+00 -0.55052229285E+03  0.35262357200E+04  0.34829963477E+04 0.  0.
        4    1    3    3  502    0 -0.11227492309E+04  0.13231395465E+04 -0.42388338196E+03  0.17863210320E+04  0.12699999809E+01 0. -1.
       -4    1    3    3    0  502  0.11227492309E+04 -0.13231395465E+04 -0.12663891089E+03  0.17399146880E+04  0.12699999809E+01 0.  1.
</event>
<event>
 5   0  0.1361560E-06  0.3486063E+04  0.7818609E-02  0.8117101E-01
       -2   -1    0    0    0  501  0.00000000000E+00  0.00000000000E+00  0.15618643371E+04  0.15618643371E+04  0.25500000920E-02 0. -1.
        2   -1    0    0  501    0  0.00000000000E+00  0.00000000000E+00 -0.19452125317E+04  0.19452125317E+04  0.25500000920E-02 0.  1.
    10030    2    1    2    0    0  0.00000000000E+00  0.00000000000E+00 -0.38334819462E+03  0.35070768688E+04  0.34860625820E+04 0.  0.
        3    1    3    3  502    0  0.93933287080E+03 -0.12278536595E+04 -0.10016280656E+04  0.18420721059E+04  0.10100000352E+00 0.  1.
       -3    1    3    3    0  502 -0.93933287080E+03  0.12278536595E+04  0.61827987098E+03  0.16650047629E+04  0.10100000352E+00 0. -1.
</event>
<event>
 5   0  0.4700769E-07  0.3654684E+04  0.7818609E-02  0.8078079E-01
       -1   -1    0    0    0  501  0.00000000000E+00  0.00000000000E+00  0.12026300603E+04  0.12026300603E+04  0.50400001928E-02 0. -1.
        1   -1    0    0  501    0  0.00000000000E+00  0.00000000000E+00 -0.27765636134E+04  0.27765636134E+04  0.50400001928E-02 0.  1.
    10030    2    1    2    0    0  0.00000000000E+00  0.00000000000E+00 -0.15739335531E+04  0.39791936738E+04  0.36546840443E+04 0.  0.
        3    1    3    3  502    0 -0.70487406312E+03  0.68297876031E+03  0.89128342227E+03  0.13257803668E+04  0.10100000352E+00 0. -1.
       -3    1    3    3    0  502  0.70487406312E+03 -0.68297876031E+03 -0.24652169754E+04  0.26534133070E+04  0.10100000352E+00 0.  1.
</event>
<event>
 5   0  0.1348388E-06  0.3389093E+04  0.7818609E-02  0.8140588E-01
        2   -1    0    0  501    0  0.00000000000E+00  0.00000000000E+00  0.24460544381E+04  0.24460544381E+04  0.25500000920E-02 0.  1.
       -2   -1    0    0    0  501  0.00000000000E+00  0.00000000000E+00 -0.11739264454E+04  0.11739264454E+04  0.25500000920E-02 0. -1.
    10030    2    1    2    0    0  0.00000000000E+00  0.00000000000E+00  0.12721279927E+04  0.36199808835E+04  0.33890930892E+04 0.  0.
        5    1    3    3  502    0 -0.11119996575E+04  0.87530702374E+03  0.16316361870E+04  0.21598528563E+04  0.46999998093E+01 0. -1.
       -5    1    3    3    0  502  0.11119996575E+04 -0.87530702374E+03 -0.35950819431E+03  0.14601280272E+04  0.46999998093E+01 0.  1.
</event>
<event>
 5   0  0.1378620E-06  0.3469789E+04  0.7818609E-02  0.8120987E-01
       -2   -1    0    0    0  501  0.00000000000E+00  0.00000000000E+00  0.12613980522E+04  0.12613980522E+04  0.25500000920E-02 0. -1.
        2   -1    0    0  501    0  0.00000000000E+00  0.00000000000E+00 -0.23861292436E+04  0.23861292436E+04  0.25500000920E-02 0.  1.
    10030    2    1    2    0    0  0.00000000000E+00  0.00000000000E+00 -0.11247311914E+04  0.36475272958E+04  0.34697889159E+04 0.  0.
        2    1    3    3  502    0 -0.82160351717E+03 -0.10320563576E+04 -0.17468890936E+04  0.21890167130E+04  0.25500000920E-02 0.  1.
       -2    1    3    3    0  502  0.82160351717E+03  0.10320563576E+04  0.62215790220E+03  0.14585105828E+04  0.25500000920E-02 0. -1.
</event>
<event>
 5   0  0.4700769E-07  0.3489220E+04  0.7818609E-02  0.8116349E-01
        1   -1    0    0  501    0  0.00000000000E+00  0.00000000000E+00  0.21152561010E+04  0.21152561010E+04  0.50400001928E-02 0. -1.
       -1   -1    0    0    0  501  0.00000000000E+00  0.00000000000E+00 -0.14389103024E+04  0.14389103024E+04  0.50400001928E-02 0.  1.
    10030    2    1    2    0    0  0.00000000000E+00  0.00000000000E+00  0.67634579852E+03  0.35541664034E+04  0.34892198532E+04 0.  0.
        3    1    3    3  502    0  0.87878566383E+03  0.13772876340E+04  0.96150968896E+03  0.18957020763E+04  0.10100000352E+00 0. -1.
       -3    1    3    3    0  502 -0.87878566383E+03 -0.13772876340E+04 -0.28516389044E+03  0.16584643271E+04  0.10100000352E+00 0.  1.
</event>
<event>
 5   0  0.1348388E-06  0.3434740E+04  0.7818609E-02  0.8129432E-01
        2   -1    0    0  501    0  0.00000000000E+00  0.00000000000E+00  0.19148992675E+04  0.19148992675E+04  0.25500000920E-02 0.  1.
       -2   -1    0    0    0  501  0.00000000000E+00  0.00000000000E+00 -0.15402170841E+04  0.15402170841E+04  0.25500000920E-02 0. -1.
    10030    2    1    2    0    0  0.00000000000E+00  0.00000000000E+00  0.37468218346E+03  0.34551163516E+04  0.34347404945E+04 0.  0.
        5    1    3    3  502    0 -0.78107671419E+03  0.11602493598E+04 -0.81510415316E+03  0.16188502960E+04  0.46999998093E+01 0. -1.
       -5    1    3    3    0  502  0.78107671419E+03 -0.11602493598E+04  0.11897863366E+04  0.18362660556E+04  0.46999998093E+01 0.  1.
</event>
<event>
 5   0  0.4409125E-07  0.3501070E+04  0.7818609E-02  0.8113536E-01
        3   -1    0    0  501    0  0.00000000000E+00  0.00000000000E+00  0.12904330363E+04  0.12904330403E+04  0.10100000352E+00 0. -1.
       -3   -1    0    0    0  501  0.00000000000E+00  0.00000000000E+00 -0.23746859763E+04  0.23746859784E+04  0.10100000352E+00 0.  1.
    10030    2    1    2    0    0  0.00000000000E+00  0.00000000000E+00 -0.10842529399E+04  0.36651190187E+04  0.35010702626E+04 0.  0.
        5    1    3    3  502    0  0.60153963011E+03  0.11931564955E+04  0.64173790173E+03  0.14823366601E+04  0.46999998093E+01 0. -1.
       -5    1    3    3    0  502 -0.60153963011E+03 -0.11931564955E+04 -0.17259908417E+04  0.21827823586E+04  0.46999998093E+01 0.  1.
</event>
<event>
 5   0  0.1348388E-06  0.3465795E+04  0.7818609E-02  0.8121944E-01
       -2   -1    0    0    0  501  0.00000000000E+00  0.00000000000E+00  0.13097848900E+04  0.13097848900E+04  0.25500000920E-02 0. -1.
        2   -1    0    0  501    0  0.00000000000E+00  0.00000000000E+00 -0.22926926813E+04  0.22926926813E+04  0.25500000920E-02 0.  1.
    10030    2    1    2    0    0  0.00000000000E+00  0.00000000000E+00 -0.98290779126E+03  0.36024775713E+04  0.34657952804E+04 0.  0.
        5    1    3    3  502    0  0.38158096067E+02 -0.44041584763E+03 -0.22330902733E+04  0.22764306311E+04  0.46999998093E+01 0.  1.
       -5    1    3    3    0  502 -0.38158096067E+02  0.44041584763E+03  0.12501824821E+04  0.13260469402E+04  0.46999998093E+01 0. -1.
</event>
<event>
 5   0  0.1442864E-06  0.3553511E+04  0.7818609E-02  0.8101224E-01
       -2   -1    0    0    0  501  0.00000000000E+00  0.00000000000E+00  0.16594742216E+04  0.16594742216E+04  0.25500000920E-02 0.  1.
        2   -1    0    0  501    0  0.00000000000E+00  0.00000000000E+00 -0.19023251761E+04  0.19023251761E+04  0.25500000920E-02 0. -1.
    10030    2    1    2    0    0  0.00000000000E+00  0.00000000000E+00 -0.24285095452E+03  0.35617993977E+04  0.35535107096E+04 0.  0.
        1    1    3    3  502    0 -0.12076120101E+04 -0.10346838715E+04 -0.91571447616E+03  0.18350559890E+04  0.50400001928E-02 0. -1.
       -1    1    3    3    0  502  0.12076120101E+04  0.10346838715E+04  0.67286352164E+03  0.17267434087E+04  0.50400001928E-02 0.  1.
</event>
<event>
 5   0  0.1387133E-06  0.3514616E+04  0.7818609E-02  0.8110335E-01
       -2   -1    0    0    0  501  0.00000000000E+00  0.00000000000E+00  0.13633780331E+04  0.13633780331E+04  0.25500000920E-02 0.  1.
        2   -1    0    0  501    0  0.00000000000E+00  0.00000000000E+00 -0.22650583926E+04  0.22650583926E+04  0.25500000920E-02 0. -1.
    10030    2    1    2    0    0  0.00000000000E+00  0.00000000000E+00 -0.90168035952E+03  0.36284364258E+04  0.35146156867E+04 0.  0.
        4    1    3    3  502    0 -0.26556877295E+03  0.17024556659E+04 -0.80734526298E+03  0.19028110925E+04  0.12699999809E+01 0.  1.
       -4    1    3    3    0  502  0.26556877295E+03 -0.17024556659E+04 -0.94335096536E+02  0.17256253332E+04  0.12699999809E+01 0. -1.
</event>
<event>
 5   0  0.4700769E-07  0.3470187E+04  0.7818609E-02  0.8120892E-01
        1   -1    0    0  501    0  0.00000000000E+00  0.00000000000E+00  0.31948417674E+04  0.31948417674E+04  0.50400001928E-02 0.  1.
       -1   -1    0    0    0  501  0.00000000000E+00  0.00000000000E+00 -0.94231565926E+03  0.94231565927E+03  0.50400001928E-02 0. -1.
    10030    2    1    2    0    0  0.00000000000E+00  0.00000000000E+00  0.22525261081E+04  0.41371574267E+04  0.34701869842E+04 0.  0.
        3    1    3    3  502    0 -0.16341469942E+04  0.51344890788E+03  0.79655291743E+03  0.18890639852E+04  0.10100000352E+00 0. -1.
       -3    1    3    3    0  502  0.16341469942E+04 -0.51344890788E+03  0.14559731907E+04  0.22480934415E+04  0.10100000352E+00 0.  1.
</event>
<event>
 5   0  0.4591195E-07  0.3456982E+04  0.7818609E-02  0.8124061E-01
        1   -1    0    0  501    0  0.00000000000E+00  0.00000000000E+00  0.14896298695E+04  0.14896298695E+04  0.50400001928E-02 0.  1.
       -1   -1    0    0    0  501  0.00000000000E+00  0.00000000000E+00 -0.20056532283E+04  0.20056532283E+04  0.50400001928E-02 0. -1.
    10030    2    1    2    0    0  0.00000000000E+00  0.00000000000E+00 -0.51602335885E+03  0.34952830978E+04  0.34569818956E+04 0.  0.
        4    1    3    3  502    0  0.51200094371E+03  0.14558263030E+04  0.52914082504E+03  0.16314309108E+04  0.12699999809E+01 0.  1.
       -4    1    3    3    0  502 -0.51200094371E+03 -0.14558263030E+04 -0.10451641839E+04  0.18638521870E+04  0.12699999809E+01 0. -1.
</event>
<event>
 5   0  0.1442864E-06  0.3479555E+04  0.7818609E-02  0.8118652E-01
        2   -1    0    0  501    0  0.00000000000E+00  0.00000000000E+00  0.98682525069E+03  0.98682525069E+03  0.25500000920E-02 0. -1.
       -2   -1    0    0    0  501  0.00000000000E+00  0.00000000000E+00 -0.30672357784E+04  0.30672357784E+04  0.25500000920E-02 0.  1.
    10030    2    1    2    0    0  0.00000000000E+00  0.00000000000E+00 -0.20804105277E+04  0.40540610291E+04  0.34795549807E+04 0.  0.
        1    1    3    3  502    0 -0.44050117636E+03 -0.97517386248E+02  0.91748127228E+03  0.10224102953E+04  0.50400001928E-02 0. -1.
       -1    1    3    3    0  502  0.44050117636E+03  0.97517386248E+02 -0.29978918000E+04  0.30316507338E+04  0.50400001928E-02 0.  1.
</event>
<event>
 5   0  0.4693374E-07  0.3502987E+04  0.7818609E-02  0.8113082E-01
        1   -1    0    0  501    0  0.00000000000E+00  0.00000000000E+00  0.31740579369E+04  0.31740579369E+04  0.50400001928E-02 0.  1.
       -1   -1    0    0    0  501  0.00000000000E+00  0.00000000000E+00 -0.96650068672E+03  0.96650068674E+03  0.50400001928E-02 0. -1.
    10030    2    1    2    0    0  0.00000000000E+00  0.00000000000E+00  0.22075572502E+04  0.41405586236E+04  0.35029868260E+04 0.  0.
        1    1    3    3  502    0  0.20048114721E+03  0.27186033406E+02 -0.95264275457E+03  0.97388910491E+03  0.50400001928E-02 0. -1.
       -1    1    3    3    0  502 -0.20048114721E+03 -0.27186033406E+02  0.31602000047E+04  0.31666695187E+04  0.50400001928E-02 0.  1.
</event>
<event>
 5   0  0.1387133E-06  0.3529522E+04  0.7818609E-02  0.8106829E-01
       -2   -1    0    0    0  501  0.00000000000E+00  0.00000000000E+00  0.11792056267E+04  0.11792056267E+04  0.25500000920E-02 0. -1.
        2   -1    0    0  501    0  0.00000000000E+00  0.00000000000E+00 -0.26410839526E+04  0.26410839526E+04  0.25500000920E-02 0.  1.
    10030    2    1    2    0    0  0.00000000000E+00  0.00000000000E+00 -0.14618783260E+04  0.38202895793E+04  0.35295218132E+04 0.  0.
        4    1    3    3  502    0 -0.34738232562E+03 -0.64686872356E+03 -0.24679056743E+04  0.25748152664E+04  0.12699999809E+01 0.  1.
       -4    1    3    3    0  502  0.34738232562E+03  0.64686872356E+03  0.10060273484E+04  0.12454743130E+04  0.12699999809E+01 0. -1.
</event>
<event>
 5   0  0.1348388E-06  0.3496256E+04  0.7818609E-02  0.8114678E-01
       -2   -1    0    0    0  501  0.00000000000E+00  0.00000000000E+00  0.22716110363E+04  0.22716110363E+04  0.25500000920E-02 0.  1.
        2   -1    0    0  501    0  0.00000000000E+00  0.00000000000E+00 -0.13452796235E+04  0.13452796235E+04  0.25500000920E-02 0. -1.
    10030    2    1    2    0    0  0.00000000000E+00  0.00000000000E+00  0.92633141283E+03  0.36168906598E+04  0.34962563062E+04 0.  0.
        5    1    3    3  502    0  0.30227438457E+03 -0.13376285339E+04 -0.65835770160E+03  0.15212090099E+04  0.46999998093E+01 0. -1.
       -5    1    3    3    0  502 -0.30227438457E+03  0.13376285339E+04  0.15846891144E+04  0.20956816499E+04  0.46999998093E+01 0.  1.
</event>
<event>
 5   0  0.1348388E-06  0.3364441E+04  0.7818609E-02  0.8146689E-01
       -2   -1    0    0    0  501  0.00000000000E+00  0.00000000000E+00  0.27292516560E+04  0.27292516560E+04  0.25500000920E-02 0. -1.
        2   -1    0    0  501    0  0.00000000000E+00  0.00000000000E+00 -0.10368653939E+04  0.10368653939E+04  0.25500000920E-02 0.  1.
    10030    2    1    2    0    0  0.00000000000E+00  0.00000000000E+00  0.16923862621E+04  0.37661170498E+04  0.33644414652E+04 0.  0.
        5    1    3    3  502    0 -0.64230051358E+03 -0.96118218302E+03  0.22141496948E+04  0.24977794337E+04  0.46999998093E+01 0. -1.
       -5    1    3    3    0  502  0.64230051358E+03  0.96118218302E+03 -0.52176343267E+03  0.12683376161E+04  0.46999998093E+01 0.  1.
</event>
<event>
 5   0  0.4591195E-07  0.2636347E+04  0.7818609E-02  0.8355959E-01
        1   -1    0    0  501    0  0.00000000000E+00  0.00000000000E+00  0.13862671605E+04  0.13862671605E+04  0.50400001928E-02 0.  1.
       -1   -1    0    0    0  501  0.00000000000E+00  0.00000000000E+00 -0.12534246049E+04  0.12534246049E+04  0.50400001928E-02 0. -1.
    10030    2    1    2    0    0  0.00000000000E+00  0.00000000000E+00  0.13284255556E+03  0.26396917654E+04  0.26363469938E+04 0.  0.
        4    1    3    3  502    0  0.41731839772E+03  0.53623073170E+03 -0.10645611382E+04  0.12629291637E+04  0.12699999809E+01 0. -1.
       -4    1    3    3    0  502 -0.41731839772E+03 -0.53623073170E+03  0.11974036938E+04  0.13767626017E+04  0.12699999809E+01 0.  1.
</event>
<event>
 5   0  0.4591195E-07  0.3521376E+04  0.7818609E-02  0.8108743E-01
        1   -1    0    0  501    0  0.00000000000E+00  0.00000000000E+00  0.15231999919E+04  0.15231999919E+04  0.50400001928E-02 0.  1.
       -1   -1    0    0    0  501  0.00000000000E+00  0.00000000000E+00 -0.20352031330E+04  0.20352031330E+04  0.50400001928E-02 0. -1.
    10030    2    1    2    0    0  0.00000000000E+00  0.00000000000E+00 -0.51200314107E+03  0.35584031248E+04  0.35213755242E+04 0.  0.
        4    1    3    3  502    0 -0.17597526646E+04 -0.55913271433E+02 -0.24305876224E+03  0.17773392781E+04  0.12699999809E+01 0.  1.
       -4    1    3    3    0  502  0.17597526646E+04  0.55913271433E+02 -0.26894437883E+03  0.17810638468E+04  0.12699999809E+01 0. -1.
</event>
<event>
 5   0  0.4693374E-07  0.3501894E+04  0.7818609E-02  0.8113341E-01
        1   -1    0    0  501    0  0.00000000000E+00  0.00000000000E+00  0.23375632592E+04  0.23375632592E+04  0.50400001928E-02 0. -1.
       -1   -1    0    0    0  501  0.00000000000E+00  0.00000000000E+00 -0.13115433051E+04  0.13115433052E+04  0.50400001928E-02 0.  1.
    10030    2    1    2    0    0  0.00000000000E+00  0.00000000000E+00  0.10260199541E+04  0.36491065644E+04  0.35018940264E+04 0.  0.
        1    1    3    3  502    0 -0.59601249500E+03 -0.74449677148E+03 -0.10171578109E+04  0.13943157279E+04  0.50400001928E-02 0.  1.
       -1    1    3    3    0  502  0.59601249500E+03  0.74449677148E+03  0.20431777649E+04  0.22547908364E+04  0.50400001928E-02 0. -1.
</event>
<event>
 5   0  0.1348388E-06  0.3474533E+04  0.7818609E-02  0.8119852E-01
        2   -1    0    0  501    0  0.00000000000E+00  0.00000000000E+00  0.13641498293E+04  0.13641498293E+04  0.25500000920E-02 0.  1.
       -2   -1    0    0    0  501  0.00000000000E+00  0.00000000000E+00 -0.22124363405E+04  0.22124363405E+04  0.25500000920E-02 0. -1.
    10030    2    1    2    0    0  0.00000000000E+00  0.00000000000E+00 -0.84828651117E+03  0.35765861698E+04  0.34745328643E+04 0.  0.
        5    1    3    3  502    0 -0.85020847383E+03 -0.80840136869E+03  0.89478106013E+03  0.14754736383E+04  0.46999998093E+01 0.  1.
       -5    1    3    3    0  502  0.85020847383E+03  0.80840136869E+03 -0.17430675713E+04  0.21011125315E+04  0.46999998093E+01 0. -1.
</event>
<event>
 5   0  0.1387133E-06  0.3513963E+04  0.7818609E-02  0.8110489E-01
       -2   -1    0    0    0  501  0.00000000000E+00  0.00000000000E+00  0.16563804262E+04  0.16563804262E+04  0.25500000920E-02 0.  1.
        2   -1    0    0  501    0  0.00000000000E+00  0.00000000000E+00 -0.18636929208E+04  0.18636929208E+04  0.25500000920E-02 0. -1.
    10030    2    1    2    0    0  0.00000000000E+00  0.00000000000E+00 -0.20731249458E+03  0.35200733470E+04  0.35139632750E+04 0.  0.
        4    1    3    3  502    0 -0.41919548899E+03 -0.20057683345E+03  0.15937004887E+04  0.16600719215E+04  0.12699999809E+01 0.  1.
       -4    1    3    3    0  502  0.41919548899E+03  0.20057683345E+03 -0.18010129833E+04  0.18600014255E+04  0.12699999809E+01 0. -1.
</event>
<event>
 5   0  0.1442864E-06  0.3537624E+04  0.7818609E-02  0.8104931E-01
        2   -1    0    0  501    0  0.00000000000E+00  0.00000000000E+00  0.13063850835E+04  0.13063850835E+04  0.25500000920E-02 0.  1.
       -2   -1    0    0    0  501  0.00000000000E+00  0.00000000000E+00 -0.23949268536E+04  0.23949268536E+04  0.25500000920E-02 0. -1.
    10030    2    1    2    0    0  0.00000000000E+00  0.00000000000E+00 -0.10885417701E+04  0.37013119370E+04  0.35376244671E+04 0.  0.
        1    1    3    3  502    0  0.29528264293E+03 -0.17297118165E+04 -0.31125090530E+03  0.17821256783E+04  0.50400001928E-02 0. -1.
       -1    1    3    3    0  502 -0.29528264293E+03  0.17297118165E+04 -0.77729086478E+03  0.19191862587E+04  0.50400001928E-02 0.  1.
</event>
<event>
 5   0  0.1442864E-06  0.3449881E+04  0.7818609E-02  0.8125771E-01
       -2   -1    0    0    0  501  0.00000000000E+00  0.00000000000E+00  0.12652881661E+04  0.12652881661E+04  0.25500000920E-02 0.  1.
        2   -1    0    0  501    0  0.00000000000E+00  0.00000000000E+00 -0.23515749406E+04  0.23515749406E+04  0.25500000920E-02 0. -1.
    10030    2    1    2    0    0  0.00000000000E+00  0.00000000000E+00 -0.10862867746E+04  0.36168631067E+04  0.34498811249E+04 0.  0.
        1    1    3    3  502    0 -0.53154962857E+03  0.16365430607E+04 -0.41645688379E+03  0.17703825951E+04  0.50400001928E-02 0.  1.
       -1    1    3    3    0  502  0.53154962857E+03 -0.16365430607E+04 -0.66982989080E+03  0.18464805116E+04  0.50400001928E-02 0. -1.
</event>
<event>
 5   0  0.4557237E-07  0.3440018E+04  0.7818609E-02  0.8128154E-01
       -1   -1    0    0    0  501  0.00000000000E+00  0.00000000000E+00  0.11915975084E+04  0.11915975084E+04  0.50400001928E-02 0. -1.
        1   -1    0    0  501    0  0.00000000000E+00  0.00000000000E+00 -0.24827428340E+04  0.24827428340E+04  0.50400001928E-02 0.  1.
    10030    2    1    2    0    0  0.00000000000E+00  0.00000000000E+00 -0.12911453257E+04  0.36743403424E+04  0.34400175435E+04 0.  0.
        2    1    3    3  502    0 -0.14076870263E+03 -0.13171155891E+04  0.52635190366E+03  0.14253615784E+04  0.25500000920E-02 0. -1.
       -2    1    3    3    0  502  0.14076870263E+03  0.13171155891E+04 -0.18174972293E+04  0.22489787641E+04  0.25500000920E-02 0.  1.
</event>
<event>
 5   0  0.4409125E-07  0.3443868E+04  0.7818609E-02  0.8127223E-01
        1   -1    0    0  501    0  0.00000000000E+00  0.00000000000E+00  0.10758847145E+04  0.10758847145E+04  0.50400001928E-02 0. -1.
       -1   -1    0    0    0  501  0.00000000000E+00  0.00000000000E+00 -0.27559249090E+04  0.27559249090E+04  0.50400001928E-02 0.  1.
    10030    2    1    2    0    0  0.00000000000E+00  0.00000000000E+00 -0.16800401945E+04  0.38318096235E+04  0.34438684550E+04 0.  0.
        5    1    3    3  502    0  0.12664332337E+03 -0.15097073383E+04 -0.17506117321E+04  0.23151497372E+04  0.46999998093E+01 0. -1.
       -5    1    3    3    0  502 -0.12664332337E+03  0.15097073383E+04  0.70571537647E+02  0.15166598863E+04  0.46999998093E+01 0.  1.
</event>
<event>
 5   0  0.1348388E-06  0.3481375E+04  0.7818609E-02  0.8118218E-01
        2   -1    0    0  501    0  0.00000000000E+00  0.00000000000E+00  0.25832890481E+04  0.25832890481E+04  0.25500000920E-02 0. -1.
       -2   -1    0    0    0  501  0.00000000000E+00  0.00000000000E+00 -0.11729207329E+04  0.11729207329E+04  0.25500000920E-02 0.  1.
    10030    2    1    2    0    0  0.00000000000E+00  0.00000000000E+00  0.14103683152E+04  0.37562097810E+04  0.34813751786E+04 0.  0.
        5    1    3    3  502    0  0.96606010837E+03  0.66292858779E+03 -0.68377576845E+03  0.13565831478E+04  0.46999998093E+01 0.  1.
       -5    1    3    3    0  502 -0.96606010837E+03 -0.66292858779E+03  0.20941440837E+04  0.23996266332E+04  0.46999998093E+01 0. -1.
</event>
<event>
 5   0  0.4591195E-07  0.3627280E+04  0.7818609E-02  0.8084271E-01
       -1   -1    0    0    0  501  0.00000000000E+00  0.00000000000E+00  0.16593762572E+04  0.16593762572E+04  0.50400001928E-02 0. -1.
        1   -1    0    0  501    0  0.00000000000E+00  0.00000000000E+00 -0.19822449648E+04  0.19822449648E+04  0.50400001928E-02 0.  1.
    10030    2    1    2    0    0  0.00000000000E+00  0.00000000000E+00 -0.32286870765E+03  0.36416212220E+04  0.36272800998E+04 0.  0.
        4    1    3    3  502    0 -0.55894096157E+03 -0.49940441539E+03 -0.18194689096E+04  0.19678131249E+04  0.12699999809E+01 0.  1.
       -4    1    3    3    0  502  0.55894096157E+03  0.49940441539E+03  0.14966002020E+04  0.16738080971E+04  0.12699999809E+01 0. -1.
</event>
<event>
 5   0  0.1378620E-06  0.3394052E+04  0.7818609E-02  0.8139368E-01
        2   -1    0    0  501    0  0.00000000000E+00  0.00000000000E+00  0.17936793382E+04  0.17936793382E+04  0.25500000920E-02 0. -1.
       -2   -1    0    0    0  501  0.00000000000E+00  0.00000000000E+00 -0.16055812978E+04  0.16055812978E+04  0.25500000920E-02 0.  1.
    10030    2    1    2    0    0  0.00000000000E+00  0.00000000000E+00  0.18809804038E+03  0.33992606360E+04  0.33940524449E+04 0.  0.
        2    1    3    3  502    0  0.12859360217E+04 -0.83340676788E+03  0.82434536475E+03  0.17400412562E+04  0.25500000920E-02 0. -1.
       -2    1    3    3    0  502 -0.12859360217E+04  0.83340676788E+03 -0.63624732437E+03  0.16592193799E+04  0.25500000920E-02 0.  1.
</event>
<event>
 5   0  0.4693374E-07  0.3518877E+04  0.7818609E-02  0.8109331E-01
        1   -1    0    0  501    0  0.00000000000E+00  0.00000000000E+00  0.18035023374E+04  0.18035023374E+04  0.50400001928E-02 0. -1.
       -1   -1    0    0    0  501  0.00000000000E+00  0.00000000000E+00 -0.17164513197E+04  0.17164513197E+04  0.50400001928E-02 0.  1.
    10030    2    1    2    0    0  0.00000000000E+00  0.00000000000E+00  0.87051017707E+02  0.35199536571E+04  0.35188770749E+04 0.  0.
        1    1    3    3  502    0 -0.14060344495E+04 -0.97054544396E+03  0.46404993438E+03  0.17703767039E+04  0.50400001928E-02 0. -1.
       -1    1    3    3    0  502  0.14060344495E+04  0.97054544396E+03 -0.37699891667E+03  0.17495769532E+04  0.50400001928E-02 0.  1.
</event>
<event>
 5   0  0.1361560E-06  0.3505466E+04  0.7818609E-02  0.8112496E-01
        2   -1    0    0  501    0  0.00000000000E+00  0.00000000000E+00  0.20842024638E+04  0.20842024638E+04  0.25500000920E-02 0.  1.
       -2   -1    0    0    0  501  0.00000000000E+00  0.00000000000E+00 -0.14739802095E+04  0.14739802095E+04  0.25500000920E-02 0. -1.
    10030    2    1    2    0    0  0.00000000000E+00  0.00000000000E+00  0.61022225423E+03  0.35581826733E+04  0.35054661227E+04 0.  0.
        3    1    3    3  502    0 -0.96166893014E+03 -0.29784542993E+03 -0.11512316733E+04  0.15293310325E+04  0.10100000352E+00 0. -1.
       -3    1    3    3    0  502  0.96166893014E+03  0.29784542993E+03  0.17614539275E+04  0.20288516408E+04  0.10100000352E+00 0.  1.
</event>
<event>
 5   0  0.1348388E-06  0.3507099E+04  0.7818609E-02  0.8112110E-01
        2   -1    0    0  501    0  0.00000000000E+00  0.00000000000E+00  0.21063708240E+04  0.21063708241E+04  0.25500000920E-02 0. -1.
       -2   -1    0    0    0  501  0.00000000000E+00  0.00000000000E+00 -0.14598264683E+04  0.14598264683E+04  0.25500000920E-02 0.  1.
    10030    2    1    2    0    0  0.00000000000E+00  0.00000000000E+00  0.64654435578E+03  0.35661972923E+04  0.35070990182E+04 0.  0.
        5    1    3    3  502    0  0.12231951938E+04  0.15494342718E+03 -0.94461501660E+03  0.15532332623E+04  0.46999998093E+01 0.  1.
       -5    1    3    3    0  502 -0.12231951938E+04 -0.15494342718E+03  0.15911593724E+04  0.20129640300E+04  0.46999998093E+01 0. -1.
</event>
<event>
 5   0  0.4693374E-07  0.3589850E+04  0.7818609E-02  0.8092821E-01
        1   -1    0    0  501    0  0.00000000000E+00  0.00000000000E+00  0.12545740339E+04  0.12545740339E+04  0.50400001928E-02 0.  1.
       -1   -1    0    0    0  501  0.00000000000E+00  0.00000000000E+00 -0.25680075092E+04  0.25680075093E+04  0.50400001928E-02 0. -1.
    10030    2    1    2    0    0  0.00000000000E+00  0.00000000000E+00 -0.13134334753E+04  0.38225815432E+04  0.35898498799E+04 0.  0.
        1    1    3    3  502    0 -0.12856231008E+04 -0.11602827508E+04 -0.15424229311E+03  0.17386412811E+04  0.50400001928E-02 0.  1.
       -1    1    3    3    0  502  0.12856231008E+04  0.11602827508E+04 -0.11591911822E+04  0.20839402621E+04  0.50400001928E-02 0. -1.
</event>
<event>
 5   0  0.4591195E-07  0.3508131E+04  0.7818609E-02  0.8111866E-01
        1   -1    0    0  501    0  0.00000000000E+00  0.00000000000E+00  0.22895235726E+04  0.22895235726E+04  0.50400001928E-02 0.  1.
       -1   -1    0    0    0  501  0.00000000000E+00  0.00000000000E+00 -0.13438367194E+04  0.13438367195E+04  0.50400001928E-02 0. -1.
    10030    2    1    2    0    0  0.00000000000E+00  0.00000000000E+00  0.94568685311E+03  0.36333602920E+04  0.35081310391E+04 0.  0.
        4    1    3    3  502    0 -0.56812813978E+03  0.63499812902E+03  0.20607906639E+04  0.22299892332E+04  0.12699999809E+01 0.  1.
       -4    1    3    3    0  502  0.56812813978E+03 -0.63499812902E+03 -0.11151038107E+04  0.14033710588E+04  0.12699999809E+01 0. -1.
</event>
<event>
 5   0  0.4409125E-07  0.3468497E+04  0.7818609E-02  0.8121297E-01
       -3   -1    0    0    0  501  0.00000000000E+00  0.00000000000E+00  0.18531878004E+04  0.18531878031E+04  0.10100000352E+00 0.  1.
        3   -1    0    0  501    0  0.00000000000E+00  0.00000000000E+00 -0.16229430759E+04  0.16229430791E+04  0.10100000352E+00 0. -1.
    10030    2    1    2    0    0  0.00000000000E+00  0.00000000000E+00  0.23024472448E+03  0.34761308822E+04  0.34684972650E+04 0.  0.
        3    1    3    3  502    0  0.13667684008E+04 -0.11023154689E+03 -0.94901081804E+03  0.16675816017E+04  0.10100000352E+00 0. -1.
       -3    1    3    3    0  502 -0.13667684008E+04  0.11023154689E+03  0.11792555425E+04  0.18085492805E+04  0.10100000352E+00 0.  1.
</event>
<event>
 5   0  0.4409125E-07  0.2754078E+04  0.7818609E-02  0.8317669E-01
       -1   -1    0    0    0  501  0.00000000000E+00  0.00000000000E+00  0.13979349330E+04  0.13979349330E+04  0.50400001928E-02 0. -1.
        1   -1    0    0  501    0  0.00000000000E+00  0.00000000000E+00 -0.13564549342E+04  0.13564549342E+04  0.50400001928E-02 0.  1.
    10030    2    1    2    0    0  0.00000000000E+00  0.00000000000E+00  0.41479998794E+02  0.27543898672E+04  0.27540775135E+04 0.  0.
        5    1    3    3  502    0  0.82323927691E+03  0.10386967323E+04 -0.35293299411E+03  0.13715675693E+04  0.46999998093E+01 0.  1.
       -5    1    3    3    0  502 -0.82323927691E+03 -0.10386967323E+04  0.39441299290E+03  0.13828222980E+04  0.46999998093E+01 0. -1.
</event>
<event>
 5   0  0.1348388E-06  0.3557210E+04  0.7818609E-02  0.8100364E-01
        2   -1    0    0  501    0  0.00000000000E+00  0.00000000000E+00  0.19820960676E+04  0.19820960676E+04  0.25500000920E-02 0.  1.
       -2   -1    0    0    0  501  0.00000000000E+00  0.00000000000E+00 -0.15960052778E+04  0.15960052778E+04  0.25500000920E-02 0. -1.
    10030    2    1    2    0    0  0.00000000000E+00  0.00000000000E+00  0.38609078979E+03  0.35781013455E+04  0.35572100220E+04 0.  0.
        5    1    3    3  502    0  0.36817985760E+03 -0.17245064918E+04  0.42664766137E+03  0.18142572487E+04  0.46999998093E+01 0. -1.
       -5    1    3    3    0  502 -0.36817985760E+03  0.17245064918E+04 -0.40556871577E+02  0.17638440967E+04  0.46999998093E+01 0.  1.
</event>
<event>
 5   0  0.1348388E-06  0.3458369E+04  0.7818609E-02  0.8123728E-01
       -2   -1    0    0    0  501  0.00000000000E+00  0.00000000000E+00  0.20768361108E+04  0.20768361108E+04  0.25500000920E-02 0. -1.
        2   -1    0    0  501    0  0.00000000000E+00  0.00000000000E+00 -0.14397275828E+04  0.14397275828E+04  0.25500000920E-02 0.  1.
    10030    2    1    2    0    0  0.00000000000E+00  0.00000000000E+00  0.63710852802E+03  0.35165636935E+04  0.34583685365E+04 0.  0.
        5    1    3    3  502    0 -0.56057039949E+03 -0.12916875411E+04 -0.70200827991E+03  0.15733828497E+04  0.46999998093E+01 0.  1.
       -5    1    3    3    0  502  0.56057039949E+03  0.12916875411E+04  0.13391168079E+04  0.19431808439E+04  0.46999998093E+01 0. -1.
</event>
<event>
 5   0  0.1361560E-06  0.3502628E+04  0.7818609E-02  0.8113167E-01
       -2   -1    0    0    0  501  0.00000000000E+00  0.00000000000E+00  0.19983471321E+04  0.19983471321E+04  0.25500000920E-02 0.  1.
        2   -1    0    0  501    0  0.00000000000E+00  0.00000000000E+00 -0.15348186414E+04  0.15348186414E+04  0.25500000920E-02 0. -1.
    10030    2    1    2    0    0  0.00000000000E+00  0.00000000000E+00  0.46352849067E+03  0.35331657735E+04  0.35026278308E+04 0.  0.
        3    1    3    3  502    0 -0.13035619918E+04 -0.74948480814E+03  0.11374222547E+04  0.18853993582E+04  0.10100000352E+00 0.  1.
       -3    1    3    3    0  502  0.13035619918E+04  0.74948480814E+03 -0.67389376406E+03  0.16477664153E+04  0.10100000352E+00 0. -1.
</event>
<event>
 5   0  0.1348388E-06  0.3557821E+04  0.7818609E-02  0.8100222E-01
       -2   -1    0    0    0  501  0.00000000000E+00  0.00000000000E+00  0.15765698627E+04  0.15765698627E+04  0.25500000920E-02 0.  1.
        2   -1    0    0  501    0  0.00000000000E+00  0.00000000000E+00 -0.20072197162E+04  0.20072197162E+04  0.25500000920E-02 0. -1.
    10030    2    1    2    0    0  0.00000000000E+00  0.00000000000E+00 -0.43064985351E+03  0.35837895789E+04  0.35578207444E+04 0.  0.
        5    1    3    3  502    0 -0.29119676139E+03 -0.61813118400E+03  0.14391061888E+04  0.15930883300E+04  0.46999998093E+01 0.  1.
       -5    1    3    3    0  502  0.29119676139E+03  0.61813118400E+03 -0.18697560423E+04  0.19907012489E+04  0.46999998093E+01 0. -1.
</event>
<event>
 5   0  0.4557237E-07  0.3480222E+04  0.7818609E-02  0.8118493E-01
        1   -1    0    0  501    0  0.00000000000E+00  0.00000000000E+00  0.22911108288E+04  0.22911108288E+04  0.50400001928E-02 0.  1.
       -1   -1    0    0    0  501  0.00000000000E+00  0.00000000000E+00 -0.13216240155E+04  0.13216240155E+04  0.50400001928E-02 0. -1.
    10030    2    1    2    0    0  0.00000000000E+00  0.00000000000E+00  0.96948681333E+03  0.36127348443E+04  0.34802224604E+04 0.  0.
        2    1    3    3  502    0 -0.43630432722E+03  0.14720989799E+04 -0.36530711313E+03  0.15782541492E+04  0.25500000920E-02 0.  1.
       -2    1    3    3    0  502  0.43630432722E+03 -0.14720989799E+04  0.13347939265E+04  0.20344806951E+04  0.25500000920E-02 0. -1.
</event>
<event>
 5   0  0.1361560E-06  0.3490699E+04  0.7818609E-02  0.8115998E-01
       -2   -1    0    0    0  501  0.00000000000E+00  0.00000000000E+00  0.16032092788E+04  0.16032092788E+04  0.25500000920E-02 0. -1.
        2   -1    0    0  501    0  0.00000000000E+00  0.00000000000E+00 -0.19000918251E+04  0.19000918251E+04  0.25500000920E-02 0.  1.
    10030    2    1    2    0    0  0.00000000000E+00  0.00000000000E+00 -0.29688254631E+03  0.35033011039E+04  0.34906989813E+04 0.  0.
        3    1    3    3  502    0  0.48013526056E+03  0.16711868120E+04  0.32653068133E+01  0.17387943816E+04  0.10100000352E+00 0. -1.
       -3    1    3    3    0  502 -0.48013526056E+03 -0.16711868120E+04 -0.30014785313E+03  0.17645067223E+04  0.10100000352E+00 0.  1.
</event>
<event>
 5   0  0.1387133E-06  0.3584663E+04  0.7818609E-02  0.8094014E-01
       -2   -1    0    0    0  501  0.00000000000E+00  0.00000000000E+00  0.18231687534E+04  0.18231687534E+04  0.25500000920E-02 0.  1.
        2   -1    0    0  501    0  0.00000000000E+00  0.00000000000E+00 -0.17620156793E+04  0.17620156793E+04  0.25500000920E-02 0. -1.
    10030    2    1    2    0    0  0.00000000000E+00  0.00000000000E+00  0.61153074087E+02  0.35851844326E+04  0.35846628457E+04 0.  0.
        4    1    3    3  502    0  0.31326370822E+03  0.53795876605E+03 -0.16504168214E+04  0.17639192391E+04  0.12699999809E+01 0. -1.
       -4    1    3    3    0  502 -0.31326370822E+03 -0.53795876605E+03  0.17115698955E+04  0.18212651935E+04  0.12699999809E+01 0.  1.
</event>
<event>
 5   0  0.1361560E-06  0.3528281E+04  0.7818609E-02  0.8107120E-01
        2   -1    0    0  501    0  0.00000000000E+00  0.00000000000E+00  0.16680068140E+04  0.16680068140E+04  0.25500000920E-02 0. -1.
       -2   -1    0    0    0  501  0.00000000000E+00  0.00000000000E+00 -0.18658143381E+04  0.18658143381E+04  0.25500000920E-02 0.  1.
    10030    2    1    2    0    0  0.00000000000E+00  0.00000000000E+00 -0.19780752408E+03  0.35338211520E+04  0.35282806178E+04 0.  0.
        3    1    3    3  502    0 -0.15722162028E+04  0.11815647580E+03 -0.89157961981E+03  0.18112810300E+04  0.10100000352E+00 0.  1.
       -3    1    3    3    0  502  0.15722162028E+04 -0.11815647580E+03  0.69377209573E+03  0.17225401220E+04  0.10100000352E+00 0. -1.
</event>
<event>
 5   0  0.4557237E-07  0.3452200E+04  0.7818609E-02  0.8125212E-01
       -1   -1    0    0    0  501  0.00000000000E+00  0.00000000000E+00  0.12785432364E+04  0.12785432365E+04  0.50400001928E-02 0.  1.
        1   -1    0    0  501    0  0.00000000000E+00  0.00000000000E+00 -0.23303243355E+04  0.23303243355E+04  0.50400001928E-02 0. -1.
    10030    2    1    2    0    0  0.00000000000E+00  0.00000000000E+00 -0.10517810991E+04  0.36088675720E+04  0.34521995411E+04 0.  0.
        2    1    3    3  502    0  0.14348192749E+04  0.94376807266E+03 -0.70700398847E+03  0.18572181257E+04  0.25500000920E-02 0. -1.
       -2    1    3    3    0  502 -0.14348192749E+04 -0.94376807266E+03 -0.34477711059E+03  0.17516494463E+04  0.25500000920E-02 0.  1.
</event>
<event>
 5   0  0.1378620E-06  0.3213953E+04  0.7818609E-02  0.8185142E-01
        2   -1    0    0  501    0  0.00000000000E+00  0.00000000000E+00  0.17768401436E+04  0.17768401436E+04  0.25500000920E-02 0. -1.
       -2   -1    0    0    0  501  0.00000000000E+00  0.00000000000E+00 -0.14533513762E+04  0.14533513762E+04  0.25500000920E-02 0.  1.
    10030    2    1    2    0    0  0.00000000000E+00  0.00000000000E+00  0.32348876748E+03  0.32301915198E+04  0.32139527489E+04 0.  0.
        2    1    3    3  502    0  0.11444185890E+04 -0.42813198568E+03 -0.88726389422E+03  0.15100424239E+04  0.25500000920E-02 0.  1.
       -2    1    3    3    0  502 -0.11444185890E+04  0.42813198568E+03  0.12107526617E+04  0.17201490958E+04  0.25500000920E-02 0. -1.
</event>
<event>
 5   0  0.4591195E-07  0.3479578E+04  0.7818609E-02  0.8118647E-01
       -1   -1    0    0    0  501  0.00000000000E+00  0.00000000000E+00  0.20804971831E+04  0.20804971831E+04  0.50400001928E-02 0.  1.
        1   -1    0    0  501    0  0.00000000000E+00  0.00000000000E+00 -0.14548765704E+04  0.14548765704E+04  0.50400001928E-02 0. -1.
    10030    2    1    2    0    0  0.00000000000E+00  0.00000000000E+00  0.62562061271E+03  0.35353737536E+04  0.34795784840E+04 0.  0.
        4    1    3    3  502    0  0.39113758821E+03  0.64933253739E+03  0.19038847676E+04  0.20492438065E+04  0.12699999809E+01 0.  1.
       -4    1    3    3    0  502 -0.39113758821E+03 -0.64933253739E+03 -0.12782641549E+04  0.14861299471E+04  0.12699999809E+01 0. -1.
</event>
<event>
 5   0  0.4591195E-07  0.3514854E+04  0.7818609E-02  0.8110279E-01
       -1   -1    0    0    0  501  0.00000000000E+00  0.00000000000E+00  0.16310853468E+04  0.16310853468E+04  0.50400001928E-02 0. -1.
        1   -1    0    0  501    0  0.00000000000E+00  0.00000000000E+00 -0.18935548526E+04  0.18935548526E+04  0.50400001928E-02 0.  1.
    10030    2    1    2    0    0  0.00000000000E+00  0.00000000000E+00 -0.26246950580E+03  0.35246401994E+04  0.35148539505E+04 0.  0.
        4    1    3    3  502    0  0.32329466948E+03  0.39534170755E+03  0.15550338001E+04  0.16367486800E+04  0.12699999809E+01 0. -1.
       -4    1    3    3    0  502 -0.32329466948E+03 -0.39534170755E+03 -0.18175033059E+04  0.18878915194E+04  0.12699999809E+01 0.  1.
</event>
<event>
 5   0  0.1387133E-06  0.3120853E+04  0.7818609E-02  0.8210038E-01
       -2   -1    0    0    0  501  0.00000000000E+00  0.00000000000E+00  0.12470472559E+04  0.12470472559E+04  0.25500000920E-02 0. -1.
        2   -1    0    0  501    0  0.00000000000E+00  0.00000000000E+00 -0.19525573726E+04  0.19525573726E+04  0.25500000920E-02 0.  1.
    10030    2    1    2    0    0  0.00000000000E+00  0.00000000000E+00 -0.70551011676E+03  0.31996046285E+04  0.31208532894E+04 0.  0.
        4    1    3    3  502    0 -0.29197070114E+03  0.10661431174E+04  0.77640950922E+03  0.13508224813E+04  0.12699999809E+01 0. -1.
       -4    1    3    3    0  502  0.29197070114E+03 -0.10661431174E+04 -0.14819196260E+04  0.18487821472E+04  0.12699999809E+01 0.  1.
</event>
<event>
 5   0  0.4409125E-07  0.3178646E+04  0.7818609E-02  0.8194480E-01
       -1   -1    0    0    0  501  0.00000000000E+00  0.00000000000E+00  0.14924956813E+04  0.14924956813E+04  0.50400001928E-02 0.  1.
        1   -1    0    0  501    0  0.00000000000E+00  0.00000000000E+00 -0.16924320770E+04  0.16924320770E+04  0.50400001928E-02 0. -1.
    10030    2    1    2    0    0  0.00000000000E+00  0.00000000000E+00 -0.19993639569E+03  0.31849277584E+04  0.31786459796E+04 0.  0.
        5    1    3    3  502    0  0.19715461775E+03  0.12733787125E+04 -0.10321627543E+04  0.16509831405E+04  0.46999998093E+01 0. -1.
       -5    1    3    3    0  502 -0.19715461775E+03 -0.12733787125E+04  0.83222635865E+03  0.15339446179E+04  0.46999998093E+01 0.  1.
</event>
<event>
 5   0  0.4557237E-07  0.3518629E+04  0.7818609E-02  0.8109389E-01
        1   -1    0    0  501    0  0.00000000000E+00  0.00000000000E+00  0.13532524840E+04  0.13532524840E+04  0.50400001928E-02 0. -1.
       -1   -1    0    0    0  501  0.00000000000E+00  0.00000000000E+00 -0.22872203922E+04  0.22872203922E+04  0.50400001928E-02 0.  1.
    10030    2    1    2    0    0  0.00000000000E+00  0.00000000000E+00 -0.93396790821E+03  0.36404728763E+04  0.35186285268E+04 0.  0.
        2    1    3    3  502    0 -0.89762289134E+03 -0.80983445283E+03  0.85541032598E+03  0.14809745176E+04  0.25500000920E-02 0. -1.
       -2    1    3    3    0  502  0.89762289134E+03  0.80983445283E+03 -0.17893782342E+04  0.21594983587E+04  0.25500000920E-02 0.  1.
</event>
<event>
 5   0  0.1361560E-06  0.2946230E+04  0.7818609E-02  0.8259254E-01
        2   -1    0    0  501    0  0.00000000000E+00  0.00000000000E+00  0.11608368631E+04  0.11608368631E+04  0.25500000920E-02 0. -1.
       -2   -1    0    0    0  501  0.00000000000E+00  0.00000000000E+00 -0.18693995046E+04  0.18693995046E+04  0.25500000920E-02 0.  1.
    10030    2    1    2    0    0  0.00000000000E+00  0.00000000000E+00 -0.70856264157E+03  0.30302363677E+04  0.29462300364E+04 0.  0.
        3    1    3    3  502    0 -0.13520693899E+04 -0.25915191550E+03 -0.89345818984E+03  0.16411943509E+04  0.10100000352E+00 0.  1.
       -3    1    3    3    0  502  0.13520693899E+04  0.25915191550E+03  0.18489554827E+03  0.13890420168E+04  0.10100000352E+00 0. -1.
</event>
<event>
 5   0  0.1361560E-06  0.3507116E+04  0.7818609E-02  0.8112106E-01
       -2   -1    0    0    0  501  0.00000000000E+00  0.00000000000E+00  0.18742835953E+04  0.18742835953E+04  0.25500000920E-02 0. -1.
        2   -1    0    0  501    0  0.00000000000E+00  0.00000000000E+00 -0.16406085870E+04  0.16406085870E+04  0.25500000920E-02 0.  1.
    10030    2    1    2    0    0  0.00000000000E+00  0.00000000000E+00  0.23367500832E+03  0.35148921823E+04  0.35071160579E+04 0.  0.
        3    1    3    3  502    0  0.79953447319E+03 -0.13761201571E+04 -0.62100384822E+03  0.17083933535E+04  0.10100000352E+00 0.  1.
       -3    1    3    3    0  502 -0.79953447319E+03  0.13761201571E+04  0.85467885654E+03  0.18064988288E+04  0.10100000352E+00 0. -1.
</event>
<event>
 5   0  0.1387133E-06  0.3486818E+04  0.7818609E-02  0.8116921E-01
        2   -1    0    0  501    0  0.00000000000E+00  0.00000000000E+00  0.21182121942E+04  0.21182121942E+04  0.25500000920E-02 0.  1.
       -2   -1    0    0    0  501  0.00000000000E+00  0.00000000000E+00 -0.14349246967E+04  0.14349246967E+04  0.25500000920E-02 0. -1.
    10030    2    1    2    0    0  0.00000000000E+00  0.00000000000E+00  0.68328749758E+03  0.35531368909E+04  0.34868180281E+04 0.  0.
        4    1    3    3  502    0 -0.42508875074E+03 -0.10840599168E+04 -0.98056626642E+03  0.15223002874E+04  0.12699999809E+01 0.  1.
       -4    1    3    3    0  502  0.42508875074E+03  0.10840599168E+04  0.16638537640E+04  0.20308366035E+04  0.12699999809E+01 0. -1.
</event>
<event>
 5   0  0.4693374E-07  0.3472006E+04  0.7818609E-02  0.8120456E-01
        1   -1    0    0  501    0  0.00000000000E+00  0.00000000000E+00  0.87745034776E+03  0.87745034778E+03  0.50400001928E-02 0. -1.
       -1   -1    0    0    0  501  0.00000000000E+00  0.00000000000E+00 -0.34346183217E+04  0.34346183217E+04  0.50400001928E-02 0.  1.
    10030    2    1    2    0    0  0.00000000000E+00  0.00000000000E+00 -0.25571679739E+04  0.43120686695E+04  0.34720063599E+04 0.  0.
        1    1    3    3  502    0  0.10865286217E+03  0.13348356772E+04  0.93262750826E+02  0.13424938251E+04  0.50400001928E-02 0.  1.
       -1    1    3    3    0  502 -0.10865286217E+03 -0.13348356772E+04 -0.26504307247E+04  0.29695748444E+04  0.50400001928E-02 0. -1.
</event>
<event>
 5   0  0.1387133E-06  0.3409941E+04  0.7818609E-02  0.8135471E-01
        2   -1    0    0  501    0  0.00000000000E+00  0.00000000000E+00  0.21603966848E+04  0.21603966848E+04  0.25500000920E-02 0. -1.
       -2   -1    0    0    0  501  0.00000000000E+00  0.00000000000E+00 -0.13455513437E+04  0.13455513437E+04  0.25500000920E-02 0.  1.
    10030    2    1    2    0    0  0.00000000000E+00  0.00000000000E+00  0.81484534108E+03  0.35059480285E+04  0.34099411503E+04 0.  0.
        4    1    3    3  502    0  0.14860545594E+04  0.76767588453E+03  0.67604406657E+02  0.16739941415E+04  0.12699999809E+01 0. -1.
       -4    1    3    3    0  502 -0.14860545594E+04 -0.76767588453E+03  0.74724093442E+03  0.18319538870E+04  0.12699999809E+01 0.  1.
</event>
<event>
 5   0  0.4700769E-07  0.3480539E+04  0.7818609E-02  0.8118418E-01
        1   -1    0    0  501    0  0.00000000000E+00  0.00000000000E+00  0.17816167807E+04  0.17816167807E+04  0.50400001928E-02 0.  1.
       -1   -1    0    0    0  501  0.00000000000E+00  0.00000000000E+00 -0.16998817160E+04  0.16998817160E+04  0.50400001928E-02 0. -1.
    10030    2    1    2    0    0  0.00000000000E+00  0.00000000000E+00  0.81735064709E+02  0.34814984967E+04  0.34805389182E+04 0.  0.
        3    1    3    3  502    0  0.92161200418E+03  0.14241452810E+04 -0.34780015805E+03  0.17316245054E+04  0.10100000352E+00 0. -1.
       -3    1    3    3    0  502 -0.92161200418E+03 -0.14241452810E+04  0.42953522276E+03  0.17498739913E+04  0.10100000352E+00 0.  1.
</event>
<event>
 5   0  0.1361560E-06  0.3530829E+04  0.7818609E-02  0.8106522E-01
       -2   -1    0    0    0  501  0.00000000000E+00  0.00000000000E+00  0.17969215784E+04  0.17969215784E+04  0.25500000920E-02 0. -1.
        2   -1    0    0  501    0  0.00000000000E+00  0.00000000000E+00 -0.17344599845E+04  0.17344599845E+04  0.25500000920E-02 0.  1.
    10030    2    1    2    0    0  0.00000000000E+00  0.00000000000E+00  0.62461593918E+02  0.35313815628E+04  0.35308291224E+04 0.  0.
        3    1    3    3  502    0  0.17271808072E+03 -0.10215429800E+04  0.14608973375E+04  0.17909781227E+04  0.10100000352E+00 0. -1.
       -3    1    3    3    0  502 -0.17271808072E+03  0.10215429800E+04 -0.13984357436E+04  0.17404034401E+04  0.10100000352E+00 0.  1.
</event>
<event>
 5   0  0.1361560E-06  0.3003426E+04  0.7818609E-02  0.8242753E-01
       -2   -1    0    0    0  501  0.00000000000E+00  0.00000000000E+00  0.14507479688E+04  0.14507479688E+04  0.25500000920E-02 0.  1.
        2   -1    0    0  501    0  0.00000000000E+00  0.00000000000E+00 -0.15544685673E+04  0.15544685673E+04  0.25500000920E-02 0. -1.
    10030    2    1    2    0    0  0.00000000000E+00  0.00000000000E+00 -0.10372059853E+03  0.30052165361E+04  0.30034261213E+04 0.  0.
        3    1    3    3  502    0  0.80362672918E+03  0.70317463633E+03 -0.11083645431E+04  0.15390719475E+04  0.10100000352E+00 0. -1.
       -3    1    3    3    0  502 -0.80362672918E+03 -0.70317463633E+03  0.10046439446E+04  0.14661445886E+04  0.10100000352E+00 0.  1.
</event>
<event>
 5   0  0.4693374E-07  0.3651391E+04  0.7818609E-02  0.8078820E-01
        1   -1    0    0  501    0  0.00000000000E+00  0.00000000000E+00  0.10120805206E+04  0.10120805206E+04  0.50400001928E-02 0.  1.
       -1   -1    0    0    0  501  0.00000000000E+00  0.00000000000E+00 -0.32933779642E+04  0.32933779642E+04  0.50400001928E-02 0. -1.
    10030    2    1    2    0    0  0.00000000000E+00  0.00000000000E+00 -0.22812974436E+04  0.43054584848E+04  0.36513907951E+04 0.  0.
        1    1    3    3  502    0  0.15209691331E+04  0.71920312782E+03 -0.19765529772E+04  0.25956428712E+04  0.50400001928E-02 0. -1.
       -1    1    3    3    0  502 -0.15209691331E+04 -0.71920312782E+03 -0.30474446641E+03  0.17098156137E+04  0.50400001928E-02 0.  1.
</event>
<event>
 5   0  0.4693374E-07  0.3464789E+04  0.7818609E-02  0.8122186E-01
       -1   -1    0    0    0  501  0.00000000000E+00  0.00000000000E+00  0.14785873457E+04  0.14785873457E+04  0.50400001928E-02 0. -1.
        1   -1    0    0  501    0  0.00000000000E+00  0.00000000000E+00 -0.20297688446E+04  0.20297688446E+04  0.50400001928E-02 0.  1.
    10030    2    1    2    0    0  0.00000000000E+00  0.00000000000E+00 -0.55118149886E+03  0.35083561903E+04  0.34647888988E+04 0.  0.
        1    1    3    3  502    0 -0.20089867150E+03  0.17187264545E+04 -0.35914884797E+03  0.17673055188E+04  0.50400001928E-02 0. -1.
       -1    1    3    3    0  502  0.20089867150E+03 -0.17187264545E+04 -0.19203265089E+03  0.17410506715E+04  0.50400001928E-02 0.  1.
</event>
<event>
 5   0  0.1442864E-06  0.3486152E+04  0.7818609E-02  0.8117080E-01
       -2   -1    0    0    0  501  0.00000000000E+00  0.00000000000E+00  0.11924108435E+04  0.11924108435E+04  0.25500000920E-02 0.  1.
        2   -1    0    0  501    0  0.00000000000E+00  0.00000000000E+00 -0.25480428349E+04  0.25480428349E+04  0.25500000920E-02 0. -1.
    10030    2    1    2    0    0  0.00000000000E+00  0.00000000000E+00 -0.13556319915E+04  0.37404536784E+04  0.34861519795E+04 0.  0.
        1    1    3    3  502    0 -0.13303471733E+04  0.98592179955E+03 -0.93628038195E+02  0.16585028206E+04  0.50400001928E-02 0.  1.
       -1    1    3    3    0  502  0.13303471733E+04 -0.98592179955E+03 -0.12620039533E+04  0.20819508578E+04  0.50400001928E-02 0. -1.
</event>
<event>
 5   0  0.4591195E-07  0.3488006E+04  0.7818609E-02  0.8116638E-01
       -1   -1    0    0    0  501  0.00000000000E+00  0.00000000000E+00  0.25859556822E+04  0.25859556822E+04  0.50400001928E-02 0. -1.
        1   -1    0    0  501    0  0.00000000000E+00  0.00000000000E+00 -0.11761790723E+04  0.11761790723E+04  0.50400001928E-02 0.  1.
    10030    2    1    2    0    0  0.00000000000E+00  0.00000000000E+00  0.14097766099E+04  0.37621347545E+04  0.34880062816E+04 0.  0.
        4    1    3    3  502    0 -0.90299253061E+03 -0.58715561295E+03  0.21843285942E+04  0.24354548332E+04  0.12699999809E+01 0. -1.
       -4    1    3    3    0  502  0.90299253061E+03  0.58715561295E+03 -0.77455198430E+03  0.13266799212E+04  0.12699999809E+01 0.  1.
</event>
<event>
 5   0  0.1348388E-06  0.3080709E+04  0.7818609E-02  0.8221052E-01
       -2   -1    0    0    0  501  0.00000000000E+00  0.00000000000E+00  0.10287321498E+04  0.10287321498E+04  0.25500000920E-02 0. -1.
        2   -1    0    0  501    0  0.00000000000E+00  0.00000000000E+00 -0.23064232756E+04  0.23064232756E+04  0.25500000920E-02 0.  1.
    10030    2    1    2    0    0  0.00000000000E+00  0.00000000000E+00 -0.12776911258E+04  0.33351554255E+04  0.30807088631E+04 0.  0.
        5    1    3    3  502    0  0.11273530584E+04  0.10607694904E+03  0.49167053491E+03  0.12344793406E+04  0.46999998093E+01 0. -1.
       -5    1    3    3    0  502 -0.11273530584E+04 -0.10607694904E+03 -0.17693616607E+04  0.21006760849E+04  0.46999998093E+01 0.  1.
</event>
<event>
 5   0  0.4557237E-07  0.3490791E+04  0.7818609E-02  0.8115976E-01
       -1   -1    0    0    0  501  0.00000000000E+00  0.00000000000E+00  0.17210680465E+04  0.17210680465E+04  0.50400001928E-02 0.  1.
        1   -1    0    0  501    0  0.00000000000E+00  0.00000000000E+00 -0.17700667799E+04  0.17700667799E+04  0.50400001928E-02 0. -1.
    10030    2    1    2    0    0  0.00000000000E+00  0.00000000000E+00 -0.48998733408E+02  0.34911348265E+04  0.34907909563E+04 0.  0.
        2    1    3    3  502    0  0.62498668085E+03  0.45952456186E+03 -0.15881859900E+04  0.17675140489E+04  0.25500000920E-02 0. -1.
       -2    1    3    3    0  502 -0.62498668085E+03 -0.45952456186E+03  0.15391872566E+04  0.17236207776E+04  0.25500000920E-02 0.  1.
</event>
<event>
 5   0  0.4409125E-07  0.3469392E+04  0.7818609E-02  0.8121082E-01
        1   -1    0    0  501    0  0.00000000000E+00  0.00000000000E+00  0.23986744744E+04  0.23986744744E+04  0.50400001928E-02 0.  1.
       -1   -1    0    0    0  501  0.00000000000E+00  0.00000000000E+00 -0.12545136205E+04  0.12545136205E+04  0.50400001928E-02 0. -1.
    10030    2    1    2    0    0  0.00000000000E+00  0.00000000000E+00  0.11441608540E+04  0.36531880949E+04  0.34693917618E+04 0.  0.
        5    1    3    3  502    0  0.17316186934E+04 -0.71412155345E+02  0.49367280759E+03  0.18020371600E+04  0.46999998093E+01 0. -1.
       -5    1    3    3    0  502 -0.17316186934E+04  0.71412155345E+02  0.65048804638E+03  0.18511509349E+04  0.46999998093E+01 0.  1.
</event>
<event>
 5   0  0.4700769E-07  0.3473047E+04  0.7818609E-02  0.8120207E-01
        1   -1    0    0  501    0  0.00000000000E+00  0.00000000000E+00  0.14104224788E+04  0.14104224788E+04  0.50400001928E-02 0. -1.
       -1   -1    0    0    0  501  0.00000000000E+00  0.00000000000E+00 -0.21380222336E+04  0.21380222336E+04  0.50400001928E-02 0.  1.
    10030    2    1    2    0    0  0.00000000000E+00  0.00000000000E+00 -0.72759975478E+03  0.35484447124E+04  0.34730474333E+04 0.  0.
        3    1    3    3  502    0  0.92766136795E+03  0.10588246589E+04 -0.14026573184E+04  0.19872374883E+04  0.10100000352E+00 0.  1.
       -3    1    3    3    0  502 -0.92766136795E+03 -0.10588246589E+04  0.67505756363E+03  0.15612072240E+04  0.10100000352E+00 0. -1.
</event>
<event>
 5   0  0.1348388E-06  0.3550874E+04  0.7818609E-02  0.8101838E-01
       -2   -1    0    0    0  501  0.00000000000E+00  0.00000000000E+00  0.17507611005E+04  0.17507611005E+04  0.25500000920E-02 0.  1.
        2   -1    0    0  501    0  0.00000000000E+00  0.00000000000E+00 -0.18004607319E+04  0.18004607319E+04  0.25500000920E-02 0. -1.
    10030    2    1    2    0    0  0.00000000000E+00  0.00000000000E+00 -0.49699631368E+02  0.35512218324E+04  0.35508740402E+04 0.  0.
        5    1    3    3  502    0  0.46429717591E+03  0.88731813388E+03  0.14413255570E+04  0.17550916755E+04  0.46999998093E+01 0.  1.
       -5    1    3    3    0  502 -0.46429717591E+03 -0.88731813388E+03 -0.14910251883E+04  0.17961301569E+04  0.46999998093E+01 0. -1.
</event>
<event>
 5   0  0.4557237E-07  0.3480438E+04  0.7818609E-02  0.8118442E-01
       -1   -1    0    0    0  501  0.00000000000E+00  0.00000000000E+00  0.15789652359E+04  0.15789652359E+04  0.50400001928E-02 0. -1.
        1   -1    0    0  501    0  0.00000000000E+00  0.00000000000E+00 -0.19179410488E+04  0.19179410488E+04  0.50400001928E-02 0.  1.
    10030    2    1    2    0    0  0.00000000000E+00  0.00000000000E+00 -0.33897581283E+03  0.34969062847E+04  0.34804380417E+04 0.  0.
        2    1    3    3  502    0  0.13861426728E+04 -0.20153312674E+03  0.86804294129E+03  0.16478791396E+04  0.25500000920E-02 0. -1.
       -2    1    3    3    0  502 -0.13861426728E+04  0.20153312674E+03 -0.12070187541E+04  0.18490271451E+04  0.25500000920E-02 0.  1.
</event>
<event>
 5   0  0.4700769E-07  0.3543806E+04  0.7818609E-02  0.8103486E-01
        1   -1    0    0  501    0  0.00000000000E+00  0.00000000000E+00  0.15478623681E+04  0.15478623681E+04  0.50400001928E-02 0.  1.
       -1   -1    0    0    0  501  0.00000000000E+00  0.00000000000E+00 -0.20283717598E+04  0.20283717598E+04  0.50400001928E-02 0. -1.
    10030    2    1    2    0    0  0.00000000000E+00  0.00000000000E+00 -0.48050939164E+03  0.35762341279E+04  0.35438060419E+04 0.  0.
        3    1    3    3  502    0  0.15264279094E+03 -0.10513955192E+04 -0.16712957535E+04  0.19803943712E+04  0.10100000352E+00 0. -1.
       -3    1    3    3    0  502 -0.15264279094E+03  0.10513955192E+04  0.11907863619E+04  0.15958397568E+04  0.10100000352E+00 0.  1.
</event>
<event>
 5   0  0.1361560E-06  0.2856241E+04  0.7818609E-02  0.8286017E-01
        2   -1    0    0  501    0  0.00000000000E+00  0.00000000000E+00  0.21179314032E+04  0.21179314032E+04  0.25500000920E-02 0.  1.
       -2   -1    0    0    0  501  0.00000000000E+00  0.00000000000E+00 -0.96298134422E+03  0.96298134422E+03  0.25500000920E-02 0. -1.
    10030    2    1    2    0    0  0.00000000000E+00  0.00000000000E+00  0.11549500590E+04  0.30809127474E+04  0.28562411870E+04 0.  0.
        3    1    3    3  502    0 -0.26181892525E+03 -0.94820800340E+03  0.16942297017E+04  0.19590972053E+04  0.10100000352E+00 0.  1.
       -3    1    3    3    0  502  0.26181892525E+03  0.94820800340E+03 -0.53927964274E+03  0.11218155421E+04  0.10100000352E+00 0. -1.
</event>
<event>
 5   0  0.1348388E-06  0.3521874E+04  0.7818609E-02  0.8108626E-01
        2   -1    0    0  501    0  0.00000000000E+00  0.00000000000E+00  0.20802329467E+04  0.20802329467E+04  0.25500000920E-02 0.  1.
       -2   -1    0    0    0  501  0.00000000000E+00  0.00000000000E+00 -0.14906495217E+04  0.14906495217E+04  0.25500000920E-02 0. -1.
    10030    2    1    2    0    0  0.00000000000E+00  0.00000000000E+00  0.58958342501E+03  0.35708824684E+04  0.35218735054E+04 0.  0.
        5    1    3    3  502    0  0.28930175733E+03 -0.60209667027E+03  0.19467773839E+04  0.20581982848E+04  0.46999998093E+01 0.  1.
       -5    1    3    3    0  502 -0.28930175733E+03  0.60209667027E+03 -0.13571939589E+04  0.15126841836E+04  0.46999998093E+01 0. -1.
</event>
<event>
 5   0  0.1442864E-06  0.3488369E+04  0.7818609E-02  0.8116552E-01
       -2   -1    0    0    0  501  0.00000000000E+00  0.00000000000E+00  0.14890305709E+04  0.14890305709E+04  0.25500000920E-02 0.  1.
        2   -1    0    0  501    0  0.00000000000E+00  0.00000000000E+00 -0.20430602318E+04  0.20430602318E+04  0.25500000920E-02 0. -1.
    10030    2    1    2    0    0  0.00000000000E+00  0.00000000000E+00 -0.55402966095E+03  0.35320908027E+04  0.34883687554E+04 0.  0.
        1    1    3    3  502    0  0.45650823457E+03  0.16160337242E+04 -0.75431935272E+03  0.18409134830E+04  0.50400001928E-02 0. -1.
       -1    1    3    3    0  502 -0.45650823457E+03 -0.16160337242E+04  0.20028969178E+03  0.16911773197E+04  0.50400001928E-02 0.  1.
</event>
<event>
 5   0  0.4591195E-07  0.3474468E+04  0.7818609E-02  0.8119867E-01
        1   -1    0    0  501    0  0.00000000000E+00  0.00000000000E+00  0.23961094978E+04  0.23961094978E+04  0.50400001928E-02 0. -1.
       -1   -1    0    0    0  501  0.00000000000E+00  0.00000000000E+00 -0.12595343660E+04  0.12595343660E+04  0.50400001928E-02 0.  1.
    10030    2    1    2    0    0  0.00000000000E+00  0.00000000000E+00  0.11365751318E+04  0.36556438639E+04  0.34744681649E+04 0.  0.
        4    1    3    3  502    0  0.54828231528E+03 -0.10786608074E+04  0.18798265630E+04  0.22355921262E+04  0.12699999809E+01 0. -1.
       -4    1    3    3    0  502 -0.54828231528E+03  0.10786608074E+04 -0.74325143120E+03  0.14200517377E+04  0.12699999809E+01 0.  1.
</event>
<event>
 5   0  0.4409125E-07  0.3057686E+04  0.7818609E-02  0.8227447E-01
        1   -1    0    0  501    0  0.00000000000E+00  0.00000000000E+00  0.12315285993E+04  0.12315285993E+04  0.50400001928E-02 0.  1.
       -1   -1    0    0    0  501  0.00000000000E+00  0.00000000000E+00 -0.18979347150E+04  0.18979347150E+04  0.50400001928E-02 0. -1.
    10030    2    1    2    0    0  0.00000000000E+00  0.00000000000E+00 -0.66640611567E+03  0.31294633143E+04  0.30576859755E+04 0.  0.
        5    1    3    3  502    0 -0.12381947998E+04 -0.14447099809E+03 -0.12390447184E+04  0.17576268477E+04  0.46999998093E+01 0. -1.
       -5    1    3    3    0  502  0.12381947998E+04  0.14447099809E+03  0.57263860274E+03  0.13718364666E+04  0.46999998093E+01 0.  1.
</event>
<event>
 5   0  0.4700769E-07  0.3451128E+04  0.7818609E-02  0.8125471E-01
        1   -1    0    0  501    0  0.00000000000E+00  0.00000000000E+00  0.22068597216E+04  0.22068597216E+04  0.50400001928E-02 0.  1.
       -1   -1    0    0    0  501  0.00000000000E+00  0.00000000000E+00 -0.13492341025E+04  0.13492341025E+04  0.50400001928E-02 0. -1.
    10030    2    1    2    0    0  0.00000000000E+00  0.00000000000E+00  0.85762561914E+03  0.35560938241E+04  0.34511275814E+04 0.  0.
        3    1    3    3  502    0 -0.13438397089E+04  0.16169319715E+03  0.15316556681E+04  0.20440202908E+04  0.10100000352E+00 0.  1.
       -3    1    3    3    0  502  0.13438397089E+04 -0.16169319715E+03 -0.67403004898E+03  0.15120735333E+04  0.10100000352E+00 0. -1.
</event>
<event>
 5   0  0.1378620E-06  0.3482135E+04  0.7818609E-02  0.8118037E-01
        2   -1    0    0  501    0  0.00000000000E+00  0.00000000000E+00  0.17273650276E+04  0.17273650276E+04  0.25500000920E-02 0.  1.
       -2   -1    0    0    0  501  0.00000000000E+00  0.00000000000E+00 -0.17548788220E+04  0.17548788220E+04  0.25500000920E-02 0. -1.
    10030    2    1    2    0    0  0.00000000000E+00  0.00000000000E+00 -0.27513794403E+02  0.34822438495E+04  0.34821351523E+04 0.  0.
        2    1    3    3  502    0 -0.10562665837E+04  0.11718888339E+04  0.72267207196E+03  0.17353032756E+04  0.25500000920E-02 0.  1.
       -2    1    3    3    0  502  0.10562665837E+04 -0.11718888339E+04 -0.75018586636E+03  0.17469405739E+04  0.25500000920E-02 0. -1.
</event>
<event>
 5   0  0.4700769E-07  0.3441093E+04  0.7818609E-02  0.8127894E-01
       -1   -1    0    0    0  501  0.00000000000E+00  0.00000000000E+00  0.12795751576E+04  0.12795751576E+04  0.50400001928E-02 0. -1.
        1   -1    0    0  501    0  0.00000000000E+00  0.00000000000E+00 -0.23134873394E+04  0.23134873394E+04  0.50400001928E-02 0.  1.
    10030    2    1    2    0    0  0.00000000000E+00  0.00000000000E+00 -0.10339121818E+04  0.35930624971E+04  0.34410933885E+04 0.  0.
        3    1    3    3  502    0 -0.76094949269E+03 -0.77876709445E+03  0.87407858624E+03  0.13962577495E+04  0.10100000352E+00 0. -1.
       -3    1    3    3    0  502  0.76094949269E+03  0.77876709445E+03 -0.19079907681E+04  0.21968047476E+04  0.10100000352E+00 0.  1.
</event>
<event>
 5   0  0.4557237E-07  0.3511791E+04  0.7818609E-02  0.8111001E-01
       -1   -1    0    0    0  501  0.00000000000E+00  0.00000000000E+00  0.13985303565E+04  0.13985303565E+04  0.50400001928E-02 0. -1.
        1   -1    0    0  501    0  0.00000000000E+00  0.00000000000E+00 -0.22045781111E+04  0.22045781112E+04  0.50400001928E-02 0.  1.
    10030    2    1    2    0    0  0.00000000000E+00  0.00000000000E+00 -0.80604775466E+03  0.36031084677E+04  0.35117912305E+04 0.  0.
        2    1    3    3  502    0  0.95892978190E+02 -0.10241889867E+04 -0.18630557126E+04  0.21281764804E+04  0.25500000920E-02 0.  1.
       -2    1    3    3    0  502 -0.95892978190E+02  0.10241889867E+04  0.10570079579E+04  0.14749319872E+04  0.25500000920E-02 0. -1.
</event>
<event>
 5   0  0.4591195E-07  0.3488641E+04  0.7818609E-02  0.8116487E-01
       -1   -1    0    0    0  501  0.00000000000E+00  0.00000000000E+00  0.12940035275E+04  0.12940035275E+04  0.50400001928E-02 0.  1.
        1   -1    0    0  501    0  0.00000000000E+00  0.00000000000E+00 -0.23513491815E+04  0.23513491815E+04  0.50400001928E-02 0. -1.
    10030    2    1    2    0    0  0.00000000000E+00  0.00000000000E+00 -0.10573456541E+04  0.36453527090E+04  0.34886410737E+04 0.  0.
        4    1    3    3  502    0 -0.40913245630E+03 -0.16646950411E+04 -0.86573636076E+03  0.19204426589E+04  0.12699999809E+01 0.  1.
       -4    1    3    3    0  502  0.40913245630E+03  0.16646950411E+04 -0.19160929331E+03  0.17249100501E+04  0.12699999809E+01 0. -1.
</event>
<event>
 5   0  0.1361560E-06  0.3291292E+04  0.7818609E-02  0.8165115E-01
        2   -1    0    0  501    0  0.00000000000E+00  0.00000000000E+00  0.18782675978E+04  0.18782675978E+04  0.25500000920E-02 0.  1.
       -2   -1    0    0    0  501  0.00000000000E+00  0.00000000000E+00 -0.14418347640E+04  0.14418347640E+04  0.25500000920E-02 0. -1.
    10030    2    1    2    0    0  0.00000000000E+00  0.00000000000E+00  0.43643283382E+03  0.33201023618E+04  0.32912924626E+04 0.  0.
        3    1    3    3  502    0  0.10790660503E+01 -0.52495643994E+03 -0.13551061357E+04  0.14532353827E+04  0.10100000352E+00 0. -1.
       -3    1    3    3    0  502 -0.10790660503E+01  0.52495643994E+03  0.17915389695E+04  0.18668669791E+04  0.10100000352E+00 0.  1.
</event>
<event>
 5   0  0.1361560E-06  0.3512512E+04  0.7818609E-02  0.8110831E-01
        2   -1    0    0  501    0  0.00000000000E+00  0.00000000000E+00  0.21514083036E+04  0.21514083036E+04  0.25500000920E-02 0.  1.
       -2   -1    0    0    0  501  0.00000000000E+00  0.00000000000E+00 -0.14336818161E+04  0.14336818161E+04  0.25500000920E-02 0. -1.
    10030    2    1    2    0    0  0.00000000000E+00  0.00000000000E+00  0.71772648754E+03  0.35850901197E+04  0.35125119012E+04 0.  0.
        3    1    3    3  502    0 -0.14408388531E+04  0.61813829857E+03 -0.44889535617E+03  0.16308337156E+04  0.10100000352E+00 0. -1.
       -3    1    3    3    0  502  0.14408388531E+04 -0.61813829857E+03  0.11666218437E+04  0.19542564042E+04  0.10100000352E+00 0.  1.
</event>
<event>
 5   0  0.4557237E-07  0.3444356E+04  0.7818609E-02  0.8127105E-01
        1   -1    0    0  501    0  0.00000000000E+00  0.00000000000E+00  0.14976455702E+04  0.14976455702E+04  0.50400001928E-02 0.  1.
       -1   -1    0    0    0  501  0.00000000000E+00  0.00000000000E+00 -0.19803727021E+04  0.19803727021E+04  0.50400001928E-02 0. -1.
    10030    2    1    2    0    0  0.00000000000E+00  0.00000000000E+00 -0.48272713184E+03  0.34780182723E+04  0.34443556173E+04 0.  0.
        2    1    3    3  502    0 -0.13032097687E+04  0.11215883316E+04 -0.14252786829E+03  0.17252913609E+04  0.25500000920E-02 0. -1.
       -2    1    3    3    0  502  0.13032097687E+04 -0.11215883316E+04 -0.34019926355E+03  0.17527269114E+04  0.25500000920E-02 0.  1.
</event>
<event>
 5   0  0.4409125E-07  0.3512126E+04  0.7818609E-02  0.8110922E-01
       -1   -1    0    0    0  501  0.00000000000E+00  0.00000000000E+00  0.12391909031E+04  0.12391909031E+04  0.50400001928E-02 0. -1.
        1   -1    0    0  501    0  0.00000000000E+00  0.00000000000E+00 -0.24885246341E+04  0.24885246341E+04  0.50400001928E-02 0.  1.
    10030    2    1    2    0    0  0.00000000000E+00  0.00000000000E+00 -0.12493337311E+04  0.37277155372E+04  0.35121259025E+04 0.  0.
        5    1    3    3  502    0  0.85212703844E+03 -0.54158494495E+03  0.90029548295E+03  0.13527707821E+04  0.46999998093E+01 0. -1.
       -5    1    3    3    0  502 -0.85212703844E+03  0.54158494495E+03 -0.21496292140E+04  0.23749447551E+04  0.46999998093E+01 0.  1.
</event>
<event>
 5   0  0.1348388E-06  0.3424222E+04  0.7818609E-02  0.8131987E-01
        2   -1    0    0  501    0  0.00000000000E+00  0.00000000000E+00  0.18794129900E+04  0.18794129900E+04  0.25500000920E-02 0. -1.
       -2   -1    0    0    0  501  0.00000000000E+00  0.00000000000E+00 -0.15597015271E+04  0.15597015271E+04  0.25500000920E-02 0.  1.
    10030    2    1    2    0    0  0.00000000000E+00  0.00000000000E+00  0.31971146294E+03  0.34391145171E+04  0.34242215527E+04 0.  0.
        5    1    3    3  502    0  0.58773690271E+03  0.67454825806E+03  0.16259481326E+04  0.18558500583E+04  0.46999998093E+01 0. -1.
       -5    1    3    3    0  502 -0.58773690271E+03 -0.67454825806E+03 -0.13062366696E+04  0.15832644587E+04  0.46999998093E+01 0.  1.
</event>
<event>
 5   0  0.1442864E-06  0.3498673E+04  0.7818609E-02  0.8114104E-01
        2   -1    0    0  501    0  0.00000000000E+00  0.00000000000E+00  0.16931148005E+04  0.16931148005E+04  0.25500000920E-02 0.  1.
       -2   -1    0    0    0  501  0.00000000000E+00  0.00000000000E+00 -0.18074255072E+04  0.18074255072E+04  0.25500000920E-02 0. -1.
    10030    2    1    2    0    0  0.00000000000E+00  0.00000000000E+00 -0.11431070669E+03  0.35005403077E+04  0.34986733926E+04 0.  0.
        1    1    3    3  502    0 -0.11660779439E+04 -0.10561678539E+04  0.70807337309E+03  0.17252814867E+04  0.50400001928E-02 0.  1.
       -1    1    3    3    0  502  0.11660779439E+04  0.10561678539E+04 -0.82238407978E+03  0.17752588210E+04  0.50400001928E-02 0. -1.
</event>
<event>
 5   0  0.4409125E-07  0.3503540E+04  0.7818609E-02  0.8112952E-01
        3   -1    0    0  501    0  0.00000000000E+00  0.00000000000E+00  0.25710974414E+04  0.25710974434E+04  0.10100000352E+00 0.  1.
       -3   -1    0    0    0  501  0.00000000000E+00  0.00000000000E+00 -0.11935361368E+04  0.11935361411E+04  0.10100000352E+00 0. -1.
    10030    2    1    2    0    0  0.00000000000E+00  0.00000000000E+00  0.13775613046E+04  0.37646335845E+04  0.35035397639E+04 0.  0.
        3    1    3    3  502    0  0.61421030846E+03 -0.15325942725E+04  0.13177191821E+04  0.21124590789E+04  0.10100000352E+00 0.  1.
       -3    1    3    3    0  502 -0.61421030846E+03  0.15325942725E+04  0.59842122499E+02  0.16521745056E+04  0.10100000352E+00 0. -1.
</event>
<event>
 5   0  0.4591195E-07  0.3461523E+04  0.7818609E-02  0.8122970E-01
        1   -1    0    0  501    0  0.00000000000E+00  0.00000000000E+00  0.15791764399E+04  0.15791764399E+04  0.50400001928E-02 0. -1.
       -1   -1    0    0    0  501  0.00000000000E+00  0.00000000000E+00 -0.18968970091E+04  0.18968970092E+04  0.50400001928E-02 0.  1.
    10030    2    1    2    0    0  0.00000000000E+00  0.00000000000E+00 -0.31772056921E+03  0.34760734491E+04  0.34615228243E+04 0.  0.
        4    1    3    3  502    0 -0.12265027311E+04 -0.18786064441E+03 -0.13705527914E+04  0.18487880187E+04  0.12699999809E+01 0.  1.
       -4    1    3    3    0  502  0.12265027311E+04  0.18786064441E+03  0.10528322222E+04  0.16272854304E+04  0.12699999809E+01 0. -1.
</event>
<event>
 5   0  0.1387133E-06  0.3465695E+04  0.7818609E-02  0.8121968E-01
        2   -1    0    0  501    0  0.00000000000E+00  0.00000000000E+00  0.19487509633E+04  0.19487509633E+04  0.25500000920E-02 0.  1.
       -2   -1    0    0    0  501  0.00000000000E+00  0.00000000000E+00 -0.15408637252E+04  0.15408637252E+04  0.25500000920E-02 0. -1.
    10030    2    1    2    0    0  0.00000000000E+00  0.00000000000E+00  0.40788723812E+03  0.34896146884E+04  0.34656945444E+04 0.  0.
        4    1    3    3  502    0 -0.75846271090E+03 -0.19933626150E+03 -0.13519585844E+04  0.15629440988E+04  0.12699999809E+01 0. -1.
       -4    1    3    3    0  502  0.75846271090E+03  0.19933626150E+03  0.17598458226E+04  0.19266705897E+04  0.12699999809E+01 0.  1.
</event>
<event>
 5   0  0.1361560E-06  0.3502351E+04  0.7818609E-02  0.8113233E-01
        2   -1    0    0  501    0  0.00000000000E+00  0.00000000000E+00  0.25997413219E+04  0.25997413219E+04  0.25500000920E-02 0. -1.
       -2   -1    0    0    0  501  0.00000000000E+00  0.00000000000E+00 -0.11795851556E+04  0.11795851556E+04  0.25500000920E-02 0.  1.
    10030    2    1    2    0    0  0.00000000000E+00  0.00000000000E+00  0.14201561663E+04  0.37793264775E+04  0.35023513654E+04 0.  0.
        3    1    3    3  502    0 -0.99522427313E+03 -0.25345641125E+03  0.22406664393E+04  0.24648118809E+04  0.10100000352E+00 0. -1.
       -3    1    3    3    0  502  0.99522427313E+03  0.25345641125E+03 -0.82051027295E+03  0.13145145965E+04  0.10100000352E+00 0.  1.
</event>
<event>
 5   0  0.1348388E-06  0.3534922E+04  0.7818609E-02  0.8105563E-01
        2   -1    0    0  501    0  0.00000000000E+00  0.00000000000E+00  0.23258006368E+04  0.23258006368E+04  0.25500000920E-02 0. -1.
       -2   -1    0    0    0  501  0.00000000000E+00  0.00000000000E+00 -0.13431582479E+04  0.13431582479E+04  0.25500000920E-02 0.  1.
    10030    2    1    2    0    0  0.00000000000E+00  0.00000000000E+00  0.98264238894E+03  0.36689588847E+04  0.35349219558E+04 0.  0.
        5    1    3    3  502    0 -0.30758444131E+03 -0.42784919117E+03  0.22423699861E+04  0.23034557438E+04  0.46999998093E+01 0. -1.
       -5    1    3    3    0  502  0.30758444131E+03  0.42784919117E+03 -0.12597275972E+04  0.13655031410E+04  0.46999998093E+01 0.  1.
</event>
<event>
 5   0  0.1348388E-06  0.3487487E+04  0.7818609E-02  0.8116762E-01
       -2   -1    0    0    0  501  0.00000000000E+00  0.00000000000E+00  0.20820577905E+04  0.20820577905E+04  0.25500000920E-02 0.  1.
        2   -1    0    0  501    0  0.00000000000E+00  0.00000000000E+00 -0.14604016800E+04  0.14604016800E+04  0.25500000920E-02 0. -1.
    10030    2    1    2    0    0  0.00000000000E+00  0.00000000000E+00  0.62165611055E+03  0.35424594705E+04  0.34874865993E+04 0.  0.
        5    1    3    3  502    0 -0.46032544394E+03  0.48342312916E+03 -0.13254714351E+04  0.14840802039E+04  0.46999998093E+01 0. -1.
       -5    1    3    3    0  502  0.46032544394E+03 -0.48342312916E+03  0.19471275457E+04  0.20583792666E+04  0.46999998093E+01 0.  1.
</event>
<event>
 5   0  0.1348388E-06  0.3464805E+04  0.7818609E-02  0.8122182E-01
        2   -1    0    0  501    0  0.00000000000E+00  0.00000000000E+00  0.14703326451E+04  0.14703326451E+04  0.25500000920E-02 0.  1.
       -2   -1    0    0    0  501  0.00000000000E+00  0.00000000000E+00 -0.20411836560E+04  0.20411836560E+04  0.25500000920E-02 0. -1.
    10030    2    1    2    0    0  0.00000000000E+00  0.00000000000E+00 -0.57085101086E+03  0.35115163011E+04  0.34648053129E+04 0.  0.
        5    1    3    3  502    0  0.11851644988E+04 -0.32199789070E+01  0.99516434166E+03  0.15475785649E+04  0.46999998093E+01 0.  1.
       -5    1    3    3    0  502 -0.11851644988E+04  0.32199789070E+01 -0.15660153525E+04  0.19639377363E+04  0.46999998093E+01 0. -1.
</event>
<event>
 5   0  0.4409125E-07  0.3466446E+04  0.7818609E-02  0.8121788E-01
       -1   -1    0    0    0  501  0.00000000000E+00  0.00000000000E+00  0.12749405217E+04  0.12749405217E+04  0.50400001928E-02 0. -1.
        1   -1    0    0  501    0  0.00000000000E+00  0.00000000000E+00 -0.23562374640E+04  0.23562374640E+04  0.50400001928E-02 0.  1.
    10030    2    1    2    0    0  0.00000000000E+00  0.00000000000E+00 -0.10812969424E+04  0.36311779857E+04  0.34664463772E+04 0.  0.
        5    1    3    3  502    0 -0.64899048213E+03 -0.11085476568E+04 -0.17595488423E+04  0.21785547438E+04  0.46999998093E+01 0.  1.
       -5    1    3    3    0  502  0.64899048213E+03  0.11085476568E+04  0.67825189989E+03  0.14526232419E+04  0.46999998093E+01 0. -1.
</event>
<event>
 5   0  0.1442864E-06  0.3487850E+04  0.7818609E-02  0.8116675E-01
       -2   -1    0    0    0  501  0.00000000000E+00  0.00000000000E+00  0.18265502802E+04  0.18265502802E+04  0.25500000920E-02 0. -1.
        2   -1    0    0  501    0  0.00000000000E+00  0.00000000000E+00 -0.16650372750E+04  0.16650372750E+04  0.25500000920E-02 0.  1.
    10030    2    1    2    0    0  0.00000000000E+00  0.00000000000E+00  0.16151300518E+03  0.34915875551E+04  0.34878499401E+04 0.  0.
        1    1    3    3  502    0  0.41895156459E+03 -0.52344886809E+03 -0.15308615812E+04  0.16712439415E+04  0.50400001928E-02 0.  1.
       -1    1    3    3    0  502 -0.41895156459E+03  0.52344886809E+03  0.16923745864E+04  0.18203436137E+04  0.50400001928E-02 0. -1.
</event>
<event>
 5   0  0.4557237E-07  0.3477026E+04  0.7818609E-02  0.8119256E-01
       -1   -1    0    0    0  501  0.00000000000E+00  0.00000000000E+00  0.20900011086E+04  0.20900011086E+04  0.50400001928E-02 0.  1.
        1   -1    0    0  501    0  0.00000000000E+00  0.00000000000E+00 -0.14461368794E+04  0.14461368794E+04  0.50400001928E-02 0. -1.
    10030    2    1    2    0    0  0.00000000000E+00  0.00000000000E+00  0.64386422919E+03  0.35361379880E+04  0.34770261323E+04 0.  0.
        2    1    3    3  502    0 -0.24871534699E+03  0.11137144510E+04 -0.10119326214E+04  0.15251973094E+04  0.25500000920E-02 0. -1.
       -2    1    3    3    0  502  0.24871534699E+03 -0.11137144510E+04  0.16557968506E+04  0.20109406786E+04  0.25500000920E-02 0.  1.
</event>
<event>
 5   0  0.4591195E-07  0.2726399E+04  0.7818609E-02  0.8326490E-01
        1   -1    0    0  501    0  0.00000000000E+00  0.00000000000E+00  0.17284212736E+04  0.17284212736E+04  0.50400001928E-02 0.  1.
       -1   -1    0    0    0  501  0.00000000000E+00  0.00000000000E+00 -0.10751501603E+04  0.10751501603E+04  0.50400001928E-02 0. -1.
    10030    2    1    2    0    0  0.00000000000E+00  0.00000000000E+00  0.65327111324E+03  0.28035714339E+04  0.27263986571E+04 0.  0.
        4    1    3    3  502    0  0.12689547661E+04  0.28092602761E+03 -0.96278442365E+02  0.13032408768E+04  0.12699999809E+01 0. -1.
       -4    1    3    3    0  502 -0.12689547661E+04 -0.28092602761E+03  0.74954955561E+03  0.15003305571E+04  0.12699999809E+01 0.  1.
</event>
<event>
 5   0  0.4700769E-07  0.3524247E+04  0.7818609E-02  0.8108068E-01
        1   -1    0    0  501    0  0.00000000000E+00  0.00000000000E+00  0.16916625879E+04  0.16916625879E+04  0.50400001928E-02 0. -1.
       -1   -1    0    0    0  501  0.00000000000E+00  0.00000000000E+00 -0.18355193545E+04  0.18355193545E+04  0.50400001928E-02 0.  1.
    10030    2    1    2    0    0  0.00000000000E+00  0.00000000000E+00 -0.14385676663E+03  0.35271819424E+04  0.35242471090E+04 0.  0.
        3    1    3    3  502    0 -0.13300864676E+04 -0.11195346758E+04 -0.35955509252E+03  0.17753218796E+04  0.10100000352E+00 0.  1.
       -3    1    3    3    0  502  0.13300864676E+04  0.11195346758E+04  0.21569832588E+03  0.17518600628E+04  0.10100000352E+00 0. -1.
</event>
<event>
 5   0  0.1442864E-06  0.3308783E+04  0.7818609E-02  0.8160664E-01
       -2   -1    0    0    0  501  0.00000000000E+00  0.00000000000E+00  0.17899396488E+04  0.17899396488E+04  0.25500000920E-02 0. -1.
        2   -1    0    0  501    0  0.00000000000E+00  0.00000000000E+00 -0.15291078411E+04  0.15291078411E+04  0.25500000920E-02 0.  1.
    10030    2    1    2    0    0  0.00000000000E+00  0.00000000000E+00  0.26083180771E+03  0.33190474898E+04  0.33087827079E+04 0.  0.
        1    1    3    3  502    0 -0.63989238777E+03 -0.14855835164E+04 -0.21792225038E+03  0.16321491229E+04  0.50400001928E-02 0. -1.
       -1    1    3    3    0  502  0.63989238777E+03  0.14855835164E+04  0.47875405809E+03  0.16868983669E+04  0.50400001928E-02 0.  1.
</event>
<event>
 5   0  0.4591195E-07  0.3531364E+04  0.7818609E-02  0.8106397E-01
        1   -1    0    0  501    0  0.00000000000E+00  0.00000000000E+00  0.17009440475E+04  0.17009440475E+04  0.50400001928E-02 0. -1.
       -1   -1    0    0    0  501  0.00000000000E+00  0.00000000000E+00 -0.18328840022E+04  0.18328840023E+04  0.50400001928E-02 0.  1.
    10030    2    1    2    0    0  0.00000000000E+00  0.00000000000E+00 -0.13193995472E+03  0.35338280498E+04  0.35313641180E+04 0.  0.
        4    1    3    3  502    0 -0.57461668045E+03 -0.15336719613E+04  0.59426116147E+03  0.17422634575E+04  0.12699999809E+01 0. -1.
       -4    1    3    3    0  502  0.57461668045E+03  0.15336719613E+04 -0.72620111618E+03  0.17915645923E+04  0.12699999809E+01 0.  1.
</event>
<event>
 5   0  0.4591195E-07  0.3463790E+04  0.7818609E-02  0.8122425E-01
        1   -1    0    0  501    0  0.00000000000E+00  0.00000000000E+00  0.21240275566E+04  0.21240275566E+04  0.50400001928E-02 0. -1.
       -1   -1    0    0    0  501  0.00000000000E+00  0.00000000000E+00 -0.14121567693E+04  0.14121567693E+04  0.50400001928E-02 0.  1.
    10030    2    1    2    0    0  0.00000000000E+00  0.00000000000E+00  0.71187078734E+03  0.35361843259E+04  0.34637897697E+04 0.  0.
        4    1    3    3  502    0 -0.74759009264E+03 -0.51526810202E+03 -0.11496992568E+04  0.14649922040E+04  0.12699999809E+01 0.  1.
       -4    1    3    3    0  502  0.74759009264E+03  0.51526810202E+03  0.18615700442E+04  0.20711921219E+04  0.12699999809E+01 0. -1.
</event>
<event>
 5   0  0.4409125E-07  0.3517666E+04  0.7818609E-02  0.8109616E-01
        1   -1    0    0  501    0  0.00000000000E+00  0.00000000000E+00  0.15017954946E+04  0.15017954946E+04  0.50400001928E-02 0. -1.
       -1   -1    0    0    0  501  0.00000000000E+00  0.00000000000E+00 -0.20598635938E+04  0.20598635939E+04  0.50400001928E-02 0.  1.
    10030    2    1    2    0    0  0.00000000000E+00  0.00000000000E+00 -0.55806809923E+03  0.35616590885E+04  0.35176661950E+04 0.  0.
        5    1    3    3  502    0  0.15741860626E+03  0.16972587867E+04  0.15998260843E+03  0.17120410426E+04  0.46999998093E+01 0. -1.
       -5    1    3    3    0  502 -0.15741860626E+03 -0.16972587867E+04 -0.71805070767E+03  0.18496180458E+04  0.46999998093E+01 0.  1.
</event>
<event>
 5   0  0.1378620E-06  0.3452819E+04  0.7818609E-02  0.8125063E-01
       -2   -1    0    0    0  501  0.00000000000E+00  0.00000000000E+00  0.30340008200E+04  0.30340008200E+04  0.25500000920E-02 0. -1.
        2   -1    0    0  501    0  0.00000000000E+00  0.00000000000E+00 -0.98236273878E+03  0.98236273879E+03  0.25500000920E-02 0.  1.
    10030    2    1    2    0    0  0.00000000000E+00  0.00000000000E+00  0.20516380812E+04  0.40163635588E+04  0.34528187644E+04 0.  0.
        2    1    3    3  502    0 -0.28062429860E+03 -0.36125723801E+03  0.29622219290E+04  0.29973347403E+04  0.25500000920E-02 0. -1.
       -2    1    3    3    0  502  0.28062429860E+03  0.36125723801E+03 -0.91058384778E+03  0.10190288185E+04  0.25500000920E-02 0.  1.
</event>
<event>
 5   0  0.1387133E-06  0.3225436E+04  0.7818609E-02  0.8182132E-01
       -2   -1    0    0    0  501  0.00000000000E+00  0.00000000000E+00  0.13568857420E+04  0.13568857420E+04  0.25500000920E-02 0. -1.
        2   -1    0    0  501    0  0.00000000000E+00  0.00000000000E+00 -0.19167861479E+04  0.19167861479E+04  0.25500000920E-02 0.  1.
    10030    2    1    2    0    0  0.00000000000E+00  0.00000000000E+00 -0.55990040593E+03  0.32736718899E+04  0.32254362772E+04 0.  0.
        4    1    3    3  502    0  0.15593052401E+04 -0.10485982103E+03 -0.68393505025E+03  0.17059300043E+04  0.12699999809E+01 0.  1.
       -4    1    3    3    0  502 -0.15593052401E+04  0.10485982103E+03  0.12403464432E+03  0.15677418855E+04  0.12699999809E+01 0. -1.
</event>
<event>
 5   0  0.1348388E-06  0.3391753E+04  0.7818609E-02  0.8139933E-01
       -2   -1    0    0    0  501  0.00000000000E+00  0.00000000000E+00  0.11430995714E+04  0.11430995714E+04  0.25500000920E-02 0.  1.
        2   -1    0    0  501    0  0.00000000000E+00  0.00000000000E+00 -0.25159643626E+04  0.25159643626E+04  0.25500000920E-02 0. -1.
    10030    2    1    2    0    0  0.00000000000E+00  0.00000000000E+00 -0.13728647911E+04  0.36590639340E+04  0.33917534018E+04 0.  0.
        5    1    3    3  502    0  0.11566966441E+04 -0.11998255592E+04 -0.34794117918E+03  0.17025315425E+04  0.46999998093E+01 0.  1.
       -5    1    3    3    0  502 -0.11566966441E+04  0.11998255592E+04 -0.10249236119E+04  0.19565323916E+04  0.46999998093E+01 0. -1.
</event>
<event>
 5   0  0.1361560E-06  0.3638592E+04  0.7818609E-02  0.8081708E-01
       -2   -1    0    0    0  501  0.00000000000E+00  0.00000000000E+00  0.14084964168E+04  0.14084964168E+04  0.25500000920E-02 0. -1.
        2   -1    0    0  501    0  0.00000000000E+00  0.00000000000E+00 -0.23499092247E+04  0.23499092247E+04  0.25500000920E-02 0.  1.
    10030    2    1    2    0    0  0.00000000000E+00  0.00000000000E+00 -0.94141280793E+03  0.37584056416E+04  0.36385924327E+04 0.  0.
        3    1    3    3  502    0  0.10463289968E+04  0.13286274075E+04  0.22203640423E+03  0.17056832451E+04  0.10100000352E+00 0. -1.
       -3    1    3    3    0  502 -0.10463289968E+04 -0.13286274075E+04 -0.11634492122E+04  0.20527223965E+04  0.10100000352E+00 0.  1.
</event>
<event>
 5   0  0.1348388E-06  0.3450983E+04  0.7818609E-02  0.8125506E-01
       -2   -1    0    0    0  501  0.00000000000E+00  0.00000000000E+00  0.10147820847E+04  0.10147820847E+04  0.25500000920E-02 0. -1.
        2   -1    0    0  501    0  0.00000000000E+00  0.00000000000E+00 -0.29339502887E+04  0.29339502887E+04  0.25500000920E-02 0.  1.
    10030    2    1    2    0    0  0.00000000000E+00  0.00000000000E+00 -0.19191682039E+04  0.39487323734E+04  0.34509825792E+04 0.  0.
        5    1    3    3  502    0 -0.25363004806E+03  0.74425505575E+03  0.79786964138E+03  0.11202061613E+04  0.46999998093E+01 0. -1.
       -5    1    3    3    0  502  0.25363004806E+03 -0.74425505575E+03 -0.27170378453E+04  0.28285262120E+04  0.46999998093E+01 0.  1.
</event>
<event>
 5   0  0.1378620E-06  0.3457391E+04  0.7818609E-02  0.8123963E-01
       -2   -1    0    0    0  501  0.00000000000E+00  0.00000000000E+00  0.25525515443E+04  0.25525515443E+04  0.25500000920E-02 0.  1.
        2   -1    0    0  501    0  0.00000000000E+00  0.00000000000E+00 -0.11707452148E+04  0.11707452148E+04  0.25500000920E-02 0. -1.
    10030    2    1    2    0    0  0.00000000000E+00  0.00000000000E+00  0.13818063295E+04  0.37232967592E+04  0.34573906381E+04 0.  0.
        2    1    3    3  502    0 -0.96015922864E+03 -0.25334935378E+03 -0.83295071839E+03  0.12961089995E+04  0.25500000920E-02 0. -1.
       -2    1    3    3    0  502  0.96015922864E+03  0.25334935378E+03  0.22147570479E+04  0.24271877596E+04  0.25500000920E-02 0.  1.
</event>
<event>
 5   0  0.4693374E-07  0.3448768E+04  0.7818609E-02  0.8126040E-01
        1   -1    0    0  501    0  0.00000000000E+00  0.00000000000E+00  0.20440138167E+04  0.20440138167E+04  0.50400001928E-02 0. -1.
       -1   -1    0    0    0  501  0.00000000000E+00  0.00000000000E+00 -0.14547355132E+04  0.14547355132E+04  0.50400001928E-02 0.  1.
    10030    2    1    2    0    0  0.00000000000E+00  0.00000000000E+00  0.58927830353E+03  0.34987493299E+04  0.34487675994E+04 0.  0.
        1    1    3    3  502    0  0.49355731971E+03  0.72232986910E+03 -0.12128778638E+04  0.14954704879E+04  0.50400001928E-02 0.  1.
       -1    1    3    3    0  502 -0.49355731971E+03 -0.72232986910E+03  0.18021561673E+04  0.20032788420E+04  0.50400001928E-02 0. -1.
</event>
<event>
 5   0  0.4591195E-07  0.3498423E+04  0.7818609E-02  0.8114164E-01
       -1   -1    0    0    0  501  0.00000000000E+00  0.00000000000E+00  0.16156137005E+04  0.16156137005E+04  0.50400001928E-02 0. -1.
        1   -1    0    0  501    0  0.00000000000E+00  0.00000000000E+00 -0.18938572563E+04  0.18938572563E+04  0.50400001928E-02 0.  1.
    10030    2    1    2    0    0  0.00000000000E+00  0.00000000000E+00 -0.27824355582E+03  0.35094709568E+04  0.34984234907E+04 0.  0.
        4    1    3    3  502    0  0.76011634746E+03  0.15678699372E+04  0.15465839684E+02  0.17424792127E+04  0.12699999809E+01 0.  1.
       -4    1    3    3    0  502 -0.76011634746E+03 -0.15678699372E+04 -0.29370939551E+03  0.17669917441E+04  0.12699999809E+01 0. -1.
</event>
<event>
 5   0  0.1387133E-06  0.3472087E+04  0.7818609E-02  0.8120437E-01
       -2   -1    0    0    0  501  0.00000000000E+00  0.00000000000E+00  0.14555418404E+04  0.14555418404E+04  0.25500000920E-02 0. -1.
        2   -1    0    0  501    0  0.00000000000E+00  0.00000000000E+00 -0.20706012883E+04  0.20706012883E+04  0.25500000920E-02 0.  1.
    10030    2    1    2    0    0  0.00000000000E+00  0.00000000000E+00 -0.61505944789E+03  0.35261431286E+04  0.34720868709E+04 0.  0.
        4    1    3    3  502    0  0.10097985420E+01  0.33476425160E+03  0.14224514480E+04  0.14613137440E+04  0.12699999809E+01 0. -1.
       -4    1    3    3    0  502 -0.10097985420E+01 -0.33476425160E+03 -0.20375108958E+04  0.20648293846E+04  0.12699999809E+01 0.  1.
</event>
<event>
 5   0  0.1387133E-06  0.3511082E+04  0.7818609E-02  0.8111169E-01
        2   -1    0    0  501    0  0.00000000000E+00  0.00000000000E+00  0.17805973740E+04  0.17805973740E+04  0.25500000920E-02 0. -1.
       -2   -1    0    0    0  501  0.00000000000E+00  0.00000000000E+00 -0.17308368232E+04  0.17308368232E+04  0.25500000920E-02 0.  1.
    10030    2    1    2    0    0  0.00000000000E+00  0.00000000000E+00  0.49760550730E+02  0.35114341972E+04  0.35110816010E+04 0.  0.
        4    1    3    3  502    0  0.13540064996E+04 -0.11164516222E+04 -0.21211916935E+02  0.17550639259E+04  0.12699999809E+01 0. -1.
       -4    1    3    3    0  502 -0.13540064996E+04  0.11164516222E+04  0.70972467665E+02  0.17563702713E+04  0.12699999809E+01 0.  1.
</event>
<event>
 5   0  0.4557237E-07  0.3480892E+04  0.7818609E-02  0.8118333E-01
        1   -1    0    0  501    0  0.00000000000E+00  0.00000000000E+00  0.18999548822E+04  0.18999548822E+04  0.50400001928E-02 0. -1.
       -1   -1    0    0    0  501  0.00000000000E+00  0.00000000000E+00 -0.15943285057E+04  0.15943285057E+04  0.50400001928E-02 0.  1.
    10030    2    1    2    0    0  0.00000000000E+00  0.00000000000E+00  0.30562637651E+03  0.34942833880E+04  0.34808919710E+04 0.  0.
        2    1    3    3  502    0  0.42766634033E+03 -0.21418421241E+03 -0.15270579673E+04  0.16002123018E+04  0.25500000920E-02 0.  1.
       -2    1    3    3    0  502 -0.42766634033E+03  0.21418421241E+03  0.18326843438E+04  0.18940710862E+04  0.25500000920E-02 0. -1.
</event>
<event>
 5   0  0.4557237E-07  0.3487914E+04  0.7818609E-02  0.8116660E-01
       -1   -1    0    0    0  501  0.00000000000E+00  0.00000000000E+00  0.17651952802E+04  0.17651952802E+04  0.50400001928E-02 0. -1.
        1   -1    0    0  501    0  0.00000000000E+00  0.00000000000E+00 -0.17229741381E+04  0.17229741381E+04  0.50400001928E-02 0.  1.
    10030    2    1    2    0    0  0.00000000000E+00  0.00000000000E+00  0.42221142066E+02  0.34881694183E+04  0.34879138846E+04 0.  0.
        2    1    3    3  502    0  0.49554624917E+03  0.14492449945E+04  0.85514329868E+03  0.17541799225E+04  0.25500000920E-02 0. -1.
       -2    1    3    3    0  502 -0.49554624917E+03 -0.14492449945E+04 -0.81292215662E+03  0.17339894959E+04  0.25500000920E-02 0.  1.
</event>
<event>
 5   0  0.1378620E-06  0.3557244E+04  0.7818609E-02  0.8100356E-01
        2   -1    0    0  501    0  0.00000000000E+00  0.00000000000E+00  0.19311055918E+04  0.19311055918E+04  0.25500000920E-02 0. -1.
       -2   -1    0    0    0  501  0.00000000000E+00  0.00000000000E+00 -0.16381789595E+04  0.16381789595E+04  0.25500000920E-02 0.  1.
    10030    2    1    2    0    0  0.00000000000E+00  0.00000000000E+00  0.29292663232E+03  0.35692845513E+04  0.35572441857E+04 0.  0.
        2    1    3    3  502    0 -0.13702001376E+04  0.37142487482E+02  0.12837319024E+04  0.18779764585E+04  0.25500000920E-02 0. -1.
       -2    1    3    3    0  502  0.13702001376E+04 -0.37142487482E+02 -0.99080527010E+03  0.16913080928E+04  0.25500000920E-02 0.  1.
</event>
<event>
 5   0  0.1361560E-06  0.3567488E+04  0.7818609E-02  0.8097980E-01
       -2   -1    0    0    0  501  0.00000000000E+00  0.00000000000E+00  0.13747320448E+04  0.13747320448E+04  0.25500000920E-02 0. -1.
        2   -1    0    0  501    0  0.00000000000E+00  0.00000000000E+00 -0.23144456840E+04  0.23144456840E+04  0.25500000920E-02 0.  1.
    10030    2    1    2    0    0  0.00000000000E+00  0.00000000000E+00 -0.93971363917E+03  0.36891777288E+04  0.35674879945E+04 0.  0.
        3    1    3    3  502    0 -0.88636117481E+03 -0.12772599477E+04 -0.13741649705E+04  0.20749357780E+04  0.10100000352E+00 0.  1.
       -3    1    3    3    0  502  0.88636117481E+03  0.12772599477E+04  0.43445133134E+03  0.16142419508E+04  0.10100000352E+00 0. -1.
</event>
<event>
 5   0  0.1378620E-06  0.3472263E+04  0.7818609E-02  0.8120395E-01
       -2   -1    0    0    0  501  0.00000000000E+00  0.00000000000E+00  0.15270404496E+04  0.15270404496E+04  0.25500000920E-02 0. -1.
        2   -1    0    0  501    0  0.00000000000E+00  0.00000000000E+00 -0.19738523002E+04  0.19738523002E+04  0.25500000920E-02 0.  1.
    10030    2    1    2    0    0  0.00000000000E+00  0.00000000000E+00 -0.44681185052E+03  0.35008927498E+04  0.34722628379E+04 0.  0.
        2    1    3    3  502    0  0.10572031512E+04 -0.10058368419E+04  0.72496982030E+03  0.16294070994E+04  0.25500000920E-02 0. -1.
       -2    1    3    3    0  502 -0.10572031512E+04  0.10058368419E+04 -0.11717816708E+04  0.18714856503E+04  0.25500000920E-02 0.  1.
</event>
<event>
 5   0  0.1442864E-06  0.3506894E+04  0.7818609E-02  0.8112158E-01
        2   -1    0    0  501    0  0.00000000000E+00  0.00000000000E+00  0.23498540461E+04  0.23498540461E+04  0.25500000920E-02 0. -1.
       -2   -1    0    0    0  501  0.00000000000E+00  0.00000000000E+00 -0.13084116979E+04  0.13084116980E+04  0.25500000920E-02 0.  1.
    10030    2    1    2    0    0  0.00000000000E+00  0.00000000000E+00  0.10414423482E+04  0.36582657441E+04  0.35068940802E+04 0.  0.
        1    1    3    3  502    0 -0.52182975144E+03  0.11672092841E+04  0.17724713738E+04  0.21854836017E+04  0.50400001928E-02 0. -1.
       -1    1    3    3    0  502  0.52182975144E+03 -0.11672092841E+04 -0.73102902566E+03  0.14727821423E+04  0.50400001928E-02 0.  1.
</event>
<event>
 5   0  0.4409125E-07  0.3489206E+04  0.7818609E-02  0.8116353E-01
        1   -1    0    0  501    0  0.00000000000E+00  0.00000000000E+00  0.24915819961E+04  0.24915819961E+04  0.50400001928E-02 0.  1.
       -1   -1    0    0    0  501  0.00000000000E+00  0.00000000000E+00 -0.12215692613E+04  0.12215692614E+04  0.50400001928E-02 0. -1.
    10030    2    1    2    0    0  0.00000000000E+00  0.00000000000E+00  0.12700127347E+04  0.37131512574E+04  0.34892062012E+04 0.  0.
        5    1    3    3  502    0  0.15588850442E+04  0.70409882644E+03  0.26985048798E+03  0.17316810083E+04  0.46999998093E+01 0. -1.
       -5    1    3    3    0  502 -0.15588850442E+04 -0.70409882644E+03  0.10001622468E+04  0.19814702492E+04  0.46999998093E+01 0.  1.
</event>
<event>
 5   0  0.1348388E-06  0.3480480E+04  0.7818609E-02  0.8118432E-01
        2   -1    0    0  501    0  0.00000000000E+00  0.00000000000E+00  0.17419244520E+04  0.17419244520E+04  0.25500000920E-02 0.  1.
       -2   -1    0    0    0  501  0.00000000000E+00  0.00000000000E+00 -0.17385567822E+04  0.17385567822E+04  0.25500000920E-02 0. -1.
    10030    2    1    2    0    0  0.00000000000E+00  0.00000000000E+00  0.33676697408E+01  0.34804812342E+04  0.34804796050E+04 0.  0.
        5    1    3    3  502    0 -0.12047301394E+03 -0.63731587441E+03 -0.16131627989E+04  0.17386781119E+04  0.46999998093E+01 0. -1.
       -5    1    3    3    0  502  0.12047301394E+03  0.63731587441E+03  0.16165304687E+04  0.17418031223E+04  0.46999998093E+01 0.  1.
</event>
<event>
 5   0  0.1387133E-06  0.3452216E+04  0.7818609E-02  0.8125209E-01
       -2   -1    0    0    0  501  0.00000000000E+00  0.00000000000E+00  0.14764571590E+04  0.14764571590E+04  0.25500000920E-02 0. -1.
        2   -1    0    0  501    0  0.00000000000E+00  0.00000000000E+00 -0.20179713039E+04  0.20179713039E+04  0.25500000920E-02 0.  1.
    10030    2    1    2    0    0  0.00000000000E+00  0.00000000000E+00 -0.54151414490E+03  0.34944284629E+04  0.34522156238E+04 0.  0.
        4    1    3    3  502    0  0.16319422619E+04  0.53889863122E+03 -0.43334267005E+03  0.17724093103E+04  0.12699999809E+01 0.  1.
       -4    1    3    3    0  502 -0.16319422619E+04 -0.53889863122E+03 -0.10817147485E+03  0.17220191525E+04  0.12699999809E+01 0. -1.
</event>
<event>
 5   0  0.1378620E-06  0.3443308E+04  0.7818609E-02  0.8127358E-01
        2   -1    0    0  501    0  0.00000000000E+00  0.00000000000E+00  0.17641320568E+04  0.17641320568E+04  0.25500000920E-02 0. -1.
       -2   -1    0    0    0  501  0.00000000000E+00  0.00000000000E+00 -0.16801989612E+04  0.16801989612E+04  0.25500000920E-02 0.  1.
    10030    2    1    2    0    0  0.00000000000E+00  0.00000000000E+00  0.83933095599E+02  0.34443310179E+04  0.34433082053E+04 0.  0.
        2    1    3    3  502    0 -0.14125990728E+04  0.97823469059E+03  0.15022807664E+03  0.17248036774E+04  0.25500000920E-02 0. -1.
       -2    1    3    3    0  502  0.14125990728E+04 -0.97823469059E+03 -0.66294981038E+02  0.17195273406E+04  0.25500000920E-02 0.  1.
</event>
<event>
 5   0  0.4409125E-07  0.3421449E+04  0.7818609E-02  0.8132662E-01
       -1   -1    0    0    0  501  0.00000000000E+00  0.00000000000E+00  0.25749893989E+04  0.25749893989E+04  0.50400001928E-02 0. -1.
        1   -1    0    0  501    0  0.00000000000E+00  0.00000000000E+00 -0.11365396838E+04  0.11365396838E+04  0.50400001928E-02 0.  1.
    10030    2    1    2    0    0  0.00000000000E+00  0.00000000000E+00  0.14384497151E+04  0.37115290827E+04  0.34214486039E+04 0.  0.
        5    1    3    3  502    0 -0.56213233447E+03 -0.34131418226E+03 -0.99393126058E+03  0.11918093695E+04  0.46999998093E+01 0.  1.
       -5    1    3    3    0  502  0.56213233447E+03  0.34131418226E+03  0.24323809756E+04  0.25197197132E+04  0.46999998093E+01 0. -1.
</event>
<event>
 5   0  0.4409125E-07  0.3474318E+04  0.7818609E-02  0.8119903E-01
        1   -1    0    0  501    0  0.00000000000E+00  0.00000000000E+00  0.18886158952E+04  0.18886158952E+04  0.50400001928E-02 0.  1.
       -1   -1    0    0    0  501  0.00000000000E+00  0.00000000000E+00 -0.15978484837E+04  0.15978484837E+04  0.50400001928E-02 0. -1.
    10030    2    1    2    0    0  0.00000000000E+00  0.00000000000E+00  0.29076741146E+03  0.34864643789E+04  0.34743183760E+04 0.  0.
        5    1    3    3  502    0 -0.20956533391E+03 -0.15034191677E+04  0.99303377941E+03  0.18139253017E+04  0.46999998093E+01 0.  1.
       -5    1    3    3    0  502  0.20956533391E+03  0.15034191677E+04 -0.70226636795E+03  0.16725390772E+04  0.46999998093E+01 0. -1.
</event>
<event>
 5   0  0.1442864E-06  0.3509514E+04  0.7818609E-02  0.8111539E-01
        2   -1    0    0  501    0  0.00000000000E+00  0.00000000000E+00  0.21736230149E+04  0.21736230149E+04  0.25500000920E-02 0.  1.
       -2   -1    0    0    0  501  0.00000000000E+00  0.00000000000E+00 -0.14166078715E+04  0.14166078715E+04  0.25500000920E-02 0. -1.
    10030    2    1    2    0    0  0.00000000000E+00  0.00000000000E+00  0.75701514338E+03  0.35902308863E+04  0.35095136258E+04 0.  0.
        1    1    3    3  502    0  0.57282839145E+03 -0.98050212382E+03  0.17470556763E+04  0.20836795139E+04  0.50400001928E-02 0.  1.
       -1    1    3    3    0  502 -0.57282839145E+03  0.98050212382E+03 -0.99004053288E+03  0.15065513724E+04  0.50400001928E-02 0. -1.
</event>
<event>
 5   0  0.1348388E-06  0.3513628E+04  0.7818609E-02  0.8110568E-01
       -2   -1    0    0    0  501  0.00000000000E+00  0.00000000000E+00  0.12844701924E+04  0.12844701924E+04  0.25500000920E-02 0.  1.
        2   -1    0    0  501    0  0.00000000000E+00  0.00000000000E+00 -0.24028549217E+04  0.24028549217E+04  0.25500000920E-02 0. -1.
    10030    2    1    2    0    0  0.00000000000E+00  0.00000000000E+00 -0.11183847293E+04  0.36873251141E+04  0.35136280529E+04 0.  0.
        5    1    3    3  502    0 -0.12356582964E+04  0.43996368113E+03  0.66732493287E+03  0.14716535334E+04  0.46999998093E+01 0.  1.
       -5    1    3    3    0  502  0.12356582964E+04 -0.43996368113E+03 -0.17857096621E+04  0.22156715807E+04  0.46999998093E+01 0. -1.
</event>
<event>
 5   0  0.1348388E-06  0.3503118E+04  0.7818609E-02  0.8113051E-01
       -2   -1    0    0    0  501  0.00000000000E+00  0.00000000000E+00  0.24808637158E+04  0.24808637158E+04  0.25500000920E-02 0. -1.
        2   -1    0    0  501    0  0.00000000000E+00  0.00000000000E+00 -0.12366493632E+04  0.12366493632E+04  0.25500000920E-02 0.  1.
    10030    2    1    2    0    0  0.00000000000E+00  0.00000000000E+00  0.12442143526E+04  0.37175130790E+04  0.35031177738E+04 0.  0.
        5    1    3    3  502    0  0.69162232907E+03 -0.10509488902E+04  0.19153373369E+04  0.22915877072E+04  0.46999998093E+01 0. -1.
       -5    1    3    3    0  502 -0.69162232907E+03  0.10509488902E+04 -0.67112298428E+03  0.14259253718E+04  0.46999998093E+01 0.  1.
</event>
<event>
 5   0  0.4591195E-07  0.3538960E+04  0.7818609E-02  0.8104619E-01
        1   -1    0    0  501    0  0.00000000000E+00  0.00000000000E+00  0.14406255154E+04  0.14406255154E+04  0.50400001928E-02 0. -1.
       -1   -1    0    0    0  501  0.00000000000E+00  0.00000000000E+00 -0.21734027297E+04  0.21734027297E+04  0.50400001928E-02 0.  1.
    10030    2    1    2    0    0  0.00000000000E+00  0.00000000000E+00 -0.73277721427E+03  0.36140282451E+04  0.35389599758E+04 0.  0.
        4    1    3    3  502    0 -0.26968266675E+03 -0.85389222980E+03 -0.19249324184E+04  0.21230231061E+04  0.12699999809E+01 0.  1.
       -4    1    3    3    0  502  0.26968266675E+03  0.85389222980E+03  0.11921552041E+04  0.14910051390E+04  0.12699999809E+01 0. -1.
</event>
<event>
 5   0  0.4591195E-07  0.3385324E+04  0.7818609E-02  0.8141518E-01
       -1   -1    0    0    0  501  0.00000000000E+00  0.00000000000E+00  0.10018001260E+04  0.10018001260E+04  0.50400001928E-02 0.  1.
        1   -1    0    0  501    0  0.00000000000E+00  0.00000000000E+00 -0.28599557781E+04  0.28599557782E+04  0.50400001928E-02 0. -1.
    10030    2    1    2    0    0  0.00000000000E+00  0.00000000000E+00 -0.18581556522E+04  0.38617559041E+04  0.33853236530E+04 0.  0.
        4    1    3    3  502    0  0.62109603452E+03  0.11733918805E+04  0.26869008328E+03  0.13545496532E+04  0.12699999809E+01 0.  1.
       -4    1    3    3    0  502 -0.62109603452E+03 -0.11733918805E+04 -0.21268457354E+04  0.25072062509E+04  0.12699999809E+01 0. -1.
</event>
<event>
 5   0  0.4557237E-07  0.2513405E+04  0.7818609E-02  0.8398225E-01
        1   -1    0    0  501    0  0.00000000000E+00  0.00000000000E+00  0.14872656139E+04  0.14872656139E+04  0.50400001928E-02 0. -1.
       -1   -1    0    0    0  501  0.00000000000E+00  0.00000000000E+00 -0.10618824400E+04  0.10618824401E+04  0.50400001928E-02 0.  1.
    10030    2    1    2    0    0  0.00000000000E+00  0.00000000000E+00  0.42538317388E+03  0.25491480540E+04  0.25134050522E+04 0.  0.
        2    1    3    3  502    0 -0.99148196078E+03 -0.76693750375E+03  0.12157171746E+03  0.12593686099E+04  0.25500000920E-02 0.  1.
       -2    1    3    3    0  502  0.99148196078E+03  0.76693750375E+03  0.30381145642E+03  0.12897794440E+04  0.25500000920E-02 0. -1.
</event>
<event>
 5   0  0.1442864E-06  0.3718634E+04  0.7818609E-02  0.8063845E-01
        2   -1    0    0  501    0  0.00000000000E+00  0.00000000000E+00  0.19072166065E+04  0.19072166065E+04  0.25500000920E-02 0.  1.
       -2   -1    0    0    0  501  0.00000000000E+00  0.00000000000E+00 -0.18126205848E+04  0.18126205848E+04  0.25500000920E-02 0. -1.
    10030    2    1    2    0    0  0.00000000000E+00  0.00000000000E+00  0.94596021648E+02  0.37198371913E+04  0.37186342012E+04 0.  0.
        1    1    3    3  502    0 -0.10268543410E+04 -0.73559958103E+03 -0.13175199667E+04  0.18252110683E+04  0.50400001928E-02 0. -1.
       -1    1    3    3    0  502  0.10268543410E+04  0.73559958103E+03  0.14121159883E+04  0.18946261230E+04  0.50400001928E-02 0.  1.
</event>
<event>
 5   0  0.1348388E-06  0.2696723E+04  0.7818609E-02  0.8336069E-01
        2   -1    0    0  501    0  0.00000000000E+00  0.00000000000E+00  0.18062133566E+04  0.18062133566E+04  0.25500000920E-02 0.  1.
       -2   -1    0    0    0  501  0.00000000000E+00  0.00000000000E+00 -0.10065693516E+04  0.10065693516E+04  0.25500000920E-02 0. -1.
    10030    2    1    2    0    0  0.00000000000E+00  0.00000000000E+00  0.79964400499E+03  0.28127827082E+04  0.26967232022E+04 0.  0.
        5    1    3    3  502    0 -0.11733815874E+04  0.21334236593E+03 -0.25631192714E+03  0.12198595037E+04  0.46999998093E+01 0. -1.
       -5    1    3    3    0  502  0.11733815874E+04 -0.21334236593E+03  0.10559559321E+04  0.15929232045E+04  0.46999998093E+01 0.  1.
</event>
<event>
 5   0  0.1361560E-06  0.3517053E+04  0.7818609E-02  0.8109760E-01
        2   -1    0    0  501    0  0.00000000000E+00  0.00000000000E+00  0.24593572100E+04  0.24593572100E+04  0.25500000920E-02 0. -1.
       -2   -1    0    0    0  501  0.00000000000E+00  0.00000000000E+00 -0.12574081386E+04  0.12574081386E+04  0.25500000920E-02 0.  1.
    10030    2    1    2    0    0  0.00000000000E+00  0.00000000000E+00  0.12019490714E+04  0.37167653486E+04  0.35170531822E+04 0.  0.
        3    1    3    3  502    0  0.69009259933E+03  0.10761025650E+04 -0.67515114904E+03  0.14457017709E+04  0.10100000352E+00 0.  1.
       -3    1    3    3    0  502 -0.69009259933E+03 -0.10761025650E+04  0.18771002205E+04  0.22710635777E+04  0.10100000352E+00 0. -1.
</event>
<event>
 5   0  0.4693374E-07  0.3464148E+04  0.7818609E-02  0.8122339E-01
       -1   -1    0    0    0  501  0.00000000000E+00  0.00000000000E+00  0.22775964821E+04  0.22775964821E+04  0.50400001928E-02 0. -1.
        1   -1    0    0  501    0  0.00000000000E+00  0.00000000000E+00 -0.13172134896E+04  0.13172134896E+04  0.50400001928E-02 0.  1.
    10030    2    1    2    0    0  0.00000000000E+00  0.00000000000E+00  0.96038299247E+03  0.35948099717E+04  0.34641482706E+04 0.  0.
        1    1    3    3  502    0 -0.10797398150E+04  0.10094889691E+04 -0.45673350625E+03  0.15470977806E+04  0.50400001928E-02 0.  1.
       -1    1    3    3    0  502  0.10797398150E+04 -0.10094889691E+04  0.14171164987E+04  0.20477121912E+04  0.50400001928E-02 0. -1.
</event>
<event>
 5   0  0.1442864E-06  0.3220241E+04  0.7818609E-02  0.8183492E-01
       -2   -1    0    0    0  501  0.00000000000E+00  0.00000000000E+00  0.16548982293E+04  0.16548982294E+04  0.25500000920E-02 0. -1.
        2   -1    0    0  501    0  0.00000000000E+00  0.00000000000E+00 -0.15665538702E+04  0.15665538702E+04  0.25500000920E-02 0.  1.
    10030    2    1    2    0    0  0.00000000000E+00  0.00000000000E+00  0.88344359120E+02  0.32214520996E+04  0.32202405041E+04 0.  0.
        1    1    3    3  502    0  0.10995488254E+04  0.19435940823E+03 -0.11163091184E+04  0.15789012784E+04  0.50400001928E-02 0.  1.
       -1    1    3    3    0  502 -0.10995488254E+04 -0.19435940823E+03  0.12046534775E+04  0.16425508212E+04  0.50400001928E-02 0. -1.
</event>
<event>
 5   0  0.4591195E-07  0.3500601E+04  0.7818609E-02  0.8113648E-01
        1   -1    0    0  501    0  0.00000000000E+00  0.00000000000E+00  0.11580299857E+04  0.11580299857E+04  0.50400001928E-02 0.  1.
       -1   -1    0    0    0  501  0.00000000000E+00  0.00000000000E+00 -0.26454853511E+04  0.26454853511E+04  0.50400001928E-02 0. -1.
    10030    2    1    2    0    0  0.00000000000E+00  0.00000000000E+00 -0.14874553654E+04  0.38035153368E+04  0.35006007275E+04 0.  0.
        4    1    3    3  502    0 -0.34244423209E+03 -0.30598675004E+03  0.10914035552E+04  0.11840858400E+04  0.12699999809E+01 0.  1.
       -4    1    3    3    0  502  0.34244423209E+03  0.30598675004E+03 -0.25788589206E+04  0.26194294968E+04  0.12699999809E+01 0. -1.
</event>
<event>
 5   0  0.1361560E-06  0.3406426E+04  0.7818609E-02  0.8136331E-01
        2   -1    0    0  501    0  0.00000000000E+00  0.00000000000E+00  0.22463883619E+04  0.22463883619E+04  0.25500000920E-02 0. -1.
       -2   -1    0    0    0  501  0.00000000000E+00  0.00000000000E+00 -0.12913769868E+04  0.12913769868E+04  0.25500000920E-02 0.  1.
    10030    2    1    2    0    0  0.00000000000E+00  0.00000000000E+00  0.95501137510E+03  0.35377653487E+04  0.34064258301E+04 0.  0.
        3    1    3    3  502    0 -0.45486995624E+03 -0.23130149451E+03 -0.12101171994E+04  0.13133128739E+04  0.10100000352E+00 0.  1.
       -3    1    3    3    0  502  0.45486995624E+03  0.23130149451E+03  0.21651285745E+04  0.22244524748E+04  0.10100000352E+00 0. -1.
</event>
<event>
 5   0  0.1387133E-06  0.3427610E+04  0.7818609E-02  0.8131163E-01
        2   -1    0    0  501    0  0.00000000000E+00  0.00000000000E+00  0.18147966191E+04  0.18147966191E+04  0.25500000920E-02 0.  1.
       -2   -1    0    0    0  501  0.00000000000E+00  0.00000000000E+00 -0.16184337670E+04  0.16184337670E+04  0.25500000920E-02 0. -1.
    10030    2    1    2    0    0  0.00000000000E+00  0.00000000000E+00  0.19636285210E+03  0.34332303860E+04  0.34276103212E+04 0.  0.
        4    1    3    3  502    0  0.16772064522E+04  0.29939990790E+03  0.28413260257E+03  0.17272506294E+04  0.12699999809E+01 0. -1.
       -4    1    3    3    0  502 -0.16772064522E+04 -0.29939990790E+03 -0.87769750470E+02  0.17059797566E+04  0.12699999809E+01 0.  1.
</event>
<event>
 5   0  0.4693374E-07  0.3364301E+04  0.7818609E-02  0.8146724E-01
        1   -1    0    0  501    0  0.00000000000E+00  0.00000000000E+00  0.18193152703E+04  0.18193152703E+04  0.50400001928E-02 0. -1.
       -1   -1    0    0    0  501  0.00000000000E+00  0.00000000000E+00 -0.15553266370E+04  0.15553266370E+04  0.50400001928E-02 0.  1.
    10030    2    1    2    0    0  0.00000000000E+00  0.00000000000E+00  0.26398863327E+03  0.33746419073E+04  0.33643005223E+04 0.  0.
        1    1    3    3  502    0  0.39825092667E+03 -0.11470209968E+04  0.12997758728E+04  0.17786731817E+04  0.50400001928E-02 0. -1.
       -1    1    3    3    0  502 -0.39825092667E+03  0.11470209968E+04 -0.10357872395E+04  0.15959687257E+04  0.50400001928E-02 0.  1.
</event>
<event>
 5   0  0.1442864E-06  0.3476391E+04  0.7818609E-02  0.8119408E-01
        2   -1    0    0  501    0  0.00000000000E+00  0.00000000000E+00  0.24584744159E+04  0.24584744159E+04  0.25500000920E-02 0. -1.
       -2   -1    0    0    0  501  0.00000000000E+00  0.00000000000E+00 -0.12289424850E+04  0.12289424850E+04  0.25500000920E-02 0.  1.
    10030    2    1    2    0    0  0.00000000000E+00  0.00000000000E+00  0.12295319309E+04  0.36874169008E+04  0.34763910355E+04 0.  0.
        1    1    3    3  502    0  0.16376957462E+03 -0.14566774624E+04 -0.37606534182E+03  0.15133257562E+04  0.50400001928E-02 0.  1.
       -1    1    3    3    0  502 -0.16376957462E+03  0.14566774624E+04  0.16055972727E+04  0.21740911446E+04  0.50400001928E-02 0. -1.
</event>
<event>
 5   0  0.4409125E-07  0.3365371E+04  0.7818609E-02  0.8146458E-01
        1   -1    0    0  501    0  0.00000000000E+00  0.00000000000E+00  0.16466093485E+04  0.16466093485E+04  0.50400001928E-02 0.  1.
       -1   -1    0    0    0  501  0.00000000000E+00  0.00000000000E+00 -0.17195523865E+04  0.17195523865E+04  0.50400001928E-02 0. -1.
    10030    2    1    2    0    0  0.00000000000E+00  0.00000000000E+00 -0.72943038016E+02  0.33661617350E+04  0.33653713227E+04 0.  0.
        5    1    3    3  502    0  0.85432150787E+03  0.21783173729E+03  0.13970758392E+04  0.16520166146E+04  0.46999998093E+01 0.  1.
       -5    1    3    3    0  502 -0.85432150787E+03 -0.21783173729E+03 -0.14700188772E+04  0.17141451204E+04  0.46999998093E+01 0. -1.
</event>
<event>
 5   0  0.4409125E-07  0.3489024E+04  0.7818609E-02  0.8116396E-01
       -1   -1    0    0    0  501  0.00000000000E+00  0.00000000000E+00  0.26160892724E+04  0.26160892724E+04  0.50400001928E-02 0. -1.
        1   -1    0    0  501    0  0.00000000000E+00  0.00000000000E+00 -0.11633099398E+04  0.11633099398E+04  0.50400001928E-02 0.  1.
    10030    2    1    2    0    0  0.00000000000E+00  0.00000000000E+00  0.14527793326E+04  0.37793992122E+04  0.34890243071E+04 0.  0.
        5    1    3    3  502    0  0.15004394448E+04  0.25094176823E+03 -0.19849077414E+03  0.15341808811E+04  0.46999998093E+01 0.  1.
       -5    1    3    3    0  502 -0.15004394448E+04 -0.25094176823E+03  0.16512701067E+04  0.22452183310E+04  0.46999998093E+01 0. -1.
</event>
<event>
 5   0  0.4693374E-07  0.3499322E+04  0.7818609E-02  0.8113951E-01
       -1   -1    0    0    0  501  0.00000000000E+00  0.00000000000E+00  0.17411081293E+04  0.17411081293E+04  0.50400001928E-02 0. -1.
        1   -1    0    0  501    0  0.00000000000E+00  0.00000000000E+00 -0.17582561521E+04  0.17582561522E+04  0.50400001928E-02 0.  1.
    10030    2    1    2    0    0  0.00000000000E+00  0.00000000000E+00 -0.17148022811E+02  0.34993642815E+04  0.34993222658E+04 0.  0.
        1    1    3    3  502    0  0.41243471413E+02 -0.17151112184E+04 -0.35209897159E+03  0.17513655248E+04  0.50400001928E-02 0.  1.
       -1    1    3    3    0  502 -0.41243471413E+02  0.17151112184E+04  0.33495094878E+03  0.17479987567E+04  0.50400001928E-02 0. -1.
</event>
<event>
 5   0  0.4700769E-07  0.3423194E+04  0.7818609E-02  0.8132237E-01
        1   -1    0    0  501    0  0.00000000000E+00  0.00000000000E+00  0.23494836791E+04  0.23494836791E+04  0.50400001928E-02 0.  1.
       -1   -1    0    0    0  501  0.00000000000E+00  0.00000000000E+00 -0.12468972796E+04  0.12468972796E+04  0.50400001928E-02 0. -1.
    10030    2    1    2    0    0  0.00000000000E+00  0.00000000000E+00  0.11025863995E+04  0.35963809587E+04  0.34231943024E+04 0.  0.
        3    1    3    3  502    0  0.75971863128E+03  0.15269885127E+04  0.70244153865E+03  0.18445298702E+04  0.10100000352E+00 0.  1.
       -3    1    3    3    0  502 -0.75971863128E+03 -0.15269885127E+04  0.40014486083E+03  0.17518510885E+04  0.10100000352E+00 0. -1.
</event>
<event>
 5   0  0.4700769E-07  0.3351615E+04  0.7818609E-02  0.8149885E-01
        1   -1    0    0  501    0  0.00000000000E+00  0.00000000000E+00  0.16081044880E+04  0.16081044880E+04  0.50400001928E-02 0. -1.
       -1   -1    0    0    0  501  0.00000000000E+00  0.00000000000E+00 -0.17463603730E+04  0.17463603730E+04  0.50400001928E-02 0.  1.
    10030    2    1    2    0    0  0.00000000000E+00  0.00000000000E+00 -0.13825588502E+03  0.33544648610E+04  0.33516145085E+04 0.  0.
        3    1    3    3  502    0 -0.70476240321E+03  0.51172929169E+03  0.13637924800E+04  0.16181739251E+04  0.10100000352E+00 0. -1.
       -3    1    3    3    0  502  0.70476240321E+03 -0.51172929169E+03 -0.15020483651E+04  0.17362909359E+04  0.10100000352E+00 0.  1.
</event>
<event>
 5   0  0.4591195E-07  0.3547146E+04  0.7818609E-02  0.8102707E-01
       -1   -1    0    0    0  501  0.00000000000E+00  0.00000000000E+00  0.20626059159E+04  0.20626059160E+04  0.50400001928E-02 0. -1.
        1   -1    0    0  501    0  0.00000000000E+00  0.00000000000E+00 -0.15250423537E+04  0.15250423537E+04  0.50400001928E-02 0.  1.
    10030    2    1    2    0    0  0.00000000000E+00  0.00000000000E+00  0.53756356224E+03  0.35876482697E+04  0.35471461097E+04 0.  0.
        4    1    3    3  502    0  0.50567955719E+03  0.47482656875E+01  0.19881408485E+04  0.20514482706E+04  0.12699999809E+01 0. -1.
       -4    1    3    3    0  502 -0.50567955719E+03 -0.47482656875E+01 -0.14505772863E+04  0.15361999990E+04  0.12699999809E+01 0.  1.
</event>
<event>
 5   0  0.4700769E-07  0.3521673E+04  0.7818609E-02  0.8108673E-01
        1   -1    0    0  501    0  0.00000000000E+00  0.00000000000E+00  0.10355085106E+04  0.10355085106E+04  0.50400001928E-02 0.  1.
       -1   -1    0    0    0  501  0.00000000000E+00  0.00000000000E+00 -0.29942251810E+04  0.29942251810E+04  0.50400001928E-02 0. -1.
    10030    2    1    2    0    0  0.00000000000E+00  0.00000000000E+00 -0.19587166704E+04  0.40297336916E+04  0.35216732714E+04 0.  0.
        3    1    3    3  502    0  0.66439267335E+03  0.14354740977E+04 -0.18646260999E+04  0.24451654365E+04  0.10100000352E+00 0.  1.
       -3    1    3    3    0  502 -0.66439267335E+03 -0.14354740977E+04 -0.94090570548E+02  0.15845682551E+04  0.10100000352E+00 0. -1.
</event>
<event>
 5   0  0.4693374E-07  0.3508646E+04  0.7818609E-02  0.8111744E-01
       -1   -1    0    0    0  501  0.00000000000E+00  0.00000000000E+00  0.11677972002E+04  0.11677972002E+04  0.50400001928E-02 0.  1.
        1   -1    0    0  501    0  0.00000000000E+00  0.00000000000E+00 -0.26354312960E+04  0.26354312960E+04  0.50400001928E-02 0. -1.
    10030    2    1    2    0    0  0.00000000000E+00  0.00000000000E+00 -0.14676340958E+04  0.38032284962E+04  0.35086460573E+04 0.  0.
        1    1    3    3  502    0  0.17116135843E+04  0.18900700982E+03 -0.10970720363E+04  0.20417913127E+04  0.50400001928E-02 0. -1.
       -1    1    3    3    0  502 -0.17116135843E+04 -0.18900700982E+03 -0.37056205953E+03  0.17614371836E+04  0.50400001928E-02 0.  1.
</event>
<event>
 5   0  0.4409125E-07  0.3456564E+04  0.7818609E-02  0.8124161E-01
       -1   -1    0    0    0  501  0.00000000000E+00  0.00000000000E+00  0.17565496978E+04  0.17565496978E+04  0.50400001928E-02 0.  1.
        1   -1    0    0  501    0  0.00000000000E+00  0.00000000000E+00 -0.17004695206E+04  0.17004695206E+04  0.50400001928E-02 0. -1.
    10030    2    1    2    0    0  0.00000000000E+00  0.00000000000E+00  0.56080177203E+02  0.34570192184E+04  0.34565643188E+04 0.  0.
        5    1    3    3  502    0 -0.31443492531E+03 -0.95975153461E+02 -0.16689025655E+04  0.17009816035E+04  0.46999998093E+01 0. -1.
       -5    1    3    3    0  502  0.31443492531E+03  0.95975153461E+02  0.17249827427E+04  0.17560376149E+04  0.46999998093E+01 0.  1.
</event>
<event>
 5   0  0.1361560E-06  0.3582161E+04  0.7818609E-02  0.8094590E-01
       -2   -1    0    0    0  501  0.00000000000E+00  0.00000000000E+00  0.16621422103E+04  0.16621422103E+04  0.25500000920E-02 0. -1.
        2   -1    0    0  501    0  0.00000000000E+00  0.00000000000E+00 -0.19300205545E+04  0.19300205545E+04  0.25500000920E-02 0.  1.
    10030    2    1    2    0    0  0.00000000000E+00  0.00000000000E+00 -0.26787834414E+03  0.35921627648E+04  0.35821605940E+04 0.  0.
        3    1    3    3  502    0  0.16985956785E+04  0.11087109203E+03  0.42479604626E+03  0.17544148225E+04  0.10100000352E+00 0.  1.
       -3    1    3    3    0  502 -0.16985956785E+04 -0.11087109203E+03 -0.69267439040E+03  0.18377479423E+04  0.10100000352E+00 0. -1.
</event>
<event>
 5   0  0.1378620E-06  0.3520064E+04  0.7818609E-02  0.8109052E-01
        2   -1    0    0  501    0  0.00000000000E+00  0.00000000000E+00  0.27810585419E+04  0.27810585419E+04  0.25500000920E-02 0. -1.
       -2   -1    0    0    0  501  0.00000000000E+00  0.00000000000E+00 -0.11138608190E+04  0.11138608190E+04  0.25500000920E-02 0.  1.
    10030    2    1    2    0    0  0.00000000000E+00  0.00000000000E+00  0.16671977229E+04  0.38949193609E+04  0.35200637183E+04 0.  0.
        2    1    3    3  502    0  0.89691986969E+03  0.66222189173E+03 -0.67330602882E+03  0.13024377509E+04  0.25500000920E-02 0.  1.
       -2    1    3    3    0  502 -0.89691986969E+03 -0.66222189173E+03  0.23405037517E+04  0.25924816100E+04  0.25500000920E-02 0. -1.
</event>
<event>
 5   0  0.4409125E-07  0.3530689E+04  0.7818609E-02  0.8106555E-01
       -1   -1    0    0    0  501  0.00000000000E+00  0.00000000000E+00  0.16621129956E+04  0.16621129956E+04  0.50400001928E-02 0.  1.
        1   -1    0    0  501    0  0.00000000000E+00  0.00000000000E+00 -0.18749879132E+04  0.18749879132E+04  0.50400001928E-02 0. -1.
    10030    2    1    2    0    0  0.00000000000E+00  0.00000000000E+00 -0.21287491753E+03  0.35371009088E+04  0.35306893249E+04 0.  0.
        5    1    3    3  502    0  0.14827399706E+03  0.17459354436E+04 -0.32163894290E+03  0.17815020211E+04  0.46999998093E+01 0.  1.
       -5    1    3    3    0  502 -0.14827399706E+03 -0.17459354436E+04  0.10876402537E+03  0.17555988878E+04  0.46999998093E+01 0. -1.
</event>
<event>
 5   0  0.1361560E-06  0.3404469E+04  0.7818609E-02  0.8136810E-01
        2   -1    0    0  501    0  0.00000000000E+00  0.00000000000E+00  0.15003374889E+04  0.15003374889E+04  0.25500000920E-02 0.  1.
       -2   -1    0    0    0  501  0.00000000000E+00  0.00000000000E+00 -0.19313001993E+04  0.19313001993E+04  0.25500000920E-02 0. -1.
    10030    2    1    2    0    0  0.00000000000E+00  0.00000000000E+00 -0.43096271037E+03  0.34316376882E+04  0.34044688816E+04 0.  0.
        3    1    3    3  502    0  0.56701625299E+03 -0.94855874774E+03 -0.15205457521E+04  0.18797155432E+04  0.10100000352E+00 0. -1.
       -3    1    3    3    0  502 -0.56701625299E+03  0.94855874774E+03  0.10895830417E+04  0.15519221450E+04  0.10100000352E+00 0.  1.
</event>
<event>
 5   0  0.1442864E-06  0.3492034E+04  0.7818609E-02  0.8115680E-01
        2   -1    0    0  501    0  0.00000000000E+00  0.00000000000E+00  0.20527724852E+04  0.20527724852E+04  0.25500000920E-02 0. -1.
       -2   -1    0    0    0  501  0.00000000000E+00  0.00000000000E+00 -0.14851012935E+04  0.14851012935E+04  0.25500000920E-02 0.  1.
    10030    2    1    2    0    0  0.00000000000E+00  0.00000000000E+00  0.56767119170E+03  0.35378737786E+04  0.34920338331E+04 0.  0.
        1    1    3    3  502    0 -0.10876560376E+04 -0.63095288305E+03  0.15111325966E+04  0.19658634035E+04  0.50400001928E-02 0. -1.
       -1    1    3    3    0  502  0.10876560376E+04  0.63095288305E+03 -0.94346140487E+03  0.15720103751E+04  0.50400001928E-02 0.  1.
</event>
<event>
 5   0  0.1387133E-06  0.3703807E+04  0.7818609E-02  0.8067119E-01
       -2   -1    0    0    0  501  0.00000000000E+00  0.00000000000E+00  0.16259425131E+04  0.16259425131E+04  0.25500000920E-02 0.  1.
        2   -1    0    0  501    0  0.00000000000E+00  0.00000000000E+00 -0.21092663840E+04  0.21092663840E+04  0.25500000920E-02 0. -1.
    10030    2    1    2    0    0  0.00000000000E+00  0.00000000000E+00 -0.48332387090E+03  0.37352088971E+04  0.37038066284E+04 0.  0.
        4    1    3    3  502    0  0.10599670031E+04 -0.15182442027E+04 -0.27272512731E+03  0.18716239244E+04  0.12699999809E+01 0.  1.
       -4    1    3    3    0  502 -0.10599670031E+04  0.15182442027E+04 -0.21059874359E+03  0.18635849726E+04  0.12699999809E+01 0. -1.
</event>
<event>
 5   0  0.1378620E-06  0.2513761E+04  0.7818609E-02  0.8398099E-01
       -2   -1    0    0    0  501  0.00000000000E+00  0.00000000000E+00  0.74014309934E+03  0.74014309934E+03  0.25500000920E-02 0. -1.
        2   -1    0    0  501    0  0.00000000000E+00  0.00000000000E+00 -0.21343832649E+04  0.21343832649E+04  0.25500000920E-02 0.  1.
    10030    2    1    2    0    0  0.00000000000E+00  0.00000000000E+00 -0.13942401655E+04  0.28745263642E+04  0.25137613609E+04 0.  0.
        2    1    3    3  502    0  0.88173059424E+03 -0.81494963829E+03 -0.27208071746E+03  0.12311050607E+04  0.25500000920E-02 0. -1.
       -2    1    3    3    0  502 -0.88173059424E+03  0.81494963829E+03 -0.11221594481E+04  0.16434213035E+04  0.25500000920E-02 0.  1.
</event>
<event>
 5   0  0.4409125E-07  0.3439953E+04  0.7818609E-02  0.8128170E-01
       -1   -1    0    0    0  501  0.00000000000E+00  0.00000000000E+00  0.22413314798E+04  0.22413314798E+04  0.50400001928E-02 0. -1.
        1   -1    0    0  501    0  0.00000000000E+00  0.00000000000E+00 -0.13198935525E+04  0.13198935525E+04  0.50400001928E-02 0.  1.
    10030    2    1    2    0    0  0.00000000000E+00  0.00000000000E+00  0.92143792724E+03  0.35612250323E+04  0.34399528888E+04 0.  0.
        5    1    3    3  502    0  0.39486552317E+03  0.15322928056E+04  0.11586190504E+04  0.19611884707E+04  0.46999998093E+01 0. -1.
       -5    1    3    3    0  502 -0.39486552317E+03 -0.15322928056E+04 -0.23718112320E+03  0.16000365617E+04  0.46999998093E+01 0.  1.
</event>
<event>
 5   0  0.1378620E-06  0.3416830E+04  0.7818609E-02  0.8133788E-01
        2   -1    0    0  501    0  0.00000000000E+00  0.00000000000E+00  0.25748454230E+04  0.25748454230E+04  0.25500000920E-02 0.  1.
       -2   -1    0    0    0  501  0.00000000000E+00  0.00000000000E+00 -0.11335366169E+04  0.11335366169E+04  0.25500000920E-02 0. -1.
    10030    2    1    2    0    0  0.00000000000E+00  0.00000000000E+00  0.14413088061E+04  0.37083820399E+04  0.34168298582E+04 0.  0.
        2    1    3    3  502    0  0.12124212095E+04 -0.11699575161E+04  0.41383881718E+03  0.17349433262E+04  0.25500000920E-02 0.  1.
       -2    1    3    3    0  502 -0.12124212095E+04  0.11699575161E+04  0.10274699889E+04  0.19734387137E+04  0.25500000920E-02 0. -1.
</event>
<event>
 5   0  0.4409125E-07  0.3111962E+04  0.7818609E-02  0.8212463E-01
       -1   -1    0    0    0  501  0.00000000000E+00  0.00000000000E+00  0.11452463032E+04  0.11452463032E+04  0.50400001928E-02 0.  1.
        1   -1    0    0  501    0  0.00000000000E+00  0.00000000000E+00 -0.21140228396E+04  0.21140228396E+04  0.50400001928E-02 0. -1.
    10030    2    1    2    0    0  0.00000000000E+00  0.00000000000E+00 -0.96877653644E+03  0.32592691428E+04  0.31119619805E+04 0.  0.
        5    1    3    3  502    0  0.34114486045E+03  0.53275125047E+03  0.10044690972E+04  0.11870905474E+04  0.46999998093E+01 0.  1.
       -5    1    3    3    0  502 -0.34114486045E+03 -0.53275125047E+03 -0.19732456336E+04  0.20721785954E+04  0.46999998093E+01 0. -1.
</event>
<event>
 5   0  0.4591195E-07  0.2948560E+04  0.7818609E-02  0.8258574E-01
        1   -1    0    0  501    0  0.00000000000E+00  0.00000000000E+00  0.23255620111E+04  0.23255620111E+04  0.50400001928E-02 0.  1.
       -1   -1    0    0    0  501  0.00000000000E+00  0.00000000000E+00 -0.93461320088E+03  0.93461320090E+03  0.50400001928E-02 0. -1.
    10030    2    1    2    0    0  0.00000000000E+00  0.00000000000E+00  0.13909488103E+04  0.32601752120E+04  0.29485596179E+04 0.  0.
        4    1    3    3  502    0 -0.10704761180E+04  0.52935281179E+03 -0.26039298282E+03  0.12222682345E+04  0.12699999809E+01 0. -1.
       -4    1    3    3    0  502  0.10704761180E+04 -0.52935281179E+03  0.16513417931E+04  0.20379069775E+04  0.12699999809E+01 0.  1.
</event>
<event>
 5   0  0.4557237E-07  0.3594896E+04  0.7818609E-02  0.8091662E-01
        1   -1    0    0  501    0  0.00000000000E+00  0.00000000000E+00  0.16348659755E+04  0.16348659755E+04  0.50400001928E-02 0. -1.
       -1   -1    0    0    0  501  0.00000000000E+00  0.00000000000E+00 -0.19761985997E+04  0.19761985997E+04  0.50400001928E-02 0.  1.
    10030    2    1    2    0    0  0.00000000000E+00  0.00000000000E+00 -0.34133262425E+03  0.36110645752E+04  0.35948962998E+04 0.  0.
        2    1    3    3  502    0  0.16131268080E+04  0.57029121974E+03  0.38263742319E+03  0.17532317507E+04  0.25500000920E-02 0. -1.
       -2    1    3    3    0  502 -0.16131268080E+04 -0.57029121974E+03 -0.72397004744E+03  0.18578328245E+04  0.25500000920E-02 0.  1.
</event>
<event>
 5   0  0.4591195E-07  0.3522409E+04  0.7818609E-02  0.8108500E-01
        1   -1    0    0  501    0  0.00000000000E+00  0.00000000000E+00  0.14697945413E+04  0.14697945413E+04  0.50400001928E-02 0. -1.
       -1   -1    0    0    0  501  0.00000000000E+00  0.00000000000E+00 -0.21103909580E+04  0.21103909580E+04  0.50400001928E-02 0.  1.
    10030    2    1    2    0    0  0.00000000000E+00  0.00000000000E+00 -0.64059641670E+03  0.35801854994E+04  0.35224088975E+04 0.  0.
        4    1    3    3  502    0  0.35650289104E+03 -0.14704528741E+04 -0.12364787439E+04  0.19540233528E+04  0.12699999809E+01 0.  1.
       -4    1    3    3    0  502 -0.35650289104E+03  0.14704528741E+04  0.59588232723E+03  0.16261621466E+04  0.12699999809E+01 0. -1.
</event>
<event>
 5   0  0.1442864E-06  0.3460315E+04  0.7818609E-02  0.8123260E-01
        2   -1    0    0  501    0  0.00000000000E+00  0.00000000000E+00  0.22836699049E+04  0.22836699049E+04  0.25500000920E-02 0.  1.
       -2   -1    0    0    0  501  0.00000000000E+00  0.00000000000E+00 -0.13108043059E+04  0.13108043059E+04  0.25500000920E-02 0. -1.
    10030    2    1    2    0    0  0.00000000000E+00  0.00000000000E+00  0.97286559895E+03  0.35944742108E+04  0.34603146358E+04 0.  0.
        1    1    3    3  502    0 -0.15865787077E+04 -0.56845867652E+03  0.80026263511E+02  0.16872407847E+04  0.50400001928E-02 0. -1.
       -1    1    3    3    0  502  0.15865787077E+04  0.56845867652E+03  0.89283933543E+03  0.19072334261E+04  0.50400001928E-02 0.  1.
</event>
<event>
 5   0  0.1387133E-06  0.3080989E+04  0.7818609E-02  0.8220975E-01
        2   -1    0    0  501    0  0.00000000000E+00  0.00000000000E+00  0.13583783094E+04  0.13583783094E+04  0.25500000920E-02 0.  1.
       -2   -1    0    0    0  501  0.00000000000E+00  0.00000000000E+00 -0.17470266363E+04  0.17470266363E+04  0.25500000920E-02 0. -1.
    10030    2    1    2    0    0  0.00000000000E+00  0.00000000000E+00 -0.38864832692E+03  0.31054049457E+04  0.30809888598E+04 0.  0.
        4    1    3    3  502    0 -0.30091419969E+03 -0.70162633118E+03  0.11542974700E+04  0.13839194797E+04  0.12699999809E+01 0.  1.
       -4    1    3    3    0  502  0.30091419969E+03  0.70162633118E+03 -0.15429457969E+04  0.17214854659E+04  0.12699999809E+01 0. -1.
</event>
<event>
 5   0  0.4700769E-07  0.3359854E+04  0.7818609E-02  0.8147830E-01
       -1   -1    0    0    0  501  0.00000000000E+00  0.00000000000E+00  0.16044039444E+04  0.16044039444E+04  0.50400001928E-02 0. -1.
        1   -1    0    0  501    0  0.00000000000E+00  0.00000000000E+00 -0.17590055022E+04  0.17590055022E+04  0.50400001928E-02 0.  1.
    10030    2    1    2    0    0  0.00000000000E+00  0.00000000000E+00 -0.15460155780E+03  0.33634094466E+04  0.33598543814E+04 0.  0.
        3    1    3    3  502    0 -0.12083369421E+04  0.51429840330E+03 -0.11260611235E+04  0.17299117542E+04  0.10100000352E+00 0.  1.
       -3    1    3    3    0  502  0.12083369421E+04 -0.51429840330E+03  0.97145956568E+03  0.16334976924E+04  0.10100000352E+00 0. -1.
</event>
<event>
 5   0  0.1361560E-06  0.3166803E+04  0.7818609E-02  0.8197640E-01
        2   -1    0    0  501    0  0.00000000000E+00  0.00000000000E+00  0.15874520825E+04  0.15874520825E+04  0.25500000920E-02 0.  1.
       -2   -1    0    0    0  501  0.00000000000E+00  0.00000000000E+00 -0.15793612033E+04  0.15793612033E+04  0.25500000920E-02 0. -1.
    10030    2    1    2    0    0  0.00000000000E+00  0.00000000000E+00  0.80908792160E+01  0.31668132857E+04  0.31668029501E+04 0.  0.
        3    1    3    3  502    0 -0.19463309888E+03  0.14014300578E+04  0.71487261207E+03  0.15852227325E+04  0.10100000352E+00 0.  1.
       -3    1    3    3    0  502  0.19463309888E+03 -0.14014300578E+04 -0.70678173285E+03  0.15815905532E+04  0.10100000352E+00 0. -1.
</event>
<event>
 5   0  0.4700769E-07  0.3365108E+04  0.7818609E-02  0.8146523E-01
       -1   -1    0    0    0  501  0.00000000000E+00  0.00000000000E+00  0.10709294691E+04  0.10709294691E+04  0.50400001928E-02 0. -1.
        1   -1    0    0  501    0  0.00000000000E+00  0.00000000000E+00 -0.26434870224E+04  0.26434870224E+04  0.50400001928E-02 0.  1.
    10030    2    1    2    0    0  0.00000000000E+00  0.00000000000E+00 -0.15725575533E+04  0.37144164915E+04  0.33651081133E+04 0.  0.
        3    1    3    3  502    0  0.97460182939E+03 -0.41264255097E+03  0.65749622185E+03  0.12459630382E+04  0.10100000352E+00 0. -1.
       -3    1    3    3    0  502 -0.97460182939E+03  0.41264255097E+03 -0.22300537752E+04  0.24684534533E+04  0.10100000352E+00 0.  1.
</event>
<event>
 5   0  0.4557237E-07  0.3372191E+04  0.7818609E-02  0.8144765E-01
       -1   -1    0    0    0  501  0.00000000000E+00  0.00000000000E+00  0.17436646918E+04  0.17436646918E+04  0.50400001928E-02 0. -1.
        1   -1    0    0  501    0  0.00000000000E+00  0.00000000000E+00 -0.16304273299E+04  0.16304273299E+04  0.50400001928E-02 0.  1.
    10030    2    1    2    0    0  0.00000000000E+00  0.00000000000E+00  0.11323736194E+03  0.33740920217E+04  0.33721913159E+04 0.  0.
        2    1    3    3  502    0  0.20287857987E+03 -0.15611908094E+04 -0.54741198963E+03  0.16667742343E+04  0.25500000920E-02 0.  1.
       -2    1    3    3    0  502 -0.20287857987E+03  0.15611908094E+04  0.66064935157E+03  0.17073177874E+04  0.25500000920E-02 0. -1.
</event>
<event>
 5   0  0.1378620E-06  0.3475080E+04  0.7818609E-02  0.8119721E-01
       -2   -1    0    0    0  501  0.00000000000E+00  0.00000000000E+00  0.16180899356E+04  0.16180899356E+04  0.25500000920E-02 0.  1.
        2   -1    0    0  501    0  0.00000000000E+00  0.00000000000E+00 -0.18658083615E+04  0.18658083615E+04  0.25500000920E-02 0. -1.
    10030    2    1    2    0    0  0.00000000000E+00  0.00000000000E+00 -0.24771842595E+03  0.34838982971E+04  0.34750802762E+04 0.  0.
        2    1    3    3  502    0 -0.12326839909E+04  0.12151396332E+04 -0.27580759439E+03  0.17527532567E+04  0.25500000920E-02 0. -1.
       -2    1    3    3    0  502  0.12326839909E+04 -0.12151396332E+04  0.28089168432E+02  0.17311450404E+04  0.25500000920E-02 0.  1.
</event>
<event>
 5   0  0.4409125E-07  0.3447067E+04  0.7818609E-02  0.8126450E-01
        3   -1    0    0  501    0  0.00000000000E+00  0.00000000000E+00  0.19109401440E+04  0.19109401467E+04  0.10100000352E+00 0. -1.
       -3   -1    0    0    0  501  0.00000000000E+00  0.00000000000E+00 -0.15545054756E+04  0.15545054788E+04  0.10100000352E+00 0.  1.
    10030    2    1    2    0    0  0.00000000000E+00  0.00000000000E+00  0.35643466847E+03  0.34654456255E+04  0.34470665370E+04 0.  0.
        1    1    3    3  502    0  0.11604051917E+04 -0.11556897325E+04  0.71811698240E+03  0.17882536082E+04  0.50400001928E-02 0. -1.
       -1    1    3    3    0  502 -0.11604051917E+04  0.11556897325E+04 -0.36168231392E+03  0.16771920173E+04  0.50400001928E-02 0.  1.
</event>
<event>
 5   0  0.4693374E-07  0.3458994E+04  0.7818609E-02  0.8123577E-01
       -1   -1    0    0    0  501  0.00000000000E+00  0.00000000000E+00  0.14582587660E+04  0.14582587660E+04  0.50400001928E-02 0.  1.
        1   -1    0    0  501    0  0.00000000000E+00  0.00000000000E+00 -0.20511857874E+04  0.20511857874E+04  0.50400001928E-02 0. -1.
    10030    2    1    2    0    0  0.00000000000E+00  0.00000000000E+00 -0.59292702146E+03  0.35094445534E+04  0.34589938740E+04 0.  0.
        1    1    3    3  502    0  0.29812800172E+03 -0.78945575029E+03 -0.18281309071E+04  0.20135002609E+04  0.50400001928E-02 0. -1.
       -1    1    3    3    0  502 -0.29812800172E+03  0.78945575029E+03  0.12352038857E+04  0.14959442925E+04  0.50400001928E-02 0.  1.
</event>
<event>
 5   0  0.1387133E-06  0.3386252E+04  0.7818609E-02  0.8141289E-01
        2   -1    0    0  501    0  0.00000000000E+00  0.00000000000E+00  0.21114386551E+04  0.21114386551E+04  0.25500000920E-02 0. -1.
       -2   -1    0    0    0  501  0.00000000000E+00  0.00000000000E+00 -0.13576882190E+04  0.13576882190E+04  0.25500000920E-02 0.  1.
    10030    2    1    2    0    0  0.00000000000E+00  0.00000000000E+00  0.75375043610E+03  0.34691268742E+04  0.33862518438E+04 0.  0.
        4    1    3    3  502    0 -0.47284790267E+03 -0.11210672144E+04 -0.82935182385E+03  0.14724818841E+04  0.12699999809E+01 0.  1.
       -4    1    3    3    0  502  0.47284790267E+03  0.11210672144E+04  0.15831022600E+04  0.19966449901E+04  0.12699999809E+01 0. -1.
</event>
<event>
 5   0  0.4693374E-07  0.3434122E+04  0.7818609E-02  0.8129582E-01
       -1   -1    0    0    0  501  0.00000000000E+00  0.00000000000E+00  0.16694095936E+04  0.16694095936E+04  0.50400001928E-02 0.  1.
        1   -1    0    0  501    0  0.00000000000E+00  0.00000000000E+00 -0.17660722026E+04  0.17660722026E+04  0.50400001928E-02 0. -1.
    10030    2    1    2    0    0  0.00000000000E+00  0.00000000000E+00 -0.96662608915E+02  0.34354817962E+04  0.34341216507E+04 0.  0.
        1    1    3    3  502    0 -0.10489355756E+04 -0.13212581143E+04 -0.36831582012E+03  0.17267441588E+04  0.50400001928E-02 0. -1.
       -1    1    3    3    0  502  0.10489355756E+04  0.13212581143E+04  0.27165321120E+03  0.17087376374E+04  0.50400001928E-02 0.  1.
</event>
<event>
 5   0  0.1387133E-06  0.3524901E+04  0.7818609E-02  0.8107914E-01
       -2   -1    0    0    0  501  0.00000000000E+00  0.00000000000E+00  0.20044266162E+04  0.20044266162E+04  0.25500000920E-02 0.  1.
        2   -1    0    0  501    0  0.00000000000E+00  0.00000000000E+00 -0.15496855947E+04  0.15496855947E+04  0.25500000920E-02 0. -1.
    10030    2    1    2    0    0  0.00000000000E+00  0.00000000000E+00  0.45474102143E+03  0.35541122109E+04  0.35249005959E+04 0.  0.
        4    1    3    3  502    0 -0.12431257682E+04  0.90302164519E+03 -0.64316138137E+03  0.16656734202E+04  0.12699999809E+01 0. -1.
       -4    1    3    3    0  502  0.12431257682E+04 -0.90302164519E+03  0.10979024028E+04  0.18884387907E+04  0.12699999809E+01 0.  1.
</event>
<event>
 5   0  0.1348388E-06  0.3633662E+04  0.7818609E-02  0.8082824E-01
       -2   -1    0    0    0  501  0.00000000000E+00  0.00000000000E+00  0.14539305786E+04  0.14539305786E+04  0.25500000920E-02 0. -1.
        2   -1    0    0  501    0  0.00000000000E+00  0.00000000000E+00 -0.22703115348E+04  0.22703115348E+04  0.25500000920E-02 0.  1.
    10030    2    1    2    0    0  0.00000000000E+00  0.00000000000E+00 -0.81638095618E+03  0.37242421133E+04  0.36336622646E+04 0.  0.
        5    1    3    3  502    0 -0.42878014444E+03  0.37743035978E+03 -0.21758710111E+04  0.22496094851E+04  0.46999998093E+01 0.  1.
       -5    1    3    3    0  502  0.42878014444E+03 -0.37743035978E+03  0.13594900549E+04  0.14746326282E+04  0.46999998093E+01 0. -1.
</event>
<event>
 5   0  0.4591195E-07  0.3472471E+04  0.7818609E-02  0.8120345E-01
       -1   -1    0    0    0  501  0.00000000000E+00  0.00000000000E+00  0.19132314857E+04  0.19132314857E+04  0.50400001928E-02 0.  1.
        1   -1    0    0  501    0  0.00000000000E+00  0.00000000000E+00 -0.15756137356E+04  0.15756137356E+04  0.50400001928E-02 0. -1.
    10030    2    1    2    0    0  0.00000000000E+00  0.00000000000E+00  0.33761775007E+03  0.34888452213E+04  0.34724710557E+04 0.  0.
        4    1    3    3  502    0 -0.85746028892E+03 -0.88272147999E+03  0.13993604511E+04  0.18635038619E+04  0.12699999809E+01 0.  1.
       -4    1    3    3    0  502  0.85746028892E+03  0.88272147999E+03 -0.10617427011E+04  0.16253413594E+04  0.12699999809E+01 0. -1.
</event>
<event>
 5   0  0.1348388E-06  0.3459983E+04  0.7818609E-02  0.8123340E-01
        2   -1    0    0  501    0  0.00000000000E+00  0.00000000000E+00  0.28567584187E+04  0.28567584187E+04  0.25500000920E-02 0.  1.
       -2   -1    0    0    0  501  0.00000000000E+00  0.00000000000E+00 -0.10476455142E+04  0.10476455142E+04  0.25500000920E-02 0. -1.
    10030    2    1    2    0    0  0.00000000000E+00  0.00000000000E+00  0.18091129045E+04  0.39044039328E+04  0.34599827412E+04 0.  0.
        5    1    3    3  502    0  0.12583679554E+04 -0.11869056601E+04  0.93249763455E+03  0.19651485658E+04  0.46999998093E+01 0. -1.
       -5    1    3    3    0  502 -0.12583679554E+04  0.11869056601E+04  0.87661526995E+03  0.19392553670E+04  0.46999998093E+01 0.  1.
</event>
<event>
 5   0  0.4557237E-07  0.3511649E+04  0.7818609E-02  0.8111035E-01
        1   -1    0    0  501    0  0.00000000000E+00  0.00000000000E+00  0.33157890881E+04  0.33157890881E+04  0.50400001928E-02 0. -1.
       -1   -1    0    0    0  501  0.00000000000E+00  0.00000000000E+00 -0.92976938335E+03  0.92976938337E+03  0.50400001928E-02 0.  1.
    10030    2    1    2    0    0  0.00000000000E+00  0.00000000000E+00  0.23860197048E+04  0.42455584715E+04  0.35116487158E+04 0.  0.
        2    1    3    3  502    0  0.20477601500E+03  0.17382203233E+04  0.10238542117E+04  0.20277131344E+04  0.25500000920E-02 0.  1.
       -2    1    3    3    0  502 -0.20477601500E+03 -0.17382203233E+04  0.13621654931E+04  0.22178453371E+04  0.25500000920E-02 0. -1.
</event>
<event>
 5   0  0.1378620E-06  0.3486701E+04  0.7818609E-02  0.8116949E-01
       -2   -1    0    0    0  501  0.00000000000E+00  0.00000000000E+00  0.10897944915E+04  0.10897944915E+04  0.25500000920E-02 0. -1.
        2   -1    0    0  501    0  0.00000000000E+00  0.00000000000E+00 -0.27888479559E+04  0.27888479559E+04  0.25500000920E-02 0.  1.
    10030    2    1    2    0    0  0.00000000000E+00  0.00000000000E+00 -0.16990534644E+04  0.38786424474E+04  0.34867010999E+04 0.  0.
        2    1    3    3  502    0 -0.38195416006E+03  0.79893346449E+03 -0.25200276712E+04  0.26710902502E+04  0.25500000920E-02 0.  1.
       -2    1    3    3    0  502  0.38195416006E+03 -0.79893346449E+03  0.82097420671E+03  0.12075521973E+04  0.25500000920E-02 0. -1.
</event>
<event>
 5   0  0.4409125E-07  0.3480812E+04  0.7818609E-02  0.8118352E-01
       -1   -1    0    0    0  501  0.00000000000E+00  0.00000000000E+00  0.12225251137E+04  0.12225251137E+04  0.50400001928E-02 0.  1.
        1   -1    0    0  501    0  0.00000000000E+00  0.00000000000E+00 -0.24776691013E+04  0.24776691013E+04  0.50400001928E-02 0. -1.
    10030    2    1    2    0    0  0.00000000000E+00  0.00000000000E+00 -0.12551439876E+04  0.37001942150E+04  0.34808118017E+04 0.  0.
        5    1    3    3  502    0  0.12860448065E+04  0.11564986845E+04 -0.83367344670E+03  0.19200088430E+04  0.46999998093E+01 0. -1.
       -5    1    3    3    0  502 -0.12860448065E+04 -0.11564986845E+04 -0.42147054090E+03  0.17801853719E+04  0.46999998093E+01 0.  1.
</event>
</LesHouchesEvents>
