<LesHouchesEvents version="3.0">
<header>
<!--
#*********************************************************************
#                                                                    *
#                        MadGraph5_aMC@NLO                           *
#                                                                    *
#                           Going Beyond                             *
#                                                                    *
#                   http://madgraph.hep.uiuc.edu                     *
#                   http://madgraph.phys.ucl.ac.be                   *
#                   http://amcatnlo.cern.ch                          *
#                                                                    *
#                     The MadGraph5_aMC@NLO team                     *
#                                                                    *
#....................................................................*
#                                                                    *
# This file contains all the information necessary to reproduce      *
# the events generated:                                              *
#                                                                    *
# 1. software version                                                *
# 2. proc_card          : code generation info including model       *
# 3. param_card         : model primary parameters in the LH format  *
# 4. run_card           : running parameters (collider and cuts)     *
# 5. pythia_card        : present only if pythia has been run        *
# 6. pgs_card           : present only if pgs has been run           *
# 7. delphes_cards      : present only if delphes has been run       *
#                                                                    *
#                                                                    *
#*********************************************************************
-->
<MGVersion>
#5.2.2.3
</MGVersion>
<MG5ProcCard>
#************************************************************
#*                     MadGraph5_aMC@NLO                    *
#*                                                          *
#*                *                       *                 *
#*                  *        * *        *                   *
#*                    * * * * 5 * * * *                     *
#*                  *        * *        *                   *
#*                *                       *                 *
#*                                                          *
#*                                                          *
#*         VERSION 2.2.3                 2015-02-10         *
#*                                                          *
#*    The MadGraph5_aMC@NLO Development Team - Find us at   *
#*    https://server06.fynu.ucl.ac.be/projects/madgraph     *
#*                                                          *
#************************************************************
#*                                                          *
#*               Command File for MadGraph5_aMC@NLO         *
#*                                                          *
#*     run as ./bin/mg5_aMC  filename                       *
#*                                                          *
#************************************************************
set group_subprocesses Auto
set ignore_six_quark_processes False
set loop_optimized_output True
set gauge unitary
set complex_mass_scheme False
import model sm
define p = g u c d s u~ c~ d~ s~
define j = g u c d s u~ c~ d~ s~
define l+ = e+ mu+
define l- = e- mu-
define vl = ve vm vt
define vl~ = ve~ vm~ vt~
import model Zprime_UFO
generate p p > zph, zph > j j
add process p p > zph, zph > b b~
output Dijet_signal
</MG5ProcCard>
<MGProcCard>
#*********************************************************************
#                        MadGraph/MadEvent                           *
#                   http://madgraph.hep.uiuc.edu                     *
#                                                                    *
#                          proc_card.dat                             *
#*********************************************************************
#                                                                    *
#            This Files is generated by MADGRAPH 5                   *
#                                                                    *
# WARNING: This Files is generated for MADEVENT (compatibility issue)*
#          This files is NOT a valid MG4 proc_card.dat               *
#          Running this in MG4 will NEVER reproduce the result of MG5*
#                                                                    *
#*********************************************************************
#*********************************************************************
# Process(es) requested : mg2 input                                  *
#*********************************************************************
# Begin PROCESS # This is TAG. Do not modify this line
p p > zph , zph > j j           #Process
# Be carefull the coupling are here in MG5 convention
          
end_coup           # End the couplings input

done               # this tells MG there are no more procs
# End PROCESS  # This is TAG. Do not modify this line
#*********************************************************************
# Model information                                                  *
#*********************************************************************
# Begin MODEL  # This is TAG. Do not modify this line
Zprime_UFO
# End   MODEL  # This is TAG. Do not modify this line
#*********************************************************************
# Start multiparticle definitions                                    *
#*********************************************************************
# Begin MULTIPARTICLES # This is TAG. Do not modify this line

# End  MULTIPARTICLES # This is TAG. Do not modify this line
</MGProcCard>
<MGRunCard>
#*********************************************************************
#                       MadGraph5_aMC@NLO                            *
#                                                                    *
#                     run_card.dat MadEvent                          *
#                                                                    *
#  This file is used to set the parameters of the run.               *
#                                                                    *
#  Some notation/conventions:                                        *
#                                                                    *
#   Lines starting with a '# ' are info or comments                  *
#                                                                    *
#   mind the format:   value    = variable     ! comment             *
#*********************************************************************
#
#*******************                                                 
# Running parameters
#*******************                                                 
#                                                                    
#*********************************************************************
# Tag name for the run (one word)                                    *
#*********************************************************************
  tag_1     = run_tag ! name of the run 
#*********************************************************************
# Run to generate the grid pack                                      *
#*********************************************************************
  .false.     = gridpack  !True = setting up the grid pack
#*********************************************************************
# Number of events and rnd seed                                      *
# Warning: Do not generate more than 1M events in a single run       *
# If you want to run Pythia, avoid more than 50k events in a run.    *
#*********************************************************************
  2000 = nevents ! Number of unweighted events requested 
 3036 = iseed   ! rnd seed (0=assigned automatically=default))
#*********************************************************************
# Collider type and energy                                           *
# lpp: 0=No PDF, 1=proton, -1=antiproton, 2=photon from proton,      *
#                                         3=photon from electron     *
#*********************************************************************
        1     = lpp1    ! beam 1 type 
        1     = lpp2    ! beam 2 type
     4000     = ebeam1  ! beam 1 total energy in GeV
     4000     = ebeam2  ! beam 2 total energy in GeV
#*********************************************************************
# Beam polarization from -100 (left-handed) to 100 (right-handed)    *
#*********************************************************************
        0     = polbeam1 ! beam polarization for beam 1
        0     = polbeam2 ! beam polarization for beam 2
#*********************************************************************
# PDF CHOICE: this automatically fixes also alpha_s and its evol.    *
#*********************************************************************
 'nn23lo1'    = pdlabel     ! PDF set                                     
 230000    = lhaid     ! if pdlabel=lhapdf, this is the lhapdf number
#*********************************************************************
# Renormalization and factorization scales                           *
#*********************************************************************
 F        = fixed_ren_scale  ! if .true. use fixed ren scale
 F        = fixed_fac_scale  ! if .true. use fixed fac scale
 91.1880  = scale            ! fixed ren scale
 91.1880  = dsqrt_q2fact1    ! fixed fact scale for pdf1
 91.1880  = dsqrt_q2fact2    ! fixed fact scale for pdf2
 1        = scalefact        ! scale factor for event-by-event scales
#*********************************************************************
# Matching - Warning! ickkw > 1 is still beta
#*********************************************************************
 0        = ickkw            ! 0 no matching, 1 MLM, 2 CKKW matching
 1        = highestmult      ! for ickkw=2, highest mult group
 1        = ktscheme         ! for ickkw=1, 1 Durham kT, 2 Pythia pTE
 1        = alpsfact         ! scale factor for QCD emission vx
 F        = chcluster        ! cluster only according to channel diag
 T        = pdfwgt           ! for ickkw=1, perform pdf reweighting
 5        = asrwgtflavor     ! highest quark flavor for a_s reweight
 T        = clusinfo         ! include clustering tag in output
 3.0      = lhe_version       ! Change the way clustering information pass to shower.        
#*********************************************************************
#**********************************************************
#
#**********************************************************
# Automatic ptj and mjj cuts if xqcut > 0
# (turn off for VBF and single top processes)
#**********************************************************
   T  = auto_ptj_mjj  ! Automatic setting of ptj and mjj
#**********************************************************
#                                                                    
#**********************************
# BW cutoff (M+/-bwcutoff*Gamma)
#**********************************
  15  = bwcutoff      ! (M+/-bwcutoff*Gamma)
#**********************************************************
# Apply pt/E/eta/dr/mij cuts on decay products or not
# (note that etmiss/ptll/ptheavy/ht/sorted cuts always apply)
#**********************************************************
   T  = cut_decays    ! Cut decay products 
#*************************************************************
# Number of helicities to sum per event (0 = all helicities)
# 0 gives more stable result, but longer run time (needed for
# long decay chains e.g.).
# Use >=2 if most helicities contribute, e.g. pure QCD.
#*************************************************************
   0  = nhel          ! Number of helicities used per event
#*******************                                                 
# Standard Cuts
#*******************                                                 
#                                                                    
#*********************************************************************
# Minimum and maximum pt's (for max, -1 means no cut)                *
#*********************************************************************
 20  = ptj       ! minimum pt for the jets 
  0  = ptb       ! minimum pt for the b 
 10  = pta       ! minimum pt for the photons 
 10  = ptl       ! minimum pt for the charged leptons 
  0  = misset    ! minimum missing Et (sum of neutrino's momenta)
  0  = ptheavy   ! minimum pt for one heavy final state
 1.0 = ptonium   ! minimum pt for the quarkonium states
 -1  = ptjmax    ! maximum pt for the jets
 -1  = ptbmax    ! maximum pt for the b
 -1  = ptamax    ! maximum pt for the photons
 -1  = ptlmax    ! maximum pt for the charged leptons
 -1  = missetmax ! maximum missing Et (sum of neutrino's momenta)
#*********************************************************************
# Minimum and maximum E's (in the center of mass frame)              *
#*********************************************************************
  0  = ej     ! minimum E for the jets 
  0  = eb     ! minimum E for the b 
  0  = ea     ! minimum E for the photons 
  0  = el     ! minimum E for the charged leptons 
 -1   = ejmax ! maximum E for the jets
 -1   = ebmax ! maximum E for the b
 -1   = eamax ! maximum E for the photons
 -1   = elmax ! maximum E for the charged leptons
#*********************************************************************
# Maximum and minimum absolute rapidity (for max, -1 means no cut)   *
#*********************************************************************
   5  = etaj    ! max rap for the jets 
  -1  = etab    ! max rap for the b
 2.5  = etaa    ! max rap for the photons 
 2.5  = etal    ! max rap for the charged leptons 
 0.6  = etaonium ! max rap for the quarkonium states
   0  = etajmin ! min rap for the jets
   0  = etabmin ! min rap for the b
   0  = etaamin ! min rap for the photons
   0  = etalmin ! main rap for the charged leptons
#*********************************************************************
# Minimum and maximum DeltaR distance                                *
#*********************************************************************
 0.4 = drjj    ! min distance between jets 
 0   = drbb    ! min distance between b's 
 0.4 = drll    ! min distance between leptons 
 0.4 = draa    ! min distance between gammas 
 0   = drbj    ! min distance between b and jet 
 0.4 = draj    ! min distance between gamma and jet 
 0.4 = drjl    ! min distance between jet and lepton 
 0   = drab    ! min distance between gamma and b 
 0   = drbl    ! min distance between b and lepton 
 0.4 = dral    ! min distance between gamma and lepton 
 -1  = drjjmax ! max distance between jets
 -1  = drbbmax ! max distance between b's
 -1  = drllmax ! max distance between leptons
 -1  = draamax ! max distance between gammas
 -1  = drbjmax ! max distance between b and jet
 -1  = drajmax ! max distance between gamma and jet
 -1  = drjlmax ! max distance between jet and lepton
 -1  = drabmax ! max distance between gamma and b
 -1  = drblmax ! max distance between b and lepton
 -1  = dralmax ! maxdistance between gamma and lepton
#*********************************************************************
# Minimum and maximum invariant mass for pairs                       *
# WARNING: for four lepton final state mmll cut require to have      *
#          different lepton masses for each flavor!                  *           
#*********************************************************************
 0   = mmjj    ! min invariant mass of a jet pair 
 0   = mmbb    ! min invariant mass of a b pair 
 0   = mmaa    ! min invariant mass of gamma gamma pair
 0   = mmll    ! min invariant mass of l+l- (same flavour) lepton pair
 -1  = mmjjmax ! max invariant mass of a jet pair
 -1  = mmbbmax ! max invariant mass of a b pair
 -1  = mmaamax ! max invariant mass of gamma gamma pair
 -1  = mmllmax ! max invariant mass of l+l- (same flavour) lepton pair
#*********************************************************************
# Minimum and maximum invariant mass for all letpons                 *
#*********************************************************************
 0   = mmnl    ! min invariant mass for all letpons (l+- and vl) 
 -1  = mmnlmax ! max invariant mass for all letpons (l+- and vl) 
#*********************************************************************
# Minimum and maximum pt for 4-momenta sum of leptons                *
#*********************************************************************
 0   = ptllmin  ! Minimum pt for 4-momenta sum of leptons(l and vl)
 -1  = ptllmax  ! Maximum pt for 4-momenta sum of leptons(l and vl)
#*********************************************************************
# Inclusive cuts                                                     *
#*********************************************************************
 0  = xptj ! minimum pt for at least one jet  
 0  = xptb ! minimum pt for at least one b 
 0  = xpta ! minimum pt for at least one photon 
 0  = xptl ! minimum pt for at least one charged lepton 
#*********************************************************************
# Control the pt's of the jets sorted by pt                          *
#*********************************************************************
 0   = ptj1min ! minimum pt for the leading jet in pt
 0   = ptj2min ! minimum pt for the second jet in pt
 0   = ptj3min ! minimum pt for the third jet in pt
 0   = ptj4min ! minimum pt for the fourth jet in pt
 -1  = ptj1max ! maximum pt for the leading jet in pt 
 -1  = ptj2max ! maximum pt for the second jet in pt
 -1  = ptj3max ! maximum pt for the third jet in pt
 -1  = ptj4max ! maximum pt for the fourth jet in pt
 0   = cutuse  ! reject event if fails any (0) / all (1) jet pt cuts
#*********************************************************************
# Control the pt's of leptons sorted by pt                           *
#*********************************************************************
 0   = ptl1min ! minimum pt for the leading lepton in pt
 0   = ptl2min ! minimum pt for the second lepton in pt
 0   = ptl3min ! minimum pt for the third lepton in pt
 0   = ptl4min ! minimum pt for the fourth lepton in pt
 -1  = ptl1max ! maximum pt for the leading lepton in pt 
 -1  = ptl2max ! maximum pt for the second lepton in pt
 -1  = ptl3max ! maximum pt for the third lepton in pt
 -1  = ptl4max ! maximum pt for the fourth lepton in pt
#*********************************************************************
# Control the Ht(k)=Sum of k leading jets                            *
#*********************************************************************
 0   = htjmin ! minimum jet HT=Sum(jet pt)
 -1  = htjmax ! maximum jet HT=Sum(jet pt)
 0   = ihtmin  !inclusive Ht for all partons (including b)
 -1  = ihtmax  !inclusive Ht for all partons (including b)
 0   = ht2min ! minimum Ht for the two leading jets
 0   = ht3min ! minimum Ht for the three leading jets
 0   = ht4min ! minimum Ht for the four leading jets
 -1  = ht2max ! maximum Ht for the two leading jets
 -1  = ht3max ! maximum Ht for the three leading jets
 -1  = ht4max ! maximum Ht for the four leading jets
#***********************************************************************
# Photon-isolation cuts, according to hep-ph/9801442                   *
# When ptgmin=0, all the other parameters are ignored                  *
# When ptgmin>0, pta and draj are not going to be used                 *
#***********************************************************************
   0 = ptgmin ! Min photon transverse momentum
 0.4 = R0gamma ! Radius of isolation code
 1.0 = xn ! n parameter of eq.(3.4) in hep-ph/9801442
 1.0 = epsgamma ! epsilon_gamma parameter of eq.(3.4) in hep-ph/9801442
 .true. = isoEM ! isolate photons from EM energy (photons and leptons)
#*********************************************************************
# WBF cuts                                                           *
#*********************************************************************
 0   = xetamin ! minimum rapidity for two jets in the WBF case  
 0   = deltaeta ! minimum rapidity for two jets in the WBF case 
#*********************************************************************
# KT DURHAM CUT                                                      *
#*********************************************************************
 -1    =  ktdurham        
 0.4  =  dparameter 
#*********************************************************************
# maximal pdg code for quark to be considered as a light jet         *
# (otherwise b cuts are applied)                                     *
#*********************************************************************
 4 = maxjetflavor    ! Maximum jet pdg code
#*********************************************************************
# Jet measure cuts                                                   *
#*********************************************************************
 0   = xqcut   ! minimum kt jet measure between partons
#*********************************************************************
#
#*********************************************************************
# Store info for systematics studies                                 *
# WARNING: If use_syst is T, matched Pythia output is                *
#          meaningful ONLY if plotted taking matchscale              *
#          reweighting into account!                                 *
#*********************************************************************
   F  = use_syst      ! Enable systematics studies
#
#**************************************
# Parameter of the systematics study
#  will be used by SysCalc (if installed)
#**************************************                                  
#
0.5 1 2 = sys_scalefact  # factorization/renormalization scale factor
0.5 1 2 = sys_alpsfact  # \alpha_s emission scale factors
30 50 = sys_matchscale # variation of merging scale
# PDF sets and number of members (0 or none for all members).
CT10nlo.LHgrid = sys_pdf # matching scales
# MSTW2008nlo68cl.LHgrid 1  = sys_pdf
</MGRunCard>
<slha>
######################################################################
## PARAM_CARD AUTOMATICALY GENERATED BY MG5 FOLLOWING UFO MODEL   ####
######################################################################
##                                                                  ##
##  Width set on Auto will be computed following the information    ##
##        present in the decay.py files of the model.               ##
##        See  arXiv:1402.1178 for more details.                    ##
##                                                                  ##
######################################################################

###################################
## INFORMATION FOR CKMBLOCK
###################################
Block ckmblock 
    1 2.277360e-01 # cabi 

###################################
## INFORMATION FOR FRBLOCK
###################################
Block frblock 
    1 1.600000e+00 # gz 

###################################
## INFORMATION FOR MASS
###################################
Block mass 
    1 5.040000e-03 # MD 
    2 2.550000e-03 # MU 
    3 1.010000e-01 # MS 
    4 1.270000e+00 # MC 
    5 4.700000e+00 # MB 
    6 1.720000e+02 # MT 
   11 5.110000e-04 # Me 
   13 1.056600e-01 # MM 
   15 1.777000e+00 # MTA 
   23 9.118760e+01 # MZ 
   25 1.200000e+02 # MH 
  10030 3.500000e+03 # MZph 
  10031 3.000000e+02 # MZpl 
## Dependent parameters, given by model restrictions.
## Those values should be edited following the 
## analytical expression. MG5 ignores those values 
## but they are important for interfacing the output of MG5
## to external program such as Pythia.
  12 0.000000 # ve : 0.0 
  14 0.000000 # vm : 0.0 
  16 0.000000 # vt : 0.0 
  21 0.000000 # g : 0.0 
  22 0.000000 # a : 0.0 
  24 79.824360 # w+ : cmath.sqrt(MZ__exp__2/2. + cmath.sqrt(MZ__exp__4/4. - (aEW*cmath.pi*MZ__exp__2)/(Gf*sqrt__2))) 

###################################
## INFORMATION FOR SMINPUTS
###################################
Block sminputs 
    1 1.279000e+02 # aEWM1 
    2 1.166370e-05 # Gf 
    3 1.184000e-01 # aS 

###################################
## INFORMATION FOR YUKAWA
###################################
Block yukawa 
    1 5.040000e-03 # ymdo 
    2 2.550000e-03 # ymup 
    3 1.010000e-01 # yms 
    4 1.270000e+00 # ymc 
    5 4.700000e+00 # ymb 
    6 1.720000e+02 # ymt 
   11 5.110000e-04 # yme 
   13 1.056600e-01 # ymm 
   15 1.777000e+00 # ymtau 

###################################
## INFORMATION FOR DECAY
###################################
DECAY   6 1.508336e+00 # WT 
DECAY  23 2.495200e+00 # WZ 
DECAY  24 2.085000e+00 # WW 
DECAY  25 5.753088e-03 # WH 
## Dependent parameters, given by model restrictions.
## Those values should be edited following the 
## analytical expression. MG5 ignores those values 
## but they are important for interfacing the output of MG5
## to external program such as Pythia.
DECAY  1 0.000000 # d : 0.0 
DECAY  2 0.000000 # u : 0.0 
DECAY  3 0.000000 # s : 0.0 
DECAY  4 0.000000 # c : 0.0 
DECAY  5 0.000000 # b : 0.0 
DECAY  11 0.000000 # e- : 0.0 
DECAY  12 0.000000 # ve : 0.0 
DECAY  13 0.000000 # mu- : 0.0 
DECAY  14 0.000000 # vm : 0.0 
DECAY  15 0.000000 # ta- : 0.0 
DECAY  16 0.000000 # vt : 0.0 
DECAY  21 0.000000 # g : 0.0 
DECAY  22 0.000000 # a : 0.0 
DECAY  10030 0.308725 # zph : (gz__exp__2*MZph*(5 + cmath.sqrt(1 - (4*MT__exp__2)/MZph__exp__2)))/(144.*cmath.pi) 
DECAY  10031 0.132629 # zpl : (5*gz__exp__2*MZpl)/(144.*cmath.pi) 
#===========================================================
# QUANTUM NUMBERS OF NEW STATE(S) (NON SM PDG CODE)
#===========================================================

Block QNUMBERS 10030  # zph 
        1 0  # 3 times electric charge
        2 3  # number of spin states (2S+1)
        3 1  # colour rep (1: singlet, 3: triplet, 8: octet)
        4 0  # Particle/Antiparticle distinction (0=own anti)
Block QNUMBERS 10031  # zpl 
        1 0  # 3 times electric charge
        2 3  # number of spin states (2S+1)
        3 1  # colour rep (1: singlet, 3: triplet, 8: octet)
        4 0  # Particle/Antiparticle distinction (0=own anti)
</slha>
## END BANNER##
<MGGenerationInfo>
#  Number of Events        :         4591
#  Integrated weight (pb)  :  0.83426E-03
#  Max wgt                 :  0.42599E-06
#  Average wgt             :  0.18172E-06
</MGGenerationInfo>
</header>
<init>
     2212     2212  0.40000000000E+04  0.40000000000E+04 0 0  247000  247000 2   1
  0.83500353290E-03  0.40948462755E-05  0.42599330000E-06   0
</init>
<event>
 5   0  0.1782660E-06  0.1964158E+04  0.7818609E-02  0.8623564E-01
        2   -1    0    0  501    0  0.00000000000E+00  0.00000000000E+00  0.12081124156E+04  0.12081124156E+04  0.25500000920E-02 0.  1.
       -2   -1    0    0    0  501  0.00000000000E+00  0.00000000000E+00 -0.79833557806E+03  0.79833557807E+03  0.25500000920E-02 0. -1.
    10030    2    1    2    0    0  0.00000000000E+00  0.00000000000E+00  0.40977683754E+03  0.20064479937E+04  0.19641579607E+04 0.  0.
        4    1    3    3  502    0  0.87047907080E+03 -0.33282134500E+03 -0.11157790551E+03  0.93859208514E+03  0.12699999809E+01 0. -1.
       -4    1    3    3    0  502 -0.87047907080E+03  0.33282134500E+03  0.52135474306E+03  0.10678559085E+04  0.12699999809E+01 0.  1.
</event>
<event>
 5   0  0.1130707E-06  0.1730953E+04  0.7818609E-02  0.8743905E-01
        1   -1    0    0  501    0  0.00000000000E+00  0.00000000000E+00  0.85965748771E+03  0.85965748772E+03  0.50400001928E-02 0.  1.
       -1   -1    0    0    0  501  0.00000000000E+00  0.00000000000E+00 -0.87133525163E+03  0.87133525164E+03  0.50400001928E-02 0. -1.
    10030    2    1    2    0    0  0.00000000000E+00  0.00000000000E+00 -0.11677763920E+02  0.17309927394E+04  0.17309533482E+04 0.  0.
        3    1    3    3  502    0  0.86337203425E+03  0.35288361057E+02 -0.54761618688E+02  0.86582641623E+03  0.10100000352E+00 0.  1.
       -3    1    3    3    0  502 -0.86337203425E+03 -0.35288361057E+02  0.43083854768E+02  0.86516632314E+03  0.10100000352E+00 0. -1.
</event>
<event>
 5   0  0.1782660E-06  0.3294863E+04  0.7818609E-02  0.8164204E-01
        2   -1    0    0  501    0  0.00000000000E+00  0.00000000000E+00  0.15948149465E+04  0.15948149465E+04  0.25500000920E-02 0.  1.
       -2   -1    0    0    0  501  0.00000000000E+00  0.00000000000E+00 -0.17017835678E+04  0.17017835678E+04  0.25500000920E-02 0. -1.
    10030    2    1    2    0    0  0.00000000000E+00  0.00000000000E+00 -0.10696862129E+03  0.32965985143E+04  0.32948625887E+04 0.  0.
        4    1    3    3  502    0 -0.64997936317E+03  0.61123031168E+03 -0.14391156111E+04  0.16932604707E+04  0.12699999809E+01 0. -1.
       -4    1    3    3    0  502  0.64997936317E+03 -0.61123031168E+03  0.13321469899E+04  0.16033380436E+04  0.12699999809E+01 0.  1.
</event>
<event>
 5   0  0.3378848E-06  0.3520381E+04  0.7818609E-02  0.8108977E-01
        2   -1    0    0  501    0  0.00000000000E+00  0.00000000000E+00  0.14807937830E+04  0.14807937830E+04  0.25500000920E-02 0.  1.
       -2   -1    0    0    0  501  0.00000000000E+00  0.00000000000E+00 -0.20923041894E+04  0.20923041894E+04  0.25500000920E-02 0. -1.
    10030    2    1    2    0    0  0.00000000000E+00  0.00000000000E+00 -0.61151040644E+03  0.35730979724E+04  0.35203812497E+04 0.  0.
        1    1    3    3  502    0  0.66919469240E+03 -0.14174607600E+04 -0.11185303888E+04  0.19256497016E+04  0.50400001928E-02 0.  1.
       -1    1    3    3    0  502 -0.66919469240E+03  0.14174607600E+04  0.50701998233E+03  0.16474482708E+04  0.50400001928E-02 0. -1.
</event>
<event>
 5   0  0.1782660E-06  0.3353682E+04  0.7818609E-02  0.8149369E-01
       -2   -1    0    0    0  501  0.00000000000E+00  0.00000000000E+00  0.10332809445E+04  0.10332809445E+04  0.25500000920E-02 0.  1.
        2   -1    0    0  501    0  0.00000000000E+00  0.00000000000E+00 -0.27212298156E+04  0.27212298156E+04  0.25500000920E-02 0. -1.
    10030    2    1    2    0    0  0.00000000000E+00  0.00000000000E+00 -0.16879488711E+04  0.37545107601E+04  0.33536815079E+04 0.  0.
        4    1    3    3  502    0  0.14844625111E+04 -0.55446144553E+03 -0.14579129335E+04  0.21532691834E+04  0.12699999809E+01 0. -1.
       -4    1    3    3    0  502 -0.14844625111E+04  0.55446144553E+03 -0.23003593756E+03  0.16012415767E+04  0.12699999809E+01 0.  1.
</event>
<event>
 5   0  0.3378848E-06  0.3463557E+04  0.7818609E-02  0.8122481E-01
       -2   -1    0    0    0  501  0.00000000000E+00  0.00000000000E+00  0.11145438478E+04  0.11145438478E+04  0.25500000920E-02 0.  1.
        2   -1    0    0  501    0  0.00000000000E+00  0.00000000000E+00 -0.26908375736E+04  0.26908375736E+04  0.25500000920E-02 0. -1.
    10030    2    1    2    0    0  0.00000000000E+00  0.00000000000E+00 -0.15762937258E+04  0.38053814214E+04  0.34635568210E+04 0.  0.
        1    1    3    3  502    0  0.16358452476E+04 -0.19897683955E+03 -0.20317730804E+03  0.16603802201E+04  0.50400001928E-02 0.  1.
       -1    1    3    3    0  502 -0.16358452476E+04  0.19897683955E+03 -0.13731164178E+04  0.21450012013E+04  0.50400001928E-02 0. -1.
</event>
<event>
 5   0  0.1125196E-06  0.2557376E+04  0.7818609E-02  0.8382825E-01
       -1   -1    0    0    0  501  0.00000000000E+00  0.00000000000E+00  0.10898565980E+04  0.10898565980E+04  0.50400001928E-02 0. -1.
        1   -1    0    0  501    0  0.00000000000E+00  0.00000000000E+00 -0.15002368234E+04  0.15002368234E+04  0.50400001928E-02 0.  1.
    10030    2    1    2    0    0  0.00000000000E+00  0.00000000000E+00 -0.41038022545E+03  0.25900934214E+04  0.25573759994E+04 0.  0.
        4    1    3    3  502    0  0.39176902217E+03 -0.11617178672E+04  0.16273419531E+03  0.12367519561E+04  0.12699999809E+01 0.  1.
       -4    1    3    3    0  502 -0.39176902217E+03  0.11617178672E+04 -0.57311442076E+03  0.13533414653E+04  0.12699999809E+01 0. -1.
</event>
<event>
 5   0  0.1125196E-06  0.2276997E+04  0.7818609E-02  0.8487046E-01
        1   -1    0    0  501    0  0.00000000000E+00  0.00000000000E+00  0.96136749263E+03  0.96136749264E+03  0.50400001928E-02 0. -1.
       -1   -1    0    0    0  501  0.00000000000E+00  0.00000000000E+00 -0.13482659795E+04  0.13482659795E+04  0.50400001928E-02 0.  1.
    10030    2    1    2    0    0  0.00000000000E+00  0.00000000000E+00 -0.38689848686E+03  0.23096334721E+04  0.22769972193E+04 0.  0.
        4    1    3    3  502    0  0.69826882627E+03 -0.62045949242E+02  0.71648630170E+03  0.10023887903E+04  0.12699999809E+01 0. -1.
       -4    1    3    3    0  502 -0.69826882627E+03  0.62045949242E+02 -0.11033847886E+04  0.13072446818E+04  0.12699999809E+01 0.  1.
</event>
<event>
 5   0  0.1782660E-06  0.3047004E+04  0.7818609E-02  0.8230435E-01
       -2   -1    0    0    0  501  0.00000000000E+00  0.00000000000E+00  0.11514428879E+04  0.11514428879E+04  0.25500000920E-02 0. -1.
        2   -1    0    0  501    0  0.00000000000E+00  0.00000000000E+00 -0.20157819915E+04  0.20157819915E+04  0.25500000920E-02 0.  1.
    10030    2    1    2    0    0  0.00000000000E+00  0.00000000000E+00 -0.86433910357E+03  0.31672248794E+04  0.30470036677E+04 0.  0.
        4    1    3    3  502    0 -0.12872729689E+04  0.73250443764E+03 -0.61123553434E+02  0.14823535845E+04  0.12699999809E+01 0.  1.
       -4    1    3    3    0  502  0.12872729689E+04 -0.73250443764E+03 -0.80321555013E+03  0.16848712949E+04  0.12699999809E+01 0. -1.
</event>
<event>
 5   0  0.1908726E-06  0.2231098E+04  0.7818609E-02  0.8505595E-01
        2   -1    0    0  501    0  0.00000000000E+00  0.00000000000E+00  0.13338694453E+04  0.13338694453E+04  0.25500000920E-02 0. -1.
       -2   -1    0    0    0  501  0.00000000000E+00  0.00000000000E+00 -0.93296242409E+03  0.93296242409E+03  0.25500000920E-02 0.  1.
    10030    2    1    2    0    0  0.00000000000E+00  0.00000000000E+00  0.40090702118E+03  0.22668318694E+04  0.22310984479E+04 0.  0.
        5    1    3    3  502    0 -0.54431166751E+03 -0.17918112698E+03  0.11728859399E+04  0.13053982479E+04  0.46999998093E+01 0. -1.
       -5    1    3    3    0  502  0.54431166751E+03  0.17918112698E+03 -0.77197891867E+03  0.96143362149E+03  0.46999998093E+01 0.  1.
</event>
<event>
 5   0  0.3378848E-06  0.3711525E+04  0.7818609E-02  0.8065412E-01
       -2   -1    0    0    0  501  0.00000000000E+00  0.00000000000E+00  0.11590780632E+04  0.11590780632E+04  0.25500000920E-02 0. -1.
        2   -1    0    0  501    0  0.00000000000E+00  0.00000000000E+00 -0.29712019784E+04  0.29712019784E+04  0.25500000920E-02 0.  1.
    10030    2    1    2    0    0  0.00000000000E+00  0.00000000000E+00 -0.18121239151E+04  0.41302800416E+04  0.37115253116E+04 0.  0.
        1    1    3    3  502    0  0.19597143665E+03 -0.18249612355E+03 -0.29495881940E+04  0.29617191212E+04  0.50400001928E-02 0.  1.
       -1    1    3    3    0  502 -0.19597143665E+03  0.18249612355E+03  0.11374642788E+04  0.11685609204E+04  0.50400001928E-02 0. -1.
</event>
<event>
 5   0  0.1102175E-06  0.3475770E+04  0.7818609E-02  0.8119556E-01
        1   -1    0    0  501    0  0.00000000000E+00  0.00000000000E+00  0.25604828059E+04  0.25604828060E+04  0.50400001928E-02 0. -1.
       -1   -1    0    0    0  501  0.00000000000E+00  0.00000000000E+00 -0.11795601417E+04  0.11795601417E+04  0.50400001928E-02 0.  1.
    10030    2    1    2    0    0  0.00000000000E+00  0.00000000000E+00  0.13809226643E+04  0.37400429477E+04  0.34757695329E+04 0.  0.
        5    1    3    3  502    0 -0.54004508340E+03  0.62408622262E+03  0.23361549946E+04  0.24776550515E+04  0.46999998093E+01 0. -1.
       -5    1    3    3    0  502  0.54004508340E+03 -0.62408622262E+03 -0.95523233037E+03  0.12623878961E+04  0.46999998093E+01 0.  1.
</event>
<event>
 5   0  0.1908726E-06  0.2174740E+04  0.7818609E-02  0.8529016E-01
        2   -1    0    0  501    0  0.00000000000E+00  0.00000000000E+00  0.11380693461E+04  0.11380693461E+04  0.25500000920E-02 0. -1.
       -2   -1    0    0    0  501  0.00000000000E+00  0.00000000000E+00 -0.10389287750E+04  0.10389287750E+04  0.25500000920E-02 0.  1.
    10030    2    1    2    0    0  0.00000000000E+00  0.00000000000E+00  0.99140571119E+02  0.21769981211E+04  0.21747395169E+04 0.  0.
        5    1    3    3  502    0 -0.43199058314E+03  0.67525948592E+03 -0.68587610641E+03  0.10550068059E+04  0.46999998093E+01 0.  1.
       -5    1    3    3    0  502  0.43199058314E+03 -0.67525948592E+03  0.78501667753E+03  0.11219913151E+04  0.46999998093E+01 0. -1.
</event>
<event>
 5   0  0.2565004E-06  0.2155726E+04  0.7818609E-02  0.8537085E-01
        2   -1    0    0  501    0  0.00000000000E+00  0.00000000000E+00  0.15236745177E+04  0.15236745177E+04  0.25500000920E-02 0.  1.
       -2   -1    0    0    0  501  0.00000000000E+00  0.00000000000E+00 -0.76249146085E+03  0.76249146085E+03  0.25500000920E-02 0. -1.
    10030    2    1    2    0    0  0.00000000000E+00  0.00000000000E+00  0.76118305685E+03  0.22861659786E+04  0.21557261504E+04 0.  0.
        3    1    3    3  502    0 -0.69513700523E+03  0.74834646856E+03  0.15445479697E+02  0.10215069584E+04  0.10100000352E+00 0. -1.
       -3    1    3    3    0  502  0.69513700523E+03 -0.74834646856E+03  0.74573757715E+03  0.12646590201E+04  0.10100000352E+00 0.  1.
</event>
<event>
 5   0  0.1110956E-06  0.3498062E+04  0.7818609E-02  0.8114249E-01
        1   -1    0    0  501    0  0.00000000000E+00  0.00000000000E+00  0.15749899606E+04  0.15749899606E+04  0.50400001928E-02 0. -1.
       -1   -1    0    0    0  501  0.00000000000E+00  0.00000000000E+00 -0.19423037088E+04  0.19423037088E+04  0.50400001928E-02 0.  1.
    10030    2    1    2    0    0  0.00000000000E+00  0.00000000000E+00 -0.36731374817E+03  0.35172936694E+04  0.34980616586E+04 0.  0.
        1    1    3    3  502    0 -0.30194929437E+03 -0.14735328352E+03 -0.19095501597E+04  0.19388832299E+04  0.50400001928E-02 0.  1.
       -1    1    3    3    0  502  0.30194929437E+03  0.14735328352E+03  0.15422364116E+04  0.15784104395E+04  0.50400001928E-02 0. -1.
</event>
<event>
 5   0  0.1130707E-06  0.3528936E+04  0.7818609E-02  0.8106966E-01
       -1   -1    0    0    0  501  0.00000000000E+00  0.00000000000E+00  0.12731146075E+04  0.12731146075E+04  0.50400001928E-02 0. -1.
        1   -1    0    0  501    0  0.00000000000E+00  0.00000000000E+00 -0.24454574913E+04  0.24454574913E+04  0.50400001928E-02 0.  1.
    10030    2    1    2    0    0  0.00000000000E+00  0.00000000000E+00 -0.11723428839E+04  0.37185720988E+04  0.35289361877E+04 0.  0.
        3    1    3    3  502    0  0.10793466134E+04  0.69955591383E+03 -0.18589623919E+04  0.22605549702E+04  0.10100000352E+00 0.  1.
       -3    1    3    3    0  502 -0.10793466134E+04 -0.69955591383E+03  0.68661950807E+03  0.14580171286E+04  0.10100000352E+00 0. -1.
</event>
<event>
 5   0  0.1102175E-06  0.1935717E+04  0.7818609E-02  0.8637279E-01
       -1   -1    0    0    0  501  0.00000000000E+00  0.00000000000E+00  0.91730363934E+03  0.91730363935E+03  0.50400001928E-02 0.  1.
        1   -1    0    0  501    0  0.00000000000E+00  0.00000000000E+00 -0.10211997450E+04  0.10211997450E+04  0.50400001928E-02 0. -1.
    10030    2    1    2    0    0  0.00000000000E+00  0.00000000000E+00 -0.10389610567E+03  0.19385033844E+04  0.19357171721E+04 0.  0.
        5    1    3    3  502    0  0.31207137873E+03  0.69333097900E+03  0.54777264131E+03  0.93710903764E+03  0.46999998093E+01 0.  1.
       -5    1    3    3    0  502 -0.31207137873E+03 -0.69333097900E+03 -0.65166874698E+03  0.10013943467E+04  0.46999998093E+01 0. -1.
</event>
<event>
 5   0  0.1089337E-06  0.3540037E+04  0.7818609E-02  0.8104367E-01
        1   -1    0    0  501    0  0.00000000000E+00  0.00000000000E+00  0.21211349975E+04  0.21211349975E+04  0.50400001928E-02 0.  1.
       -1   -1    0    0    0  501  0.00000000000E+00  0.00000000000E+00 -0.14770228804E+04  0.14770228804E+04  0.50400001928E-02 0. -1.
    10030    2    1    2    0    0  0.00000000000E+00  0.00000000000E+00  0.64411211710E+03  0.35981578780E+04  0.35400366799E+04 0.  0.
        2    1    3    3  502    0 -0.40456891925E+03 -0.14539840969E+04  0.12620199358E+04  0.19673434075E+04  0.25500000920E-02 0.  1.
       -2    1    3    3    0  502  0.40456891925E+03  0.14539840969E+04 -0.61790781874E+03  0.16308144705E+04  0.25500000920E-02 0. -1.
</event>
<event>
 5   0  0.1125196E-06  0.3520394E+04  0.7818609E-02  0.8108974E-01
       -1   -1    0    0    0  501  0.00000000000E+00  0.00000000000E+00  0.14690169859E+04  0.14690169859E+04  0.50400001928E-02 0. -1.
        1   -1    0    0  501    0  0.00000000000E+00  0.00000000000E+00 -0.21090931347E+04  0.21090931347E+04  0.50400001928E-02 0.  1.
    10030    2    1    2    0    0  0.00000000000E+00  0.00000000000E+00 -0.64007614886E+03  0.35781101206E+04  0.35203940915E+04 0.  0.
        4    1    3    3  502    0  0.47324856078E+03  0.63830536537E+03  0.12763470453E+04  0.15034830670E+04  0.12699999809E+01 0. -1.
       -4    1    3    3    0  502 -0.47324856078E+03 -0.63830536537E+03 -0.19164231942E+04  0.20746270537E+04  0.12699999809E+01 0.  1.
</event>
<event>
 5   0  0.1125196E-06  0.3519103E+04  0.7818609E-02  0.8109278E-01
        1   -1    0    0  501    0  0.00000000000E+00  0.00000000000E+00  0.15869777973E+04  0.15869777973E+04  0.50400001928E-02 0.  1.
       -1   -1    0    0    0  501  0.00000000000E+00  0.00000000000E+00 -0.19508912939E+04  0.19508912939E+04  0.50400001928E-02 0. -1.
    10030    2    1    2    0    0  0.00000000000E+00  0.00000000000E+00 -0.36391349653E+03  0.35378690912E+04  0.35191028223E+04 0.  0.
        4    1    3    3  502    0  0.56861349877E+03  0.54903329658E+02 -0.18550683221E+04  0.19410347187E+04  0.12699999809E+01 0. -1.
       -4    1    3    3    0  502 -0.56861349877E+03 -0.54903329658E+02  0.14911548256E+04  0.15968343725E+04  0.12699999809E+01 0.  1.
</event>
<event>
 5   0  0.1782660E-06  0.1865310E+04  0.7818609E-02  0.8672319E-01
       -2   -1    0    0    0  501  0.00000000000E+00  0.00000000000E+00  0.52689222590E+03  0.52689222591E+03  0.25500000920E-02 0. -1.
        2   -1    0    0  501    0  0.00000000000E+00  0.00000000000E+00 -0.16508973478E+04  0.16508973478E+04  0.25500000920E-02 0.  1.
    10030    2    1    2    0    0  0.00000000000E+00  0.00000000000E+00 -0.11240051219E+04  0.21777895737E+04  0.18653096026E+04 0.  0.
        4    1    3    3  502    0 -0.75372260706E+02 -0.80025067713E+03 -0.11142801494E+04  0.13739374033E+04  0.12699999809E+01 0.  1.
       -4    1    3    3    0  502  0.75372260706E+02  0.80025067713E+03 -0.97249725231E+01  0.80385217044E+03  0.12699999809E+01 0. -1.
</event>
<event>
 5   0  0.1089337E-06  0.3532579E+04  0.7818609E-02  0.8106112E-01
        1   -1    0    0  501    0  0.00000000000E+00  0.00000000000E+00  0.11036189472E+04  0.11036189472E+04  0.50400001928E-02 0.  1.
       -1   -1    0    0    0  501  0.00000000000E+00  0.00000000000E+00 -0.28268617985E+04  0.28268617985E+04  0.50400001928E-02 0. -1.
    10030    2    1    2    0    0  0.00000000000E+00  0.00000000000E+00 -0.17232428512E+04  0.39304807457E+04  0.35325787985E+04 0.  0.
        2    1    3    3  502    0  0.10938261792E+03  0.34243590920E+03 -0.27857294278E+04  0.28088281104E+04  0.25500000920E-02 0. -1.
       -2    1    3    3    0  502 -0.10938261792E+03 -0.34243590920E+03  0.10624865765E+04  0.11216526353E+04  0.25500000920E-02 0.  1.
</event>
<event>
 5   0  0.1125196E-06  0.3612641E+04  0.7818609E-02  0.8087602E-01
       -1   -1    0    0    0  501  0.00000000000E+00  0.00000000000E+00  0.27183658747E+04  0.27183658747E+04  0.50400001928E-02 0.  1.
        1   -1    0    0  501    0  0.00000000000E+00  0.00000000000E+00 -0.12002774450E+04  0.12002774450E+04  0.50400001928E-02 0. -1.
    10030    2    1    2    0    0  0.00000000000E+00  0.00000000000E+00  0.15180884297E+04  0.39186433197E+04  0.36126407220E+04 0.  0.
        4    1    3    3  502    0  0.59831760726E+03  0.52722765772E+03 -0.99899137515E+03  0.12782559770E+04  0.12699999809E+01 0. -1.
       -4    1    3    3    0  502 -0.59831760726E+03 -0.52722765772E+03  0.25170798049E+04  0.26403873427E+04  0.12699999809E+01 0.  1.
</event>
<event>
 5   0  0.3041329E-06  0.3121231E+04  0.7818609E-02  0.8209935E-01
       -2   -1    0    0    0  501  0.00000000000E+00  0.00000000000E+00  0.15767973242E+04  0.15767973242E+04  0.25500000920E-02 0.  1.
        2   -1    0    0  501    0  0.00000000000E+00  0.00000000000E+00 -0.15445995275E+04  0.15445995275E+04  0.25500000920E-02 0. -1.
    10030    2    1    2    0    0  0.00000000000E+00  0.00000000000E+00  0.32197796674E+02  0.31213968517E+04  0.31212307841E+04 0.  0.
        2    1    3    3  502    0  0.38415324646E+03 -0.12464104475E+04 -0.84092259092E+03  0.15518580877E+04  0.25500000920E-02 0. -1.
       -2    1    3    3    0  502 -0.38415324646E+03  0.12464104475E+04  0.87312038759E+03  0.15695387640E+04  0.25500000920E-02 0.  1.
</event>
<event>
 5   0  0.1125196E-06  0.1817212E+04  0.7818609E-02  0.8697200E-01
        1   -1    0    0  501    0  0.00000000000E+00  0.00000000000E+00  0.87089854522E+03  0.87089854523E+03  0.50400001928E-02 0.  1.
       -1   -1    0    0    0  501  0.00000000000E+00  0.00000000000E+00 -0.94794581569E+03  0.94794581570E+03  0.50400001928E-02 0. -1.
    10030    2    1    2    0    0  0.00000000000E+00  0.00000000000E+00 -0.77047270472E+02  0.18188443609E+04  0.18172117453E+04 0.  0.
        4    1    3    3  502    0  0.26578304030E+03 -0.86634414528E+03 -0.10469063964E+03  0.91222505200E+03  0.12699999809E+01 0.  1.
       -4    1    3    3    0  502 -0.26578304030E+03  0.86634414528E+03  0.27643369172E+02  0.90661930893E+03  0.12699999809E+01 0. -1.
</event>
<event>
 5   0  0.1130707E-06  0.3580904E+04  0.7818609E-02  0.8094880E-01
       -1   -1    0    0    0  501  0.00000000000E+00  0.00000000000E+00  0.15882340161E+04  0.15882340161E+04  0.50400001928E-02 0.  1.
        1   -1    0    0  501    0  0.00000000000E+00  0.00000000000E+00 -0.20184168283E+04  0.20184168283E+04  0.50400001928E-02 0. -1.
    10030    2    1    2    0    0  0.00000000000E+00  0.00000000000E+00 -0.43018281218E+03  0.36066508445E+04  0.35809039448E+04 0.  0.
        3    1    3    3  502    0 -0.17531463352E+04  0.23309871334E+02  0.15035738788E+03  0.17597365647E+04  0.10100000352E+00 0.  1.
       -3    1    3    3    0  502  0.17531463352E+04 -0.23309871334E+02 -0.58054020006E+03  0.18469142798E+04  0.10100000352E+00 0. -1.
</event>
<event>
 5   0  0.3378848E-06  0.2521270E+04  0.7818609E-02  0.8395447E-01
       -2   -1    0    0    0  501  0.00000000000E+00  0.00000000000E+00  0.19944506287E+04  0.19944506287E+04  0.25500000920E-02 0.  1.
        2   -1    0    0  501    0  0.00000000000E+00  0.00000000000E+00 -0.79681135873E+03  0.79681135874E+03  0.25500000920E-02 0. -1.
    10030    2    1    2    0    0  0.00000000000E+00  0.00000000000E+00  0.11976392700E+04  0.27912619875E+04  0.25212702476E+04 0.  0.
        1    1    3    3  502    0 -0.48358874990E+03  0.38067265583E+03  0.18168307482E+04  0.19182397445E+04  0.50400001928E-02 0.  1.
       -1    1    3    3    0  502  0.48358874990E+03 -0.38067265583E+03 -0.61919147820E+03  0.87302224292E+03  0.50400001928E-02 0. -1.
</event>
<event>
 5   0  0.1102175E-06  0.3453502E+04  0.7818609E-02  0.8124899E-01
        1   -1    0    0  501    0  0.00000000000E+00  0.00000000000E+00  0.22764824625E+04  0.22764824625E+04  0.50400001928E-02 0.  1.
       -1   -1    0    0    0  501  0.00000000000E+00  0.00000000000E+00 -0.13097703131E+04  0.13097703131E+04  0.50400001928E-02 0. -1.
    10030    2    1    2    0    0  0.00000000000E+00  0.00000000000E+00  0.96671214933E+03  0.35862527756E+04  0.34535020763E+04 0.  0.
        5    1    3    3  502    0 -0.70219358596E+03 -0.14032095769E+03  0.21150221237E+04  0.22329591302E+04  0.46999998093E+01 0.  1.
       -5    1    3    3    0  502  0.70219358596E+03  0.14032095769E+03 -0.11483099744E+04  0.13532936454E+04  0.46999998093E+01 0. -1.
</event>
<event>
 5   0  0.1089337E-06  0.3452819E+04  0.7818609E-02  0.8125063E-01
       -1   -1    0    0    0  501  0.00000000000E+00  0.00000000000E+00  0.20056588541E+04  0.20056588541E+04  0.50400001928E-02 0. -1.
        1   -1    0    0  501    0  0.00000000000E+00  0.00000000000E+00 -0.14860399046E+04  0.14860399046E+04  0.50400001928E-02 0.  1.
    10030    2    1    2    0    0  0.00000000000E+00  0.00000000000E+00  0.51961894945E+03  0.34916987587E+04  0.34528186122E+04 0.  0.
        2    1    3    3  502    0 -0.95044551504E+03  0.10402828623E+04 -0.74889628723E+03  0.15957383118E+04  0.25500000920E-02 0.  1.
       -2    1    3    3    0  502  0.95044551504E+03 -0.10402828623E+04  0.12685152367E+04  0.18959604469E+04  0.25500000920E-02 0. -1.
</event>
<event>
 5   0  0.1102175E-06  0.3472162E+04  0.7818609E-02  0.8120419E-01
       -1   -1    0    0    0  501  0.00000000000E+00  0.00000000000E+00  0.15878805847E+04  0.15878805847E+04  0.50400001928E-02 0. -1.
        1   -1    0    0  501    0  0.00000000000E+00  0.00000000000E+00 -0.18981136381E+04  0.18981136381E+04  0.50400001928E-02 0.  1.
    10030    2    1    2    0    0  0.00000000000E+00  0.00000000000E+00 -0.31023305345E+03  0.34859942228E+04  0.34721623197E+04 0.  0.
        5    1    3    3  502    0 -0.13317176403E+04 -0.10601089053E+04 -0.49802205382E+03  0.17735136935E+04  0.46999998093E+01 0. -1.
       -5    1    3    3    0  502  0.13317176403E+04  0.10601089053E+04  0.18778900037E+03  0.17124805294E+04  0.46999998093E+01 0.  1.
</event>
<event>
 5   0  0.3041329E-06  0.3060064E+04  0.7818609E-02  0.8226784E-01
        2   -1    0    0  501    0  0.00000000000E+00  0.00000000000E+00  0.18046533281E+04  0.18046533281E+04  0.25500000920E-02 0. -1.
       -2   -1    0    0    0  501  0.00000000000E+00  0.00000000000E+00 -0.12972009581E+04  0.12972009581E+04  0.25500000920E-02 0.  1.
    10030    2    1    2    0    0  0.00000000000E+00  0.00000000000E+00  0.50745236998E+03  0.31018542863E+04  0.30600640688E+04 0.  0.
        2    1    3    3  502    0 -0.59584503187E+03  0.88928398969E+03 -0.85442851550E+03  0.13696369608E+04  0.25500000920E-02 0.  1.
       -2    1    3    3    0  502  0.59584503187E+03 -0.88928398969E+03  0.13618808855E+04  0.17322173254E+04  0.25500000920E-02 0. -1.
</event>
<event>
 5   0  0.1908726E-06  0.3496269E+04  0.7818609E-02  0.8114675E-01
       -2   -1    0    0    0  501  0.00000000000E+00  0.00000000000E+00  0.14077521245E+04  0.14077521245E+04  0.25500000920E-02 0.  1.
        2   -1    0    0  501    0  0.00000000000E+00  0.00000000000E+00 -0.21708185376E+04  0.21708185376E+04  0.25500000920E-02 0. -1.
    10030    2    1    2    0    0  0.00000000000E+00  0.00000000000E+00 -0.76306641307E+03  0.35785706621E+04  0.34962691019E+04 0.  0.
        5    1    3    3  502    0  0.10452690372E+03  0.16550098906E+04  0.18463209619E+03  0.16685606710E+04  0.46999998093E+01 0. -1.
       -5    1    3    3    0  502 -0.10452690372E+03 -0.16550098906E+04 -0.94769850926E+03  0.19100099911E+04  0.46999998093E+01 0.  1.
</event>
<event>
 5   0  0.3378848E-06  0.3108405E+04  0.7818609E-02  0.8213435E-01
        2   -1    0    0  501    0  0.00000000000E+00  0.00000000000E+00  0.86598563638E+03  0.86598563638E+03  0.25500000920E-02 0. -1.
       -2   -1    0    0    0  501  0.00000000000E+00  0.00000000000E+00 -0.27893598967E+04  0.27893598967E+04  0.25500000920E-02 0.  1.
    10030    2    1    2    0    0  0.00000000000E+00  0.00000000000E+00 -0.19233742603E+04  0.36553455331E+04  0.31084051250E+04 0.  0.
        1    1    3    3  502    0 -0.65195745849E+03  0.10052085249E+04  0.20248065895E+03  0.12151095109E+04  0.50400001928E-02 0. -1.
       -1    1    3    3    0  502  0.65195745849E+03 -0.10052085249E+04 -0.21258549193E+04  0.24402360222E+04  0.50400001928E-02 0.  1.
</event>
<event>
 5   0  0.2565004E-06  0.3372026E+04  0.7818609E-02  0.8144806E-01
       -2   -1    0    0    0  501  0.00000000000E+00  0.00000000000E+00  0.11166339495E+04  0.11166339495E+04  0.25500000920E-02 0. -1.
        2   -1    0    0  501    0  0.00000000000E+00  0.00000000000E+00 -0.25457229005E+04  0.25457229005E+04  0.25500000920E-02 0.  1.
    10030    2    1    2    0    0  0.00000000000E+00  0.00000000000E+00 -0.14290889510E+04  0.36623568500E+04  0.33720264629E+04 0.  0.
        3    1    3    3  502    0 -0.12092684753E+04 -0.72808378465E+03  0.28691031674E+03  0.14404005633E+04  0.10100000352E+00 0. -1.
       -3    1    3    3    0  502  0.12092684753E+04  0.72808378465E+03 -0.17159992677E+04  0.22219562866E+04  0.10100000352E+00 0.  1.
</event>
<event>
 5   0  0.1908726E-06  0.2636113E+04  0.7818609E-02  0.8356037E-01
       -2   -1    0    0    0  501  0.00000000000E+00  0.00000000000E+00  0.11520201564E+04  0.11520201564E+04  0.25500000920E-02 0.  1.
        2   -1    0    0  501    0  0.00000000000E+00  0.00000000000E+00 -0.15080228899E+04  0.15080228899E+04  0.25500000920E-02 0. -1.
    10030    2    1    2    0    0  0.00000000000E+00  0.00000000000E+00 -0.35600273346E+03  0.26600430463E+04  0.26361128697E+04 0.  0.
        5    1    3    3  502    0  0.61548444395E+03 -0.10157716321E+04  0.39870896086E+03  0.12528383913E+04  0.46999998093E+01 0.  1.
       -5    1    3    3    0  502 -0.61548444395E+03  0.10157716321E+04 -0.75471169432E+03  0.14072046549E+04  0.46999998093E+01 0. -1.
</event>
<event>
 5   0  0.3378848E-06  0.2047716E+04  0.7818609E-02  0.8584631E-01
       -2   -1    0    0    0  501  0.00000000000E+00  0.00000000000E+00  0.94800270293E+03  0.94800270293E+03  0.25500000920E-02 0.  1.
        2   -1    0    0  501    0  0.00000000000E+00  0.00000000000E+00 -0.11057827009E+04  0.11057827009E+04  0.25500000920E-02 0. -1.
    10030    2    1    2    0    0  0.00000000000E+00  0.00000000000E+00 -0.15777999800E+03  0.20537854039E+04  0.20477157902E+04 0.  0.
        1    1    3    3  502    0  0.66410525838E+03  0.71479688387E+03 -0.39015584428E+03  0.10508053874E+04  0.50400001928E-02 0. -1.
       -1    1    3    3    0  502 -0.66410525838E+03 -0.71479688387E+03  0.23237584628E+03  0.10029800164E+04  0.50400001928E-02 0.  1.
</event>
<event>
 5   0  0.1782660E-06  0.2527980E+04  0.7818609E-02  0.8393085E-01
        2   -1    0    0  501    0  0.00000000000E+00  0.00000000000E+00  0.18767666939E+04  0.18767666939E+04  0.25500000920E-02 0.  1.
       -2   -1    0    0    0  501  0.00000000000E+00  0.00000000000E+00 -0.85128918357E+03  0.85128918358E+03  0.25500000920E-02 0. -1.
    10030    2    1    2    0    0  0.00000000000E+00  0.00000000000E+00  0.10254775103E+04  0.27280558775E+04  0.25279803691E+04 0.  0.
        4    1    3    3  502    0  0.12189836664E+04  0.28275011029E+03  0.32029741089E+03  0.12916891453E+04  0.12699999809E+01 0.  1.
       -4    1    3    3    0  502 -0.12189836664E+04 -0.28275011029E+03  0.70518009943E+03  0.14363667322E+04  0.12699999809E+01 0. -1.
</event>
<event>
 5   0  0.1110956E-06  0.3696161E+04  0.7818609E-02  0.8068813E-01
       -1   -1    0    0    0  501  0.00000000000E+00  0.00000000000E+00  0.22546896595E+04  0.22546896595E+04  0.50400001928E-02 0.  1.
        1   -1    0    0  501    0  0.00000000000E+00  0.00000000000E+00 -0.15147988536E+04  0.15147988536E+04  0.50400001928E-02 0. -1.
    10030    2    1    2    0    0  0.00000000000E+00  0.00000000000E+00  0.73989080583E+03  0.37694885131E+04  0.36961608793E+04 0.  0.
        1    1    3    3  502    0  0.14925711913E+04 -0.49717576241E+03 -0.61906108171E+03  0.16906179706E+04  0.50400001928E-02 0. -1.
       -1    1    3    3    0  502 -0.14925711913E+04  0.49717576241E+03  0.13589518875E+04  0.20788705425E+04  0.50400001928E-02 0.  1.
</event>
<event>
 5   0  0.3378848E-06  0.3528146E+04  0.7818609E-02  0.8107152E-01
        2   -1    0    0  501    0  0.00000000000E+00  0.00000000000E+00  0.23764448988E+04  0.23764448988E+04  0.25500000920E-02 0.  1.
       -2   -1    0    0    0  501  0.00000000000E+00  0.00000000000E+00 -0.13094996938E+04  0.13094996938E+04  0.25500000920E-02 0. -1.
    10030    2    1    2    0    0  0.00000000000E+00  0.00000000000E+00  0.10669452050E+04  0.36859445926E+04  0.35281461802E+04 0.  0.
        1    1    3    3  502    0 -0.11830516473E+04  0.96421614365E+03  0.14577034264E+04  0.21105030801E+04  0.50400001928E-02 0.  1.
       -1    1    3    3    0  502  0.11830516473E+04 -0.96421614365E+03 -0.39075822138E+03  0.15754415125E+04  0.50400001928E-02 0. -1.
</event>
<event>
 5   0  0.1908726E-06  0.3383424E+04  0.7818609E-02  0.8141987E-01
        2   -1    0    0  501    0  0.00000000000E+00  0.00000000000E+00  0.20340658545E+04  0.20340658545E+04  0.25500000920E-02 0. -1.
       -2   -1    0    0    0  501  0.00000000000E+00  0.00000000000E+00 -0.14069797324E+04  0.14069797324E+04  0.25500000920E-02 0.  1.
    10030    2    1    2    0    0  0.00000000000E+00  0.00000000000E+00  0.62708612211E+03  0.34410455870E+04  0.33834239650E+04 0.  0.
        5    1    3    3  502    0  0.14687106926E+04  0.83599155896E+03  0.23559341395E+03  0.17063174769E+04  0.46999998093E+01 0. -1.
       -5    1    3    3    0  502 -0.14687106926E+04 -0.83599155896E+03  0.39149270816E+03  0.17347281101E+04  0.46999998093E+01 0.  1.
</event>
<event>
 5   0  0.1089337E-06  0.3384312E+04  0.7818609E-02  0.8141767E-01
        1   -1    0    0  501    0  0.00000000000E+00  0.00000000000E+00  0.11326429161E+04  0.11326429161E+04  0.50400001928E-02 0. -1.
       -1   -1    0    0    0  501  0.00000000000E+00  0.00000000000E+00 -0.25280622662E+04  0.25280622662E+04  0.50400001928E-02 0.  1.
    10030    2    1    2    0    0  0.00000000000E+00  0.00000000000E+00 -0.13954193501E+04  0.36607051823E+04  0.33843119344E+04 0.  0.
        2    1    3    3  502    0  0.16670613590E+04  0.20162786449E+03 -0.47173547116E+03  0.17442137843E+04  0.25500000920E-02 0.  1.
       -2    1    3    3    0  502 -0.16670613590E+04 -0.20162786449E+03 -0.92368387890E+03  0.19164913980E+04  0.25500000920E-02 0. -1.
</event>
<event>
 5   0  0.1110956E-06  0.3568143E+04  0.7818609E-02  0.8097828E-01
        1   -1    0    0  501    0  0.00000000000E+00  0.00000000000E+00  0.21223173547E+04  0.21223173547E+04  0.50400001928E-02 0. -1.
       -1   -1    0    0    0  501  0.00000000000E+00  0.00000000000E+00 -0.14997339431E+04  0.14997339431E+04  0.50400001928E-02 0.  1.
    10030    2    1    2    0    0  0.00000000000E+00  0.00000000000E+00  0.62258341157E+03  0.36220512978E+04  0.35681431445E+04 0.  0.
        1    1    3    3  502    0  0.44197885398E+03  0.97167066425E+03 -0.11397883744E+04  0.15616038952E+04  0.50400001928E-02 0.  1.
       -1    1    3    3    0  502 -0.44197885398E+03 -0.97167066425E+03  0.17623717859E+04  0.20604474026E+04  0.50400001928E-02 0. -1.
</event>
<event>
 5   0  0.1102175E-06  0.3455282E+04  0.7818609E-02  0.8124470E-01
       -1   -1    0    0    0  501  0.00000000000E+00  0.00000000000E+00  0.11137366050E+04  0.11137366050E+04  0.50400001928E-02 0.  1.
        1   -1    0    0  501    0  0.00000000000E+00  0.00000000000E+00 -0.26799370066E+04  0.26799370066E+04  0.50400001928E-02 0. -1.
    10030    2    1    2    0    0  0.00000000000E+00  0.00000000000E+00 -0.15662004016E+04  0.37936736116E+04  0.34552823001E+04 0.  0.
        5    1    3    3  502    0 -0.15450714669E+04  0.68033987109E+03 -0.11859294709E+04  0.20631429853E+04  0.46999998093E+01 0. -1.
       -5    1    3    3    0  502  0.15450714669E+04 -0.68033987109E+03 -0.38027093069E+03  0.17305306263E+04  0.46999998093E+01 0.  1.
</event>
<event>
 5   0  0.1782660E-06  0.3445879E+04  0.7818609E-02  0.8126737E-01
       -2   -1    0    0    0  501  0.00000000000E+00  0.00000000000E+00  0.16485986984E+04  0.16485986984E+04  0.25500000920E-02 0. -1.
        2   -1    0    0  501    0  0.00000000000E+00  0.00000000000E+00 -0.18006330812E+04  0.18006330812E+04  0.25500000920E-02 0.  1.
    10030    2    1    2    0    0  0.00000000000E+00  0.00000000000E+00 -0.15203438274E+03  0.34492317796E+04  0.34458794836E+04 0.  0.
        4    1    3    3  502    0 -0.15917691317E+04 -0.30543723102E+03  0.50893036383E+03  0.16988327166E+04  0.12699999809E+01 0. -1.
       -4    1    3    3    0  502  0.15917691317E+04  0.30543723102E+03 -0.66096474658E+03  0.17503990630E+04  0.12699999809E+01 0.  1.
</event>
<event>
 5   0  0.1782660E-06  0.2693760E+04  0.7818609E-02  0.8337033E-01
       -2   -1    0    0    0  501  0.00000000000E+00  0.00000000000E+00  0.15029308449E+04  0.15029308449E+04  0.25500000920E-02 0. -1.
        2   -1    0    0  501    0  0.00000000000E+00  0.00000000000E+00 -0.12070318450E+04  0.12070318450E+04  0.25500000920E-02 0.  1.
    10030    2    1    2    0    0  0.00000000000E+00  0.00000000000E+00  0.29589899994E+03  0.27099626899E+04  0.26937597448E+04 0.  0.
        4    1    3    3  502    0 -0.37920535364E+03 -0.92550851081E+03  0.10554403082E+04  0.14540696548E+04  0.12699999809E+01 0. -1.
       -4    1    3    3    0  502  0.37920535364E+03  0.92550851081E+03 -0.75954130827E+03  0.12558930351E+04  0.12699999809E+01 0.  1.
</event>
<event>
 5   0  0.1908726E-06  0.2798033E+04  0.7818609E-02  0.8303879E-01
        2   -1    0    0  501    0  0.00000000000E+00  0.00000000000E+00  0.21338134246E+04  0.21338134246E+04  0.25500000920E-02 0. -1.
       -2   -1    0    0    0  501  0.00000000000E+00  0.00000000000E+00 -0.91725309017E+03  0.91725309017E+03  0.25500000920E-02 0.  1.
    10030    2    1    2    0    0  0.00000000000E+00  0.00000000000E+00  0.12165603344E+04  0.30510665147E+04  0.27980328501E+04 0.  0.
        5    1    3    3  502    0  0.10922075792E+04 -0.85228295628E+03  0.82062421729E+03  0.16102017978E+04  0.46999998093E+01 0. -1.
       -5    1    3    3    0  502 -0.10922075792E+04  0.85228295628E+03  0.39593611710E+03  0.14408647169E+04  0.46999998093E+01 0.  1.
</event>
<event>
 5   0  0.1110956E-06  0.3461618E+04  0.7818609E-02  0.8122947E-01
       -1   -1    0    0    0  501  0.00000000000E+00  0.00000000000E+00  0.13660961580E+04  0.13660961580E+04  0.50400001928E-02 0. -1.
        1   -1    0    0  501    0  0.00000000000E+00  0.00000000000E+00 -0.21928906842E+04  0.21928906842E+04  0.50400001928E-02 0.  1.
    10030    2    1    2    0    0  0.00000000000E+00  0.00000000000E+00 -0.82679452617E+03  0.35589868422E+04  0.34616178522E+04 0.  0.
        1    1    3    3  502    0  0.68425970366E+03  0.63654590272E+03  0.10843908955E+04  0.14315396056E+04  0.50400001928E-02 0. -1.
       -1    1    3    3    0  502 -0.68425970366E+03 -0.63654590272E+03 -0.19111854216E+04  0.21274472365E+04  0.50400001928E-02 0.  1.
</event>
<event>
 5   0  0.1110956E-06  0.3520632E+04  0.7818609E-02  0.8108918E-01
       -1   -1    0    0    0  501  0.00000000000E+00  0.00000000000E+00  0.14335819699E+04  0.14335819699E+04  0.50400001928E-02 0.  1.
        1   -1    0    0  501    0  0.00000000000E+00  0.00000000000E+00 -0.21615169165E+04  0.21615169165E+04  0.50400001928E-02 0. -1.
    10030    2    1    2    0    0  0.00000000000E+00  0.00000000000E+00 -0.72793494663E+03  0.35950988864E+04  0.35206315792E+04 0.  0.
        1    1    3    3  502    0 -0.12157826920E+04  0.29522539209E+03  0.90054082823E+03  0.15415120400E+04  0.50400001928E-02 0.  1.
       -1    1    3    3    0  502  0.12157826920E+04 -0.29522539209E+03 -0.16284757749E+04  0.20535868464E+04  0.50400001928E-02 0. -1.
</event>
<event>
 5   0  0.3041329E-06  0.3071540E+04  0.7818609E-02  0.8223592E-01
       -2   -1    0    0    0  501  0.00000000000E+00  0.00000000000E+00  0.85526813590E+03  0.85526813590E+03  0.25500000920E-02 0.  1.
        2   -1    0    0  501    0  0.00000000000E+00  0.00000000000E+00 -0.27577193169E+04  0.27577193169E+04  0.25500000920E-02 0. -1.
    10030    2    1    2    0    0  0.00000000000E+00  0.00000000000E+00 -0.19024511810E+04  0.36129874528E+04  0.30715399782E+04 0.  0.
        2    1    3    3  502    0 -0.13475798626E+04  0.73489651171E+03 -0.89188362940E+03  0.17752466807E+04  0.25500000920E-02 0.  1.
       -2    1    3    3    0  502  0.13475798626E+04 -0.73489651171E+03 -0.10105675516E+04  0.18377407721E+04  0.25500000920E-02 0. -1.
</event>
<event>
 5   0  0.3021018E-06  0.1727516E+04  0.7818609E-02  0.8745825E-01
        2   -1    0    0  501    0  0.00000000000E+00  0.00000000000E+00  0.10938334375E+04  0.10938334375E+04  0.25500000920E-02 0.  1.
       -2   -1    0    0    0  501  0.00000000000E+00  0.00000000000E+00 -0.68207627381E+03  0.68207627382E+03  0.25500000920E-02 0. -1.
    10030    2    1    2    0    0  0.00000000000E+00  0.00000000000E+00  0.41175716367E+03  0.17759097113E+04  0.17275159452E+04 0.  0.
        3    1    3    3  502    0  0.22193125854E+03  0.72652132083E+03 -0.21672264078E+03  0.78997178833E+03  0.10100000352E+00 0. -1.
       -3    1    3    3    0  502 -0.22193125854E+03 -0.72652132083E+03  0.62847980445E+03  0.98593792296E+03  0.10100000352E+00 0.  1.
</event>
<event>
 5   0  0.1782660E-06  0.3336341E+04  0.7818609E-02  0.8153710E-01
       -2   -1    0    0    0  501  0.00000000000E+00  0.00000000000E+00  0.14355456285E+04  0.14355456285E+04  0.25500000920E-02 0. -1.
        2   -1    0    0  501    0  0.00000000000E+00  0.00000000000E+00 -0.19384913321E+04  0.19384913321E+04  0.25500000920E-02 0.  1.
    10030    2    1    2    0    0  0.00000000000E+00  0.00000000000E+00 -0.50294570363E+03  0.33740369606E+04  0.33363409644E+04 0.  0.
        4    1    3    3  502    0  0.16192103191E+04 -0.39927217065E+03 -0.21190507952E+03  0.16811203703E+04  0.12699999809E+01 0. -1.
       -4    1    3    3    0  502 -0.16192103191E+04  0.39927217065E+03 -0.29104062410E+03  0.16929165903E+04  0.12699999809E+01 0.  1.
</event>
<event>
 5   0  0.3041329E-06  0.2109881E+04  0.7818609E-02  0.8556903E-01
       -2   -1    0    0    0  501  0.00000000000E+00  0.00000000000E+00  0.75716654984E+03  0.75716654984E+03  0.25500000920E-02 0.  1.
        2   -1    0    0  501    0  0.00000000000E+00  0.00000000000E+00 -0.14698207361E+04  0.14698207361E+04  0.25500000920E-02 0. -1.
    10030    2    1    2    0    0  0.00000000000E+00  0.00000000000E+00 -0.71265418630E+03  0.22269872860E+04  0.21098806560E+04 0.  0.
        2    1    3    3  502    0 -0.96826656452E+03  0.41179926626E+03 -0.43657538344E+03  0.11391737537E+04  0.25500000920E-02 0. -1.
       -2    1    3    3    0  502  0.96826656452E+03 -0.41179926626E+03 -0.27607880286E+03  0.10878135323E+04  0.25500000920E-02 0.  1.
</event>
<event>
 5   0  0.3378848E-06  0.3449077E+04  0.7818609E-02  0.8125965E-01
       -2   -1    0    0    0  501  0.00000000000E+00  0.00000000000E+00  0.21572733977E+04  0.21572733977E+04  0.25500000920E-02 0. -1.
        2   -1    0    0  501    0  0.00000000000E+00  0.00000000000E+00 -0.13786077216E+04  0.13786077216E+04  0.25500000920E-02 0.  1.
    10030    2    1    2    0    0  0.00000000000E+00  0.00000000000E+00  0.77866567611E+03  0.35358811193E+04  0.34490774208E+04 0.  0.
        1    1    3    3  502    0 -0.82930989037E+03 -0.11317331141E+04  0.14172944602E+04  0.19943165051E+04  0.50400001928E-02 0. -1.
       -1    1    3    3    0  502  0.82930989037E+03  0.11317331141E+04 -0.63862878406E+03  0.15415646141E+04  0.50400001928E-02 0.  1.
</event>
<event>
 5   0  0.1110956E-06  0.3583913E+04  0.7818609E-02  0.8094187E-01
       -1   -1    0    0    0  501  0.00000000000E+00  0.00000000000E+00  0.12442655234E+04  0.12442655234E+04  0.50400001928E-02 0. -1.
        1   -1    0    0  501    0  0.00000000000E+00  0.00000000000E+00 -0.25807261834E+04  0.25807261834E+04  0.50400001928E-02 0.  1.
    10030    2    1    2    0    0  0.00000000000E+00  0.00000000000E+00 -0.13364606600E+04  0.38249917068E+04  0.35839132888E+04 0.  0.
        1    1    3    3  502    0  0.36630701716E+03 -0.56527520541E+03  0.11040084618E+04  0.12932716545E+04  0.50400001928E-02 0. -1.
       -1    1    3    3    0  502 -0.36630701716E+03  0.56527520541E+03 -0.24404691218E+04  0.25317200522E+04  0.50400001928E-02 0.  1.
</event>
<event>
 5   0  0.2565004E-06  0.3505303E+04  0.7818609E-02  0.8112534E-01
        2   -1    0    0  501    0  0.00000000000E+00  0.00000000000E+00  0.17958757009E+04  0.17958757009E+04  0.25500000920E-02 0. -1.
       -2   -1    0    0    0  501  0.00000000000E+00  0.00000000000E+00 -0.17104681191E+04  0.17104681191E+04  0.25500000920E-02 0.  1.
    10030    2    1    2    0    0  0.00000000000E+00  0.00000000000E+00  0.85407581796E+02  0.35063438201E+04  0.35053034861E+04 0.  0.
        3    1    3    3  502    0  0.85358697662E+03  0.98283109221E+03 -0.11311948621E+04  0.17245780669E+04  0.10100000352E+00 0.  1.
       -3    1    3    3    0  502 -0.85358697662E+03 -0.98283109221E+03  0.12166024439E+04  0.17817657532E+04  0.10100000352E+00 0. -1.
</event>
<event>
 5   0  0.1110956E-06  0.2592308E+04  0.7818609E-02  0.8370819E-01
       -1   -1    0    0    0  501  0.00000000000E+00  0.00000000000E+00  0.18726355634E+04  0.18726355634E+04  0.50400001928E-02 0. -1.
        1   -1    0    0  501    0  0.00000000000E+00  0.00000000000E+00 -0.89713916757E+03  0.89713916758E+03  0.50400001928E-02 0.  1.
    10030    2    1    2    0    0  0.00000000000E+00  0.00000000000E+00  0.97549639582E+03  0.27697747310E+04  0.25923076288E+04 0.  0.
        1    1    3    3  502    0  0.10077089618E+03 -0.12905375680E+04  0.41709466602E+03  0.13600036575E+04  0.50400001928E-02 0. -1.
       -1    1    3    3    0  502 -0.10077089618E+03  0.12905375680E+04  0.55840172980E+03  0.14097710735E+04  0.50400001928E-02 0.  1.
</event>
<event>
 5   0  0.1125196E-06  0.3392408E+04  0.7818609E-02  0.8139772E-01
       -1   -1    0    0    0  501  0.00000000000E+00  0.00000000000E+00  0.10885607651E+04  0.10885607651E+04  0.50400001928E-02 0.  1.
        1   -1    0    0  501    0  0.00000000000E+00  0.00000000000E+00 -0.26430386097E+04  0.26430386097E+04  0.50400001928E-02 0. -1.
    10030    2    1    2    0    0  0.00000000000E+00  0.00000000000E+00 -0.15544778445E+04  0.37315993748E+04  0.33924080717E+04 0.  0.
        4    1    3    3  502    0  0.15787772049E+04  0.13459222265E+03 -0.11135788007E+03  0.15884126415E+04  0.12699999809E+01 0.  1.
       -4    1    3    3    0  502 -0.15787772049E+04 -0.13459222265E+03 -0.14431199645E+04  0.21431867333E+04  0.12699999809E+01 0. -1.
</event>
<event>
 5   0  0.1102175E-06  0.2613689E+04  0.7818609E-02  0.8363566E-01
       -1   -1    0    0    0  501  0.00000000000E+00  0.00000000000E+00  0.10319895895E+04  0.10319895895E+04  0.50400001928E-02 0.  1.
        1   -1    0    0  501    0  0.00000000000E+00  0.00000000000E+00 -0.16549023911E+04  0.16549023911E+04  0.50400001928E-02 0. -1.
    10030    2    1    2    0    0  0.00000000000E+00  0.00000000000E+00 -0.62291280155E+03  0.26868919806E+04  0.26136886114E+04 0.  0.
        5    1    3    3  502    0 -0.10157708479E+04 -0.10797552768E+03  0.52646182330E+03  0.11491880923E+04  0.46999998093E+01 0.  1.
       -5    1    3    3    0  502  0.10157708479E+04  0.10797552768E+03 -0.11493746249E+04  0.15377038884E+04  0.46999998093E+01 0. -1.
</event>
<event>
 5   0  0.3378848E-06  0.3240932E+04  0.7818609E-02  0.8178090E-01
        2   -1    0    0  501    0  0.00000000000E+00  0.00000000000E+00  0.17558523584E+04  0.17558523584E+04  0.25500000920E-02 0. -1.
       -2   -1    0    0    0  501  0.00000000000E+00  0.00000000000E+00 -0.14955188037E+04  0.14955188037E+04  0.25500000920E-02 0.  1.
    10030    2    1    2    0    0  0.00000000000E+00  0.00000000000E+00  0.26033355471E+03  0.32513711620E+04  0.32409320995E+04 0.  0.
        1    1    3    3  502    0 -0.79078097167E+03  0.14065970935E+04 -0.18838696536E+02  0.16137548839E+04  0.50400001928E-02 0.  1.
       -1    1    3    3    0  502  0.79078097167E+03 -0.14065970935E+04  0.27917225124E+03  0.16376162782E+04  0.50400001928E-02 0. -1.
</event>
<event>
 5   0  0.1125196E-06  0.3491263E+04  0.7818609E-02  0.8115864E-01
        1   -1    0    0  501    0  0.00000000000E+00  0.00000000000E+00  0.12733798796E+04  0.12733798796E+04  0.50400001928E-02 0. -1.
       -1   -1    0    0    0  501  0.00000000000E+00  0.00000000000E+00 -0.23930241234E+04  0.23930241234E+04  0.50400001928E-02 0.  1.
    10030    2    1    2    0    0  0.00000000000E+00  0.00000000000E+00 -0.11196442438E+04  0.36664040030E+04  0.34912626770E+04 0.  0.
        4    1    3    3  502    0 -0.59289320797E+03 -0.15933478252E+04 -0.14378219993E+03  0.17061519809E+04  0.12699999809E+01 0. -1.
       -4    1    3    3    0  502  0.59289320797E+03  0.15933478252E+04 -0.97586204389E+03  0.19602520220E+04  0.12699999809E+01 0.  1.
</event>
<event>
 5   0  0.1110956E-06  0.2975436E+04  0.7818609E-02  0.8250780E-01
        1   -1    0    0  501    0  0.00000000000E+00  0.00000000000E+00  0.16594147350E+04  0.16594147350E+04  0.50400001928E-02 0. -1.
       -1   -1    0    0    0  501  0.00000000000E+00  0.00000000000E+00 -0.13337863610E+04  0.13337863610E+04  0.50400001928E-02 0.  1.
    10030    2    1    2    0    0  0.00000000000E+00  0.00000000000E+00  0.32562837400E+03  0.29932010960E+04  0.29754359283E+04 0.  0.
        1    1    3    3  502    0  0.13834739898E+04  0.18504012951E+03  0.68073237997E+03  0.15529445268E+04  0.50400001928E-02 0. -1.
       -1    1    3    3    0  502 -0.13834739898E+04 -0.18504012951E+03 -0.35510400597E+03  0.14402565692E+04  0.50400001928E-02 0.  1.
</event>
<event>
 5   0  0.1908726E-06  0.3440315E+04  0.7818609E-02  0.8128082E-01
       -2   -1    0    0    0  501  0.00000000000E+00  0.00000000000E+00  0.14927199238E+04  0.14927199238E+04  0.25500000920E-02 0.  1.
        2   -1    0    0  501    0  0.00000000000E+00  0.00000000000E+00 -0.19822490106E+04  0.19822490106E+04  0.25500000920E-02 0. -1.
    10030    2    1    2    0    0  0.00000000000E+00  0.00000000000E+00 -0.48952908686E+03  0.34749689344E+04  0.34403154460E+04 0.  0.
        5    1    3    3  502    0  0.49860082370E+03 -0.10230247414E+04  0.10580876309E+04  0.15539478523E+04  0.46999998093E+01 0.  1.
       -5    1    3    3    0  502 -0.49860082370E+03  0.10230247414E+04 -0.15476167177E+04  0.19210210821E+04  0.46999998093E+01 0. -1.
</event>
<event>
 5   0  0.1110956E-06  0.2578956E+04  0.7818609E-02  0.8375385E-01
        1   -1    0    0  501    0  0.00000000000E+00  0.00000000000E+00  0.18206513517E+04  0.18206513517E+04  0.50400001928E-02 0. -1.
       -1   -1    0    0    0  501  0.00000000000E+00  0.00000000000E+00 -0.91327384616E+03  0.91327384617E+03  0.50400001928E-02 0.  1.
    10030    2    1    2    0    0  0.00000000000E+00  0.00000000000E+00  0.90737750556E+03  0.27339251979E+04  0.25789558061E+04 0.  0.
        1    1    3    3  502    0  0.31369819421E+03  0.32329287325E+03 -0.82714757111E+03  0.94185877039E+03  0.50400001928E-02 0.  1.
       -1    1    3    3    0  502 -0.31369819421E+03 -0.32329287325E+03  0.17345250767E+04  0.17920664275E+04  0.50400001928E-02 0. -1.
</event>
<event>
 5   0  0.1782660E-06  0.3568124E+04  0.7818609E-02  0.8097833E-01
        2   -1    0    0  501    0  0.00000000000E+00  0.00000000000E+00  0.28901842487E+04  0.28901842487E+04  0.25500000920E-02 0.  1.
       -2   -1    0    0    0  501  0.00000000000E+00  0.00000000000E+00 -0.11012713702E+04  0.11012713702E+04  0.25500000920E-02 0. -1.
    10030    2    1    2    0    0  0.00000000000E+00  0.00000000000E+00  0.17889128785E+04  0.39914556189E+04  0.35681239707E+04 0.  0.
        4    1    3    3  502    0  0.68233252090E+03  0.53189459758E+03 -0.85090787660E+03  0.12134806794E+04  0.12699999809E+01 0. -1.
       -4    1    3    3    0  502 -0.68233252090E+03 -0.53189459758E+03  0.26398207551E+04  0.27779749394E+04  0.12699999809E+01 0.  1.
</event>
<event>
 5   0  0.3378848E-06  0.3148145E+04  0.7818609E-02  0.8202648E-01
        2   -1    0    0  501    0  0.00000000000E+00  0.00000000000E+00  0.17585028129E+04  0.17585028129E+04  0.25500000920E-02 0.  1.
       -2   -1    0    0    0  501  0.00000000000E+00  0.00000000000E+00 -0.14089852129E+04  0.14089852129E+04  0.25500000920E-02 0. -1.
    10030    2    1    2    0    0  0.00000000000E+00  0.00000000000E+00  0.34951760004E+03  0.31674880258E+04  0.31481451429E+04 0.  0.
        1    1    3    3  502    0 -0.87173720801E+03  0.46121271704E+03 -0.10595884743E+04  0.14475395211E+04  0.50400001928E-02 0. -1.
       -1    1    3    3    0  502  0.87173720801E+03 -0.46121271704E+03  0.14091060743E+04  0.17199485047E+04  0.50400001928E-02 0.  1.
</event>
<event>
 5   0  0.1089337E-06  0.3539924E+04  0.7818609E-02  0.8104393E-01
        1   -1    0    0  501    0  0.00000000000E+00  0.00000000000E+00  0.18665664004E+04  0.18665664005E+04  0.50400001928E-02 0. -1.
       -1   -1    0    0    0  501  0.00000000000E+00  0.00000000000E+00 -0.16783574544E+04  0.16783574544E+04  0.50400001928E-02 0.  1.
    10030    2    1    2    0    0  0.00000000000E+00  0.00000000000E+00  0.18820894603E+03  0.35449238549E+04  0.35399240853E+04 0.  0.
        2    1    3    3  502    0  0.15774913661E+04 -0.45784399161E+02 -0.70839521203E+03  0.17298551956E+04  0.25500000920E-02 0.  1.
       -2    1    3    3    0  502 -0.15774913661E+04  0.45784399161E+02  0.89660415806E+03  0.18150686592E+04  0.25500000920E-02 0. -1.
</event>
<event>
 5   0  0.3041329E-06  0.3594161E+04  0.7818609E-02  0.8091831E-01
        2   -1    0    0  501    0  0.00000000000E+00  0.00000000000E+00  0.26450830579E+04  0.26450830579E+04  0.25500000920E-02 0. -1.
       -2   -1    0    0    0  501  0.00000000000E+00  0.00000000000E+00 -0.12209439197E+04  0.12209439197E+04  0.25500000920E-02 0.  1.
    10030    2    1    2    0    0  0.00000000000E+00  0.00000000000E+00  0.14241391382E+04  0.38660269776E+04  0.35941608627E+04 0.  0.
        2    1    3    3  502    0 -0.64550437756E+03  0.13072501343E+04  0.18422194017E+04  0.23493299341E+04  0.25500000920E-02 0. -1.
       -2    1    3    3    0  502  0.64550437756E+03 -0.13072501343E+04 -0.41808026351E+03  0.15166970435E+04  0.25500000920E-02 0.  1.
</event>
<event>
 5   0  0.1110956E-06  0.3501567E+04  0.7818609E-02  0.8113419E-01
        1   -1    0    0  501    0  0.00000000000E+00  0.00000000000E+00  0.24279265871E+04  0.24279265871E+04  0.50400001928E-02 0.  1.
       -1   -1    0    0    0  501  0.00000000000E+00  0.00000000000E+00 -0.12624939033E+04  0.12624939033E+04  0.50400001928E-02 0. -1.
    10030    2    1    2    0    0  0.00000000000E+00  0.00000000000E+00  0.11654326838E+04  0.36904204905E+04  0.35015668002E+04 0.  0.
        1    1    3    3  502    0 -0.15686060540E+04 -0.48260604562E+03  0.12253646467E+04  0.20481582130E+04  0.50400001928E-02 0.  1.
       -1    1    3    3    0  502  0.15686060540E+04  0.48260604562E+03 -0.59931962872E+02  0.16422622775E+04  0.50400001928E-02 0. -1.
</event>
<event>
 5   0  0.3041329E-06  0.3636937E+04  0.7818609E-02  0.8082083E-01
       -2   -1    0    0    0  501  0.00000000000E+00  0.00000000000E+00  0.17499722005E+04  0.17499722005E+04  0.25500000920E-02 0. -1.
        2   -1    0    0  501    0  0.00000000000E+00  0.00000000000E+00 -0.18896461014E+04  0.18896461014E+04  0.25500000920E-02 0.  1.
    10030    2    1    2    0    0  0.00000000000E+00  0.00000000000E+00 -0.13967390087E+03  0.36396183019E+04  0.36369372533E+04 0.  0.
        2    1    3    3  502    0  0.11052712874E+04 -0.13669756922E+04 -0.53556263901E+03  0.18376818283E+04  0.25500000920E-02 0.  1.
       -2    1    3    3    0  502 -0.11052712874E+04  0.13669756922E+04  0.39588873814E+03  0.18019364736E+04  0.25500000920E-02 0. -1.
</event>
<event>
 5   0  0.1908726E-06  0.3094061E+04  0.7818609E-02  0.8217370E-01
       -2   -1    0    0    0  501  0.00000000000E+00  0.00000000000E+00  0.11914239585E+04  0.11914239585E+04  0.25500000920E-02 0.  1.
        2   -1    0    0  501    0  0.00000000000E+00  0.00000000000E+00 -0.20087750008E+04  0.20087750008E+04  0.25500000920E-02 0. -1.
    10030    2    1    2    0    0  0.00000000000E+00  0.00000000000E+00 -0.81735104234E+03  0.32001989594E+04  0.30940605445E+04 0.  0.
        5    1    3    3  502    0 -0.15093895885E+04  0.28613172010E+03 -0.22035186076E+03  0.15520004264E+04  0.46999998093E+01 0.  1.
       -5    1    3    3    0  502  0.15093895885E+04 -0.28613172010E+03 -0.59699918158E+03  0.16481985329E+04  0.46999998093E+01 0. -1.
</event>
<event>
 5   0  0.1908726E-06  0.3489129E+04  0.7818609E-02  0.8116371E-01
        2   -1    0    0  501    0  0.00000000000E+00  0.00000000000E+00  0.22224838245E+04  0.22224838245E+04  0.25500000920E-02 0. -1.
       -2   -1    0    0    0  501  0.00000000000E+00  0.00000000000E+00 -0.13694159530E+04  0.13694159530E+04  0.25500000920E-02 0.  1.
    10030    2    1    2    0    0  0.00000000000E+00  0.00000000000E+00  0.85306787145E+03  0.35918997775E+04  0.34891287191E+04 0.  0.
        5    1    3    3  502    0 -0.57774121023E+03 -0.11118021882E+04  0.16762061031E+04  0.20927441319E+04  0.46999998093E+01 0. -1.
       -5    1    3    3    0  502  0.57774121023E+03  0.11118021882E+04 -0.82313823161E+03  0.14991556457E+04  0.46999998093E+01 0.  1.
</event>
<event>
 5   0  0.1908726E-06  0.1719807E+04  0.7818609E-02  0.8750147E-01
        2   -1    0    0  501    0  0.00000000000E+00  0.00000000000E+00  0.66926413413E+03  0.66926413414E+03  0.25500000920E-02 0.  1.
       -2   -1    0    0    0  501  0.00000000000E+00  0.00000000000E+00 -0.11048468756E+04  0.11048468756E+04  0.25500000920E-02 0. -1.
    10030    2    1    2    0    0  0.00000000000E+00  0.00000000000E+00 -0.43558274150E+03  0.17741110098E+04  0.17198074166E+04 0.  0.
        5    1    3    3  502    0  0.67649432978E+03 -0.37886617984E+03 -0.60132124772E+03  0.98122041021E+03  0.46999998093E+01 0. -1.
       -5    1    3    3    0  502 -0.67649432978E+03  0.37886617984E+03  0.16573850622E+03  0.79289059957E+03  0.46999998093E+01 0.  1.
</event>
<event>
 5   0  0.1042825E-06  0.3294869E+04  0.7818609E-02  0.8164202E-01
        3   -1    0    0  501    0  0.00000000000E+00  0.00000000000E+00  0.15059761298E+04  0.15059761332E+04  0.10100000352E+00 0.  1.
       -3   -1    0    0    0  501  0.00000000000E+00  0.00000000000E+00 -0.18021803354E+04  0.18021803382E+04  0.10100000352E+00 0. -1.
    10030    2    1    2    0    0  0.00000000000E+00  0.00000000000E+00 -0.29620420555E+03  0.33081564714E+04  0.32948690881E+04 0.  0.
        4    1    3    3  502    0  0.10734192924E+04 -0.45291258585E+03 -0.13175654601E+04  0.17587891125E+04  0.12699999809E+01 0. -1.
       -4    1    3    3    0  502 -0.10734192924E+04  0.45291258585E+03  0.10213612545E+04  0.15493673589E+04  0.12699999809E+01 0.  1.
</event>
<event>
 5   0  0.3041329E-06  0.2000754E+04  0.7818609E-02  0.8606268E-01
        2   -1    0    0  501    0  0.00000000000E+00  0.00000000000E+00  0.16071088113E+04  0.16071088113E+04  0.25500000920E-02 0.  1.
       -2   -1    0    0    0  501  0.00000000000E+00  0.00000000000E+00 -0.62270488477E+03  0.62270488477E+03  0.25500000920E-02 0. -1.
    10030    2    1    2    0    0  0.00000000000E+00  0.00000000000E+00  0.98440392658E+03  0.22298136961E+04  0.20007543649E+04 0.  0.
        2    1    3    3  502    0  0.60469124379E+03  0.74964891343E+03  0.19081730050E+03  0.98185346966E+03  0.25500000920E-02 0.  1.
       -2    1    3    3    0  502 -0.60469124379E+03 -0.74964891343E+03  0.79358662608E+03  0.12479602265E+04  0.25500000920E-02 0. -1.
</event>
<event>
 5   0  0.1130707E-06  0.3620387E+04  0.7818609E-02  0.8085838E-01
       -1   -1    0    0    0  501  0.00000000000E+00  0.00000000000E+00  0.19980677599E+04  0.19980677599E+04  0.50400001928E-02 0. -1.
        1   -1    0    0  501    0  0.00000000000E+00  0.00000000000E+00 -0.16399846942E+04  0.16399846943E+04  0.50400001928E-02 0.  1.
    10030    2    1    2    0    0  0.00000000000E+00  0.00000000000E+00  0.35808306564E+03  0.36380524541E+04  0.36203870204E+04 0.  0.
        3    1    3    3  502    0  0.77000264260E+03  0.15080781514E+04 -0.46407875534E+03  0.17557257422E+04  0.10100000352E+00 0.  1.
       -3    1    3    3    0  502 -0.77000264260E+03 -0.15080781514E+04  0.82216182098E+03  0.18823267120E+04  0.10100000352E+00 0. -1.
</event>
<event>
 5   0  0.1102175E-06  0.3351740E+04  0.7818609E-02  0.8149854E-01
       -1   -1    0    0    0  501  0.00000000000E+00  0.00000000000E+00  0.13251314692E+04  0.13251314692E+04  0.50400001928E-02 0. -1.
        1   -1    0    0  501    0  0.00000000000E+00  0.00000000000E+00 -0.21194422176E+04  0.21194422176E+04  0.50400001928E-02 0.  1.
    10030    2    1    2    0    0  0.00000000000E+00  0.00000000000E+00 -0.79431074840E+03  0.34445736869E+04  0.33517395960E+04 0.  0.
        5    1    3    3  502    0 -0.51464916961E+02  0.13830543071E+04  0.57402108201E+03  0.14983357923E+04  0.46999998093E+01 0.  1.
       -5    1    3    3    0  502  0.51464916961E+02 -0.13830543071E+04 -0.13683318304E+04  0.19462378945E+04  0.46999998093E+01 0. -1.
</event>
<event>
 5   0  0.2565004E-06  0.3188064E+04  0.7818609E-02  0.8191977E-01
       -2   -1    0    0    0  501  0.00000000000E+00  0.00000000000E+00  0.14033254676E+04  0.14033254676E+04  0.25500000920E-02 0. -1.
        2   -1    0    0  501    0  0.00000000000E+00  0.00000000000E+00 -0.18106547815E+04  0.18106547816E+04  0.25500000920E-02 0.  1.
    10030    2    1    2    0    0  0.00000000000E+00  0.00000000000E+00 -0.40732931393E+03  0.32139802492E+04  0.31880639693E+04 0.  0.
        3    1    3    3  502    0  0.14494540148E+04  0.65684596645E+03 -0.29701541956E+03  0.16188210940E+04  0.10100000352E+00 0. -1.
       -3    1    3    3    0  502 -0.14494540148E+04 -0.65684596645E+03 -0.11031389438E+03  0.15951591552E+04  0.10100000352E+00 0.  1.
</event>
<event>
 5   0  0.2565004E-06  0.3474234E+04  0.7818609E-02  0.8119923E-01
        2   -1    0    0  501    0  0.00000000000E+00  0.00000000000E+00  0.24566511415E+04  0.24566511415E+04  0.25500000920E-02 0.  1.
       -2   -1    0    0    0  501  0.00000000000E+00  0.00000000000E+00 -0.12283289988E+04  0.12283289988E+04  0.25500000920E-02 0. -1.
    10030    2    1    2    0    0  0.00000000000E+00  0.00000000000E+00  0.12283221427E+04  0.36849801403E+04  0.34742342104E+04 0.  0.
        3    1    3    3  502    0 -0.67535441194E+03 -0.50966449356E+02 -0.10825213743E+04  0.12769313594E+04  0.10100000352E+00 0. -1.
       -3    1    3    3    0  502  0.67535441194E+03  0.50966449356E+02  0.23108435171E+04  0.24080487809E+04  0.10100000352E+00 0.  1.
</event>
<event>
 5   0  0.1782660E-06  0.3013382E+04  0.7818609E-02  0.8239920E-01
       -2   -1    0    0    0  501  0.00000000000E+00  0.00000000000E+00  0.13678796374E+04  0.13678796374E+04  0.25500000920E-02 0.  1.
        2   -1    0    0  501    0  0.00000000000E+00  0.00000000000E+00 -0.16595892137E+04  0.16595892137E+04  0.25500000920E-02 0. -1.
    10030    2    1    2    0    0  0.00000000000E+00  0.00000000000E+00 -0.29170957633E+03  0.30274688510E+04  0.30133823467E+04 0.  0.
        4    1    3    3  502    0 -0.11978666140E+04 -0.88726776913E+03 -0.36594082575E+03  0.15349406568E+04  0.12699999809E+01 0.  1.
       -4    1    3    3    0  502  0.11978666140E+04  0.88726776913E+03  0.74231249423E+02  0.14925281942E+04  0.12699999809E+01 0. -1.
</event>
<event>
 5   0  0.1042825E-06  0.3667586E+04  0.7818609E-02  0.8075183E-01
       -3   -1    0    0    0  501  0.00000000000E+00  0.00000000000E+00  0.20501743823E+04  0.20501743848E+04  0.10100000352E+00 0.  1.
        3   -1    0    0  501    0  0.00000000000E+00  0.00000000000E+00 -0.16402487781E+04  0.16402487812E+04  0.10100000352E+00 0. -1.
    10030    2    1    2    0    0  0.00000000000E+00  0.00000000000E+00  0.40992560415E+03  0.36904231660E+04  0.36675856014E+04 0.  0.
        4    1    3    3  502    0 -0.12143479845E+03 -0.17166881448E+04 -0.43224963804E+03  0.17744311650E+04  0.12699999809E+01 0. -1.
       -4    1    3    3    0  502  0.12143479845E+03  0.17166881448E+04  0.84217524220E+03  0.19159920011E+04  0.12699999809E+01 0.  1.
</event>
<event>
 5   0  0.1089337E-06  0.2751138E+04  0.7818609E-02  0.8318601E-01
       -1   -1    0    0    0  501  0.00000000000E+00  0.00000000000E+00  0.11019861306E+04  0.11019861306E+04  0.50400001928E-02 0. -1.
        1   -1    0    0  501    0  0.00000000000E+00  0.00000000000E+00 -0.17170728735E+04  0.17170728735E+04  0.50400001928E-02 0.  1.
    10030    2    1    2    0    0  0.00000000000E+00  0.00000000000E+00 -0.61508674290E+03  0.28190590041E+04  0.27511383039E+04 0.  0.
        2    1    3    3  502    0  0.11582696825E+04  0.69406646167E+03 -0.57646025828E+03  0.14682041207E+04  0.25500000920E-02 0.  1.
       -2    1    3    3    0  502 -0.11582696825E+04 -0.69406646167E+03 -0.38626484620E+02  0.13508548834E+04  0.25500000920E-02 0. -1.
</event>
<event>
 5   0  0.1908726E-06  0.3369724E+04  0.7818609E-02  0.8145377E-01
       -2   -1    0    0    0  501  0.00000000000E+00  0.00000000000E+00  0.14953395439E+04  0.14953395439E+04  0.25500000920E-02 0.  1.
        2   -1    0    0  501    0  0.00000000000E+00  0.00000000000E+00 -0.18984043743E+04  0.18984043743E+04  0.25500000920E-02 0. -1.
    10030    2    1    2    0    0  0.00000000000E+00  0.00000000000E+00 -0.40306483042E+03  0.33937439183E+04  0.33697235087E+04 0.  0.
        5    1    3    3  502    0 -0.42290803448E+03 -0.16035699053E+04 -0.50105683301E+03  0.17324455798E+04  0.46999998093E+01 0. -1.
       -5    1    3    3    0  502  0.42290803448E+03  0.16035699053E+04  0.97992002590E+02  0.16612983385E+04  0.46999998093E+01 0.  1.
</event>
<event>
 5   0  0.1130707E-06  0.3637810E+04  0.7818609E-02  0.8081885E-01
       -1   -1    0    0    0  501  0.00000000000E+00  0.00000000000E+00  0.22840458736E+04  0.22840458736E+04  0.50400001928E-02 0. -1.
        1   -1    0    0  501    0  0.00000000000E+00  0.00000000000E+00 -0.14484892677E+04  0.14484892677E+04  0.50400001928E-02 0.  1.
    10030    2    1    2    0    0  0.00000000000E+00  0.00000000000E+00  0.83555660592E+03  0.37325351413E+04  0.36378102946E+04 0.  0.
        3    1    3    3  502    0  0.11070675115E+04 -0.31326304380E+03  0.18632497280E+04  0.21898474305E+04  0.10100000352E+00 0. -1.
       -3    1    3    3    0  502 -0.11070675115E+04  0.31326304380E+03 -0.10276931221E+04  0.15426877108E+04  0.10100000352E+00 0.  1.
</event>
<event>
 5   0  0.3041329E-06  0.3479288E+04  0.7818609E-02  0.8118716E-01
       -2   -1    0    0    0  501  0.00000000000E+00  0.00000000000E+00  0.10153535683E+04  0.10153535683E+04  0.25500000920E-02 0. -1.
        2   -1    0    0  501    0  0.00000000000E+00  0.00000000000E+00 -0.29805986354E+04  0.29805986354E+04  0.25500000920E-02 0.  1.
    10030    2    1    2    0    0  0.00000000000E+00  0.00000000000E+00 -0.19652450671E+04  0.39959522038E+04  0.34792881227E+04 0.  0.
        2    1    3    3  502    0  0.35885612244E+03  0.95141734716E+03  0.63850407261E+03  0.12006915240E+04  0.25500000920E-02 0. -1.
       -2    1    3    3    0  502 -0.35885612244E+03 -0.95141734716E+03 -0.26037491397E+04  0.27952606797E+04  0.25500000920E-02 0.  1.
</event>
<event>
 5   0  0.1908726E-06  0.3299747E+04  0.7818609E-02  0.8162960E-01
       -2   -1    0    0    0  501  0.00000000000E+00  0.00000000000E+00  0.20942851859E+04  0.20942851859E+04  0.25500000920E-02 0.  1.
        2   -1    0    0  501    0  0.00000000000E+00  0.00000000000E+00 -0.12997671421E+04  0.12997671421E+04  0.25500000920E-02 0. -1.
    10030    2    1    2    0    0  0.00000000000E+00  0.00000000000E+00  0.79451804378E+03  0.33940523280E+04  0.32997473059E+04 0.  0.
        5    1    3    3  502    0 -0.58049233099E+03 -0.78009699157E+03 -0.97370210420E+03  0.13760961232E+04  0.46999998093E+01 0. -1.
       -5    1    3    3    0  502  0.58049233099E+03  0.78009699157E+03  0.17682201480E+04  0.20179562048E+04  0.46999998093E+01 0.  1.
</event>
<event>
 5   0  0.3378848E-06  0.3351980E+04  0.7818609E-02  0.8149794E-01
        2   -1    0    0  501    0  0.00000000000E+00  0.00000000000E+00  0.25138633763E+04  0.25138633763E+04  0.25500000920E-02 0. -1.
       -2   -1    0    0    0  501  0.00000000000E+00  0.00000000000E+00 -0.11173804366E+04  0.11173804366E+04  0.25500000920E-02 0.  1.
    10030    2    1    2    0    0  0.00000000000E+00  0.00000000000E+00  0.13964829397E+04  0.36312438129E+04  0.33519795685E+04 0.  0.
        1    1    3    3  502    0  0.12650757935E+04 -0.12441131132E+03 -0.48502563344E+03  0.13605678236E+04  0.50400001928E-02 0.  1.
       -1    1    3    3    0  502 -0.12650757935E+04  0.12441131132E+03  0.18815085731E+04  0.22706759893E+04  0.50400001928E-02 0. -1.
</event>
<event>
 5   0  0.2565004E-06  0.3354634E+04  0.7818609E-02  0.8149131E-01
       -2   -1    0    0    0  501  0.00000000000E+00  0.00000000000E+00  0.22548972354E+04  0.22548972354E+04  0.25500000920E-02 0. -1.
        2   -1    0    0  501    0  0.00000000000E+00  0.00000000000E+00 -0.12476810817E+04  0.12476810817E+04  0.25500000920E-02 0.  1.
    10030    2    1    2    0    0  0.00000000000E+00  0.00000000000E+00  0.10072161537E+04  0.35025783171E+04  0.33546341808E+04 0.  0.
        3    1    3    3  502    0  0.13546096657E+04 -0.30290772178E+03  0.14867681373E+04  0.20340108010E+04  0.10100000352E+00 0. -1.
       -3    1    3    3    0  502 -0.13546096657E+04  0.30290772178E+03 -0.47955198360E+03  0.14685675161E+04  0.10100000352E+00 0.  1.
</event>
<event>
 5   0  0.1110956E-06  0.3412127E+04  0.7818609E-02  0.8134936E-01
       -1   -1    0    0    0  501  0.00000000000E+00  0.00000000000E+00  0.19710431891E+04  0.19710431891E+04  0.50400001928E-02 0. -1.
        1   -1    0    0  501    0  0.00000000000E+00  0.00000000000E+00 -0.14767068818E+04  0.14767068818E+04  0.50400001928E-02 0.  1.
    10030    2    1    2    0    0  0.00000000000E+00  0.00000000000E+00  0.49433630723E+03  0.34477500709E+04  0.34121272202E+04 0.  0.
        1    1    3    3  502    0 -0.52096630346E+03 -0.11570230953E+04 -0.90515212331E+03  0.15586560553E+04  0.50400001928E-02 0.  1.
       -1    1    3    3    0  502  0.52096630346E+03  0.11570230953E+04  0.13994884305E+04  0.18890940156E+04  0.50400001928E-02 0. -1.
</event>
<event>
 5   0  0.1125196E-06  0.3366584E+04  0.7818609E-02  0.8146157E-01
       -1   -1    0    0    0  501  0.00000000000E+00  0.00000000000E+00  0.13327646664E+04  0.13327646664E+04  0.50400001928E-02 0.  1.
        1   -1    0    0  501    0  0.00000000000E+00  0.00000000000E+00 -0.21260109047E+04  0.21260109048E+04  0.50400001928E-02 0. -1.
    10030    2    1    2    0    0  0.00000000000E+00  0.00000000000E+00 -0.79324623835E+03  0.34587755712E+04  0.33665841527E+04 0.  0.
        4    1    3    3  502    0 -0.15790567719E+04 -0.18371124301E+03 -0.96522298795E+03  0.18597922301E+04  0.12699999809E+01 0. -1.
       -4    1    3    3    0  502  0.15790567719E+04  0.18371124301E+03  0.17197674960E+03  0.15989833411E+04  0.12699999809E+01 0.  1.
</event>
<event>
 5   0  0.3378848E-06  0.3315127E+04  0.7818609E-02  0.8159057E-01
       -2   -1    0    0    0  501  0.00000000000E+00  0.00000000000E+00  0.14914801026E+04  0.14914801026E+04  0.25500000920E-02 0.  1.
        2   -1    0    0  501    0  0.00000000000E+00  0.00000000000E+00 -0.18421412172E+04  0.18421412172E+04  0.25500000920E-02 0. -1.
    10030    2    1    2    0    0  0.00000000000E+00  0.00000000000E+00 -0.35066111457E+03  0.33336213197E+04  0.33151271297E+04 0.  0.
        1    1    3    3  502    0 -0.95971718941E+03  0.12366600534E+04 -0.72346948325E+03  0.17244689804E+04  0.50400001928E-02 0. -1.
       -1    1    3    3    0  502  0.95971718941E+03 -0.12366600534E+04  0.37280836867E+03  0.16091523393E+04  0.50400001928E-02 0.  1.
</event>
<event>
 5   0  0.1042825E-06  0.2885366E+04  0.7818609E-02  0.8277245E-01
        3   -1    0    0  501    0  0.00000000000E+00  0.00000000000E+00  0.11848024608E+04  0.11848024651E+04  0.10100000352E+00 0.  1.
       -3   -1    0    0    0  501  0.00000000000E+00  0.00000000000E+00 -0.17566931850E+04  0.17566931879E+04  0.10100000352E+00 0. -1.
    10030    2    1    2    0    0  0.00000000000E+00  0.00000000000E+00 -0.57189072416E+03  0.29414956530E+04  0.28853661251E+04 0.  0.
        5    1    3    3  502    0  0.80608744931E+03 -0.18779356170E+03 -0.14905702162E+04  0.17049530953E+04  0.46999998093E+01 0. -1.
       -5    1    3    3    0  502 -0.80608744931E+03  0.18779356170E+03  0.91867949207E+03  0.12365425577E+04  0.46999998093E+01 0.  1.
</event>
<event>
 5   0  0.1782660E-06  0.1905970E+04  0.7818609E-02  0.8651890E-01
       -2   -1    0    0    0  501  0.00000000000E+00  0.00000000000E+00  0.71685424387E+03  0.71685424387E+03  0.25500000920E-02 0.  1.
        2   -1    0    0  501    0  0.00000000000E+00  0.00000000000E+00 -0.12668970887E+04  0.12668970887E+04  0.25500000920E-02 0. -1.
    10030    2    1    2    0    0  0.00000000000E+00  0.00000000000E+00 -0.55004284488E+03  0.19837513326E+04  0.19059701515E+04 0.  0.
        4    1    3    3  502    0 -0.61452241283E+03 -0.24647856724E+03  0.43836160359E+03  0.79407303719E+03  0.12699999809E+01 0.  1.
       -4    1    3    3    0  502  0.61452241283E+03  0.24647856724E+03 -0.98840444846E+03  0.11896782954E+04  0.12699999809E+01 0. -1.
</event>
<event>
 5   0  0.1782660E-06  0.3436773E+04  0.7818609E-02  0.8128940E-01
        2   -1    0    0  501    0  0.00000000000E+00  0.00000000000E+00  0.25616614578E+04  0.25616614578E+04  0.25500000920E-02 0.  1.
       -2   -1    0    0    0  501  0.00000000000E+00  0.00000000000E+00 -0.11527095843E+04  0.11527095843E+04  0.25500000920E-02 0. -1.
    10030    2    1    2    0    0  0.00000000000E+00  0.00000000000E+00  0.14089518735E+04  0.37143710421E+04  0.34367727386E+04 0.  0.
        4    1    3    3  502    0  0.11275637496E+04  0.45585487618E+03  0.20164677265E+04  0.23548561278E+04  0.12699999809E+01 0.  1.
       -4    1    3    3    0  502 -0.11275637496E+04 -0.45585487618E+03 -0.60751585303E+03  0.13595149143E+04  0.12699999809E+01 0. -1.
</event>
<event>
 5   0  0.3041329E-06  0.1744903E+04  0.7818609E-02  0.8736161E-01
       -2   -1    0    0    0  501  0.00000000000E+00  0.00000000000E+00  0.32730214651E+03  0.32730214652E+03  0.25500000920E-02 0.  1.
        2   -1    0    0  501    0  0.00000000000E+00  0.00000000000E+00 -0.23255925735E+04  0.23255925735E+04  0.25500000920E-02 0. -1.
    10030    2    1    2    0    0  0.00000000000E+00  0.00000000000E+00 -0.19982904270E+04  0.26528947200E+04  0.17449027953E+04 0.  0.
        2    1    3    3  502    0  0.54066611231E+03 -0.14247840899E+03  0.19105992860E+02  0.55945060640E+03  0.25500000920E-02 0.  1.
       -2    1    3    3    0  502 -0.54066611231E+03  0.14247840899E+03 -0.20173964198E+04  0.20934441136E+04  0.25500000920E-02 0. -1.
</event>
<event>
 5   0  0.1089337E-06  0.3460750E+04  0.7818609E-02  0.8123155E-01
        1   -1    0    0  501    0  0.00000000000E+00  0.00000000000E+00  0.19090130734E+04  0.19090130734E+04  0.50400001928E-02 0. -1.
       -1   -1    0    0    0  501  0.00000000000E+00  0.00000000000E+00 -0.15684534107E+04  0.15684534107E+04  0.50400001928E-02 0.  1.
    10030    2    1    2    0    0  0.00000000000E+00  0.00000000000E+00  0.34055966263E+03  0.34774664841E+04  0.34607502459E+04 0.  0.
        2    1    3    3  502    0  0.10224011473E+04  0.79339576807E+03  0.13244869571E+04  0.18517685196E+04  0.25500000920E-02 0. -1.
       -2    1    3    3    0  502 -0.10224011473E+04 -0.79339576807E+03 -0.98392729444E+03  0.16256979645E+04  0.25500000920E-02 0.  1.
</event>
<event>
 5   0  0.1782660E-06  0.3413639E+04  0.7818609E-02  0.8134567E-01
       -2   -1    0    0    0  501  0.00000000000E+00  0.00000000000E+00  0.89480327844E+03  0.89480327845E+03  0.25500000920E-02 0. -1.
        2   -1    0    0  501    0  0.00000000000E+00  0.00000000000E+00 -0.32557246225E+04  0.32557246225E+04  0.25500000920E-02 0.  1.
    10030    2    1    2    0    0  0.00000000000E+00  0.00000000000E+00 -0.23609213440E+04  0.41505279009E+04  0.34136391525E+04 0.  0.
        4    1    3    3  502    0 -0.10606959481E+03  0.16398206914E+04 -0.61935622259E+03  0.17560940756E+04  0.12699999809E+01 0. -1.
       -4    1    3    3    0  502  0.10606959481E+03 -0.16398206914E+04 -0.17415651214E+04  0.23944338254E+04  0.12699999809E+01 0.  1.
</event>
<event>
 5   0  0.1782660E-06  0.3467006E+04  0.7818609E-02  0.8121654E-01
       -2   -1    0    0    0  501  0.00000000000E+00  0.00000000000E+00  0.14366659028E+04  0.14366659028E+04  0.25500000920E-02 0. -1.
        2   -1    0    0  501    0  0.00000000000E+00  0.00000000000E+00 -0.20916706017E+04  0.20916706017E+04  0.25500000920E-02 0.  1.
    10030    2    1    2    0    0  0.00000000000E+00  0.00000000000E+00 -0.65500469884E+03  0.35283365045E+04  0.34670055283E+04 0.  0.
        4    1    3    3  502    0 -0.14703171153E+04 -0.50604111836E+03  0.45229000088E+03  0.16194066478E+04  0.12699999809E+01 0. -1.
       -4    1    3    3    0  502  0.14703171153E+04  0.50604111836E+03 -0.11072946997E+04  0.19089298567E+04  0.12699999809E+01 0.  1.
</event>
<event>
 5   0  0.1042825E-06  0.3466665E+04  0.7818609E-02  0.8121736E-01
        3   -1    0    0  501    0  0.00000000000E+00  0.00000000000E+00  0.18217067509E+04  0.18217067537E+04  0.10100000352E+00 0.  1.
       -3   -1    0    0    0  501  0.00000000000E+00  0.00000000000E+00 -0.16492454378E+04  0.16492454409E+04  0.10100000352E+00 0. -1.
    10030    2    1    2    0    0  0.00000000000E+00  0.00000000000E+00  0.17246131308E+03  0.34709521946E+04  0.34666650015E+04 0.  0.
        2    1    3    3  502    0  0.78672359207E+03 -0.14955064517E+04  0.47267170444E+03  0.17546772061E+04  0.25500000920E-02 0.  1.
       -2    1    3    3    0  502 -0.78672359207E+03  0.14955064517E+04 -0.30021039136E+03  0.17162749886E+04  0.25500000920E-02 0. -1.
</event>
<event>
 5   0  0.3378848E-06  0.3227003E+04  0.7818609E-02  0.8181722E-01
       -2   -1    0    0    0  501  0.00000000000E+00  0.00000000000E+00  0.16732335483E+04  0.16732335483E+04  0.25500000920E-02 0.  1.
        2   -1    0    0  501    0  0.00000000000E+00  0.00000000000E+00 -0.15559014742E+04  0.15559014742E+04  0.25500000920E-02 0. -1.
    10030    2    1    2    0    0  0.00000000000E+00  0.00000000000E+00  0.11733207413E+03  0.32291350225E+04  0.32270026616E+04 0.  0.
        1    1    3    3  502    0 -0.24593023722E+03  0.38357259623E+03  0.16075185698E+04  0.16708457650E+04  0.50400001928E-02 0.  1.
       -1    1    3    3    0  502  0.24593023722E+03 -0.38357259623E+03 -0.14901864956E+04  0.15582892575E+04  0.50400001928E-02 0. -1.
</event>
<event>
 5   0  0.1110956E-06  0.3504421E+04  0.7818609E-02  0.8112743E-01
       -1   -1    0    0    0  501  0.00000000000E+00  0.00000000000E+00  0.12482680671E+04  0.12482680671E+04  0.50400001928E-02 0. -1.
        1   -1    0    0  501    0  0.00000000000E+00  0.00000000000E+00 -0.24596005296E+04  0.24596005296E+04  0.50400001928E-02 0.  1.
    10030    2    1    2    0    0  0.00000000000E+00  0.00000000000E+00 -0.12113324625E+04  0.37078685967E+04  0.35044205221E+04 0.  0.
        1    1    3    3  502    0  0.10744256221E+04 -0.92766490945E+03 -0.16925764210E+04  0.22090195886E+04  0.50400001928E-02 0. -1.
       -1    1    3    3    0  502 -0.10744256221E+04  0.92766490945E+03  0.48124395853E+03  0.14988490082E+04  0.50400001928E-02 0.  1.
</event>
<event>
 5   0  0.1908726E-06  0.2036439E+04  0.7818609E-02  0.8589771E-01
       -2   -1    0    0    0  501  0.00000000000E+00  0.00000000000E+00  0.41056000897E+03  0.41056000898E+03  0.25500000920E-02 0.  1.
        2   -1    0    0  501    0  0.00000000000E+00  0.00000000000E+00 -0.25252593003E+04  0.25252593003E+04  0.25500000920E-02 0. -1.
    10030    2    1    2    0    0  0.00000000000E+00  0.00000000000E+00 -0.21146992914E+04  0.29358193093E+04  0.20364385392E+04 0.  0.
        5    1    3    3  502    0  0.33024853657E+03  0.73999335593E+03 -0.16855056747E+03  0.82769900720E+03  0.46999998093E+01 0.  1.
       -5    1    3    3    0  502 -0.33024853657E+03 -0.73999335593E+03 -0.19461487239E+04  0.21081203021E+04  0.46999998093E+01 0. -1.
</event>
<event>
 5   0  0.1782660E-06  0.2719686E+04  0.7818609E-02  0.8328646E-01
       -2   -1    0    0    0  501  0.00000000000E+00  0.00000000000E+00  0.77171107978E+03  0.77171107979E+03  0.25500000920E-02 0.  1.
        2   -1    0    0  501    0  0.00000000000E+00  0.00000000000E+00 -0.23961992517E+04  0.23961992517E+04  0.25500000920E-02 0. -1.
    10030    2    1    2    0    0  0.00000000000E+00  0.00000000000E+00 -0.16244881719E+04  0.31679103315E+04  0.27196863877E+04 0.  0.
        4    1    3    3  502    0 -0.20996835564E+03  0.86829807416E+03  0.38197796704E+03  0.97156422133E+03  0.12699999809E+01 0.  1.
       -4    1    3    3    0  502  0.20996835564E+03 -0.86829807416E+03 -0.20064661389E+04  0.21963461101E+04  0.12699999809E+01 0. -1.
</event>
<event>
 5   0  0.1102175E-06  0.3237141E+04  0.7818609E-02  0.8179077E-01
        1   -1    0    0  501    0  0.00000000000E+00  0.00000000000E+00  0.96665028965E+03  0.96665028966E+03  0.50400001928E-02 0. -1.
       -1   -1    0    0    0  501  0.00000000000E+00  0.00000000000E+00 -0.27101538015E+04  0.27101538015E+04  0.50400001928E-02 0.  1.
    10030    2    1    2    0    0  0.00000000000E+00  0.00000000000E+00 -0.17435035118E+04  0.36768040912E+04  0.32371413051E+04 0.  0.
        5    1    3    3  502    0 -0.31477820905E+03  0.56353857480E+03  0.81412078791E+03  0.10389782450E+04  0.46999998093E+01 0. -1.
       -5    1    3    3    0  502  0.31477820905E+03 -0.56353857480E+03 -0.25576242998E+04  0.26378258462E+04  0.46999998093E+01 0.  1.
</event>
<event>
 5   0  0.1782660E-06  0.3605409E+04  0.7818609E-02  0.8089254E-01
       -2   -1    0    0    0  501  0.00000000000E+00  0.00000000000E+00  0.12752863119E+04  0.12752863119E+04  0.25500000920E-02 0. -1.
        2   -1    0    0  501    0  0.00000000000E+00  0.00000000000E+00 -0.25482458105E+04  0.25482458105E+04  0.25500000920E-02 0.  1.
    10030    2    1    2    0    0  0.00000000000E+00  0.00000000000E+00 -0.12729594986E+04  0.38235321224E+04  0.36054087155E+04 0.  0.
        4    1    3    3  502    0 -0.81695271925E+03 -0.72676194055E+03  0.88345858909E+03  0.14057365881E+04  0.12699999809E+01 0. -1.
       -4    1    3    3    0  502  0.81695271925E+03  0.72676194055E+03 -0.21564180877E+04  0.24177955342E+04  0.12699999809E+01 0.  1.
</event>
<event>
 5   0  0.3378848E-06  0.3187648E+04  0.7818609E-02  0.8192087E-01
       -2   -1    0    0    0  501  0.00000000000E+00  0.00000000000E+00  0.87275902070E+03  0.87275902070E+03  0.25500000920E-02 0. -1.
        2   -1    0    0  501    0  0.00000000000E+00  0.00000000000E+00 -0.29106255165E+04  0.29106255165E+04  0.25500000920E-02 0.  1.
    10030    2    1    2    0    0  0.00000000000E+00  0.00000000000E+00 -0.20378664958E+04  0.37833845372E+04  0.31876478321E+04 0.  0.
        1    1    3    3  502    0 -0.53782748555E+03 -0.14309205522E+04 -0.48353883352E+03  0.16033096502E+04  0.50400001928E-02 0.  1.
       -1    1    3    3    0  502  0.53782748555E+03  0.14309205522E+04 -0.15543276623E+04  0.21800748869E+04  0.50400001928E-02 0. -1.
</event>
<event>
 5   0  0.1125196E-06  0.3522820E+04  0.7818609E-02  0.8108403E-01
       -1   -1    0    0    0  501  0.00000000000E+00  0.00000000000E+00  0.12081398747E+04  0.12081398747E+04  0.50400001928E-02 0. -1.
        1   -1    0    0  501    0  0.00000000000E+00  0.00000000000E+00 -0.25680506242E+04  0.25680506242E+04  0.50400001928E-02 0.  1.
    10030    2    1    2    0    0  0.00000000000E+00  0.00000000000E+00 -0.13599107495E+04  0.37761904989E+04  0.35228195295E+04 0.  0.
        4    1    3    3  502    0 -0.98245803922E+03  0.11044219876E+04  0.34684986809E+03  0.15183142525E+04  0.12699999809E+01 0. -1.
       -4    1    3    3    0  502  0.98245803922E+03 -0.11044219876E+04 -0.17067606176E+04  0.22578762464E+04  0.12699999809E+01 0.  1.
</event>
<event>
 5   0  0.3041329E-06  0.2620394E+04  0.7818609E-02  0.8361307E-01
       -2   -1    0    0    0  501  0.00000000000E+00  0.00000000000E+00  0.14350569384E+04  0.14350569384E+04  0.25500000920E-02 0.  1.
        2   -1    0    0  501    0  0.00000000000E+00  0.00000000000E+00 -0.11962006171E+04  0.11962006171E+04  0.25500000920E-02 0. -1.
    10030    2    1    2    0    0  0.00000000000E+00  0.00000000000E+00  0.23885632131E+03  0.26312575555E+04  0.26203938599E+04 0.  0.
        2    1    3    3  502    0 -0.11188967143E+04  0.11132087010E+03  0.79474426307E+03  0.13769316022E+04  0.25500000920E-02 0.  1.
       -2    1    3    3    0  502  0.11188967143E+04 -0.11132087010E+03 -0.55588794176E+03  0.12543259533E+04  0.25500000920E-02 0. -1.
</event>
<event>
 5   0  0.1214367E-06  0.1989145E+04  0.7818609E-02  0.8611713E-01
        1   -1    0    0  501    0  0.00000000000E+00  0.00000000000E+00  0.10420166124E+04  0.10420166124E+04  0.50400001928E-02 0.  1.
       -1   -1    0    0    0  501  0.00000000000E+00  0.00000000000E+00 -0.94928823913E+03  0.94928823914E+03  0.50400001928E-02 0. -1.
    10030    2    1    2    0    0  0.00000000000E+00  0.00000000000E+00  0.92728373254E+02  0.19913048515E+04  0.19891446555E+04 0.  0.
        2    1    3    3  502    0 -0.63790620342E+02 -0.56864756656E+03 -0.76799623548E+03  0.95773039835E+03  0.25500000920E-02 0. -1.
       -2    1    3    3    0  502  0.63790620342E+02  0.56864756656E+03  0.86072460873E+03  0.10335744532E+04  0.25500000920E-02 0.  1.
</event>
<event>
 5   0  0.1908726E-06  0.2517211E+04  0.7818609E-02  0.8396880E-01
       -2   -1    0    0    0  501  0.00000000000E+00  0.00000000000E+00  0.14256193389E+04  0.14256193389E+04  0.25500000920E-02 0. -1.
        2   -1    0    0  501    0  0.00000000000E+00  0.00000000000E+00 -0.11111575797E+04  0.11111575797E+04  0.25500000920E-02 0.  1.
    10030    2    1    2    0    0  0.00000000000E+00  0.00000000000E+00  0.31446175927E+03  0.25367769186E+04  0.25172109440E+04 0.  0.
        5    1    3    3  502    0 -0.21342311137E+03 -0.23444281641E+03 -0.10702483948E+04  0.11162287289E+04  0.46999998093E+01 0.  1.
       -5    1    3    3    0  502  0.21342311137E+03  0.23444281641E+03  0.13847101541E+04  0.14205481897E+04  0.46999998093E+01 0. -1.
</event>
<event>
 5   0  0.2565004E-06  0.3249388E+04  0.7818609E-02  0.8175894E-01
        2   -1    0    0  501    0  0.00000000000E+00  0.00000000000E+00  0.15459850405E+04  0.15459850405E+04  0.25500000920E-02 0.  1.
       -2   -1    0    0    0  501  0.00000000000E+00  0.00000000000E+00 -0.17074106143E+04  0.17074106143E+04  0.25500000920E-02 0. -1.
    10030    2    1    2    0    0  0.00000000000E+00  0.00000000000E+00 -0.16142557385E+03  0.32533956548E+04  0.32493884149E+04 0.  0.
        3    1    3    3  502    0 -0.14011640351E+04  0.75196524327E+03  0.25274279146E+03  0.16101525732E+04  0.10100000352E+00 0.  1.
       -3    1    3    3    0  502  0.14011640351E+04 -0.75196524327E+03 -0.41416836531E+03  0.16432430816E+04  0.10100000352E+00 0. -1.
</event>
<event>
 5   0  0.1089337E-06  0.3573247E+04  0.7818609E-02  0.8096647E-01
        1   -1    0    0  501    0  0.00000000000E+00  0.00000000000E+00  0.11662884115E+04  0.11662884115E+04  0.50400001928E-02 0. -1.
       -1   -1    0    0    0  501  0.00000000000E+00  0.00000000000E+00 -0.27369080793E+04  0.27369080793E+04  0.50400001928E-02 0.  1.
    10030    2    1    2    0    0  0.00000000000E+00  0.00000000000E+00 -0.15706196678E+04  0.39031964908E+04  0.35732473612E+04 0.  0.
        2    1    3    3  502    0 -0.11277414248E+04 -0.11751197349E+04 -0.15875038417E+04  0.22743956472E+04  0.25500000920E-02 0.  1.
       -2    1    3    3    0  502  0.11277414248E+04  0.11751197349E+04  0.16884173873E+02  0.16288008436E+04  0.25500000920E-02 0. -1.
</event>
<event>
 5   0  0.1782660E-06  0.3486759E+04  0.7818609E-02  0.8116935E-01
        2   -1    0    0  501    0  0.00000000000E+00  0.00000000000E+00  0.26363423760E+04  0.26363423760E+04  0.25500000920E-02 0. -1.
       -2   -1    0    0    0  501  0.00000000000E+00  0.00000000000E+00 -0.11528744048E+04  0.11528744048E+04  0.25500000920E-02 0.  1.
    10030    2    1    2    0    0  0.00000000000E+00  0.00000000000E+00  0.14834679712E+04  0.37892167808E+04  0.34867587514E+04 0.  0.
        4    1    3    3  502    0 -0.65668440695E+03  0.19983675731E+03  0.24833084520E+04  0.25764300147E+04  0.12699999809E+01 0. -1.
       -4    1    3    3    0  502  0.65668440695E+03 -0.19983675731E+03 -0.99984048085E+03  0.12127867661E+04  0.12699999809E+01 0.  1.
</event>
<event>
 5   0  0.1130707E-06  0.1760150E+04  0.7818609E-02  0.8727783E-01
        1   -1    0    0  501    0  0.00000000000E+00  0.00000000000E+00  0.40072115082E+03  0.40072115085E+03  0.50400001928E-02 0.  1.
       -1   -1    0    0    0  501  0.00000000000E+00  0.00000000000E+00 -0.19328445871E+04  0.19328445871E+04  0.50400001928E-02 0. -1.
    10030    2    1    2    0    0  0.00000000000E+00  0.00000000000E+00 -0.15321234363E+04  0.23335657379E+04  0.17601496611E+04 0.  0.
        3    1    3    3  502    0  0.57773306027E+03  0.25192884436E+03  0.48280550003E+02  0.63211917646E+03  0.10100000352E+00 0.  1.
       -3    1    3    3    0  502 -0.57773306027E+03 -0.25192884436E+03 -0.15804039863E+04  0.17014465615E+04  0.10100000352E+00 0. -1.
</event>
<event>
 5   0  0.3445678E-06  0.1863636E+04  0.7818609E-02  0.8673172E-01
        2   -1    0    0  501    0  0.00000000000E+00  0.00000000000E+00  0.15656662212E+04  0.15656662212E+04  0.25500000920E-02 0.  1.
       -2   -1    0    0    0  501  0.00000000000E+00  0.00000000000E+00 -0.55457823031E+03  0.55457823032E+03  0.25500000920E-02 0. -1.
    10030    2    1    2    0    0  0.00000000000E+00  0.00000000000E+00  0.10110879909E+04  0.21202444515E+04  0.18636355891E+04 0.  0.
        1    1    3    3  502    0 -0.30343130649E+03 -0.60112393460E+03 -0.22724298024E+03  0.71067567470E+03  0.50400001928E-02 0. -1.
       -1    1    3    3    0  502  0.30343130649E+03  0.60112393460E+03  0.12383309711E+04  0.14095687768E+04  0.50400001928E-02 0.  1.
</event>
<event>
 5   0  0.2565004E-06  0.3682365E+04  0.7818609E-02  0.8071881E-01
       -2   -1    0    0    0  501  0.00000000000E+00  0.00000000000E+00  0.24909965238E+04  0.24909965238E+04  0.25500000920E-02 0.  1.
        2   -1    0    0  501    0  0.00000000000E+00  0.00000000000E+00 -0.13608822863E+04  0.13608822863E+04  0.25500000920E-02 0. -1.
    10030    2    1    2    0    0  0.00000000000E+00  0.00000000000E+00  0.11301142374E+04  0.38518788101E+04  0.36823650251E+04 0.  0.
        3    1    3    3  502    0  0.39409259851E+03 -0.35009322679E+02 -0.13158906272E+04  0.13740825237E+04  0.10100000352E+00 0. -1.
       -3    1    3    3    0  502 -0.39409259851E+03  0.35009322679E+02  0.24460048646E+04  0.24777962864E+04  0.10100000352E+00 0.  1.
</event>
<event>
 5   0  0.1110956E-06  0.3535457E+04  0.7818609E-02  0.8105438E-01
       -1   -1    0    0    0  501  0.00000000000E+00  0.00000000000E+00  0.14777885052E+04  0.14777885052E+04  0.50400001928E-02 0. -1.
        1   -1    0    0  501    0  0.00000000000E+00  0.00000000000E+00 -0.21145538620E+04  0.21145538620E+04  0.50400001928E-02 0.  1.
    10030    2    1    2    0    0  0.00000000000E+00  0.00000000000E+00 -0.63676535684E+03  0.35923423672E+04  0.35354566273E+04 0.  0.
        1    1    3    3  502    0 -0.13986277071E+03  0.10049478644E+03  0.14692436686E+04  0.14793031314E+04  0.50400001928E-02 0. -1.
       -1    1    3    3    0  502  0.13986277071E+03 -0.10049478644E+03 -0.21060090255E+04  0.21130392358E+04  0.50400001928E-02 0.  1.
</event>
<event>
 5   0  0.3041329E-06  0.4040940E+04  0.7818609E-02  0.7996338E-01
        2   -1    0    0  501    0  0.00000000000E+00  0.00000000000E+00  0.22987422279E+04  0.22987422279E+04  0.25500000920E-02 0. -1.
       -2   -1    0    0    0  501  0.00000000000E+00  0.00000000000E+00 -0.17758840409E+04  0.17758840409E+04  0.25500000920E-02 0.  1.
    10030    2    1    2    0    0  0.00000000000E+00  0.00000000000E+00  0.52285818698E+03  0.40746262688E+04  0.40409403048E+04 0.  0.
        2    1    3    3  502    0 -0.66515465782E+03  0.71792755835E+03 -0.15209170949E+04  0.18086015336E+04  0.25500000920E-02 0.  1.
       -2    1    3    3    0  502  0.66515465782E+03 -0.71792755835E+03  0.20437752818E+04  0.22660247352E+04  0.25500000920E-02 0. -1.
</event>
<event>
 5   0  0.1782660E-06  0.2555577E+04  0.7818609E-02  0.8383449E-01
       -2   -1    0    0    0  501  0.00000000000E+00  0.00000000000E+00  0.88294338361E+03  0.88294338361E+03  0.25500000920E-02 0. -1.
        2   -1    0    0  501    0  0.00000000000E+00  0.00000000000E+00 -0.18492053715E+04  0.18492053715E+04  0.25500000920E-02 0.  1.
    10030    2    1    2    0    0  0.00000000000E+00  0.00000000000E+00 -0.96626198787E+03  0.27321487551E+04  0.25555771541E+04 0.  0.
        4    1    3    3  502    0 -0.12229616883E+04 -0.22207090600E+03 -0.79989875623E+03  0.14781036538E+04  0.12699999809E+01 0. -1.
       -4    1    3    3    0  502  0.12229616883E+04  0.22207090600E+03 -0.16636323164E+03  0.12540451013E+04  0.12699999809E+01 0.  1.
</event>
<event>
 5   0  0.1782660E-06  0.3440952E+04  0.7818609E-02  0.8127928E-01
       -2   -1    0    0    0  501  0.00000000000E+00  0.00000000000E+00  0.14286071364E+04  0.14286071364E+04  0.25500000920E-02 0.  1.
        2   -1    0    0  501    0  0.00000000000E+00  0.00000000000E+00 -0.20719741206E+04  0.20719741206E+04  0.25500000920E-02 0. -1.
    10030    2    1    2    0    0  0.00000000000E+00  0.00000000000E+00 -0.64336698421E+03  0.35005812569E+04  0.34409516213E+04 0.  0.
        4    1    3    3  502    0  0.27657879933E+03 -0.99186777149E+03  0.10805115891E+04  0.14925831352E+04  0.12699999809E+01 0.  1.
       -4    1    3    3    0  502 -0.27657879933E+03  0.99186777149E+03 -0.17238785733E+04  0.20079981217E+04  0.12699999809E+01 0. -1.
</event>
<event>
 5   0  0.1908726E-06  0.3716178E+04  0.7818609E-02  0.8064386E-01
       -2   -1    0    0    0  501  0.00000000000E+00  0.00000000000E+00  0.12993006933E+04  0.12993006933E+04  0.25500000920E-02 0.  1.
        2   -1    0    0  501    0  0.00000000000E+00  0.00000000000E+00 -0.26571940415E+04  0.26571940415E+04  0.25500000920E-02 0. -1.
    10030    2    1    2    0    0  0.00000000000E+00  0.00000000000E+00 -0.13578933482E+04  0.39564947348E+04  0.37161776386E+04 0.  0.
        5    1    3    3  502    0  0.14439182286E+04  0.11693098738E+04 -0.66092456475E+03  0.19720620686E+04  0.46999998093E+01 0.  1.
       -5    1    3    3    0  502 -0.14439182286E+04 -0.11693098738E+04 -0.69696878343E+03  0.19844326663E+04  0.46999998093E+01 0. -1.
</event>
<event>
 5   0  0.1110956E-06  0.3527558E+04  0.7818609E-02  0.8107290E-01
        1   -1    0    0  501    0  0.00000000000E+00  0.00000000000E+00  0.19661105438E+04  0.19661105438E+04  0.50400001928E-02 0.  1.
       -1   -1    0    0    0  501  0.00000000000E+00  0.00000000000E+00 -0.15822692748E+04  0.15822692748E+04  0.50400001928E-02 0. -1.
    10030    2    1    2    0    0  0.00000000000E+00  0.00000000000E+00  0.38384126901E+03  0.35483798187E+04  0.35275579680E+04 0.  0.
        1    1    3    3  502    0  0.49224933578E+03  0.49382056142E+03  0.18215909705E+04  0.19504773311E+04  0.50400001928E-02 0.  1.
       -1    1    3    3    0  502 -0.49224933578E+03 -0.49382056142E+03 -0.14377497015E+04  0.15979024875E+04  0.50400001928E-02 0. -1.
</event>
<event>
 5   0  0.1089337E-06  0.3499392E+04  0.7818609E-02  0.8113934E-01
       -1   -1    0    0    0  501  0.00000000000E+00  0.00000000000E+00  0.23927678381E+04  0.23927678382E+04  0.50400001928E-02 0. -1.
        1   -1    0    0  501    0  0.00000000000E+00  0.00000000000E+00 -0.12794538072E+04  0.12794538072E+04  0.50400001928E-02 0.  1.
    10030    2    1    2    0    0  0.00000000000E+00  0.00000000000E+00  0.11133140310E+04  0.36722216453E+04  0.34993919016E+04 0.  0.
        2    1    3    3  502    0  0.47238090029E+03  0.18368713925E+03 -0.12007323470E+04  0.13033199336E+04  0.25500000920E-02 0.  1.
       -2    1    3    3    0  502 -0.47238090029E+03 -0.18368713925E+03  0.23140463780E+04  0.23689017117E+04  0.25500000920E-02 0. -1.
</event>
<event>
 5   0  0.1908726E-06  0.3481474E+04  0.7818609E-02  0.8118194E-01
       -2   -1    0    0    0  501  0.00000000000E+00  0.00000000000E+00  0.18373187638E+04  0.18373187638E+04  0.25500000920E-02 0. -1.
        2   -1    0    0  501    0  0.00000000000E+00  0.00000000000E+00 -0.16492319917E+04  0.16492319917E+04  0.25500000920E-02 0.  1.
    10030    2    1    2    0    0  0.00000000000E+00  0.00000000000E+00  0.18808677212E+03  0.34865507554E+04  0.34814737593E+04 0.  0.
        5    1    3    3  502    0 -0.47240254035E+03  0.16749258623E+04  0.13412661811E+03  0.17454377228E+04  0.46999998093E+01 0. -1.
       -5    1    3    3    0  502  0.47240254035E+03 -0.16749258623E+04  0.53960154015E+02  0.17411130327E+04  0.46999998093E+01 0.  1.
</event>
<event>
 5   0  0.1102175E-06  0.3363667E+04  0.7818609E-02  0.8146882E-01
       -1   -1    0    0    0  501  0.00000000000E+00  0.00000000000E+00  0.10038087864E+04  0.10038087864E+04  0.50400001928E-02 0. -1.
        1   -1    0    0  501    0  0.00000000000E+00  0.00000000000E+00 -0.28178310384E+04  0.28178310384E+04  0.50400001928E-02 0.  1.
    10030    2    1    2    0    0  0.00000000000E+00  0.00000000000E+00 -0.18140222519E+04  0.38216398248E+04  0.33636667820E+04 0.  0.
        5    1    3    3  502    0  0.36314126264E+03  0.14983949385E+03  0.95094388092E+03  0.10289022331E+04  0.46999998093E+01 0. -1.
       -5    1    3    3    0  502 -0.36314126264E+03 -0.14983949385E+03 -0.27649661328E+04  0.27927375917E+04  0.46999998093E+01 0.  1.
</event>
<event>
 5   0  0.1089337E-06  0.2732024E+04  0.7818609E-02  0.8324689E-01
        1   -1    0    0  501    0  0.00000000000E+00  0.00000000000E+00  0.13998566077E+04  0.13998566077E+04  0.50400001928E-02 0.  1.
       -1   -1    0    0    0  501  0.00000000000E+00  0.00000000000E+00 -0.13329855794E+04  0.13329855794E+04  0.50400001928E-02 0. -1.
    10030    2    1    2    0    0  0.00000000000E+00  0.00000000000E+00  0.66871028278E+02  0.27328421871E+04  0.27320239174E+04 0.  0.
        2    1    3    3  502    0 -0.59890101706E+03 -0.11506617464E+04 -0.39480927064E+03  0.13559421975E+04  0.25500000920E-02 0.  1.
       -2    1    3    3    0  502  0.59890101706E+03  0.11506617464E+04  0.46168029892E+03  0.13768999896E+04  0.25500000920E-02 0. -1.
</event>
<event>
 5   0  0.3041329E-06  0.2567578E+04  0.7818609E-02  0.8379298E-01
       -2   -1    0    0    0  501  0.00000000000E+00  0.00000000000E+00  0.12830511292E+04  0.12830511292E+04  0.25500000920E-02 0. -1.
        2   -1    0    0  501    0  0.00000000000E+00  0.00000000000E+00 -0.12845277525E+04  0.12845277525E+04  0.25500000920E-02 0.  1.
    10030    2    1    2    0    0  0.00000000000E+00  0.00000000000E+00 -0.14766232948E+01  0.25675788818E+04  0.25675784572E+04 0.  0.
        2    1    3    3  502    0  0.12487279729E+04 -0.18866487507E+03 -0.23138699613E+03  0.12839220877E+04  0.25500000920E-02 0.  1.
       -2    1    3    3    0  502 -0.12487279729E+04  0.18866487507E+03  0.22991037284E+03  0.12836567941E+04  0.25500000920E-02 0. -1.
</event>
<event>
 5   0  0.1908726E-06  0.3379537E+04  0.7818609E-02  0.8142947E-01
        2   -1    0    0  501    0  0.00000000000E+00  0.00000000000E+00  0.11628843238E+04  0.11628843238E+04  0.25500000920E-02 0. -1.
       -2   -1    0    0    0  501  0.00000000000E+00  0.00000000000E+00 -0.24553754923E+04  0.24553754923E+04  0.25500000920E-02 0.  1.
    10030    2    1    2    0    0  0.00000000000E+00  0.00000000000E+00 -0.12924911685E+04  0.36182598160E+04  0.33795370505E+04 0.  0.
        5    1    3    3  502    0  0.64285159888E+03 -0.14469936478E+04 -0.12780550005E+04  0.20348207462E+04  0.46999998093E+01 0.  1.
       -5    1    3    3    0  502 -0.64285159888E+03  0.14469936478E+04 -0.14436168008E+02  0.15834390698E+04  0.46999998093E+01 0. -1.
</event>
<event>
 5   0  0.3041329E-06  0.3580314E+04  0.7818609E-02  0.8095016E-01
        2   -1    0    0  501    0  0.00000000000E+00  0.00000000000E+00  0.20839937789E+04  0.20839937789E+04  0.25500000920E-02 0. -1.
       -2   -1    0    0    0  501  0.00000000000E+00  0.00000000000E+00 -0.15377500319E+04  0.15377500319E+04  0.25500000920E-02 0.  1.
    10030    2    1    2    0    0  0.00000000000E+00  0.00000000000E+00  0.54624374702E+03  0.36217438108E+04  0.35803136733E+04 0.  0.
        2    1    3    3  502    0 -0.17674628210E+02  0.13553245957E+04  0.14560312648E+04  0.19892823320E+04  0.25500000920E-02 0. -1.
       -2    1    3    3    0  502  0.17674628210E+02 -0.13553245957E+04 -0.90978751778E+03  0.16324614788E+04  0.25500000920E-02 0.  1.
</event>
<event>
 5   0  0.1089337E-06  0.3865614E+04  0.7818609E-02  0.8032219E-01
       -1   -1    0    0    0  501  0.00000000000E+00  0.00000000000E+00  0.25000859506E+04  0.25000859506E+04  0.50400001928E-02 0.  1.
        1   -1    0    0  501    0  0.00000000000E+00  0.00000000000E+00 -0.14942456462E+04  0.14942456462E+04  0.50400001928E-02 0. -1.
    10030    2    1    2    0    0  0.00000000000E+00  0.00000000000E+00  0.10058403043E+04  0.39943315968E+04  0.38656138177E+04 0.  0.
        2    1    3    3  502    0 -0.13378182781E+04  0.91195000073E+03 -0.58784926178E+03  0.17224915976E+04  0.25500000920E-02 0. -1.
       -2    1    3    3    0  502  0.13378182781E+04 -0.91195000073E+03  0.15936895661E+04  0.22718399993E+04  0.25500000920E-02 0.  1.
</event>
<event>
 5   0  0.1110956E-06  0.3499843E+04  0.7818609E-02  0.8113827E-01
        1   -1    0    0  501    0  0.00000000000E+00  0.00000000000E+00  0.14809214001E+04  0.14809214001E+04  0.50400001928E-02 0. -1.
       -1   -1    0    0    0  501  0.00000000000E+00  0.00000000000E+00 -0.20677837763E+04  0.20677837763E+04  0.50400001928E-02 0.  1.
    10030    2    1    2    0    0  0.00000000000E+00  0.00000000000E+00 -0.58686237618E+03  0.35487051764E+04  0.34998429937E+04 0.  0.
        1    1    3    3  502    0  0.17215040661E+04  0.30854669006E+03 -0.23389227185E+03  0.17645064195E+04  0.50400001928E-02 0.  1.
       -1    1    3    3    0  502 -0.17215040661E+04 -0.30854669006E+03 -0.35297010434E+03  0.17841987569E+04  0.50400001928E-02 0. -1.
</event>
<event>
 5   0  0.3041329E-06  0.3461255E+04  0.7818609E-02  0.8123034E-01
       -2   -1    0    0    0  501  0.00000000000E+00  0.00000000000E+00  0.11190391549E+04  0.11190391549E+04  0.25500000920E-02 0.  1.
        2   -1    0    0  501    0  0.00000000000E+00  0.00000000000E+00 -0.26764666511E+04  0.26764666511E+04  0.25500000920E-02 0. -1.
    10030    2    1    2    0    0  0.00000000000E+00  0.00000000000E+00 -0.15574274962E+04  0.37955058060E+04  0.34612546739E+04 0.  0.
        2    1    3    3  502    0  0.82996396731E+03  0.57614473309E+03 -0.23194963366E+04  0.25299893668E+04  0.25500000920E-02 0. -1.
       -2    1    3    3    0  502 -0.82996396731E+03 -0.57614473309E+03  0.76206884035E+03  0.12655164392E+04  0.25500000920E-02 0.  1.
</event>
<event>
 5   0  0.3378848E-06  0.3457489E+04  0.7818609E-02  0.8123939E-01
       -2   -1    0    0    0  501  0.00000000000E+00  0.00000000000E+00  0.22893377286E+04  0.22893377286E+04  0.25500000920E-02 0. -1.
        2   -1    0    0  501    0  0.00000000000E+00  0.00000000000E+00 -0.13054245444E+04  0.13054245444E+04  0.25500000920E-02 0.  1.
    10030    2    1    2    0    0  0.00000000000E+00  0.00000000000E+00  0.98391318414E+03  0.35947622730E+04  0.34574890666E+04 0.  0.
        1    1    3    3  502    0 -0.10444092001E+04  0.10744010889E+04 -0.40449990897E+03  0.15520143213E+04  0.50400001928E-02 0.  1.
       -1    1    3    3    0  502  0.10444092001E+04 -0.10744010889E+04  0.13884130931E+04  0.20427479517E+04  0.50400001928E-02 0. -1.
</event>
<event>
 5   0  0.2565004E-06  0.3386124E+04  0.7818609E-02  0.8141320E-01
        2   -1    0    0  501    0  0.00000000000E+00  0.00000000000E+00  0.24179553163E+04  0.24179553163E+04  0.25500000920E-02 0. -1.
       -2   -1    0    0    0  501  0.00000000000E+00  0.00000000000E+00 -0.11854887615E+04  0.11854887615E+04  0.25500000920E-02 0.  1.
    10030    2    1    2    0    0  0.00000000000E+00  0.00000000000E+00  0.12324665548E+04  0.36034440779E+04  0.33861239513E+04 0.  0.
        3    1    3    3  502    0  0.10224717648E+04  0.13444881996E+04  0.49322122763E+03  0.17596488906E+04  0.10100000352E+00 0.  1.
       -3    1    3    3    0  502 -0.10224717648E+04 -0.13444881996E+04  0.73924532720E+03  0.18437951873E+04  0.10100000352E+00 0. -1.
</event>
<event>
 5   0  0.1908726E-06  0.2333370E+04  0.7818609E-02  0.8464879E-01
       -2   -1    0    0    0  501  0.00000000000E+00  0.00000000000E+00  0.20341535545E+04  0.20341535545E+04  0.25500000920E-02 0.  1.
        2   -1    0    0  501    0  0.00000000000E+00  0.00000000000E+00 -0.66915007772E+03  0.66915007773E+03  0.25500000920E-02 0. -1.
    10030    2    1    2    0    0  0.00000000000E+00  0.00000000000E+00  0.13650034768E+04  0.27033036323E+04  0.23333701028E+04 0.  0.
        5    1    3    3  502    0  0.65017081080E+03 -0.11865217102E+03 -0.43134407103E+03  0.78922760881E+03  0.46999998093E+01 0. -1.
       -5    1    3    3    0  502 -0.65017081080E+03  0.11865217102E+03  0.17963475478E+04  0.19140760234E+04  0.46999998093E+01 0.  1.
</event>
<event>
 5   0  0.1125196E-06  0.3444796E+04  0.7818609E-02  0.8126999E-01
        1   -1    0    0  501    0  0.00000000000E+00  0.00000000000E+00  0.18165413193E+04  0.18165413193E+04  0.50400001928E-02 0.  1.
       -1   -1    0    0    0  501  0.00000000000E+00  0.00000000000E+00 -0.16331334105E+04  0.16331334105E+04  0.50400001928E-02 0. -1.
    10030    2    1    2    0    0  0.00000000000E+00  0.00000000000E+00  0.18340790883E+03  0.34496747297E+04  0.34447956804E+04 0.  0.
        4    1    3    3  502    0  0.15352923532E+04 -0.19631398029E+03  0.84841361749E+03  0.17650691397E+04  0.12699999809E+01 0.  1.
       -4    1    3    3    0  502 -0.15352923532E+04  0.19631398029E+03 -0.66500570867E+03  0.16846055901E+04  0.12699999809E+01 0. -1.
</event>
<event>
 5   0  0.1110956E-06  0.3335096E+04  0.7818609E-02  0.8154022E-01
        1   -1    0    0  501    0  0.00000000000E+00  0.00000000000E+00  0.23117395433E+04  0.23117395433E+04  0.50400001928E-02 0. -1.
       -1   -1    0    0    0  501  0.00000000000E+00  0.00000000000E+00 -0.12028676984E+04  0.12028676984E+04  0.50400001928E-02 0.  1.
    10030    2    1    2    0    0  0.00000000000E+00  0.00000000000E+00  0.11088718450E+04  0.35146072417E+04  0.33350962947E+04 0.  0.
        1    1    3    3  502    0  0.55505125541E+03 -0.15203268367E+04  0.13127409628E+03  0.16237944681E+04  0.50400001928E-02 0.  1.
       -1    1    3    3    0  502 -0.55505125541E+03  0.15203268367E+04  0.97759774867E+03  0.18908127735E+04  0.50400001928E-02 0. -1.
</event>
<event>
 5   0  0.3378848E-06  0.3496505E+04  0.7818609E-02  0.8114619E-01
        2   -1    0    0  501    0  0.00000000000E+00  0.00000000000E+00  0.23173268089E+04  0.23173268089E+04  0.25500000920E-02 0. -1.
       -2   -1    0    0    0  501  0.00000000000E+00  0.00000000000E+00 -0.13189278855E+04  0.13189278855E+04  0.25500000920E-02 0.  1.
    10030    2    1    2    0    0  0.00000000000E+00  0.00000000000E+00  0.99839892331E+03  0.36362546944E+04  0.34965050826E+04 0.  0.
        1    1    3    3  502    0 -0.11855410625E+04  0.12171973664E+04  0.71280709530E+02  0.17006345813E+04  0.50400001928E-02 0.  1.
       -1    1    3    3    0  502  0.11855410625E+04 -0.12171973664E+04  0.92711821378E+03  0.19356201131E+04  0.50400001928E-02 0. -1.
</event>
<event>
 5   0  0.3041329E-06  0.3576809E+04  0.7818609E-02  0.8095825E-01
        2   -1    0    0  501    0  0.00000000000E+00  0.00000000000E+00  0.16372894938E+04  0.16372894938E+04  0.25500000920E-02 0.  1.
       -2   -1    0    0    0  501  0.00000000000E+00  0.00000000000E+00 -0.19534670975E+04  0.19534670975E+04  0.25500000920E-02 0. -1.
    10030    2    1    2    0    0  0.00000000000E+00  0.00000000000E+00 -0.31617760364E+03  0.35907565913E+04  0.35768092793E+04 0.  0.
        2    1    3    3  502    0  0.16837845888E+04  0.52807975149E+03  0.13354766316E+03  0.17696987720E+04  0.25500000920E-02 0.  1.
       -2    1    3    3    0  502 -0.16837845888E+04 -0.52807975149E+03 -0.44972526680E+03  0.18210578192E+04  0.25500000920E-02 0. -1.
</event>
<event>
 5   0  0.1908726E-06  0.2031504E+04  0.7818609E-02  0.8592031E-01
        2   -1    0    0  501    0  0.00000000000E+00  0.00000000000E+00  0.15459028818E+04  0.15459028818E+04  0.25500000920E-02 0. -1.
       -2   -1    0    0    0  501  0.00000000000E+00  0.00000000000E+00 -0.66741084871E+03  0.66741084871E+03  0.25500000920E-02 0.  1.
    10030    2    1    2    0    0  0.00000000000E+00  0.00000000000E+00  0.87849203312E+03  0.22133137305E+04  0.20315042253E+04 0.  0.
        5    1    3    3  502    0  0.66035944560E+03 -0.72956057130E+03  0.16492458518E+03  0.99777524192E+03  0.46999998093E+01 0. -1.
       -5    1    3    3    0  502 -0.66035944560E+03  0.72956057130E+03  0.71356744794E+03  0.12155384886E+04  0.46999998093E+01 0.  1.
</event>
<event>
 5   0  0.1908726E-06  0.1899995E+04  0.7818609E-02  0.8654859E-01
       -2   -1    0    0    0  501  0.00000000000E+00  0.00000000000E+00  0.64799627842E+03  0.64799627842E+03  0.25500000920E-02 0. -1.
        2   -1    0    0  501    0  0.00000000000E+00  0.00000000000E+00 -0.13927470445E+04  0.13927470445E+04  0.25500000920E-02 0.  1.
    10030    2    1    2    0    0  0.00000000000E+00  0.00000000000E+00 -0.74475076613E+03  0.20407433230E+04  0.18999946333E+04 0.  0.
        5    1    3    3  502    0  0.84399318777E+03  0.37740747272E+03 -0.13776382047E+03  0.93475229965E+03  0.46999998093E+01 0. -1.
       -5    1    3    3    0  502 -0.84399318777E+03 -0.37740747272E+03 -0.60698694566E+03  0.11059910233E+04  0.46999998093E+01 0.  1.
</event>
<event>
 5   0  0.2055954E-06  0.1884658E+04  0.7818609E-02  0.8662531E-01
        2   -1    0    0  501    0  0.00000000000E+00  0.00000000000E+00  0.17611686137E+04  0.17611686137E+04  0.25500000920E-02 0. -1.
       -2   -1    0    0    0  501  0.00000000000E+00  0.00000000000E+00 -0.50420177980E+03  0.50420177981E+03  0.25500000920E-02 0.  1.
    10030    2    1    2    0    0  0.00000000000E+00  0.00000000000E+00  0.12569668339E+04  0.22653703935E+04  0.18846584302E+04 0.  0.
        4    1    3    3  502    0  0.30703708113E+03 -0.44439691461E+03 -0.29965060975E+03  0.61769935060E+03  0.12699999809E+01 0.  1.
       -4    1    3    3    0  502 -0.30703708113E+03  0.44439691461E+03  0.15566174437E+04  0.16476710429E+04  0.12699999809E+01 0. -1.
</event>
<event>
 5   0  0.1125196E-06  0.3549253E+04  0.7818609E-02  0.8102216E-01
       -1   -1    0    0    0  501  0.00000000000E+00  0.00000000000E+00  0.20067762357E+04  0.20067762357E+04  0.50400001928E-02 0.  1.
        1   -1    0    0  501    0  0.00000000000E+00  0.00000000000E+00 -0.15693325505E+04  0.15693325505E+04  0.50400001928E-02 0. -1.
    10030    2    1    2    0    0  0.00000000000E+00  0.00000000000E+00  0.43744368519E+03  0.35761087862E+04  0.35492530303E+04 0.  0.
        4    1    3    3  502    0  0.11739027116E+04 -0.10971958412E+04  0.97768863620E+03  0.18808941950E+04  0.12699999809E+01 0.  1.
       -4    1    3    3    0  502 -0.11739027116E+04  0.10971958412E+04 -0.54024495102E+03  0.16952145912E+04  0.12699999809E+01 0. -1.
</event>
<event>
 5   0  0.1782660E-06  0.3337205E+04  0.7818609E-02  0.8153493E-01
       -2   -1    0    0    0  501  0.00000000000E+00  0.00000000000E+00  0.11585777606E+04  0.11585777606E+04  0.25500000920E-02 0. -1.
        2   -1    0    0  501    0  0.00000000000E+00  0.00000000000E+00 -0.24031477265E+04  0.24031477265E+04  0.25500000920E-02 0.  1.
    10030    2    1    2    0    0  0.00000000000E+00  0.00000000000E+00 -0.12445699659E+04  0.35617254872E+04  0.33372045256E+04 0.  0.
        4    1    3    3  502    0 -0.15388121463E+04 -0.25289659744E+03  0.11225643209E+02  0.15594957962E+04  0.12699999809E+01 0. -1.
       -4    1    3    3    0  502  0.15388121463E+04  0.25289659744E+03 -0.12557956091E+04  0.20022296909E+04  0.12699999809E+01 0.  1.
</event>
<event>
 5   0  0.1908726E-06  0.1797190E+04  0.7818609E-02  0.8707795E-01
       -2   -1    0    0    0  501  0.00000000000E+00  0.00000000000E+00  0.68214590737E+03  0.68214590737E+03  0.25500000920E-02 0. -1.
        2   -1    0    0  501    0  0.00000000000E+00  0.00000000000E+00 -0.11837243368E+04  0.11837243368E+04  0.25500000920E-02 0.  1.
    10030    2    1    2    0    0  0.00000000000E+00  0.00000000000E+00 -0.50157842940E+03  0.18658702441E+04  0.17971897082E+04 0.  0.
        5    1    3    3  502    0  0.77854351971E+03 -0.33308866676E+03 -0.56289784936E+03  0.10168353607E+04  0.46999998093E+01 0.  1.
       -5    1    3    3    0  502 -0.77854351971E+03  0.33308866676E+03  0.61319419966E+02  0.84903488342E+03  0.46999998093E+01 0. -1.
</event>
<event>
 5   0  0.1908726E-06  0.2200267E+04  0.7818609E-02  0.8518317E-01
       -2   -1    0    0    0  501  0.00000000000E+00  0.00000000000E+00  0.62446754492E+03  0.62446754493E+03  0.25500000920E-02 0.  1.
        2   -1    0    0  501    0  0.00000000000E+00  0.00000000000E+00 -0.19381217396E+04  0.19381217396E+04  0.25500000920E-02 0. -1.
    10030    2    1    2    0    0  0.00000000000E+00  0.00000000000E+00 -0.13136541947E+04  0.25625892845E+04  0.22002673697E+04 0.  0.
        5    1    3    3  502    0 -0.29041607305E+03 -0.92098200466E+03 -0.12706021415E+04  0.15959327180E+04  0.46999998093E+01 0. -1.
       -5    1    3    3    0  502  0.29041607305E+03  0.92098200466E+03 -0.43052053226E+02  0.96665656657E+03  0.46999998093E+01 0.  1.
</event>
<event>
 5   0  0.1782660E-06  0.3464103E+04  0.7818609E-02  0.8122350E-01
        2   -1    0    0  501    0  0.00000000000E+00  0.00000000000E+00  0.10226082346E+04  0.10226082346E+04  0.25500000920E-02 0.  1.
       -2   -1    0    0    0  501  0.00000000000E+00  0.00000000000E+00 -0.29336763042E+04  0.29336763042E+04  0.25500000920E-02 0. -1.
    10030    2    1    2    0    0  0.00000000000E+00  0.00000000000E+00 -0.19110680696E+04  0.39562845387E+04  0.34641025078E+04 0.  0.
        4    1    3    3  502    0  0.11369072134E+04 -0.38147751049E+03 -0.23828684460E+04  0.26676106812E+04  0.12699999809E+01 0. -1.
       -4    1    3    3    0  502 -0.11369072134E+04  0.38147751049E+03  0.47180037640E+03  0.12886738575E+04  0.12699999809E+01 0.  1.
</event>
<event>
 5   0  0.1102175E-06  0.3399507E+04  0.7818609E-02  0.8138027E-01
        1   -1    0    0  501    0  0.00000000000E+00  0.00000000000E+00  0.23941868728E+04  0.23941868728E+04  0.50400001928E-02 0.  1.
       -1   -1    0    0    0  501  0.00000000000E+00  0.00000000000E+00 -0.12067403181E+04  0.12067403181E+04  0.50400001928E-02 0. -1.
    10030    2    1    2    0    0  0.00000000000E+00  0.00000000000E+00  0.11874465547E+04  0.36009271909E+04  0.33995069221E+04 0.  0.
        5    1    3    3  502    0 -0.16769994383E+04 -0.23077467184E+03  0.43115111939E+03  0.17468535837E+04  0.46999998093E+01 0.  1.
       -5    1    3    3    0  502  0.16769994383E+04  0.23077467184E+03  0.75629543532E+03  0.18540736071E+04  0.46999998093E+01 0. -1.
</event>
<event>
 5   0  0.3041329E-06  0.2870911E+04  0.7818609E-02  0.8281585E-01
        2   -1    0    0  501    0  0.00000000000E+00  0.00000000000E+00  0.15217331683E+04  0.15217331683E+04  0.25500000920E-02 0. -1.
       -2   -1    0    0    0  501  0.00000000000E+00  0.00000000000E+00 -0.13540695436E+04  0.13540695436E+04  0.25500000920E-02 0.  1.
    10030    2    1    2    0    0  0.00000000000E+00  0.00000000000E+00  0.16766362465E+03  0.28758027119E+04  0.28709110308E+04 0.  0.
        2    1    3    3  502    0 -0.71003482013E+03  0.84505953898E+03  0.10031414006E+04  0.14914984880E+04  0.25500000920E-02 0. -1.
       -2    1    3    3    0  502  0.71003482013E+03 -0.84505953898E+03 -0.83547777594E+03  0.13843042239E+04  0.25500000920E-02 0.  1.
</event>
<event>
 5   0  0.1110956E-06  0.3497484E+04  0.7818609E-02  0.8114386E-01
       -1   -1    0    0    0  501  0.00000000000E+00  0.00000000000E+00  0.20118043895E+04  0.20118043895E+04  0.50400001928E-02 0.  1.
        1   -1    0    0  501    0  0.00000000000E+00  0.00000000000E+00 -0.15200778721E+04  0.15200778721E+04  0.50400001928E-02 0. -1.
    10030    2    1    2    0    0  0.00000000000E+00  0.00000000000E+00  0.49172651736E+03  0.35318822617E+04  0.34974844306E+04 0.  0.
        1    1    3    3  502    0 -0.14386026072E+04  0.59957686898E+03  0.10467773189E+04  0.18774484384E+04  0.50400001928E-02 0.  1.
       -1    1    3    3    0  502  0.14386026072E+04 -0.59957686898E+03 -0.55505080157E+03  0.16544338233E+04  0.50400001928E-02 0. -1.
</event>
<event>
 5   0  0.2565004E-06  0.2143615E+04  0.7818609E-02  0.8542270E-01
        2   -1    0    0  501    0  0.00000000000E+00  0.00000000000E+00  0.28520285798E+04  0.28520285798E+04  0.25500000920E-02 0. -1.
       -2   -1    0    0    0  501  0.00000000000E+00  0.00000000000E+00 -0.40279085173E+03  0.40279085174E+03  0.25500000920E-02 0.  1.
    10030    2    1    2    0    0  0.00000000000E+00  0.00000000000E+00  0.24492377280E+04  0.32548194315E+04  0.21436147236E+04 0.  0.
        3    1    3    3  502    0  0.10779761528E+03  0.10474431815E+04  0.15283457631E+04  0.18559629108E+04  0.10100000352E+00 0. -1.
       -3    1    3    3    0  502 -0.10779761528E+03 -0.10474431815E+04  0.92089196490E+03  0.13988565207E+04  0.10100000352E+00 0.  1.
</event>
<event>
 5   0  0.3041329E-06  0.3510416E+04  0.7818609E-02  0.8111326E-01
        2   -1    0    0  501    0  0.00000000000E+00  0.00000000000E+00  0.16529072466E+04  0.16529072466E+04  0.25500000920E-02 0.  1.
       -2   -1    0    0    0  501  0.00000000000E+00  0.00000000000E+00 -0.18638403891E+04  0.18638403891E+04  0.25500000920E-02 0. -1.
    10030    2    1    2    0    0  0.00000000000E+00  0.00000000000E+00 -0.21093314245E+03  0.35167476357E+04  0.35104160925E+04 0.  0.
        2    1    3    3  502    0  0.49529864302E+03 -0.16210393693E+04 -0.56199224355E+03  0.17857560484E+04  0.25500000920E-02 0. -1.
       -2    1    3    3    0  502 -0.49529864302E+03  0.16210393693E+04  0.35105910110E+03  0.17309915873E+04  0.25500000920E-02 0.  1.
</event>
<event>
 5   0  0.1908726E-06  0.1863378E+04  0.7818609E-02  0.8673303E-01
       -2   -1    0    0    0  501  0.00000000000E+00  0.00000000000E+00  0.75129147806E+03  0.75129147806E+03  0.25500000920E-02 0. -1.
        2   -1    0    0  501    0  0.00000000000E+00  0.00000000000E+00 -0.11554033713E+04  0.11554033713E+04  0.25500000920E-02 0.  1.
    10030    2    1    2    0    0  0.00000000000E+00  0.00000000000E+00 -0.40411189319E+03  0.19066948493E+04  0.18633783368E+04 0.  0.
        5    1    3    3  502    0  0.53890337653E+03  0.21748040355E+03  0.54309500004E+03  0.79541740252E+03  0.46999998093E+01 0. -1.
       -5    1    3    3    0  502 -0.53890337653E+03 -0.21748040355E+03 -0.94720689324E+03  0.11112774468E+04  0.46999998093E+01 0.  1.
</event>
<event>
 5   0  0.1102175E-06  0.3479279E+04  0.7818609E-02  0.8118718E-01
       -1   -1    0    0    0  501  0.00000000000E+00  0.00000000000E+00  0.13523799498E+04  0.13523799498E+04  0.50400001928E-02 0.  1.
        1   -1    0    0  501    0  0.00000000000E+00  0.00000000000E+00 -0.22377918134E+04  0.22377918134E+04  0.50400001928E-02 0. -1.
    10030    2    1    2    0    0  0.00000000000E+00  0.00000000000E+00 -0.88541186356E+03  0.35901717632E+04  0.34792785346E+04 0.  0.
        5    1    3    3  502    0  0.12129475524E+04  0.12277851757E+04 -0.66789182870E+03  0.18506214598E+04  0.46999998093E+01 0. -1.
       -5    1    3    3    0  502 -0.12129475524E+04 -0.12277851757E+04 -0.21752003486E+03  0.17395503034E+04  0.46999998093E+01 0.  1.
</event>
<event>
 5   0  0.1125196E-06  0.3425756E+04  0.7818609E-02  0.8131614E-01
       -1   -1    0    0    0  501  0.00000000000E+00  0.00000000000E+00  0.17057208471E+04  0.17057208471E+04  0.50400001928E-02 0. -1.
        1   -1    0    0  501    0  0.00000000000E+00  0.00000000000E+00 -0.17200650574E+04  0.17200650574E+04  0.50400001928E-02 0.  1.
    10030    2    1    2    0    0  0.00000000000E+00  0.00000000000E+00 -0.14344210319E+02  0.34257859046E+04  0.34257558739E+04 0.  0.
        4    1    3    3  502    0 -0.36033556110E+03  0.72039340858E+03 -0.15188535856E+04  0.17192225589E+04  0.12699999809E+01 0.  1.
       -4    1    3    3    0  502  0.36033556110E+03 -0.72039340858E+03  0.15045093752E+04  0.17065633457E+04  0.12699999809E+01 0. -1.
</event>
<event>
 5   0  0.1782660E-06  0.3508780E+04  0.7818609E-02  0.8111712E-01
       -2   -1    0    0    0  501  0.00000000000E+00  0.00000000000E+00  0.25789379098E+04  0.25789379098E+04  0.25500000920E-02 0.  1.
        2   -1    0    0  501    0  0.00000000000E+00  0.00000000000E+00 -0.11934694179E+04  0.11934694179E+04  0.25500000920E-02 0. -1.
    10030    2    1    2    0    0  0.00000000000E+00  0.00000000000E+00  0.13854684920E+04  0.37724073277E+04  0.35087795747E+04 0.  0.
        4    1    3    3  502    0  0.88582624081E+03  0.75257109384E+03  0.21055559339E+04  0.24050818664E+04  0.12699999809E+01 0.  1.
       -4    1    3    3    0  502 -0.88582624081E+03 -0.75257109384E+03 -0.72008744195E+03  0.13673254613E+04  0.12699999809E+01 0. -1.
</event>
<event>
 5   0  0.1125196E-06  0.2024303E+04  0.7818609E-02  0.8595342E-01
        1   -1    0    0  501    0  0.00000000000E+00  0.00000000000E+00  0.15569314662E+04  0.15569314662E+04  0.50400001928E-02 0. -1.
       -1   -1    0    0    0  501  0.00000000000E+00  0.00000000000E+00 -0.65799349688E+03  0.65799349690E+03  0.50400001928E-02 0.  1.
    10030    2    1    2    0    0  0.00000000000E+00  0.00000000000E+00  0.89893796930E+03  0.22149249631E+04  0.20243031195E+04 0.  0.
        4    1    3    3  502    0 -0.12625069602E+03 -0.44145247206E+03  0.14364228564E+04  0.15080224662E+04  0.12699999809E+01 0. -1.
       -4    1    3    3    0  502  0.12625069602E+03  0.44145247206E+03 -0.53748488709E+03  0.70690249687E+03  0.12699999809E+01 0.  1.
</event>
<event>
 5   0  0.1102175E-06  0.3453088E+04  0.7818609E-02  0.8124998E-01
       -1   -1    0    0    0  501  0.00000000000E+00  0.00000000000E+00  0.12053773992E+04  0.12053773992E+04  0.50400001928E-02 0. -1.
        1   -1    0    0  501    0  0.00000000000E+00  0.00000000000E+00 -0.24730460699E+04  0.24730460699E+04  0.50400001928E-02 0.  1.
    10030    2    1    2    0    0  0.00000000000E+00  0.00000000000E+00 -0.12676686707E+04  0.36784234692E+04  0.34530878008E+04 0.  0.
        5    1    3    3  502    0 -0.72005676247E+03 -0.46986338549E+03 -0.22287611437E+04  0.23888599097E+04  0.46999998093E+01 0.  1.
       -5    1    3    3    0  502  0.72005676247E+03  0.46986338549E+03  0.96109247304E+03  0.12895635595E+04  0.46999998093E+01 0. -1.
</event>
<event>
 5   0  0.1042825E-06  0.3474827E+04  0.7818609E-02  0.8119782E-01
       -3   -1    0    0    0  501  0.00000000000E+00  0.00000000000E+00  0.17882369777E+04  0.17882369806E+04  0.10100000352E+00 0. -1.
        3   -1    0    0  501    0  0.00000000000E+00  0.00000000000E+00 -0.16880344376E+04  0.16880344406E+04  0.10100000352E+00 0.  1.
    10030    2    1    2    0    0  0.00000000000E+00  0.00000000000E+00  0.10020254016E+03  0.34762714212E+04  0.34748269662E+04 0.  0.
        2    1    3    3  502    0 -0.15374839097E+04 -0.77988205347E+03  0.26590561656E+03  0.17443562098E+04  0.25500000920E-02 0. -1.
       -2    1    3    3    0  502  0.15374839097E+04  0.77988205347E+03 -0.16570307640E+03  0.17319152114E+04  0.25500000920E-02 0.  1.
</event>
<event>
 5   0  0.3041329E-06  0.3587267E+04  0.7818609E-02  0.8093414E-01
       -2   -1    0    0    0  501  0.00000000000E+00  0.00000000000E+00  0.11676273967E+04  0.11676273967E+04  0.25500000920E-02 0. -1.
        2   -1    0    0  501    0  0.00000000000E+00  0.00000000000E+00 -0.27552640298E+04  0.27552640298E+04  0.25500000920E-02 0.  1.
    10030    2    1    2    0    0  0.00000000000E+00  0.00000000000E+00 -0.15876366331E+04  0.39228914264E+04  0.35872673534E+04 0.  0.
        2    1    3    3  502    0 -0.37418939167E+03 -0.12736754290E+03  0.11194056243E+04  0.11871432700E+04  0.25500000920E-02 0. -1.
       -2    1    3    3    0  502  0.37418939167E+03  0.12736754290E+03 -0.27070422574E+04  0.27357481564E+04  0.25500000920E-02 0.  1.
</event>
<event>
 5   0  0.3378848E-06  0.2087979E+04  0.7818609E-02  0.8566557E-01
       -2   -1    0    0    0  501  0.00000000000E+00  0.00000000000E+00  0.16494079359E+04  0.16494079359E+04  0.25500000920E-02 0. -1.
        2   -1    0    0  501    0  0.00000000000E+00  0.00000000000E+00 -0.66079131512E+03  0.66079131513E+03  0.25500000920E-02 0.  1.
    10030    2    1    2    0    0  0.00000000000E+00  0.00000000000E+00  0.98861662080E+03  0.23101992511E+04  0.20879793478E+04 0.  0.
        1    1    3    3  502    0  0.61805454265E+03  0.41450901205E+03  0.13044263265E+04  0.15017780063E+04  0.50400001928E-02 0. -1.
       -1    1    3    3    0  502 -0.61805454265E+03 -0.41450901205E+03 -0.31580970573E+03  0.80842124478E+03  0.50400001928E-02 0.  1.
</event>
<event>
 5   0  0.1782660E-06  0.1913015E+04  0.7818609E-02  0.8648405E-01
       -2   -1    0    0    0  501  0.00000000000E+00  0.00000000000E+00  0.61706820497E+03  0.61706820497E+03  0.25500000920E-02 0.  1.
        2   -1    0    0  501    0  0.00000000000E+00  0.00000000000E+00 -0.14826672930E+04  0.14826672931E+04  0.25500000920E-02 0. -1.
    10030    2    1    2    0    0  0.00000000000E+00  0.00000000000E+00 -0.86559908808E+03  0.20997354980E+04  0.19130152588E+04 0.  0.
        4    1    3    3  502    0 -0.20787396550E+02 -0.13045525728E+03  0.60700661687E+03  0.62121601382E+03  0.12699999809E+01 0.  1.
       -4    1    3    3    0  502  0.20787396550E+02  0.13045525728E+03 -0.14726057050E+04  0.14785194842E+04  0.12699999809E+01 0. -1.
</event>
<event>
 5   0  0.2565004E-06  0.3511396E+04  0.7818609E-02  0.8111095E-01
        2   -1    0    0  501    0  0.00000000000E+00  0.00000000000E+00  0.15396976124E+04  0.15396976124E+04  0.25500000920E-02 0.  1.
       -2   -1    0    0    0  501  0.00000000000E+00  0.00000000000E+00 -0.20020006990E+04  0.20020006990E+04  0.25500000920E-02 0. -1.
    10030    2    1    2    0    0  0.00000000000E+00  0.00000000000E+00 -0.46230308666E+03  0.35416983114E+04  0.35113961305E+04 0.  0.
        3    1    3    3  502    0  0.12931540790E+04 -0.84411525401E+03  0.61133964826E+03  0.16608775421E+04  0.10100000352E+00 0.  1.
       -3    1    3    3    0  502 -0.12931540790E+04  0.84411525401E+03 -0.10736427349E+04  0.18808207694E+04  0.10100000352E+00 0. -1.
</event>
<event>
 5   0  0.1908726E-06  0.3466821E+04  0.7818609E-02  0.8121698E-01
       -2   -1    0    0    0  501  0.00000000000E+00  0.00000000000E+00  0.15746160487E+04  0.15746160487E+04  0.25500000920E-02 0. -1.
        2   -1    0    0  501    0  0.00000000000E+00  0.00000000000E+00 -0.19082184768E+04  0.19082184768E+04  0.25500000920E-02 0.  1.
    10030    2    1    2    0    0  0.00000000000E+00  0.00000000000E+00 -0.33360242808E+03  0.34828345254E+04  0.34668206979E+04 0.  0.
        5    1    3    3  502    0 -0.85197152314E+03 -0.53871942993E+03  0.12498953569E+04  0.16057193384E+04  0.46999998093E+01 0. -1.
       -5    1    3    3    0  502  0.85197152314E+03  0.53871942993E+03 -0.15834977850E+04  0.18771151871E+04  0.46999998093E+01 0.  1.
</event>
<event>
 5   0  0.1110956E-06  0.3795846E+04  0.7818609E-02  0.8047047E-01
        1   -1    0    0  501    0  0.00000000000E+00  0.00000000000E+00  0.20827525134E+04  0.20827525134E+04  0.50400001928E-02 0.  1.
       -1   -1    0    0    0  501  0.00000000000E+00  0.00000000000E+00 -0.17294959704E+04  0.17294959704E+04  0.50400001928E-02 0. -1.
    10030    2    1    2    0    0  0.00000000000E+00  0.00000000000E+00  0.35325654299E+03  0.38122484837E+04  0.37958461924E+04 0.  0.
        1    1    3    3  502    0 -0.44769857186E+03  0.11636100497E+03  0.20252716994E+04  0.20774261361E+04  0.50400001928E-02 0.  1.
       -1    1    3    3    0  502  0.44769857186E+03 -0.11636100497E+03 -0.16720151564E+04  0.17348223476E+04  0.50400001928E-02 0. -1.
</event>
<event>
 5   0  0.1130707E-06  0.2892275E+04  0.7818609E-02  0.8275180E-01
       -1   -1    0    0    0  501  0.00000000000E+00  0.00000000000E+00  0.79378539110E+03  0.79378539112E+03  0.50400001928E-02 0. -1.
        1   -1    0    0  501    0  0.00000000000E+00  0.00000000000E+00 -0.26346077582E+04  0.26346077582E+04  0.50400001928E-02 0.  1.
    10030    2    1    2    0    0  0.00000000000E+00  0.00000000000E+00 -0.18408223671E+04  0.34283931493E+04  0.28922746410E+04 0.  0.
        3    1    3    3  502    0 -0.14341205697E+04  0.33139762783E+02 -0.11374104705E+04  0.18307109660E+04  0.10100000352E+00 0. -1.
       -3    1    3    3    0  502  0.14341205697E+04 -0.33139762783E+02 -0.70341189662E+03  0.15976821833E+04  0.10100000352E+00 0.  1.
</event>
<event>
 5   0  0.1782660E-06  0.3486278E+04  0.7818609E-02  0.8117050E-01
       -2   -1    0    0    0  501  0.00000000000E+00  0.00000000000E+00  0.14570629865E+04  0.14570629866E+04  0.25500000920E-02 0.  1.
        2   -1    0    0  501    0  0.00000000000E+00  0.00000000000E+00 -0.20853818481E+04  0.20853818481E+04  0.25500000920E-02 0. -1.
    10030    2    1    2    0    0  0.00000000000E+00  0.00000000000E+00 -0.62831886158E+03  0.35424448347E+04  0.34862775011E+04 0.  0.
        4    1    3    3  502    0  0.92960528052E+03  0.83324725592E+03 -0.15503385642E+04  0.19904819124E+04  0.12699999809E+01 0. -1.
       -4    1    3    3    0  502 -0.92960528052E+03 -0.83324725592E+03  0.92201970265E+03  0.15519629223E+04  0.12699999809E+01 0.  1.
</event>
<event>
 5   0  0.1908726E-06  0.1918301E+04  0.7818609E-02  0.8645800E-01
        2   -1    0    0  501    0  0.00000000000E+00  0.00000000000E+00  0.90078727172E+03  0.90078727172E+03  0.25500000920E-02 0.  1.
       -2   -1    0    0    0  501  0.00000000000E+00  0.00000000000E+00 -0.10212953411E+04  0.10212953411E+04  0.25500000920E-02 0. -1.
    10030    2    1    2    0    0  0.00000000000E+00  0.00000000000E+00 -0.12050806937E+03  0.19220826128E+04  0.19183011692E+04 0.  0.
        5    1    3    3  502    0 -0.40728120378E+03 -0.85590746586E+03 -0.20714515471E+03  0.97025088209E+03  0.46999998093E+01 0. -1.
       -5    1    3    3    0  502  0.40728120378E+03  0.85590746586E+03  0.86637085335E+02  0.95183173073E+03  0.46999998093E+01 0.  1.
</event>
<event>
 5   0  0.1130707E-06  0.3470331E+04  0.7818609E-02  0.8120857E-01
       -1   -1    0    0    0  501  0.00000000000E+00  0.00000000000E+00  0.15830596428E+04  0.15830596428E+04  0.50400001928E-02 0.  1.
        1   -1    0    0  501    0  0.00000000000E+00  0.00000000000E+00 -0.19018858494E+04  0.19018858494E+04  0.50400001928E-02 0. -1.
    10030    2    1    2    0    0  0.00000000000E+00  0.00000000000E+00 -0.31882620666E+03  0.34849454922E+04  0.34703306664E+04 0.  0.
        3    1    3    3  502    0  0.16509865554E+04  0.33991457581E+03 -0.57285095652E+03  0.17802968162E+04  0.10100000352E+00 0.  1.
       -3    1    3    3    0  502 -0.16509865554E+04 -0.33991457581E+03  0.25402474986E+03  0.17046486761E+04  0.10100000352E+00 0. -1.
</event>
<event>
 5   0  0.1042825E-06  0.3532090E+04  0.7818609E-02  0.8106227E-01
        3   -1    0    0  501    0  0.00000000000E+00  0.00000000000E+00  0.15467505476E+04  0.15467505509E+04  0.10100000352E+00 0.  1.
       -3   -1    0    0    0  501  0.00000000000E+00  0.00000000000E+00 -0.20164308312E+04  0.20164308338E+04  0.10100000352E+00 0. -1.
    10030    2    1    2    0    0  0.00000000000E+00  0.00000000000E+00 -0.46968028363E+03  0.35631813847E+04  0.35320903175E+04 0.  0.
        3    1    3    3  502    0  0.10890604315E+04  0.13750898777E+04 -0.44156022640E+03  0.18088394730E+04  0.10100000352E+00 0. -1.
       -3    1    3    3    0  502 -0.10890604315E+04 -0.13750898777E+04 -0.28120057232E+02  0.17543419117E+04  0.10100000352E+00 0.  1.
</event>
<event>
 5   0  0.1125196E-06  0.3163702E+04  0.7818609E-02  0.8198470E-01
       -1   -1    0    0    0  501  0.00000000000E+00  0.00000000000E+00  0.16785707364E+04  0.16785707364E+04  0.50400001928E-02 0. -1.
        1   -1    0    0  501    0  0.00000000000E+00  0.00000000000E+00 -0.14907047536E+04  0.14907047536E+04  0.50400001928E-02 0.  1.
    10030    2    1    2    0    0  0.00000000000E+00  0.00000000000E+00  0.18786598282E+03  0.31692754900E+04  0.31637024993E+04 0.  0.
        4    1    3    3  502    0  0.12041816907E+04  0.97983323976E+03 -0.21012274543E+03  0.15666141526E+04  0.12699999809E+01 0.  1.
       -4    1    3    3    0  502 -0.12041816907E+04 -0.97983323976E+03  0.39798872826E+03  0.16026613375E+04  0.12699999809E+01 0. -1.
</event>
<event>
 5   0  0.3378848E-06  0.3044127E+04  0.7818609E-02  0.8231241E-01
       -2   -1    0    0    0  501  0.00000000000E+00  0.00000000000E+00  0.13731040285E+04  0.13731040285E+04  0.25500000920E-02 0.  1.
        2   -1    0    0  501    0  0.00000000000E+00  0.00000000000E+00 -0.16871822860E+04  0.16871822860E+04  0.25500000920E-02 0. -1.
    10030    2    1    2    0    0  0.00000000000E+00  0.00000000000E+00 -0.31407825750E+03  0.30602863146E+04  0.30441266688E+04 0.  0.
        1    1    3    3  502    0  0.65369189199E+03  0.84153985459E+03  0.93554867683E+03  0.14180104877E+04  0.50400001928E-02 0.  1.
       -1    1    3    3    0  502 -0.65369189199E+03 -0.84153985459E+03 -0.12496269343E+04  0.16422758269E+04  0.50400001928E-02 0. -1.
</event>
<event>
 5   0  0.1110956E-06  0.2079118E+04  0.7818609E-02  0.8570498E-01
        1   -1    0    0  501    0  0.00000000000E+00  0.00000000000E+00  0.77085144704E+03  0.77085144706E+03  0.50400001928E-02 0. -1.
       -1   -1    0    0    0  501  0.00000000000E+00  0.00000000000E+00 -0.14019336984E+04  0.14019336984E+04  0.50400001928E-02 0.  1.
    10030    2    1    2    0    0  0.00000000000E+00  0.00000000000E+00 -0.63108225137E+03  0.21727851455E+04  0.20791177168E+04 0.  0.
        1    1    3    3  502    0 -0.18910481116E+03  0.24006858656E+03 -0.13539296205E+04  0.13879909846E+04  0.50400001928E-02 0.  1.
       -1    1    3    3    0  502  0.18910481116E+03 -0.24006858656E+03  0.72284736917E+03  0.78479416091E+03  0.50400001928E-02 0. -1.
</event>
<event>
 5   0  0.1782660E-06  0.3501601E+04  0.7818609E-02  0.8113411E-01
       -2   -1    0    0    0  501  0.00000000000E+00  0.00000000000E+00  0.15915922879E+04  0.15915922879E+04  0.25500000920E-02 0. -1.
        2   -1    0    0  501    0  0.00000000000E+00  0.00000000000E+00 -0.19259344476E+04  0.19259344476E+04  0.25500000920E-02 0.  1.
    10030    2    1    2    0    0  0.00000000000E+00  0.00000000000E+00 -0.33434215970E+03  0.35175267356E+04  0.35016010132E+04 0.  0.
        4    1    3    3  502    0 -0.73586863210E+03 -0.79678512407E+03 -0.15478060405E+04  0.18899932089E+04  0.12699999809E+01 0.  1.
       -4    1    3    3    0  502  0.73586863210E+03  0.79678512407E+03  0.12134638808E+04  0.16275335267E+04  0.12699999809E+01 0. -1.
</event>
<event>
 5   0  0.1102175E-06  0.2012315E+04  0.7818609E-02  0.8600884E-01
       -1   -1    0    0    0  501  0.00000000000E+00  0.00000000000E+00  0.54240175302E+03  0.54240175305E+03  0.50400001928E-02 0.  1.
        1   -1    0    0  501    0  0.00000000000E+00  0.00000000000E+00 -0.18664270004E+04  0.18664270004E+04  0.50400001928E-02 0. -1.
    10030    2    1    2    0    0  0.00000000000E+00  0.00000000000E+00 -0.13240252474E+04  0.24088287535E+04  0.20123153599E+04 0.  0.
        5    1    3    3  502    0  0.62070525642E+03 -0.39358687558E+03  0.16050996102E+03  0.75231056191E+03  0.46999998093E+01 0.  1.
       -5    1    3    3    0  502 -0.62070525642E+03  0.39358687558E+03 -0.14845352084E+04  0.16565181916E+04  0.46999998093E+01 0. -1.
</event>
<event>
 5   0  0.1782660E-06  0.2992873E+04  0.7818609E-02  0.8245769E-01
        2   -1    0    0  501    0  0.00000000000E+00  0.00000000000E+00  0.17400592865E+04  0.17400592865E+04  0.25500000920E-02 0. -1.
       -2   -1    0    0    0  501  0.00000000000E+00  0.00000000000E+00 -0.12869229162E+04  0.12869229162E+04  0.25500000920E-02 0.  1.
    10030    2    1    2    0    0  0.00000000000E+00  0.00000000000E+00  0.45313637038E+03  0.30269822027E+04  0.29928729818E+04 0.  0.
        4    1    3    3  502    0 -0.12207421022E+04  0.86376415842E+03  0.17098038701E+03  0.15051696606E+04  0.12699999809E+01 0. -1.
       -4    1    3    3    0  502  0.12207421022E+04 -0.86376415842E+03  0.28215598337E+03  0.15218125421E+04  0.12699999809E+01 0.  1.
</event>
<event>
 5   0  0.3378848E-06  0.2281895E+04  0.7818609E-02  0.8485094E-01
       -2   -1    0    0    0  501  0.00000000000E+00  0.00000000000E+00  0.79074143075E+03  0.79074143075E+03  0.25500000920E-02 0.  1.
        2   -1    0    0  501    0  0.00000000000E+00  0.00000000000E+00 -0.16462534907E+04  0.16462534907E+04  0.25500000920E-02 0. -1.
    10030    2    1    2    0    0  0.00000000000E+00  0.00000000000E+00 -0.85551205995E+03  0.24369949214E+04  0.22818946870E+04 0.  0.
        1    1    3    3  502    0 -0.34754656539E+03 -0.83197766084E+03  0.31889580769E+03  0.95638380341E+03  0.50400001928E-02 0.  1.
       -1    1    3    3    0  502  0.34754656539E+03  0.83197766084E+03 -0.11744078676E+04  0.14806111180E+04  0.50400001928E-02 0. -1.
</event>
<event>
 5   0  0.3041329E-06  0.3137689E+04  0.7818609E-02  0.8205470E-01
        2   -1    0    0  501    0  0.00000000000E+00  0.00000000000E+00  0.14578602559E+04  0.14578602559E+04  0.25500000920E-02 0. -1.
       -2   -1    0    0    0  501  0.00000000000E+00  0.00000000000E+00 -0.16882775012E+04  0.16882775012E+04  0.25500000920E-02 0.  1.
    10030    2    1    2    0    0  0.00000000000E+00  0.00000000000E+00 -0.23041724538E+03  0.31461377571E+04  0.31376887481E+04 0.  0.
        2    1    3    3  502    0  0.65353727880E+03  0.22064103184E+03  0.12976559930E+04  0.14695933165E+04  0.25500000920E-02 0. -1.
       -2    1    3    3    0  502 -0.65353727880E+03 -0.22064103184E+03 -0.15280732383E+04  0.16765444406E+04  0.25500000920E-02 0.  1.
</event>
<event>
 5   0  0.1782660E-06  0.3489570E+04  0.7818609E-02  0.8116266E-01
        2   -1    0    0  501    0  0.00000000000E+00  0.00000000000E+00  0.20845297283E+04  0.20845297283E+04  0.25500000920E-02 0. -1.
       -2   -1    0    0    0  501  0.00000000000E+00  0.00000000000E+00 -0.14604131241E+04  0.14604131241E+04  0.25500000920E-02 0.  1.
    10030    2    1    2    0    0  0.00000000000E+00  0.00000000000E+00  0.62411660420E+03  0.35449428523E+04  0.34895699292E+04 0.  0.
        4    1    3    3  502    0 -0.84196373360E+03 -0.88027912505E+03  0.15810718369E+04  0.19958917889E+04  0.12699999809E+01 0. -1.
       -4    1    3    3    0  502  0.84196373360E+03  0.88027912505E+03 -0.95695523271E+03  0.15490510634E+04  0.12699999809E+01 0.  1.
</event>
<event>
 5   0  0.2565004E-06  0.2200412E+04  0.7818609E-02  0.8518257E-01
        2   -1    0    0  501    0  0.00000000000E+00  0.00000000000E+00  0.19336889390E+04  0.19336889390E+04  0.25500000920E-02 0. -1.
       -2   -1    0    0    0  501  0.00000000000E+00  0.00000000000E+00 -0.62598137767E+03  0.62598137768E+03  0.25500000920E-02 0.  1.
    10030    2    1    2    0    0  0.00000000000E+00  0.00000000000E+00  0.13077075613E+04  0.25596703167E+04  0.22004120214E+04 0.  0.
        3    1    3    3  502    0  0.68148234327E+03 -0.55966624030E+03  0.14191473251E+04  0.16708152577E+04  0.10100000352E+00 0. -1.
       -3    1    3    3    0  502 -0.68148234327E+03  0.55966624030E+03 -0.11143976381E+03  0.88885505898E+03  0.10100000352E+00 0.  1.
</event>
<event>
 5   0  0.1130707E-06  0.3646445E+04  0.7818609E-02  0.8079935E-01
        1   -1    0    0  501    0  0.00000000000E+00  0.00000000000E+00  0.29499540327E+04  0.29499540327E+04  0.50400001928E-02 0. -1.
       -1   -1    0    0    0  501  0.00000000000E+00  0.00000000000E+00 -0.11268447127E+04  0.11268447127E+04  0.50400001928E-02 0.  1.
    10030    2    1    2    0    0  0.00000000000E+00  0.00000000000E+00  0.18231093201E+04  0.40767987454E+04  0.36464449012E+04 0.  0.
        3    1    3    3  502    0 -0.46351153044E+01 -0.11985119984E+04 -0.62452832476E+03  0.13514762792E+04  0.10100000352E+00 0.  1.
       -3    1    3    3    0  502  0.46351153044E+01  0.11985119984E+04  0.24476376448E+04  0.27253224663E+04  0.10100000352E+00 0. -1.
</event>
<event>
 5   0  0.3041329E-06  0.1804383E+04  0.7818609E-02  0.8703972E-01
       -2   -1    0    0    0  501  0.00000000000E+00  0.00000000000E+00  0.66499395837E+03  0.66499395838E+03  0.25500000920E-02 0. -1.
        2   -1    0    0  501    0  0.00000000000E+00  0.00000000000E+00 -0.12239960007E+04  0.12239960007E+04  0.25500000920E-02 0.  1.
    10030    2    1    2    0    0  0.00000000000E+00  0.00000000000E+00 -0.55900204236E+03  0.18889899591E+04  0.18043834909E+04 0.  0.
        2    1    3    3  502    0 -0.48670783003E+03 -0.73779700841E+03 -0.46887231327E+03  0.10005349487E+04  0.25500000920E-02 0. -1.
       -2    1    3    3    0  502  0.48670783003E+03  0.73779700841E+03 -0.90129729089E+02  0.88845501040E+03  0.25500000920E-02 0.  1.
</event>
<event>
 5   0  0.1110956E-06  0.3376877E+04  0.7818609E-02  0.8143605E-01
        1   -1    0    0  501    0  0.00000000000E+00  0.00000000000E+00  0.15858594779E+04  0.15858594780E+04  0.50400001928E-02 0. -1.
       -1   -1    0    0    0  501  0.00000000000E+00  0.00000000000E+00 -0.17976529314E+04  0.17976529314E+04  0.50400001928E-02 0.  1.
    10030    2    1    2    0    0  0.00000000000E+00  0.00000000000E+00 -0.21179345346E+03  0.33835124094E+04  0.33768772198E+04 0.  0.
        1    1    3    3  502    0  0.70958231351E+03  0.99807112077E+03  0.10587864664E+04  0.16188520016E+04  0.50400001928E-02 0. -1.
       -1    1    3    3    0  502 -0.70958231351E+03 -0.99807112077E+03 -0.12705799199E+04  0.17646604077E+04  0.50400001928E-02 0.  1.
</event>
<event>
 5   0  0.1089337E-06  0.3209956E+04  0.7818609E-02  0.8186193E-01
       -1   -1    0    0    0  501  0.00000000000E+00  0.00000000000E+00  0.13924838577E+04  0.13924838577E+04  0.50400001928E-02 0. -1.
        1   -1    0    0  501    0  0.00000000000E+00  0.00000000000E+00 -0.18498983922E+04  0.18498983922E+04  0.50400001928E-02 0.  1.
    10030    2    1    2    0    0  0.00000000000E+00  0.00000000000E+00 -0.45741453450E+03  0.32423822499E+04  0.32099555446E+04 0.  0.
        2    1    3    3  502    0  0.70914678200E+03  0.53546631007E+02 -0.16820600920E+04  0.18262208391E+04  0.25500000920E-02 0.  1.
       -2    1    3    3    0  502 -0.70914678200E+03 -0.53546631007E+02  0.12246455574E+04  0.14161614108E+04  0.25500000920E-02 0. -1.
</event>
<event>
 5   0  0.3041329E-06  0.3376732E+04  0.7818609E-02  0.8143641E-01
        2   -1    0    0  501    0  0.00000000000E+00  0.00000000000E+00  0.17638062808E+04  0.17638062808E+04  0.25500000920E-02 0.  1.
       -2   -1    0    0    0  501  0.00000000000E+00  0.00000000000E+00 -0.16161520231E+04  0.16161520231E+04  0.25500000920E-02 0. -1.
    10030    2    1    2    0    0  0.00000000000E+00  0.00000000000E+00  0.14765425769E+03  0.33799583039E+04  0.33767316086E+04 0.  0.
        2    1    3    3  502    0 -0.18845070043E+03  0.50105182628E+03  0.16766106469E+04  0.17599971194E+04  0.25500000920E-02 0.  1.
       -2    1    3    3    0  502  0.18845070043E+03 -0.50105182628E+03 -0.15289563892E+04  0.16199611845E+04  0.25500000920E-02 0. -1.
</event>
<event>
 5   0  0.2565004E-06  0.2884238E+04  0.7818609E-02  0.8277583E-01
        2   -1    0    0  501    0  0.00000000000E+00  0.00000000000E+00  0.12771247480E+04  0.12771247481E+04  0.25500000920E-02 0.  1.
       -2   -1    0    0    0  501  0.00000000000E+00  0.00000000000E+00 -0.16284289007E+04  0.16284289008E+04  0.25500000920E-02 0. -1.
    10030    2    1    2    0    0  0.00000000000E+00  0.00000000000E+00 -0.35130415270E+03  0.29055536488E+04  0.28842377500E+04 0.  0.
        3    1    3    3  502    0 -0.64091624850E+03 -0.96304770569E+03 -0.10431037974E+04  0.15576585195E+04  0.10100000352E+00 0.  1.
       -3    1    3    3    0  502  0.64091624850E+03  0.96304770569E+03  0.69179964468E+03  0.13478951293E+04  0.10100000352E+00 0. -1.
</event>
<event>
 5   0  0.2565004E-06  0.3340305E+04  0.7818609E-02  0.8152715E-01
       -2   -1    0    0    0  501  0.00000000000E+00  0.00000000000E+00  0.20803391436E+04  0.20803391436E+04  0.25500000920E-02 0.  1.
        2   -1    0    0  501    0  0.00000000000E+00  0.00000000000E+00 -0.13408434158E+04  0.13408434158E+04  0.25500000920E-02 0. -1.
    10030    2    1    2    0    0  0.00000000000E+00  0.00000000000E+00  0.73949572788E+03  0.34211825594E+04  0.33403048025E+04 0.  0.
        3    1    3    3  502    0 -0.19880326588E+03  0.34661402479E+03  0.20306611973E+04  0.20696011522E+04  0.10100000352E+00 0.  1.
       -3    1    3    3    0  502  0.19880326588E+03 -0.34661402479E+03 -0.12911654694E+04  0.13515814072E+04  0.10100000352E+00 0. -1.
</event>
<event>
 5   0  0.1908726E-06  0.3501677E+04  0.7818609E-02  0.8113393E-01
        2   -1    0    0  501    0  0.00000000000E+00  0.00000000000E+00  0.18726155762E+04  0.18726155762E+04  0.25500000920E-02 0. -1.
       -2   -1    0    0    0  501  0.00000000000E+00  0.00000000000E+00 -0.16369806712E+04  0.16369806712E+04  0.25500000920E-02 0.  1.
    10030    2    1    2    0    0  0.00000000000E+00  0.00000000000E+00  0.23563490497E+03  0.35095962474E+04  0.35016770284E+04 0.  0.
        5    1    3    3  502    0  0.49801792925E+03 -0.26399510371E+03 -0.15435495476E+04  0.16432536532E+04  0.46999998093E+01 0.  1.
       -5    1    3    3    0  502 -0.49801792925E+03  0.26399510371E+03  0.17791844526E+04  0.18663425942E+04  0.46999998093E+01 0. -1.
</event>
<event>
 5   0  0.1130707E-06  0.2067068E+04  0.7818609E-02  0.8575891E-01
        1   -1    0    0  501    0  0.00000000000E+00  0.00000000000E+00  0.15778318389E+04  0.15778318389E+04  0.50400001928E-02 0.  1.
       -1   -1    0    0    0  501  0.00000000000E+00  0.00000000000E+00 -0.67699993113E+03  0.67699993115E+03  0.50400001928E-02 0. -1.
    10030    2    1    2    0    0  0.00000000000E+00  0.00000000000E+00  0.90083190778E+03  0.22548317701E+04  0.20670675328E+04 0.  0.
        3    1    3    3  502    0  0.50508845474E+03 -0.85104845186E+03  0.77546719743E+03  0.12572776937E+04  0.10100000352E+00 0. -1.
       -3    1    3    3    0  502 -0.50508845474E+03  0.85104845186E+03  0.12536471035E+03  0.99755407640E+03  0.10100000352E+00 0.  1.
</event>
<event>
 5   0  0.1782660E-06  0.2984011E+04  0.7818609E-02  0.8248311E-01
       -2   -1    0    0    0  501  0.00000000000E+00  0.00000000000E+00  0.82626969315E+03  0.82626969316E+03  0.25500000920E-02 0. -1.
        2   -1    0    0  501    0  0.00000000000E+00  0.00000000000E+00 -0.26941324979E+04  0.26941324979E+04  0.25500000920E-02 0.  1.
    10030    2    1    2    0    0  0.00000000000E+00  0.00000000000E+00 -0.18678628048E+04  0.35204021911E+04  0.29840107455E+04 0.  0.
        4    1    3    3  502    0 -0.73617956126E+03 -0.12617910606E+04 -0.57609122542E+03  0.15703374606E+04  0.12699999809E+01 0.  1.
       -4    1    3    3    0  502  0.73617956126E+03  0.12617910606E+04 -0.12917715793E+04  0.19500647305E+04  0.12699999809E+01 0. -1.
</event>
<event>
 5   0  0.1782660E-06  0.3023439E+04  0.7818609E-02  0.8237069E-01
       -2   -1    0    0    0  501  0.00000000000E+00  0.00000000000E+00  0.13387429993E+04  0.13387429993E+04  0.25500000920E-02 0.  1.
        2   -1    0    0  501    0  0.00000000000E+00  0.00000000000E+00 -0.17070455091E+04  0.17070455091E+04  0.25500000920E-02 0. -1.
    10030    2    1    2    0    0  0.00000000000E+00  0.00000000000E+00 -0.36830250981E+03  0.30457885084E+04  0.30234385886E+04 0.  0.
        4    1    3    3  502    0 -0.12172033140E+04 -0.37079770542E+03 -0.10064072012E+04  0.16223229991E+04  0.12699999809E+01 0. -1.
       -4    1    3    3    0  502  0.12172033140E+04  0.37079770542E+03  0.63810469140E+03  0.14234655093E+04  0.12699999809E+01 0.  1.
</event>
<event>
 5   0  0.3041329E-06  0.2510458E+04  0.7818609E-02  0.8399269E-01
        2   -1    0    0  501    0  0.00000000000E+00  0.00000000000E+00  0.11897342852E+04  0.11897342852E+04  0.25500000920E-02 0. -1.
       -2   -1    0    0    0  501  0.00000000000E+00  0.00000000000E+00 -0.13243293078E+04  0.13243293078E+04  0.25500000920E-02 0.  1.
    10030    2    1    2    0    0  0.00000000000E+00  0.00000000000E+00 -0.13459502262E+03  0.25140635931E+04  0.25104581116E+04 0.  0.
        2    1    3    3  502    0 -0.15230762147E+03  0.27737673323E+03 -0.12837290306E+04  0.13221556973E+04  0.25500000920E-02 0.  1.
       -2    1    3    3    0  502  0.15230762147E+03 -0.27737673323E+03  0.11491340080E+04  0.11919078958E+04  0.25500000920E-02 0. -1.
</event>
<event>
 5   0  0.3041329E-06  0.3587947E+04  0.7818609E-02  0.8093258E-01
       -2   -1    0    0    0  501  0.00000000000E+00  0.00000000000E+00  0.18497590586E+04  0.18497590586E+04  0.25500000920E-02 0.  1.
        2   -1    0    0  501    0  0.00000000000E+00  0.00000000000E+00 -0.17398700415E+04  0.17398700415E+04  0.25500000920E-02 0. -1.
    10030    2    1    2    0    0  0.00000000000E+00  0.00000000000E+00  0.10988901702E+03  0.35896291001E+04  0.35879466942E+04 0.  0.
        2    1    3    3  502    0 -0.76739256505E+03 -0.85829755189E+03  0.14313709730E+04  0.18369509789E+04  0.25500000920E-02 0.  1.
       -2    1    3    3    0  502  0.76739256505E+03  0.85829755189E+03 -0.13214819560E+04  0.17526781212E+04  0.25500000920E-02 0. -1.
</event>
<event>
 5   0  0.1908726E-06  0.3416014E+04  0.7818609E-02  0.8133987E-01
        2   -1    0    0  501    0  0.00000000000E+00  0.00000000000E+00  0.25590043533E+04  0.25590043533E+04  0.25500000920E-02 0.  1.
       -2   -1    0    0    0  501  0.00000000000E+00  0.00000000000E+00 -0.11400086863E+04  0.11400086863E+04  0.25500000920E-02 0. -1.
    10030    2    1    2    0    0  0.00000000000E+00  0.00000000000E+00  0.14189956670E+04  0.36990130396E+04  0.34160135778E+04 0.  0.
        5    1    3    3  502    0 -0.11314471899E+04 -0.48636480414E+03 -0.57198940588E+03  0.13579092152E+04  0.46999998093E+01 0. -1.
       -5    1    3    3    0  502  0.11314471899E+04  0.48636480414E+03  0.19909850729E+04  0.23411038244E+04  0.46999998093E+01 0.  1.
</event>
<event>
 5   0  0.1125196E-06  0.3325857E+04  0.7818609E-02  0.8156347E-01
        1   -1    0    0  501    0  0.00000000000E+00  0.00000000000E+00  0.18025585050E+04  0.18025585050E+04  0.50400001928E-02 0. -1.
       -1   -1    0    0    0  501  0.00000000000E+00  0.00000000000E+00 -0.15341142238E+04  0.15341142238E+04  0.50400001928E-02 0.  1.
    10030    2    1    2    0    0  0.00000000000E+00  0.00000000000E+00  0.26844428119E+03  0.33366727289E+04  0.33258566667E+04 0.  0.
        4    1    3    3  502    0  0.26017767699E+03 -0.10701801625E+04  0.13842078548E+04  0.17689010718E+04  0.12699999809E+01 0. -1.
       -4    1    3    3    0  502 -0.26017767699E+03  0.10701801625E+04 -0.11157635736E+04  0.15677716571E+04  0.12699999809E+01 0.  1.
</event>
<event>
 5   0  0.2565004E-06  0.2186653E+04  0.7818609E-02  0.8524004E-01
       -2   -1    0    0    0  501  0.00000000000E+00  0.00000000000E+00  0.42360362110E+03  0.42360362111E+03  0.25500000920E-02 0.  1.
        2   -1    0    0  501    0  0.00000000000E+00  0.00000000000E+00 -0.28218912138E+04  0.28218912138E+04  0.25500000920E-02 0. -1.
    10030    2    1    2    0    0  0.00000000000E+00  0.00000000000E+00 -0.23982875927E+04  0.32454948349E+04  0.21866534582E+04 0.  0.
        3    1    3    3  502    0  0.86102031693E+03 -0.67371497740E+03 -0.12150928309E+04  0.16345331000E+04  0.10100000352E+00 0. -1.
       -3    1    3    3    0  502 -0.86102031693E+03  0.67371497740E+03 -0.11831947618E+04  0.16109617349E+04  0.10100000352E+00 0.  1.
</event>
<event>
 5   0  0.1782660E-06  0.1997479E+04  0.7818609E-02  0.8607800E-01
       -2   -1    0    0    0  501  0.00000000000E+00  0.00000000000E+00  0.78943488867E+03  0.78943488868E+03  0.25500000920E-02 0. -1.
        2   -1    0    0  501    0  0.00000000000E+00  0.00000000000E+00 -0.12635376981E+04  0.12635376981E+04  0.25500000920E-02 0.  1.
    10030    2    1    2    0    0  0.00000000000E+00  0.00000000000E+00 -0.47410280946E+03  0.20529725868E+04  0.19974791534E+04 0.  0.
        4    1    3    3  502    0 -0.22961223852E+03  0.33789120737E+03  0.69963329954E+03  0.81017320051E+03  0.12699999809E+01 0. -1.
       -4    1    3    3    0  502  0.22961223852E+03 -0.33789120737E+03 -0.11737361090E+04  0.12427993863E+04  0.12699999809E+01 0.  1.
</event>
<event>
 5   0  0.1908726E-06  0.3525203E+04  0.7818609E-02  0.8107843E-01
       -2   -1    0    0    0  501  0.00000000000E+00  0.00000000000E+00  0.33563574679E+04  0.33563574679E+04  0.25500000920E-02 0.  1.
        2   -1    0    0  501    0  0.00000000000E+00  0.00000000000E+00 -0.92563582565E+03  0.92563582566E+03  0.25500000920E-02 0. -1.
    10030    2    1    2    0    0  0.00000000000E+00  0.00000000000E+00  0.24307216423E+04  0.42819932936E+04  0.35252033791E+04 0.  0.
        5    1    3    3  502    0 -0.10630769014E+04  0.10243583582E+04  0.23850539913E+04  0.28049861275E+04  0.46999998093E+01 0.  1.
       -5    1    3    3    0  502  0.10630769014E+04 -0.10243583582E+04  0.45667650939E+02  0.14770071660E+04  0.46999998093E+01 0. -1.
</event>
<event>
 5   0  0.1125196E-06  0.2858479E+04  0.7818609E-02  0.8285339E-01
       -1   -1    0    0    0  501  0.00000000000E+00  0.00000000000E+00  0.92313339510E+03  0.92313339511E+03  0.50400001928E-02 0.  1.
        1   -1    0    0  501    0  0.00000000000E+00  0.00000000000E+00 -0.22128174335E+04  0.22128174335E+04  0.50400001928E-02 0. -1.
    10030    2    1    2    0    0  0.00000000000E+00  0.00000000000E+00 -0.12896840384E+04  0.31359508286E+04  0.28584790852E+04 0.  0.
        4    1    3    3  502    0  0.58940725031E+03 -0.15678304862E+03 -0.20628835486E+04  0.21511559634E+04  0.12699999809E+01 0. -1.
       -4    1    3    3    0  502 -0.58940725031E+03  0.15678304862E+03  0.77319951019E+03  0.98479486519E+03  0.12699999809E+01 0.  1.
</event>
<event>
 5   0  0.2565004E-06  0.2149207E+04  0.7818609E-02  0.8539872E-01
       -2   -1    0    0    0  501  0.00000000000E+00  0.00000000000E+00  0.75478041025E+03  0.75478041025E+03  0.25500000920E-02 0. -1.
        2   -1    0    0  501    0  0.00000000000E+00  0.00000000000E+00 -0.15299454933E+04  0.15299454933E+04  0.25500000920E-02 0.  1.
    10030    2    1    2    0    0  0.00000000000E+00  0.00000000000E+00 -0.77516508305E+03  0.22847259035E+04  0.21492071907E+04 0.  0.
        3    1    3    3  502    0  0.25396120808E+03  0.10203005206E+04 -0.62353154164E+03  0.12224160671E+04  0.10100000352E+00 0.  1.
       -3    1    3    3    0  502 -0.25396120808E+03 -0.10203005206E+04 -0.15163354141E+03  0.10623098364E+04  0.10100000352E+00 0. -1.
</event>
<event>
 5   0  0.2565004E-06  0.3365316E+04  0.7818609E-02  0.8146472E-01
        2   -1    0    0  501    0  0.00000000000E+00  0.00000000000E+00  0.13711294866E+04  0.13711294866E+04  0.25500000920E-02 0. -1.
       -2   -1    0    0    0  501  0.00000000000E+00  0.00000000000E+00 -0.20649676566E+04  0.20649676566E+04  0.25500000920E-02 0.  1.
    10030    2    1    2    0    0  0.00000000000E+00  0.00000000000E+00 -0.69383817002E+03  0.34360971431E+04  0.33653160581E+04 0.  0.
        3    1    3    3  502    0 -0.15340252514E+04 -0.36238434124E+03 -0.94818688007E+03  0.18394603155E+04  0.10100000352E+00 0. -1.
       -3    1    3    3    0  502  0.15340252514E+04  0.36238434124E+03  0.25434871005E+03  0.15966368276E+04  0.10100000352E+00 0.  1.
</event>
<event>
 5   0  0.3041329E-06  0.2196544E+04  0.7818609E-02  0.8519868E-01
        2   -1    0    0  501    0  0.00000000000E+00  0.00000000000E+00  0.16751492559E+04  0.16751492559E+04  0.25500000920E-02 0.  1.
       -2   -1    0    0    0  501  0.00000000000E+00  0.00000000000E+00 -0.72005611818E+03  0.72005611819E+03  0.25500000920E-02 0. -1.
    10030    2    1    2    0    0  0.00000000000E+00  0.00000000000E+00  0.95509313770E+03  0.23952053741E+04  0.21965440770E+04 0.  0.
        2    1    3    3  502    0  0.28786480405E+03 -0.36765607327E+03  0.15615169686E+04  0.16298381444E+04  0.25500000920E-02 0.  1.
       -2    1    3    3    0  502 -0.28786480405E+03  0.36765607327E+03 -0.60642383089E+03  0.76536722970E+03  0.25500000920E-02 0. -1.
</event>
<event>
 5   0  0.1782660E-06  0.3354241E+04  0.7818609E-02  0.8149229E-01
        2   -1    0    0  501    0  0.00000000000E+00  0.00000000000E+00  0.20740523516E+04  0.20740523516E+04  0.25500000920E-02 0. -1.
       -2   -1    0    0    0  501  0.00000000000E+00  0.00000000000E+00 -0.13561530607E+04  0.13561530607E+04  0.25500000920E-02 0.  1.
    10030    2    1    2    0    0  0.00000000000E+00  0.00000000000E+00  0.71789929090E+03  0.34302054123E+04  0.33542405666E+04 0.  0.
        4    1    3    3  502    0  0.21391874131E+03  0.16334154868E+04  0.68059371679E+03  0.17824188062E+04  0.12699999809E+01 0. -1.
       -4    1    3    3    0  502 -0.21391874131E+03 -0.16334154868E+04  0.37305574110E+02  0.16477866061E+04  0.12699999809E+01 0.  1.
</event>
<event>
 5   0  0.1089337E-06  0.3533729E+04  0.7818609E-02  0.8105843E-01
        1   -1    0    0  501    0  0.00000000000E+00  0.00000000000E+00  0.87180948169E+03  0.87180948170E+03  0.50400001928E-02 0.  1.
       -1   -1    0    0    0  501  0.00000000000E+00  0.00000000000E+00 -0.35808408321E+04  0.35808408321E+04  0.50400001928E-02 0. -1.
    10030    2    1    2    0    0  0.00000000000E+00  0.00000000000E+00 -0.27090313504E+04  0.44526503138E+04  0.35337294689E+04 0.  0.
        2    1    3    3  502    0 -0.72785459054E+02 -0.15034551943E+04 -0.25204030684E+04  0.29356612324E+04  0.25500000920E-02 0. -1.
       -2    1    3    3    0  502  0.72785459054E+02  0.15034551943E+04 -0.18862828202E+03  0.15169890814E+04  0.25500000920E-02 0.  1.
</event>
<event>
 5   0  0.1089337E-06  0.2698565E+04  0.7818609E-02  0.8335471E-01
       -1   -1    0    0    0  501  0.00000000000E+00  0.00000000000E+00  0.82918948355E+03  0.82918948357E+03  0.50400001928E-02 0. -1.
        1   -1    0    0  501    0  0.00000000000E+00  0.00000000000E+00 -0.21955938608E+04  0.21955938608E+04  0.50400001928E-02 0.  1.
    10030    2    1    2    0    0  0.00000000000E+00  0.00000000000E+00 -0.13664043772E+04  0.30247833444E+04  0.26985650554E+04 0.  0.
        2    1    3    3  502    0  0.12429664567E+04  0.39228118809E+03 -0.10742503199E+04  0.16890423005E+04  0.25500000920E-02 0.  1.
       -2    1    3    3    0  502 -0.12429664567E+04 -0.39228118809E+03 -0.29215405737E+03  0.13357410439E+04  0.25500000920E-02 0. -1.
</event>
<event>
 5   0  0.1110956E-06  0.3422803E+04  0.7818609E-02  0.8132332E-01
       -1   -1    0    0    0  501  0.00000000000E+00  0.00000000000E+00  0.13073215909E+04  0.13073215909E+04  0.50400001928E-02 0. -1.
        1   -1    0    0  501    0  0.00000000000E+00  0.00000000000E+00 -0.22403789547E+04  0.22403789547E+04  0.50400001928E-02 0.  1.
    10030    2    1    2    0    0  0.00000000000E+00  0.00000000000E+00 -0.93305736378E+03  0.35477005456E+04  0.34228034003E+04 0.  0.
        1    1    3    3  502    0  0.12654756072E+04 -0.83736167059E+03 -0.12867927256E+04  0.19895825186E+04  0.50400001928E-02 0.  1.
       -1    1    3    3    0  502 -0.12654756072E+04  0.83736167059E+03  0.35373536180E+03  0.15581180269E+04  0.50400001928E-02 0. -1.
</event>
<event>
 5   0  0.1782660E-06  0.3477471E+04  0.7818609E-02  0.8119150E-01
       -2   -1    0    0    0  501  0.00000000000E+00  0.00000000000E+00  0.17392771353E+04  0.17392771353E+04  0.25500000920E-02 0.  1.
        2   -1    0    0  501    0  0.00000000000E+00  0.00000000000E+00 -0.17381944228E+04  0.17381944228E+04  0.25500000920E-02 0. -1.
    10030    2    1    2    0    0  0.00000000000E+00  0.00000000000E+00  0.10827125178E+01  0.34774715581E+04  0.34774713895E+04 0.  0.
        4    1    3    3  502    0 -0.13757124587E+04 -0.65945073231E+03  0.83465180059E+03  0.17389954797E+04  0.12699999809E+01 0.  1.
       -4    1    3    3    0  502  0.13757124587E+04  0.65945073231E+03 -0.83356908807E+03  0.17384760783E+04  0.12699999809E+01 0. -1.
</event>
<event>
 5   0  0.1130707E-06  0.3426291E+04  0.7818609E-02  0.8131484E-01
        1   -1    0    0  501    0  0.00000000000E+00  0.00000000000E+00  0.16612539105E+04  0.16612539105E+04  0.50400001928E-02 0. -1.
       -1   -1    0    0    0  501  0.00000000000E+00  0.00000000000E+00 -0.17666578666E+04  0.17666578666E+04  0.50400001928E-02 0.  1.
    10030    2    1    2    0    0  0.00000000000E+00  0.00000000000E+00 -0.10540395614E+03  0.34279117771E+04  0.34262908747E+04 0.  0.
        3    1    3    3  502    0 -0.62161792979E+03 -0.51133039061E+03 -0.15657003356E+04  0.17604786764E+04  0.10100000352E+00 0.  1.
       -3    1    3    3    0  502  0.62161792979E+03  0.51133039061E+03  0.14602963795E+04  0.16674331007E+04  0.10100000352E+00 0. -1.
</event>
<event>
 5   0  0.3041329E-06  0.3196680E+04  0.7818609E-02  0.8189695E-01
        2   -1    0    0  501    0  0.00000000000E+00  0.00000000000E+00  0.22701404183E+04  0.22701404183E+04  0.25500000920E-02 0.  1.
       -2   -1    0    0    0  501  0.00000000000E+00  0.00000000000E+00 -0.11253446075E+04  0.11253446075E+04  0.25500000920E-02 0. -1.
    10030    2    1    2    0    0  0.00000000000E+00  0.00000000000E+00  0.11447958108E+04  0.33954850258E+04  0.31966797012E+04 0.  0.
        2    1    3    3  502    0  0.80398112603E+03  0.13541673804E+04  0.28240739015E+03  0.15999715245E+04  0.25500000920E-02 0. -1.
       -2    1    3    3    0  502 -0.80398112603E+03 -0.13541673804E+04  0.86238842066E+03  0.17955135013E+04  0.25500000920E-02 0.  1.
</event>
<event>
 5   0  0.1042825E-06  0.3461277E+04  0.7818609E-02  0.8123028E-01
        3   -1    0    0  501    0  0.00000000000E+00  0.00000000000E+00  0.20889491436E+04  0.20889491461E+04  0.10100000352E+00 0. -1.
       -3   -1    0    0    0  501  0.00000000000E+00  0.00000000000E+00 -0.14337880133E+04  0.14337880168E+04  0.10100000352E+00 0.  1.
    10030    2    1    2    0    0  0.00000000000E+00  0.00000000000E+00  0.65516113037E+03  0.35227371629E+04  0.34612773671E+04 0.  0.
        5    1    3    3  502    0  0.40631386596E+03  0.16787522620E+04  0.21707992630E+03  0.17408175951E+04  0.46999998093E+01 0.  1.
       -5    1    3    3    0  502 -0.40631386596E+03 -0.16787522620E+04  0.43808120407E+03  0.17819195678E+04  0.46999998093E+01 0. -1.
</event>
<event>
 5   0  0.1908726E-06  0.3067733E+04  0.7818609E-02  0.8224650E-01
       -2   -1    0    0    0  501  0.00000000000E+00  0.00000000000E+00  0.20914839335E+04  0.20914839335E+04  0.25500000920E-02 0.  1.
        2   -1    0    0  501    0  0.00000000000E+00  0.00000000000E+00 -0.11249170823E+04  0.11249170823E+04  0.25500000920E-02 0. -1.
    10030    2    1    2    0    0  0.00000000000E+00  0.00000000000E+00  0.96656685123E+03  0.32164010158E+04  0.30677327159E+04 0.  0.
        5    1    3    3  502    0  0.10096295470E+04  0.30766641617E+03 -0.68362856511E+03  0.12575295427E+04  0.46999998093E+01 0. -1.
       -5    1    3    3    0  502 -0.10096295470E+04 -0.30766641617E+03  0.16501954163E+04  0.19588714731E+04  0.46999998093E+01 0.  1.
</event>
<event>
 5   0  0.1130707E-06  0.3575511E+04  0.7818609E-02  0.8096124E-01
       -1   -1    0    0    0  501  0.00000000000E+00  0.00000000000E+00  0.14724432326E+04  0.14724432326E+04  0.50400001928E-02 0.  1.
        1   -1    0    0  501    0  0.00000000000E+00  0.00000000000E+00 -0.21705889161E+04  0.21705889161E+04  0.50400001928E-02 0. -1.
    10030    2    1    2    0    0  0.00000000000E+00  0.00000000000E+00 -0.69814568347E+03  0.36430321487E+04  0.35755105707E+04 0.  0.
        3    1    3    3  502    0 -0.40512041453E+03  0.12009734369E+04  0.93553367778E+03  0.15753358432E+04  0.10100000352E+00 0.  1.
       -3    1    3    3    0  502  0.40512041453E+03 -0.12009734369E+04 -0.16336793612E+04  0.20676963055E+04  0.10100000352E+00 0. -1.
</event>
<event>
 5   0  0.1782660E-06  0.3390499E+04  0.7818609E-02  0.8140242E-01
        2   -1    0    0  501    0  0.00000000000E+00  0.00000000000E+00  0.22615420392E+04  0.22615420392E+04  0.25500000920E-02 0.  1.
       -2   -1    0    0    0  501  0.00000000000E+00  0.00000000000E+00 -0.12707569944E+04  0.12707569944E+04  0.25500000920E-02 0. -1.
    10030    2    1    2    0    0  0.00000000000E+00  0.00000000000E+00  0.99078504478E+03  0.35322990337E+04  0.33904987035E+04 0.  0.
        4    1    3    3  502    0  0.50063360674E+02 -0.11145042550E+04 -0.83440882515E+03  0.13931495881E+04  0.12699999809E+01 0. -1.
       -4    1    3    3    0  502 -0.50063360674E+02  0.11145042550E+04  0.18251938699E+04  0.21391494455E+04  0.12699999809E+01 0.  1.
</event>
<event>
 5   0  0.1110956E-06  0.1895089E+04  0.7818609E-02  0.8657305E-01
       -1   -1    0    0    0  501  0.00000000000E+00  0.00000000000E+00  0.96075970139E+03  0.96075970141E+03  0.50400001928E-02 0.  1.
        1   -1    0    0  501    0  0.00000000000E+00  0.00000000000E+00 -0.93451146931E+03  0.93451146932E+03  0.50400001928E-02 0. -1.
    10030    2    1    2    0    0  0.00000000000E+00  0.00000000000E+00  0.26248232085E+02  0.18952711707E+04  0.18950894018E+04 0.  0.
        1    1    3    3  502    0 -0.55848359547E+03 -0.74168245654E+03  0.20246783477E+03  0.95025786863E+03  0.50400001928E-02 0.  1.
       -1    1    3    3    0  502  0.55848359547E+03  0.74168245654E+03 -0.17621960268E+03  0.94501330210E+03  0.50400001928E-02 0. -1.
</event>
<event>
 5   0  0.3041329E-06  0.3712680E+04  0.7818609E-02  0.8065158E-01
        2   -1    0    0  501    0  0.00000000000E+00  0.00000000000E+00  0.24611921639E+04  0.24611921639E+04  0.25500000920E-02 0.  1.
       -2   -1    0    0    0  501  0.00000000000E+00  0.00000000000E+00 -0.14001338121E+04  0.14001338121E+04  0.25500000920E-02 0. -1.
    10030    2    1    2    0    0  0.00000000000E+00  0.00000000000E+00  0.10610583519E+04  0.38613259760E+04  0.37126800922E+04 0.  0.
        2    1    3    3  502    0 -0.94720664897E+03  0.15840704925E+04  0.32377716443E+03  0.18738493572E+04  0.25500000920E-02 0.  1.
       -2    1    3    3    0  502  0.94720664897E+03 -0.15840704925E+04  0.73728118745E+03  0.19874766189E+04  0.25500000920E-02 0. -1.
</event>
<event>
 5   0  0.3041329E-06  0.1937595E+04  0.7818609E-02  0.8636366E-01
        2   -1    0    0  501    0  0.00000000000E+00  0.00000000000E+00  0.76952427833E+03  0.76952427834E+03  0.25500000920E-02 0. -1.
       -2   -1    0    0    0  501  0.00000000000E+00  0.00000000000E+00 -0.12196738835E+04  0.12196738835E+04  0.25500000920E-02 0.  1.
    10030    2    1    2    0    0  0.00000000000E+00  0.00000000000E+00 -0.45014960517E+03  0.19891981618E+04  0.19375950712E+04 0.  0.
        2    1    3    3  502    0  0.95785928149E+03 -0.14285931712E+03 -0.19859091867E+03  0.98860585706E+03  0.25500000920E-02 0. -1.
       -2    1    3    3    0  502 -0.95785928149E+03  0.14285931712E+03 -0.25155868651E+03  0.10005923048E+04  0.25500000920E-02 0.  1.
</event>
<event>
 5   0  0.3041329E-06  0.1811649E+04  0.7818609E-02  0.8700129E-01
        2   -1    0    0  501    0  0.00000000000E+00  0.00000000000E+00  0.80345572618E+03  0.80345572619E+03  0.25500000920E-02 0. -1.
       -2   -1    0    0    0  501  0.00000000000E+00  0.00000000000E+00 -0.10212365738E+04  0.10212365738E+04  0.25500000920E-02 0.  1.
    10030    2    1    2    0    0  0.00000000000E+00  0.00000000000E+00 -0.21778084765E+03  0.18246923000E+04  0.18116493844E+04 0.  0.
        2    1    3    3  502    0 -0.40725537742E+03 -0.15276803517E+03  0.69138857021E+03  0.81683117597E+03  0.25500000920E-02 0. -1.
       -2    1    3    3    0  502  0.40725537742E+03  0.15276803517E+03 -0.90916941786E+03  0.10078611241E+04  0.25500000920E-02 0.  1.
</event>
<event>
 5   0  0.2565004E-06  0.3481218E+04  0.7818609E-02  0.8118256E-01
        2   -1    0    0  501    0  0.00000000000E+00  0.00000000000E+00  0.29777161106E+04  0.29777161106E+04  0.25500000920E-02 0. -1.
       -2   -1    0    0    0  501  0.00000000000E+00  0.00000000000E+00 -0.10174640662E+04  0.10174640662E+04  0.25500000920E-02 0.  1.
    10030    2    1    2    0    0  0.00000000000E+00  0.00000000000E+00  0.19602520444E+04  0.39951801769E+04  0.34812176846E+04 0.  0.
        3    1    3    3  502    0  0.52718160135E+03  0.88684605622E+03 -0.62874015415E+03  0.12081930971E+04  0.10100000352E+00 0.  1.
       -3    1    3    3    0  502 -0.52718160135E+03 -0.88684605622E+03  0.25889921986E+04  0.27869870798E+04  0.10100000352E+00 0. -1.
</event>
<event>
 5   0  0.3378848E-06  0.3508208E+04  0.7818609E-02  0.8111847E-01
       -2   -1    0    0    0  501  0.00000000000E+00  0.00000000000E+00  0.13740248217E+04  0.13740248217E+04  0.25500000920E-02 0. -1.
        2   -1    0    0  501    0  0.00000000000E+00  0.00000000000E+00 -0.22393197815E+04  0.22393197815E+04  0.25500000920E-02 0.  1.
    10030    2    1    2    0    0  0.00000000000E+00  0.00000000000E+00 -0.86529495987E+03  0.36133446032E+04  0.35082080688E+04 0.  0.
        1    1    3    3  502    0 -0.84704453189E+03 -0.24254915471E+03 -0.19948647274E+04  0.21807796340E+04  0.50400001928E-02 0.  1.
       -1    1    3    3    0  502  0.84704453189E+03  0.24254915471E+03  0.11295697675E+04  0.14325649692E+04  0.50400001928E-02 0. -1.
</event>
<event>
 5   0  0.2565004E-06  0.2000848E+04  0.7818609E-02  0.8606224E-01
        2   -1    0    0  501    0  0.00000000000E+00  0.00000000000E+00  0.91052332331E+03  0.91052332331E+03  0.25500000920E-02 0.  1.
       -2   -1    0    0    0  501  0.00000000000E+00  0.00000000000E+00 -0.10992009411E+04  0.10992009411E+04  0.25500000920E-02 0. -1.
    10030    2    1    2    0    0  0.00000000000E+00  0.00000000000E+00 -0.18867761774E+03  0.20097242644E+04  0.20008479141E+04 0.  0.
        3    1    3    3  502    0  0.95163951621E+03 -0.29655828663E+03 -0.18006082638E+03  0.10129099158E+04  0.10100000352E+00 0.  1.
       -3    1    3    3    0  502 -0.95163951621E+03  0.29655828663E+03 -0.86167913633E+01  0.99681434855E+03  0.10100000352E+00 0. -1.
</event>
<event>
 5   0  0.1908726E-06  0.3469838E+04  0.7818609E-02  0.8120975E-01
       -2   -1    0    0    0  501  0.00000000000E+00  0.00000000000E+00  0.13960422930E+04  0.13960422930E+04  0.25500000920E-02 0. -1.
        2   -1    0    0  501    0  0.00000000000E+00  0.00000000000E+00 -0.21560545217E+04  0.21560545217E+04  0.25500000920E-02 0.  1.
    10030    2    1    2    0    0  0.00000000000E+00  0.00000000000E+00 -0.76001222863E+03  0.35520968147E+04  0.34698376322E+04 0.  0.
        5    1    3    3  502    0  0.34124760981E+03 -0.14399441431E+04  0.54701810171E+03  0.15777008461E+04  0.46999998093E+01 0.  1.
       -5    1    3    3    0  502 -0.34124760981E+03  0.14399441431E+04 -0.13070303303E+04  0.19743959686E+04  0.46999998093E+01 0. -1.
</event>
<event>
 5   0  0.1110956E-06  0.3565792E+04  0.7818609E-02  0.8098373E-01
       -1   -1    0    0    0  501  0.00000000000E+00  0.00000000000E+00  0.31187229988E+04  0.31187229988E+04  0.50400001928E-02 0.  1.
        1   -1    0    0  501    0  0.00000000000E+00  0.00000000000E+00 -0.10192373180E+04  0.10192373180E+04  0.50400001928E-02 0. -1.
    10030    2    1    2    0    0  0.00000000000E+00  0.00000000000E+00  0.20994856808E+04  0.41379603169E+04  0.35657924028E+04 0.  0.
        1    1    3    3  502    0 -0.27529033612E+03  0.14907262966E+04 -0.39279204259E+02  0.15164407395E+04  0.50400001928E-02 0. -1.
       -1    1    3    3    0  502  0.27529033612E+03 -0.14907262966E+04  0.21387648851E+04  0.26215195773E+04  0.50400001928E-02 0.  1.
</event>
<event>
 5   0  0.1782660E-06  0.2802868E+04  0.7818609E-02  0.8302379E-01
        2   -1    0    0  501    0  0.00000000000E+00  0.00000000000E+00  0.11454081729E+04  0.11454081729E+04  0.25500000920E-02 0.  1.
       -2   -1    0    0    0  501  0.00000000000E+00  0.00000000000E+00 -0.17146876200E+04  0.17146876200E+04  0.25500000920E-02 0. -1.
    10030    2    1    2    0    0  0.00000000000E+00  0.00000000000E+00 -0.56927944714E+03  0.28600957929E+04  0.28028679697E+04 0.  0.
        4    1    3    3  502    0 -0.18608083830E+03 -0.42357720429E+03  0.10652350239E+04  0.11613660041E+04  0.12699999809E+01 0.  1.
       -4    1    3    3    0  502  0.18608083830E+03  0.42357720429E+03 -0.16345144710E+04  0.16987297888E+04  0.12699999809E+01 0. -1.
</event>
<event>
 5   0  0.3041329E-06  0.3429487E+04  0.7818609E-02  0.8130707E-01
       -2   -1    0    0    0  501  0.00000000000E+00  0.00000000000E+00  0.22040335343E+04  0.22040335343E+04  0.25500000920E-02 0.  1.
        2   -1    0    0  501    0  0.00000000000E+00  0.00000000000E+00 -0.13340747597E+04  0.13340747597E+04  0.25500000920E-02 0. -1.
    10030    2    1    2    0    0  0.00000000000E+00  0.00000000000E+00  0.86995877461E+03  0.35381082940E+04  0.34294871381E+04 0.  0.
        2    1    3    3  502    0  0.13047864300E+04  0.96915126780E+03 -0.12879336116E+03  0.16304323162E+04  0.25500000920E-02 0. -1.
       -2    1    3    3    0  502 -0.13047864300E+04 -0.96915126780E+03  0.99875213577E+03  0.19076759778E+04  0.25500000920E-02 0.  1.
</event>
<event>
 5   0  0.1110956E-06  0.3517008E+04  0.7818609E-02  0.8109771E-01
        1   -1    0    0  501    0  0.00000000000E+00  0.00000000000E+00  0.18208539115E+04  0.18208539115E+04  0.50400001928E-02 0. -1.
       -1   -1    0    0    0  501  0.00000000000E+00  0.00000000000E+00 -0.16982886735E+04  0.16982886735E+04  0.50400001928E-02 0.  1.
    10030    2    1    2    0    0  0.00000000000E+00  0.00000000000E+00  0.12256523808E+03  0.35191425850E+04  0.35170075769E+04 0.  0.
        1    1    3    3  502    0  0.63358869035E+03  0.49728287784E+03  0.16254368266E+04  0.18140478953E+04  0.50400001928E-02 0. -1.
       -1    1    3    3    0  502 -0.63358869035E+03 -0.49728287784E+03 -0.15028715885E+04  0.17050946897E+04  0.50400001928E-02 0.  1.
</event>
<event>
 5   0  0.1908726E-06  0.3303195E+04  0.7818609E-02  0.8162083E-01
        2   -1    0    0  501    0  0.00000000000E+00  0.00000000000E+00  0.16437876165E+04  0.16437876165E+04  0.25500000920E-02 0.  1.
       -2   -1    0    0    0  501  0.00000000000E+00  0.00000000000E+00 -0.16594444609E+04  0.16594444609E+04  0.25500000920E-02 0. -1.
    10030    2    1    2    0    0  0.00000000000E+00  0.00000000000E+00 -0.15656844457E+02  0.33032320774E+04  0.33031949716E+04 0.  0.
        5    1    3    3  502    0 -0.11182038948E+04 -0.11287573563E+03  0.12024046911E+04  0.16458797080E+04  0.46999998093E+01 0.  1.
       -5    1    3    3    0  502  0.11182038948E+04  0.11287573563E+03 -0.12180615356E+04  0.16573523694E+04  0.46999998093E+01 0. -1.
</event>
<event>
 5   0  0.2565004E-06  0.3055336E+04  0.7818609E-02  0.8228104E-01
       -2   -1    0    0    0  501  0.00000000000E+00  0.00000000000E+00  0.12530884228E+04  0.12530884228E+04  0.25500000920E-02 0. -1.
        2   -1    0    0  501    0  0.00000000000E+00  0.00000000000E+00 -0.18624141631E+04  0.18624141631E+04  0.25500000920E-02 0.  1.
    10030    2    1    2    0    0  0.00000000000E+00  0.00000000000E+00 -0.60932574033E+03  0.31155025859E+04  0.30553360707E+04 0.  0.
        3    1    3    3  502    0  0.49873528789E+03 -0.12200669130E+04  0.48286010642E+03  0.14037286248E+04  0.10100000352E+00 0. -1.
       -3    1    3    3    0  502 -0.49873528789E+03  0.12200669130E+04 -0.10921858468E+04  0.17117739610E+04  0.10100000352E+00 0.  1.
</event>
<event>
 5   0  0.1908726E-06  0.2586872E+04  0.7818609E-02  0.8372674E-01
       -2   -1    0    0    0  501  0.00000000000E+00  0.00000000000E+00  0.99747942502E+03  0.99747942502E+03  0.25500000920E-02 0.  1.
        2   -1    0    0  501    0  0.00000000000E+00  0.00000000000E+00 -0.16772043249E+04  0.16772043249E+04  0.25500000920E-02 0. -1.
    10030    2    1    2    0    0  0.00000000000E+00  0.00000000000E+00 -0.67972489987E+03  0.26746837499E+04  0.25868720924E+04 0.  0.
        5    1    3    3  502    0 -0.58636989003E+03  0.25768504646E+03  0.82199169688E+03  0.10420766147E+04  0.46999998093E+01 0.  1.
       -5    1    3    3    0  502  0.58636989003E+03 -0.25768504646E+03 -0.15017165968E+04  0.16326071352E+04  0.46999998093E+01 0. -1.
</event>
<event>
 5   0  0.1125196E-06  0.3522207E+04  0.7818609E-02  0.8108547E-01
       -1   -1    0    0    0  501  0.00000000000E+00  0.00000000000E+00  0.12934776219E+04  0.12934776219E+04  0.50400001928E-02 0. -1.
        1   -1    0    0  501    0  0.00000000000E+00  0.00000000000E+00 -0.23977887948E+04  0.23977887948E+04  0.50400001928E-02 0.  1.
    10030    2    1    2    0    0  0.00000000000E+00  0.00000000000E+00 -0.11043111729E+04  0.36912664167E+04  0.35222073466E+04 0.  0.
        4    1    3    3  502    0 -0.13260854668E+04 -0.11353100715E+04 -0.79580760787E+03  0.19185262535E+04  0.12699999809E+01 0.  1.
       -4    1    3    3    0  502  0.13260854668E+04  0.11353100715E+04 -0.30850356499E+03  0.17727401632E+04  0.12699999809E+01 0. -1.
</event>
<event>
 5   0  0.1089337E-06  0.3598345E+04  0.7818609E-02  0.8090871E-01
       -1   -1    0    0    0  501  0.00000000000E+00  0.00000000000E+00  0.12529719560E+04  0.12529719560E+04  0.50400001928E-02 0. -1.
        1   -1    0    0  501    0  0.00000000000E+00  0.00000000000E+00 -0.25834748472E+04  0.25834748472E+04  0.50400001928E-02 0.  1.
    10030    2    1    2    0    0  0.00000000000E+00  0.00000000000E+00 -0.13305028912E+04  0.38364468032E+04  0.35983449154E+04 0.  0.
        2    1    3    3  502    0 -0.93510702391E+03  0.13122923587E+04 -0.15185105359E+04  0.22141388006E+04  0.25500000920E-02 0.  1.
       -2    1    3    3    0  502  0.93510702391E+03 -0.13122923587E+04  0.18800764467E+03  0.16223080026E+04  0.25500000920E-02 0. -1.
</event>
<event>
 5   0  0.1782660E-06  0.3437556E+04  0.7818609E-02  0.8128750E-01
       -2   -1    0    0    0  501  0.00000000000E+00  0.00000000000E+00  0.22726127764E+04  0.22726127764E+04  0.25500000920E-02 0.  1.
        2   -1    0    0  501    0  0.00000000000E+00  0.00000000000E+00 -0.12999124155E+04  0.12999124155E+04  0.25500000920E-02 0. -1.
    10030    2    1    2    0    0  0.00000000000E+00  0.00000000000E+00  0.97270036088E+03  0.35725251919E+04  0.34375558547E+04 0.  0.
        4    1    3    3  502    0 -0.34323320412E+03  0.76210600750E+03  0.20471772344E+04  0.22112328780E+04  0.12699999809E+01 0.  1.
       -4    1    3    3    0  502  0.34323320412E+03 -0.76210600750E+03 -0.10744768735E+04  0.13612923138E+04  0.12699999809E+01 0. -1.
</event>
<event>
 5   0  0.1130707E-06  0.2693605E+04  0.7818609E-02  0.8337083E-01
       -1   -1    0    0    0  501  0.00000000000E+00  0.00000000000E+00  0.77430642239E+03  0.77430642241E+03  0.50400001928E-02 0. -1.
        1   -1    0    0  501    0  0.00000000000E+00  0.00000000000E+00 -0.23425837508E+04  0.23425837508E+04  0.50400001928E-02 0.  1.
    10030    2    1    2    0    0  0.00000000000E+00  0.00000000000E+00 -0.15682773284E+04  0.31168901732E+04  0.26936054969E+04 0.  0.
        3    1    3    3  502    0  0.83394601420E+03  0.85102897941E+03 -0.57657211645E+02  0.11929126718E+04  0.10100000352E+00 0.  1.
       -3    1    3    3    0  502 -0.83394601420E+03 -0.85102897941E+03 -0.15106201168E+04  0.19239775014E+04  0.10100000352E+00 0. -1.
</event>
<event>
 5   0  0.3378848E-06  0.3209739E+04  0.7818609E-02  0.8186250E-01
        2   -1    0    0  501    0  0.00000000000E+00  0.00000000000E+00  0.23024211851E+04  0.23024211851E+04  0.25500000920E-02 0.  1.
       -2   -1    0    0    0  501  0.00000000000E+00  0.00000000000E+00 -0.11186514233E+04  0.11186514233E+04  0.25500000920E-02 0. -1.
    10030    2    1    2    0    0  0.00000000000E+00  0.00000000000E+00  0.11837697617E+04  0.34210726084E+04  0.32097393886E+04 0.  0.
        1    1    3    3  502    0 -0.34031026278E+03  0.24486797767E+02 -0.10795485981E+04  0.11321818997E+04  0.50400001928E-02 0. -1.
       -1    1    3    3    0  502  0.34031026278E+03 -0.24486797767E+02  0.22633183599E+04  0.22888907087E+04  0.50400001928E-02 0.  1.
</event>
<event>
 5   0  0.2565004E-06  0.3495767E+04  0.7818609E-02  0.8114794E-01
       -2   -1    0    0    0  501  0.00000000000E+00  0.00000000000E+00  0.30520161219E+04  0.30520161219E+04  0.25500000920E-02 0.  1.
        2   -1    0    0  501    0  0.00000000000E+00  0.00000000000E+00 -0.10010095446E+04  0.10010095446E+04  0.25500000920E-02 0. -1.
    10030    2    1    2    0    0  0.00000000000E+00  0.00000000000E+00  0.20510065773E+04  0.40530256666E+04  0.34957673083E+04 0.  0.
        3    1    3    3  502    0 -0.55694780348E+03  0.22745662717E+03  0.29281962526E+04  0.29893579038E+04  0.10100000352E+00 0.  1.
       -3    1    3    3    0  502  0.55694780348E+03 -0.22745662717E+03 -0.87718967525E+03  0.10636677628E+04  0.10100000352E+00 0. -1.
</event>
<event>
 5   0  0.1782660E-06  0.3461095E+04  0.7818609E-02  0.8123072E-01
       -2   -1    0    0    0  501  0.00000000000E+00  0.00000000000E+00  0.14531333679E+04  0.14531333679E+04  0.25500000920E-02 0. -1.
        2   -1    0    0  501    0  0.00000000000E+00  0.00000000000E+00 -0.20609217517E+04  0.20609217517E+04  0.25500000920E-02 0.  1.
    10030    2    1    2    0    0  0.00000000000E+00  0.00000000000E+00 -0.60778838378E+03  0.35140551196E+04  0.34610947205E+04 0.  0.
        4    1    3    3  502    0  0.15903535558E+04 -0.30881025111E+03  0.31386020173E+03  0.16501812152E+04  0.12699999809E+01 0. -1.
       -4    1    3    3    0  502 -0.15903535558E+04  0.30881025111E+03 -0.92164858551E+03  0.18638739045E+04  0.12699999809E+01 0.  1.
</event>
<event>
 5   0  0.1782660E-06  0.3419981E+04  0.7818609E-02  0.8133020E-01
        2   -1    0    0  501    0  0.00000000000E+00  0.00000000000E+00  0.24658954495E+04  0.24658954495E+04  0.25500000920E-02 0. -1.
       -2   -1    0    0    0  501  0.00000000000E+00  0.00000000000E+00 -0.11858035768E+04  0.11858035768E+04  0.25500000920E-02 0.  1.
    10030    2    1    2    0    0  0.00000000000E+00  0.00000000000E+00  0.12800918728E+04  0.36516990263E+04  0.34199810783E+04 0.  0.
        4    1    3    3  502    0 -0.12202971739E+04 -0.11944981381E+04  0.73623296638E+03  0.18595675810E+04  0.12699999809E+01 0.  1.
       -4    1    3    3    0  502  0.12202971739E+04  0.11944981381E+04  0.54385890640E+03  0.17921314454E+04  0.12699999809E+01 0. -1.
</event>
<event>
 5   0  0.1908726E-06  0.3267737E+04  0.7818609E-02  0.8171154E-01
       -2   -1    0    0    0  501  0.00000000000E+00  0.00000000000E+00  0.13958114772E+04  0.13958114772E+04  0.25500000920E-02 0.  1.
        2   -1    0    0  501    0  0.00000000000E+00  0.00000000000E+00 -0.19125262132E+04  0.19125262132E+04  0.25500000920E-02 0. -1.
    10030    2    1    2    0    0  0.00000000000E+00  0.00000000000E+00 -0.51671473604E+03  0.33083376904E+04  0.32677368553E+04 0.  0.
        5    1    3    3  502    0 -0.10892188975E+04  0.11441042157E+04  0.16411825837E+03  0.15881842323E+04  0.46999998093E+01 0.  1.
       -5    1    3    3    0  502  0.10892188975E+04 -0.11441042157E+04 -0.68083299441E+03  0.17201534581E+04  0.46999998093E+01 0. -1.
</event>
<event>
 5   0  0.1125196E-06  0.3261412E+04  0.7818609E-02  0.8172784E-01
        1   -1    0    0  501    0  0.00000000000E+00  0.00000000000E+00  0.20998661150E+04  0.20998661150E+04  0.50400001928E-02 0.  1.
       -1   -1    0    0    0  501  0.00000000000E+00  0.00000000000E+00 -0.12663671436E+04  0.12663671436E+04  0.50400001928E-02 0. -1.
    10030    2    1    2    0    0  0.00000000000E+00  0.00000000000E+00  0.83349897134E+03  0.33662332586E+04  0.32614116294E+04 0.  0.
        4    1    3    3  502    0 -0.12865199460E+03  0.23045994743E+03 -0.12441740064E+04  0.12718622937E+04  0.12699999809E+01 0. -1.
       -4    1    3    3    0  502  0.12865199460E+03 -0.23045994743E+03  0.20776729778E+04  0.20943709649E+04  0.12699999809E+01 0.  1.
</event>
<event>
 5   0  0.1130707E-06  0.2783157E+04  0.7818609E-02  0.8308517E-01
       -1   -1    0    0    0  501  0.00000000000E+00  0.00000000000E+00  0.14947940853E+04  0.14947940853E+04  0.50400001928E-02 0.  1.
        1   -1    0    0  501    0  0.00000000000E+00  0.00000000000E+00 -0.12954896679E+04  0.12954896679E+04  0.50400001928E-02 0. -1.
    10030    2    1    2    0    0  0.00000000000E+00  0.00000000000E+00  0.19930441741E+03  0.27902837531E+04  0.27831566920E+04 0.  0.
        3    1    3    3  502    0  0.13130859314E+04  0.36563269372E+03  0.38074199219E+03  0.14152195606E+04  0.10100000352E+00 0.  1.
       -3    1    3    3    0  502 -0.13130859314E+04 -0.36563269372E+03 -0.18143757478E+03  0.13750641925E+04  0.10100000352E+00 0. -1.
</event>
<event>
 5   0  0.2565004E-06  0.3579104E+04  0.7818609E-02  0.8095295E-01
       -2   -1    0    0    0  501  0.00000000000E+00  0.00000000000E+00  0.12503684880E+04  0.12503684880E+04  0.25500000920E-02 0. -1.
        2   -1    0    0  501    0  0.00000000000E+00  0.00000000000E+00 -0.25612418087E+04  0.25612418087E+04  0.25500000920E-02 0.  1.
    10030    2    1    2    0    0  0.00000000000E+00  0.00000000000E+00 -0.13108733207E+04  0.38116102967E+04  0.35791038251E+04 0.  0.
        3    1    3    3  502    0  0.65764225814E+01  0.12021913039E+03  0.12460503419E+04  0.12518535670E+04  0.10100000352E+00 0. -1.
       -3    1    3    3    0  502 -0.65764225814E+01 -0.12021913039E+03 -0.25569236625E+04  0.25597567296E+04  0.10100000352E+00 0.  1.
</event>
<event>
 5   0  0.1042825E-06  0.3434889E+04  0.7818609E-02  0.8129396E-01
       -3   -1    0    0    0  501  0.00000000000E+00  0.00000000000E+00  0.19451467979E+04  0.19451468005E+04  0.10100000352E+00 0.  1.
        3   -1    0    0  501    0  0.00000000000E+00  0.00000000000E+00 -0.15163973786E+04  0.15163973819E+04  0.10100000352E+00 0. -1.
    10030    2    1    2    0    0  0.00000000000E+00  0.00000000000E+00  0.42874941937E+03  0.34615441825E+04  0.34348889447E+04 0.  0.
        4    1    3    3  502    0 -0.12064115110E+04 -0.95264661211E+03 -0.55749956875E+03  0.16351671729E+04  0.12699999809E+01 0. -1.
       -4    1    3    3    0  502  0.12064115110E+04  0.95264661211E+03  0.98624898812E+03  0.18263770095E+04  0.12699999809E+01 0.  1.
</event>
<event>
 5   0  0.3378848E-06  0.2349376E+04  0.7818609E-02  0.8458703E-01
       -2   -1    0    0    0  501  0.00000000000E+00  0.00000000000E+00  0.72394657851E+03  0.72394657851E+03  0.25500000920E-02 0. -1.
        2   -1    0    0  501    0  0.00000000000E+00  0.00000000000E+00 -0.19060694663E+04  0.19060694663E+04  0.25500000920E-02 0.  1.
    10030    2    1    2    0    0  0.00000000000E+00  0.00000000000E+00 -0.11821228878E+04  0.26300160448E+04  0.23493764862E+04 0.  0.
        1    1    3    3  502    0 -0.31028868848E+03 -0.13813938313E+03 -0.18499013585E+04  0.18808233824E+04  0.50400001928E-02 0.  1.
       -1    1    3    3    0  502  0.31028868848E+03  0.13813938313E+03  0.66777847076E+03  0.74919266241E+03  0.50400001928E-02 0. -1.
</event>
<event>
 5   0  0.1102175E-06  0.3480870E+04  0.7818609E-02  0.8118338E-01
        1   -1    0    0  501    0  0.00000000000E+00  0.00000000000E+00  0.13353200286E+04  0.13353200286E+04  0.50400001928E-02 0. -1.
       -1   -1    0    0    0  501  0.00000000000E+00  0.00000000000E+00 -0.22684557400E+04  0.22684557400E+04  0.50400001928E-02 0.  1.
    10030    2    1    2    0    0  0.00000000000E+00  0.00000000000E+00 -0.93313571145E+03  0.36037757686E+04  0.34808702266E+04 0.  0.
        5    1    3    3  502    0  0.62039433337E+02 -0.43494899596E+03 -0.22100915276E+04  0.22533433317E+04  0.46999998093E+01 0.  1.
       -5    1    3    3    0  502 -0.62039433337E+02  0.43494899596E+03  0.12769558161E+04  0.13504324369E+04  0.46999998093E+01 0. -1.
</event>
<event>
 5   0  0.1908726E-06  0.3530570E+04  0.7818609E-02  0.8106583E-01
        2   -1    0    0  501    0  0.00000000000E+00  0.00000000000E+00  0.15974477775E+04  0.15974477775E+04  0.25500000920E-02 0. -1.
       -2   -1    0    0    0  501  0.00000000000E+00  0.00000000000E+00 -0.19507566564E+04  0.19507566564E+04  0.25500000920E-02 0.  1.
    10030    2    1    2    0    0  0.00000000000E+00  0.00000000000E+00 -0.35330887899E+03  0.35482044339E+04  0.35305704271E+04 0.  0.
        5    1    3    3  502    0 -0.24894829087E+03 -0.16332772076E+04  0.44825517455E+03  0.17118774722E+04  0.46999998093E+01 0. -1.
       -5    1    3    3    0  502  0.24894829087E+03  0.16332772076E+04 -0.80156405354E+03  0.18363269617E+04  0.46999998093E+01 0.  1.
</event>
<event>
 5   0  0.1089337E-06  0.1837647E+04  0.7818609E-02  0.8686531E-01
        1   -1    0    0  501    0  0.00000000000E+00  0.00000000000E+00  0.95744837266E+03  0.95744837267E+03  0.50400001928E-02 0. -1.
       -1   -1    0    0    0  501  0.00000000000E+00  0.00000000000E+00 -0.88175722710E+03  0.88175722712E+03  0.50400001928E-02 0.  1.
    10030    2    1    2    0    0  0.00000000000E+00  0.00000000000E+00  0.75691145557E+02  0.18392055998E+04  0.18376474332E+04 0.  0.
        2    1    3    3  502    0  0.59928772792E+03  0.69177783261E+03 -0.43060286325E+02  0.91627317913E+03  0.25500000920E-02 0. -1.
       -2    1    3    3    0  502 -0.59928772792E+03 -0.69177783261E+03  0.11875143188E+03  0.92293242066E+03  0.25500000920E-02 0.  1.
</event>
<event>
 5   0  0.2565004E-06  0.3490852E+04  0.7818609E-02  0.8115961E-01
        2   -1    0    0  501    0  0.00000000000E+00  0.00000000000E+00  0.16129682259E+04  0.16129682259E+04  0.25500000920E-02 0.  1.
       -2   -1    0    0    0  501  0.00000000000E+00  0.00000000000E+00 -0.18887610992E+04  0.18887610992E+04  0.25500000920E-02 0. -1.
    10030    2    1    2    0    0  0.00000000000E+00  0.00000000000E+00 -0.27579287335E+03  0.35017293251E+04  0.34908518384E+04 0.  0.
        3    1    3    3  502    0  0.17127511018E+04  0.28918493184E+03 -0.30979952015E+03  0.17644035860E+04  0.10100000352E+00 0. -1.
       -3    1    3    3    0  502 -0.17127511018E+04 -0.28918493184E+03  0.34006646800E+02  0.17373257391E+04  0.10100000352E+00 0.  1.
</event>
<event>
 5   0  0.1102175E-06  0.1718911E+04  0.7818609E-02  0.8750652E-01
       -1   -1    0    0    0  501  0.00000000000E+00  0.00000000000E+00  0.40097129833E+03  0.40097129837E+03  0.50400001928E-02 0.  1.
        1   -1    0    0  501    0  0.00000000000E+00  0.00000000000E+00 -0.18421851990E+04  0.18421851990E+04  0.50400001928E-02 0. -1.
    10030    2    1    2    0    0  0.00000000000E+00  0.00000000000E+00 -0.14412139006E+04  0.22431564973E+04  0.17189105748E+04 0.  0.
        5    1    3    3  502    0 -0.66456107492E+03  0.18890828924E+01 -0.14317906881E+04  0.15785093144E+04  0.46999998093E+01 0. -1.
       -5    1    3    3    0  502  0.66456107492E+03 -0.18890828924E+01 -0.94232125238E+01  0.66464718299E+03  0.46999998093E+01 0.  1.
</event>
<event>
 5   0  0.1089337E-06  0.2210759E+04  0.7818609E-02  0.8513963E-01
       -1   -1    0    0    0  501  0.00000000000E+00  0.00000000000E+00  0.13532006232E+04  0.13532006233E+04  0.50400001928E-02 0.  1.
        1   -1    0    0  501    0  0.00000000000E+00  0.00000000000E+00 -0.90294332122E+03  0.90294332124E+03  0.50400001928E-02 0. -1.
    10030    2    1    2    0    0  0.00000000000E+00  0.00000000000E+00  0.45025730203E+03  0.22561439445E+04  0.22107586617E+04 0.  0.
        2    1    3    3  502    0  0.10777395033E+04 -0.17803226291E+03  0.39785316837E+03  0.11625425012E+04  0.25500000920E-02 0. -1.
       -2    1    3    3    0  502 -0.10777395033E+04  0.17803226291E+03  0.52404133657E+02  0.10936014433E+04  0.25500000920E-02 0.  1.
</event>
<event>
 5   0  0.1089337E-06  0.2226876E+04  0.7818609E-02  0.8507324E-01
       -1   -1    0    0    0  501  0.00000000000E+00  0.00000000000E+00  0.84493483063E+03  0.84493483065E+03  0.50400001928E-02 0.  1.
        1   -1    0    0  501    0  0.00000000000E+00  0.00000000000E+00 -0.14672662321E+04  0.14672662321E+04  0.50400001928E-02 0. -1.
    10030    2    1    2    0    0  0.00000000000E+00  0.00000000000E+00 -0.62233140150E+03  0.23122010628E+04  0.22268761487E+04 0.  0.
        2    1    3    3  502    0  0.60707425162E+03 -0.77122413760E+02  0.65466760325E+03  0.89614545942E+03  0.25500000920E-02 0.  1.
       -2    1    3    3    0  502 -0.60707425162E+03  0.77122413760E+02 -0.12769990048E+04  0.14160556034E+04  0.25500000920E-02 0. -1.
</event>
<event>
 5   0  0.1782660E-06  0.3699820E+04  0.7818609E-02  0.8068002E-01
       -2   -1    0    0    0  501  0.00000000000E+00  0.00000000000E+00  0.12116076985E+04  0.12116076985E+04  0.25500000920E-02 0. -1.
        2   -1    0    0  501    0  0.00000000000E+00  0.00000000000E+00 -0.28244841651E+04  0.28244841651E+04  0.25500000920E-02 0.  1.
    10030    2    1    2    0    0  0.00000000000E+00  0.00000000000E+00 -0.16128764666E+04  0.40360918636E+04  0.36998198652E+04 0.  0.
        4    1    3    3  502    0  0.16790218930E+04 -0.23688395937E+03  0.33032263202E+00  0.16956503913E+04  0.12699999809E+01 0.  1.
       -4    1    3    3    0  502 -0.16790218930E+04  0.23688395937E+03 -0.16132067892E+04  0.23404414723E+04  0.12699999809E+01 0. -1.
</event>
<event>
 5   0  0.1125196E-06  0.1967295E+04  0.7818609E-02  0.8622066E-01
        1   -1    0    0  501    0  0.00000000000E+00  0.00000000000E+00  0.21634069495E+04  0.21634069495E+04  0.50400001928E-02 0.  1.
       -1   -1    0    0    0  501  0.00000000000E+00  0.00000000000E+00 -0.44724011345E+03  0.44724011347E+03  0.50400001928E-02 0. -1.
    10030    2    1    2    0    0  0.00000000000E+00  0.00000000000E+00  0.17161668360E+04  0.26106470629E+04  0.19672949647E+04 0.  0.
        4    1    3    3  502    0  0.26983591694E+03 -0.14241067024E+03 -0.38285656109E+03  0.48956407174E+03  0.12699999809E+01 0. -1.
       -4    1    3    3    0  502 -0.26983591694E+03  0.14241067024E+03  0.20990233971E+04  0.21210829912E+04  0.12699999809E+01 0.  1.
</event>
<event>
 5   0  0.1125196E-06  0.3522497E+04  0.7818609E-02  0.8108479E-01
       -1   -1    0    0    0  501  0.00000000000E+00  0.00000000000E+00  0.12356933868E+04  0.12356933868E+04  0.50400001928E-02 0. -1.
        1   -1    0    0  501    0  0.00000000000E+00  0.00000000000E+00 -0.25103283654E+04  0.25103283654E+04  0.50400001928E-02 0.  1.
    10030    2    1    2    0    0  0.00000000000E+00  0.00000000000E+00 -0.12746349786E+04  0.37460217523E+04  0.35224969325E+04 0.  0.
        4    1    3    3  502    0  0.73622236378E+03  0.13682877596E+04  0.24462052053E+03  0.15729194430E+04  0.12699999809E+01 0. -1.
       -4    1    3    3    0  502 -0.73622236378E+03 -0.13682877596E+04 -0.15192554991E+04  0.21731023093E+04  0.12699999809E+01 0.  1.
</event>
<event>
 5   0  0.1125196E-06  0.3509603E+04  0.7818609E-02  0.8111518E-01
       -1   -1    0    0    0  501  0.00000000000E+00  0.00000000000E+00  0.14979109802E+04  0.14979109802E+04  0.50400001928E-02 0. -1.
        1   -1    0    0  501    0  0.00000000000E+00  0.00000000000E+00 -0.20557482479E+04  0.20557482480E+04  0.50400001928E-02 0.  1.
    10030    2    1    2    0    0  0.00000000000E+00  0.00000000000E+00 -0.55783726776E+03  0.35536592282E+04  0.35096027542E+04 0.  0.
        4    1    3    3  502    0  0.60918788821E+03 -0.14605521506E+04  0.48889031916E+03  0.16563024557E+04  0.12699999809E+01 0. -1.
       -4    1    3    3    0  502 -0.60918788821E+03  0.14605521506E+04 -0.10467275869E+04  0.18973567724E+04  0.12699999809E+01 0.  1.
</event>
<event>
 5   0  0.1110956E-06  0.2192252E+04  0.7818609E-02  0.8521660E-01
       -1   -1    0    0    0  501  0.00000000000E+00  0.00000000000E+00  0.90586971574E+03  0.90586971576E+03  0.50400001928E-02 0.  1.
        1   -1    0    0  501    0  0.00000000000E+00  0.00000000000E+00 -0.13263411884E+04  0.13263411884E+04  0.50400001928E-02 0. -1.
    10030    2    1    2    0    0  0.00000000000E+00  0.00000000000E+00 -0.42047147269E+03  0.22322109042E+04  0.21922520981E+04 0.  0.
        1    1    3    3  502    0  0.20558070798E+03  0.53451694158E+03 -0.11618945813E+04  0.12953651248E+04  0.50400001928E-02 0. -1.
       -1    1    3    3    0  502 -0.20558070798E+03 -0.53451694158E+03  0.74142310865E+03  0.93684577941E+03  0.50400001928E-02 0.  1.
</event>
<event>
 5   0  0.1110956E-06  0.2636158E+04  0.7818609E-02  0.8356022E-01
        1   -1    0    0  501    0  0.00000000000E+00  0.00000000000E+00  0.15363118334E+04  0.15363118334E+04  0.50400001928E-02 0. -1.
       -1   -1    0    0    0  501  0.00000000000E+00  0.00000000000E+00 -0.11308457298E+04  0.11308457298E+04  0.50400001928E-02 0.  1.
    10030    2    1    2    0    0  0.00000000000E+00  0.00000000000E+00  0.40546610357E+03  0.26671575632E+04  0.26361575647E+04 0.  0.
        1    1    3    3  502    0  0.93384873757E+03 -0.89102169805E+03  0.47296670522E+03  0.13746601890E+04  0.50400001928E-02 0.  1.
       -1    1    3    3    0  502 -0.93384873757E+03  0.89102169805E+03 -0.67500601653E+02  0.12924973742E+04  0.50400001928E-02 0. -1.
</event>
<event>
 5   0  0.1908726E-06  0.3535813E+04  0.7818609E-02  0.8105355E-01
       -2   -1    0    0    0  501  0.00000000000E+00  0.00000000000E+00  0.17737177981E+04  0.17737177981E+04  0.25500000920E-02 0.  1.
        2   -1    0    0  501    0  0.00000000000E+00  0.00000000000E+00 -0.17621146861E+04  0.17621146861E+04  0.25500000920E-02 0. -1.
    10030    2    1    2    0    0  0.00000000000E+00  0.00000000000E+00  0.11603111950E+02  0.35358324842E+04  0.35358134459E+04 0.  0.
        5    1    3    3  502    0 -0.99760118323E+02  0.79939309659E+03  0.15794970017E+04  0.17730804473E+04  0.46999998093E+01 0.  1.
       -5    1    3    3    0  502  0.99760118323E+02 -0.79939309659E+03 -0.15678938898E+04  0.17627520369E+04  0.46999998093E+01 0. -1.
</event>
<event>
 5   0  0.1908726E-06  0.3439452E+04  0.7818609E-02  0.8128291E-01
       -2   -1    0    0    0  501  0.00000000000E+00  0.00000000000E+00  0.15816690250E+04  0.15816690250E+04  0.25500000920E-02 0. -1.
        2   -1    0    0  501    0  0.00000000000E+00  0.00000000000E+00 -0.18698331376E+04  0.18698331376E+04  0.25500000920E-02 0.  1.
    10030    2    1    2    0    0  0.00000000000E+00  0.00000000000E+00 -0.28816411265E+03  0.34515021626E+04  0.34394517910E+04 0.  0.
        5    1    3    3  502    0 -0.81458843591E+03 -0.55584332259E+03  0.12697255436E+04  0.16077130233E+04  0.46999998093E+01 0. -1.
       -5    1    3    3    0  502  0.81458843591E+03  0.55584332259E+03 -0.15578896563E+04  0.18437891393E+04  0.46999998093E+01 0.  1.
</event>
<event>
 5   0  0.1908726E-06  0.3468784E+04  0.7818609E-02  0.8121228E-01
       -2   -1    0    0    0  501  0.00000000000E+00  0.00000000000E+00  0.22980855148E+04  0.22980855148E+04  0.25500000920E-02 0. -1.
        2   -1    0    0  501    0  0.00000000000E+00  0.00000000000E+00 -0.13089658887E+04  0.13089658888E+04  0.25500000920E-02 0.  1.
    10030    2    1    2    0    0  0.00000000000E+00  0.00000000000E+00  0.98911962604E+03  0.36070514035E+04  0.34687839646E+04 0.  0.
        5    1    3    3  502    0 -0.12166333863E+04 -0.17156186378E+03 -0.77835141644E+03  0.14544701053E+04  0.46999998093E+01 0.  1.
       -5    1    3    3    0  502  0.12166333863E+04  0.17156186378E+03  0.17674710425E+04  0.21525812983E+04  0.46999998093E+01 0. -1.
</event>
<event>
 5   0  0.2565004E-06  0.3308976E+04  0.7818609E-02  0.8160615E-01
        2   -1    0    0  501    0  0.00000000000E+00  0.00000000000E+00  0.26090888336E+04  0.26090888336E+04  0.25500000920E-02 0. -1.
       -2   -1    0    0    0  501  0.00000000000E+00  0.00000000000E+00 -0.10491520366E+04  0.10491520366E+04  0.25500000920E-02 0.  1.
    10030    2    1    2    0    0  0.00000000000E+00  0.00000000000E+00  0.15599367970E+04  0.36582408701E+04  0.33089761941E+04 0.  0.
        3    1    3    3  502    0  0.13065120745E+04 -0.45083691651E+03  0.17854137859E+04  0.22578596332E+04  0.10100000352E+00 0. -1.
       -3    1    3    3    0  502 -0.13065120745E+04  0.45083691651E+03 -0.22547698889E+03  0.14003812369E+04  0.10100000352E+00 0.  1.
</event>
<event>
 5   0  0.1125196E-06  0.3538748E+04  0.7818609E-02  0.8104668E-01
        1   -1    0    0  501    0  0.00000000000E+00  0.00000000000E+00  0.24868409164E+04  0.24868409164E+04  0.50400001928E-02 0. -1.
       -1   -1    0    0    0  501  0.00000000000E+00  0.00000000000E+00 -0.12589004564E+04  0.12589004564E+04  0.50400001928E-02 0.  1.
    10030    2    1    2    0    0  0.00000000000E+00  0.00000000000E+00  0.12279404600E+04  0.37457413728E+04  0.35387484594E+04 0.  0.
        4    1    3    3  502    0  0.10124960574E+04  0.13329911954E+04  0.12208015220E+04  0.20718039874E+04  0.12699999809E+01 0. -1.
       -4    1    3    3    0  502 -0.10124960574E+04 -0.13329911954E+04  0.71389380099E+01  0.16739373855E+04  0.12699999809E+01 0.  1.
</event>
<event>
 5   0  0.1130707E-06  0.3462984E+04  0.7818609E-02  0.8122619E-01
        1   -1    0    0  501    0  0.00000000000E+00  0.00000000000E+00  0.19002153471E+04  0.19002153472E+04  0.50400001928E-02 0. -1.
       -1   -1    0    0    0  501  0.00000000000E+00  0.00000000000E+00 -0.15777496828E+04  0.15777496828E+04  0.50400001928E-02 0.  1.
    10030    2    1    2    0    0  0.00000000000E+00  0.00000000000E+00  0.32246566436E+03  0.34779650300E+04  0.34629837777E+04 0.  0.
        3    1    3    3  502    0  0.10223611088E+03  0.55094350826E+03  0.18066344881E+04  0.18915388327E+04  0.10100000352E+00 0. -1.
       -3    1    3    3    0  502 -0.10223611088E+03 -0.55094350826E+03 -0.14841688238E+04  0.15864261973E+04  0.10100000352E+00 0.  1.
</event>
<event>
 5   0  0.2565004E-06  0.3337885E+04  0.7818609E-02  0.8153322E-01
        2   -1    0    0  501    0  0.00000000000E+00  0.00000000000E+00  0.24440825949E+04  0.24440825949E+04  0.25500000920E-02 0. -1.
       -2   -1    0    0    0  501  0.00000000000E+00  0.00000000000E+00 -0.11396378777E+04  0.11396378777E+04  0.25500000920E-02 0.  1.
    10030    2    1    2    0    0  0.00000000000E+00  0.00000000000E+00  0.13044447172E+04  0.35837204726E+04  0.33378850198E+04 0.  0.
        3    1    3    3  502    0 -0.12509927054E+04  0.10098169519E+04  0.17128457060E+03  0.16168028450E+04  0.10100000352E+00 0.  1.
       -3    1    3    3    0  502  0.12509927054E+04 -0.10098169519E+04  0.11331601466E+04  0.19669176275E+04  0.10100000352E+00 0. -1.
</event>
<event>
 5   0  0.1908726E-06  0.3540765E+04  0.7818609E-02  0.8104197E-01
       -2   -1    0    0    0  501  0.00000000000E+00  0.00000000000E+00  0.16435517065E+04  0.16435517065E+04  0.25500000920E-02 0.  1.
        2   -1    0    0  501    0  0.00000000000E+00  0.00000000000E+00 -0.19070006258E+04  0.19070006258E+04  0.25500000920E-02 0. -1.
    10030    2    1    2    0    0  0.00000000000E+00  0.00000000000E+00 -0.26344891925E+03  0.35505523323E+04  0.35407649641E+04 0.  0.
        5    1    3    3  502    0 -0.10320641066E+04  0.82424660937E+02  0.13083098309E+04  0.16684264588E+04  0.46999998093E+01 0.  1.
       -5    1    3    3    0  502  0.10320641066E+04 -0.82424660937E+02 -0.15717587502E+04  0.18821258735E+04  0.46999998093E+01 0. -1.
</event>
<event>
 5   0  0.1782660E-06  0.3287928E+04  0.7818609E-02  0.8165974E-01
       -2   -1    0    0    0  501  0.00000000000E+00  0.00000000000E+00  0.10952328540E+04  0.10952328540E+04  0.25500000920E-02 0.  1.
        2   -1    0    0  501    0  0.00000000000E+00  0.00000000000E+00 -0.24676195665E+04  0.24676195665E+04  0.25500000920E-02 0. -1.
    10030    2    1    2    0    0  0.00000000000E+00  0.00000000000E+00 -0.13723867124E+04  0.35628524205E+04  0.32879282355E+04 0.  0.
        4    1    3    3  502    0 -0.10967274690E+04 -0.96197822836E+03  0.13507277281E+03  0.14650800388E+04  0.12699999809E+01 0.  1.
       -4    1    3    3    0  502  0.10967274690E+04  0.96197822836E+03 -0.15074594852E+04  0.20977723818E+04  0.12699999809E+01 0. -1.
</event>
<event>
 5   0  0.1782660E-06  0.3538586E+04  0.7818609E-02  0.8104706E-01
        2   -1    0    0  501    0  0.00000000000E+00  0.00000000000E+00  0.22794799064E+04  0.22794799064E+04  0.25500000920E-02 0.  1.
       -2   -1    0    0    0  501  0.00000000000E+00  0.00000000000E+00 -0.13732946795E+04  0.13732946796E+04  0.25500000920E-02 0. -1.
    10030    2    1    2    0    0  0.00000000000E+00  0.00000000000E+00  0.90618522684E+03  0.36527745859E+04  0.35385859479E+04 0.  0.
        4    1    3    3  502    0  0.11933936156E+04 -0.43808593129E+03  0.17233666548E+04  0.21415185838E+04  0.12699999809E+01 0.  1.
       -4    1    3    3    0  502 -0.11933936156E+04  0.43808593129E+03 -0.81718142795E+03  0.15112560022E+04  0.12699999809E+01 0. -1.
</event>
<event>
 5   0  0.1125196E-06  0.3327124E+04  0.7818609E-02  0.8156028E-01
       -1   -1    0    0    0  501  0.00000000000E+00  0.00000000000E+00  0.16005020052E+04  0.16005020052E+04  0.50400001928E-02 0. -1.
        1   -1    0    0  501    0  0.00000000000E+00  0.00000000000E+00 -0.17291061438E+04  0.17291061439E+04  0.50400001928E-02 0.  1.
    10030    2    1    2    0    0  0.00000000000E+00  0.00000000000E+00 -0.12860413863E+03  0.33296081491E+04  0.33271235928E+04 0.  0.
        4    1    3    3  502    0 -0.15157955356E+04 -0.20819914092E+03 -0.71782360852E+03  0.16900459561E+04  0.12699999809E+01 0.  1.
       -4    1    3    3    0  502  0.15157955356E+04  0.20819914092E+03  0.58921946989E+03  0.16395621930E+04  0.12699999809E+01 0. -1.
</event>
<event>
 5   0  0.3378848E-06  0.2726166E+04  0.7818609E-02  0.8326565E-01
        2   -1    0    0  501    0  0.00000000000E+00  0.00000000000E+00  0.14716922206E+04  0.14716922206E+04  0.25500000920E-02 0. -1.
       -2   -1    0    0    0  501  0.00000000000E+00  0.00000000000E+00 -0.12624886733E+04  0.12624886733E+04  0.25500000920E-02 0.  1.
    10030    2    1    2    0    0  0.00000000000E+00  0.00000000000E+00  0.20920354730E+03  0.27341808939E+04  0.27261656289E+04 0.  0.
        1    1    3    3  502    0 -0.13520845398E+04 -0.16772638959E+03  0.14631750650E+03  0.13702822911E+04  0.50400001928E-02 0.  1.
       -1    1    3    3    0  502  0.13520845398E+04  0.16772638959E+03  0.62886040798E+02  0.13638986028E+04  0.50400001928E-02 0. -1.
</event>
<event>
 5   0  0.1089337E-06  0.3498167E+04  0.7818609E-02  0.8114224E-01
       -1   -1    0    0    0  501  0.00000000000E+00  0.00000000000E+00  0.24538845774E+04  0.24538845774E+04  0.50400001928E-02 0.  1.
        1   -1    0    0  501    0  0.00000000000E+00  0.00000000000E+00 -0.12467146725E+04  0.12467146725E+04  0.50400001928E-02 0. -1.
    10030    2    1    2    0    0  0.00000000000E+00  0.00000000000E+00  0.12071699049E+04  0.37005992499E+04  0.34981674673E+04 0.  0.
        2    1    3    3  502    0 -0.10132855367E+04 -0.22900248908E+03  0.20921762684E+04  0.23358919618E+04  0.25500000920E-02 0.  1.
       -2    1    3    3    0  502  0.10132855367E+04  0.22900248908E+03 -0.88500636348E+03  0.13647072881E+04  0.25500000920E-02 0. -1.
</event>
<event>
 5   0  0.3041329E-06  0.3514815E+04  0.7818609E-02  0.8110288E-01
        2   -1    0    0  501    0  0.00000000000E+00  0.00000000000E+00  0.18466345129E+04  0.18466345129E+04  0.25500000920E-02 0. -1.
       -2   -1    0    0    0  501  0.00000000000E+00  0.00000000000E+00 -0.16724917433E+04  0.16724917433E+04  0.25500000920E-02 0.  1.
    10030    2    1    2    0    0  0.00000000000E+00  0.00000000000E+00  0.17414276961E+03  0.35191262562E+04  0.35148149173E+04 0.  0.
        2    1    3    3  502    0 -0.14528800797E+04 -0.41661890694E+03 -0.81071637951E+03  0.17151364050E+04  0.25500000920E-02 0. -1.
       -2    1    3    3    0  502  0.14528800797E+04  0.41661890694E+03  0.98485914912E+03  0.18039898512E+04  0.25500000920E-02 0.  1.
</event>
<event>
 5   0  0.1908726E-06  0.2132166E+04  0.7818609E-02  0.8547205E-01
        2   -1    0    0  501    0  0.00000000000E+00  0.00000000000E+00  0.37060264519E+03  0.37060264520E+03  0.25500000920E-02 0.  1.
       -2   -1    0    0    0  501  0.00000000000E+00  0.00000000000E+00 -0.30667145322E+04  0.30667145322E+04  0.25500000920E-02 0. -1.
    10030    2    1    2    0    0  0.00000000000E+00  0.00000000000E+00 -0.26961118870E+04  0.34373171774E+04  0.21321655824E+04 0.  0.
        5    1    3    3  502    0  0.11911892308E+02  0.31409195449E+03 -0.29902999314E+04  0.30067775805E+04  0.46999998093E+01 0. -1.
       -5    1    3    3    0  502 -0.11911892308E+02 -0.31409195449E+03  0.29418804436E+03  0.43053959690E+03  0.46999998093E+01 0.  1.
</event>
<event>
 5   0  0.1089337E-06  0.3392506E+04  0.7818609E-02  0.8139748E-01
        1   -1    0    0  501    0  0.00000000000E+00  0.00000000000E+00  0.20863489513E+04  0.20863489513E+04  0.50400001928E-02 0. -1.
       -1   -1    0    0    0  501  0.00000000000E+00  0.00000000000E+00 -0.13790955133E+04  0.13790955133E+04  0.50400001928E-02 0.  1.
    10030    2    1    2    0    0  0.00000000000E+00  0.00000000000E+00  0.70725343797E+03  0.34654444646E+04  0.33925061402E+04 0.  0.
        2    1    3    3  502    0  0.60388465626E+03 -0.51498004167E+02  0.19719693287E+04  0.20630055152E+04  0.25500000920E-02 0. -1.
       -2    1    3    3    0  502 -0.60388465626E+03  0.51498004167E+02 -0.12647158907E+04  0.14024389494E+04  0.25500000920E-02 0.  1.
</event>
<event>
 5   0  0.1908726E-06  0.1982294E+04  0.7818609E-02  0.8614944E-01
        2   -1    0    0  501    0  0.00000000000E+00  0.00000000000E+00  0.60766299386E+03  0.60766299386E+03  0.25500000920E-02 0.  1.
       -2   -1    0    0    0  501  0.00000000000E+00  0.00000000000E+00 -0.16166401468E+04  0.16166401468E+04  0.25500000920E-02 0. -1.
    10030    2    1    2    0    0  0.00000000000E+00  0.00000000000E+00 -0.10089771529E+04  0.22243031407E+04  0.19822940161E+04 0.  0.
        5    1    3    3  502    0  0.38851822981E+03  0.72697818188E+03 -0.11220501715E+04  0.13922867410E+04  0.46999998093E+01 0. -1.
       -5    1    3    3    0  502 -0.38851822981E+03 -0.72697818188E+03  0.11307301853E+03  0.83201639968E+03  0.46999998093E+01 0.  1.
</event>
<event>
 5   0  0.3041329E-06  0.3397151E+04  0.7818609E-02  0.8138606E-01
        2   -1    0    0  501    0  0.00000000000E+00  0.00000000000E+00  0.18835015597E+04  0.18835015597E+04  0.25500000920E-02 0. -1.
       -2   -1    0    0    0  501  0.00000000000E+00  0.00000000000E+00 -0.15318056638E+04  0.15318056638E+04  0.25500000920E-02 0.  1.
    10030    2    1    2    0    0  0.00000000000E+00  0.00000000000E+00  0.35169589580E+03  0.34153072235E+04  0.33971507808E+04 0.  0.
        2    1    3    3  502    0  0.46501349614E+03  0.90449881849E+03  0.15435610735E+04  0.18484957268E+04  0.25500000920E-02 0. -1.
       -2    1    3    3    0  502 -0.46501349614E+03 -0.90449881849E+03 -0.11918651777E+04  0.15668114967E+04  0.25500000920E-02 0.  1.
</event>
<event>
 5   0  0.1782660E-06  0.3583369E+04  0.7818609E-02  0.8094312E-01
        2   -1    0    0  501    0  0.00000000000E+00  0.00000000000E+00  0.15748272468E+04  0.15748272468E+04  0.25500000920E-02 0.  1.
       -2   -1    0    0    0  501  0.00000000000E+00  0.00000000000E+00 -0.20384033894E+04  0.20384033894E+04  0.25500000920E-02 0. -1.
    10030    2    1    2    0    0  0.00000000000E+00  0.00000000000E+00 -0.46357614264E+03  0.36132306362E+04  0.35833689163E+04 0.  0.
        4    1    3    3  502    0  0.13949443322E+03  0.14564255806E+04  0.81099514280E+03  0.16728266208E+04  0.12699999809E+01 0.  1.
       -4    1    3    3    0  502 -0.13949443322E+03 -0.14564255806E+04 -0.12745712854E+04  0.19404040155E+04  0.12699999809E+01 0. -1.
</event>
<event>
 5   0  0.2565004E-06  0.1942151E+04  0.7818609E-02  0.8634155E-01
       -2   -1    0    0    0  501  0.00000000000E+00  0.00000000000E+00  0.76827166204E+03  0.76827166205E+03  0.25500000920E-02 0. -1.
        2   -1    0    0  501    0  0.00000000000E+00  0.00000000000E+00 -0.12274142981E+04  0.12274142981E+04  0.25500000920E-02 0.  1.
    10030    2    1    2    0    0  0.00000000000E+00  0.00000000000E+00 -0.45914263610E+03  0.19956859602E+04  0.19421509960E+04 0.  0.
        3    1    3    3  502    0  0.90576925119E+03 -0.60164180270E+02 -0.58396937964E+03  0.10793784839E+04  0.10100000352E+00 0.  1.
       -3    1    3    3    0  502 -0.90576925119E+03  0.60164180270E+02  0.12482674354E+03  0.91630747628E+03  0.10100000352E+00 0. -1.
</event>
<event>
 5   0  0.1782660E-06  0.3584729E+04  0.7818609E-02  0.8093999E-01
        2   -1    0    0  501    0  0.00000000000E+00  0.00000000000E+00  0.20044909984E+04  0.20044909984E+04  0.25500000920E-02 0.  1.
       -2   -1    0    0    0  501  0.00000000000E+00  0.00000000000E+00 -0.16026866103E+04  0.16026866103E+04  0.25500000920E-02 0. -1.
    10030    2    1    2    0    0  0.00000000000E+00  0.00000000000E+00  0.40180438814E+03  0.36071776087E+04  0.35847292135E+04 0.  0.
        4    1    3    3  502    0 -0.19104495412E+03  0.14297904982E+04 -0.86960675920E+03  0.16843445526E+04  0.12699999809E+01 0. -1.
       -4    1    3    3    0  502  0.19104495412E+03 -0.14297904982E+04  0.12714111473E+04  0.19228330561E+04  0.12699999809E+01 0.  1.
</event>
<event>
 5   0  0.1125196E-06  0.2023334E+04  0.7818609E-02  0.8595788E-01
        1   -1    0    0  501    0  0.00000000000E+00  0.00000000000E+00  0.74073840686E+03  0.74073840688E+03  0.50400001928E-02 0.  1.
       -1   -1    0    0    0  501  0.00000000000E+00  0.00000000000E+00 -0.13816889985E+04  0.13816889986E+04  0.50400001928E-02 0. -1.
    10030    2    1    2    0    0  0.00000000000E+00  0.00000000000E+00 -0.64095059168E+03  0.21224274054E+04  0.20233339888E+04 0.  0.
        4    1    3    3  502    0 -0.29569262186E+03  0.51691000129E+03  0.53740338123E+03  0.80214343051E+03  0.12699999809E+01 0.  1.
       -4    1    3    3    0  502  0.29569262186E+03 -0.51691000129E+03 -0.11783539729E+04  0.13202839749E+04  0.12699999809E+01 0. -1.
</event>
<event>
 5   0  0.2565004E-06  0.2779519E+04  0.7818609E-02  0.8309655E-01
        2   -1    0    0  501    0  0.00000000000E+00  0.00000000000E+00  0.27534654589E+04  0.27534654589E+04  0.25500000920E-02 0. -1.
       -2   -1    0    0    0  501  0.00000000000E+00  0.00000000000E+00 -0.70145461405E+03  0.70145461406E+03  0.25500000920E-02 0.  1.
    10030    2    1    2    0    0  0.00000000000E+00  0.00000000000E+00  0.20520108449E+04  0.34549200730E+04  0.27795186999E+04 0.  0.
        3    1    3    3  502    0 -0.11964606672E+04  0.69164566366E+03  0.84358096109E+03  0.16191110834E+04  0.10100000352E+00 0. -1.
       -3    1    3    3    0  502  0.11964606672E+04 -0.69164566366E+03  0.12084298838E+04  0.18358089896E+04  0.10100000352E+00 0.  1.
</event>
<event>
 5   0  0.1130707E-06  0.2700257E+04  0.7818609E-02  0.8334922E-01
        1   -1    0    0  501    0  0.00000000000E+00  0.00000000000E+00  0.26740107752E+04  0.26740107752E+04  0.50400001928E-02 0. -1.
       -1   -1    0    0    0  501  0.00000000000E+00  0.00000000000E+00 -0.68169006726E+03  0.68169006728E+03  0.50400001928E-02 0.  1.
    10030    2    1    2    0    0  0.00000000000E+00  0.00000000000E+00  0.19923207080E+04  0.33557008425E+04  0.27002567176E+04 0.  0.
        3    1    3    3  502    0  0.84925289248E+03  0.56201200903E+02 -0.30631590496E+03  0.90455430694E+03  0.10100000352E+00 0.  1.
       -3    1    3    3    0  502 -0.84925289248E+03 -0.56201200903E+02  0.22986366129E+04  0.24511465356E+04  0.10100000352E+00 0. -1.
</event>
<event>
 5   0  0.1102175E-06  0.3570288E+04  0.7818609E-02  0.8097332E-01
        1   -1    0    0  501    0  0.00000000000E+00  0.00000000000E+00  0.98411372456E+03  0.98411372457E+03  0.50400001928E-02 0.  1.
       -1   -1    0    0    0  501  0.00000000000E+00  0.00000000000E+00 -0.32381809137E+04  0.32381809137E+04  0.50400001928E-02 0. -1.
    10030    2    1    2    0    0  0.00000000000E+00  0.00000000000E+00 -0.22540671892E+04  0.42222946383E+04  0.35702875402E+04 0.  0.
        5    1    3    3  502    0  0.67688891036E+03  0.49408001003E+03 -0.29910858015E+04  0.31062694692E+04  0.46999998093E+01 0. -1.
       -5    1    3    3    0  502 -0.67688891036E+03 -0.49408001003E+03  0.73701861230E+03  0.11160251691E+04  0.46999998093E+01 0.  1.
</event>
<event>
 5   0  0.1782660E-06  0.3501762E+04  0.7818609E-02  0.8113373E-01
       -2   -1    0    0    0  501  0.00000000000E+00  0.00000000000E+00  0.15601995939E+04  0.15601995939E+04  0.25500000920E-02 0.  1.
        2   -1    0    0  501    0  0.00000000000E+00  0.00000000000E+00 -0.19648664786E+04  0.19648664786E+04  0.25500000920E-02 0. -1.
    10030    2    1    2    0    0  0.00000000000E+00  0.00000000000E+00 -0.40466688467E+03  0.35250660725E+04  0.35017617748E+04 0.  0.
        4    1    3    3  502    0  0.13561498213E+04  0.49119317067E+03  0.79682894481E+03  0.16478322272E+04  0.12699999809E+01 0.  1.
       -4    1    3    3    0  502 -0.13561498213E+04 -0.49119317067E+03 -0.12014958295E+04  0.18772338453E+04  0.12699999809E+01 0. -1.
</event>
<event>
 5   0  0.1782660E-06  0.3491789E+04  0.7818609E-02  0.8115739E-01
        2   -1    0    0  501    0  0.00000000000E+00  0.00000000000E+00  0.21184365864E+04  0.21184365864E+04  0.25500000920E-02 0. -1.
       -2   -1    0    0    0  501  0.00000000000E+00  0.00000000000E+00 -0.14388667172E+04  0.14388667172E+04  0.25500000920E-02 0.  1.
    10030    2    1    2    0    0  0.00000000000E+00  0.00000000000E+00  0.67956986922E+03  0.35573033035E+04  0.34917891669E+04 0.  0.
        4    1    3    3  502    0 -0.55412655061E+03 -0.14564700304E+04  0.11418201697E+04  0.19318685504E+04  0.12699999809E+01 0. -1.
       -4    1    3    3    0  502  0.55412655061E+03  0.14564700304E+04 -0.46225030046E+03  0.16254347531E+04  0.12699999809E+01 0.  1.
</event>
<event>
 5   0  0.1908726E-06  0.2338397E+04  0.7818609E-02  0.8462934E-01
       -2   -1    0    0    0  501  0.00000000000E+00  0.00000000000E+00  0.13173346977E+04  0.13173346977E+04  0.25500000920E-02 0.  1.
        2   -1    0    0  501    0  0.00000000000E+00  0.00000000000E+00 -0.10377207451E+04  0.10377207451E+04  0.25500000920E-02 0. -1.
    10030    2    1    2    0    0  0.00000000000E+00  0.00000000000E+00  0.27961395264E+03  0.23550554428E+04  0.23383973520E+04 0.  0.
        5    1    3    3  502    0 -0.74608968565E+03 -0.48858803458E+03  0.90125869402E+03  0.12679343083E+04  0.46999998093E+01 0. -1.
       -5    1    3    3    0  502  0.74608968565E+03  0.48858803458E+03 -0.62164474138E+03  0.10871211345E+04  0.46999998093E+01 0.  1.
</event>
<event>
 5   0  0.1130707E-06  0.3452863E+04  0.7818609E-02  0.8125053E-01
       -1   -1    0    0    0  501  0.00000000000E+00  0.00000000000E+00  0.11613018682E+04  0.11613018682E+04  0.50400001928E-02 0. -1.
        1   -1    0    0  501    0  0.00000000000E+00  0.00000000000E+00 -0.25665727999E+04  0.25665727999E+04  0.50400001928E-02 0.  1.
    10030    2    1    2    0    0  0.00000000000E+00  0.00000000000E+00 -0.14052709317E+04  0.37278746681E+04  0.34528630366E+04 0.  0.
        3    1    3    3  502    0  0.23194213183E+03  0.17093179456E+04 -0.77898406404E+03  0.18927179330E+04  0.10100000352E+00 0.  1.
       -3    1    3    3    0  502 -0.23194213183E+03 -0.17093179456E+04 -0.62628686764E+03  0.18351567351E+04  0.10100000352E+00 0. -1.
</event>
<event>
 5   0  0.1125196E-06  0.2587638E+04  0.7818609E-02  0.8372413E-01
        1   -1    0    0  501    0  0.00000000000E+00  0.00000000000E+00  0.17928774754E+04  0.17928774754E+04  0.50400001928E-02 0.  1.
       -1   -1    0    0    0  501  0.00000000000E+00  0.00000000000E+00 -0.93367621104E+03  0.93367621105E+03  0.50400001928E-02 0. -1.
    10030    2    1    2    0    0  0.00000000000E+00  0.00000000000E+00  0.85920126438E+03  0.27265536865E+04  0.25876375698E+04 0.  0.
        4    1    3    3  502    0 -0.58107812916E+03  0.56272661640E+03 -0.63438724066E+03  0.10279892125E+04  0.12699999809E+01 0. -1.
       -4    1    3    3    0  502  0.58107812916E+03 -0.56272661640E+03  0.14935885050E+04  0.16985644740E+04  0.12699999809E+01 0.  1.
</event>
<event>
 5   0  0.1110956E-06  0.3532118E+04  0.7818609E-02  0.8106220E-01
       -1   -1    0    0    0  501  0.00000000000E+00  0.00000000000E+00  0.18683611853E+04  0.18683611853E+04  0.50400001928E-02 0.  1.
        1   -1    0    0  501    0  0.00000000000E+00  0.00000000000E+00 -0.16693579148E+04  0.16693579148E+04  0.50400001928E-02 0. -1.
    10030    2    1    2    0    0  0.00000000000E+00  0.00000000000E+00  0.19900327056E+03  0.35377191001E+04  0.35321175135E+04 0.  0.
        1    1    3    3  502    0  0.29913412156E+03  0.88538870053E+03 -0.14013971969E+04  0.16844312029E+04  0.50400001928E-02 0. -1.
       -1    1    3    3    0  502 -0.29913412156E+03 -0.88538870053E+03  0.16004004675E+04  0.18532878972E+04  0.50400001928E-02 0.  1.
</event>
<event>
 5   0  0.1102175E-06  0.3559334E+04  0.7818609E-02  0.8099871E-01
       -1   -1    0    0    0  501  0.00000000000E+00  0.00000000000E+00  0.14287882428E+04  0.14287882428E+04  0.50400001928E-02 0.  1.
        1   -1    0    0  501    0  0.00000000000E+00  0.00000000000E+00 -0.22167137122E+04  0.22167137123E+04  0.50400001928E-02 0. -1.
    10030    2    1    2    0    0  0.00000000000E+00  0.00000000000E+00 -0.78792546947E+03  0.36455019550E+04  0.35593339207E+04 0.  0.
        5    1    3    3  502    0  0.17177154934E+04  0.37531042504E+03 -0.11200193460E+03  0.17618090007E+04  0.46999998093E+01 0.  1.
       -5    1    3    3    0  502 -0.17177154934E+04 -0.37531042504E+03 -0.67592353486E+03  0.18836929544E+04  0.46999998093E+01 0. -1.
</event>
<event>
 5   0  0.1782660E-06  0.2475828E+04  0.7818609E-02  0.8411648E-01
       -2   -1    0    0    0  501  0.00000000000E+00  0.00000000000E+00  0.11871035015E+04  0.11871035015E+04  0.25500000920E-02 0. -1.
        2   -1    0    0  501    0  0.00000000000E+00  0.00000000000E+00 -0.12908993246E+04  0.12908993246E+04  0.25500000920E-02 0.  1.
    10030    2    1    2    0    0  0.00000000000E+00  0.00000000000E+00 -0.10379582310E+03  0.24780028261E+04  0.24758280299E+04 0.  0.
        4    1    3    3  502    0 -0.62698628322E+03 -0.10206402883E+04  0.26080427721E+03  0.12259032920E+04  0.12699999809E+01 0.  1.
       -4    1    3    3    0  502  0.62698628322E+03  0.10206402883E+04 -0.36460010031E+03  0.12520995342E+04  0.12699999809E+01 0. -1.
</event>
<event>
 5   0  0.2565004E-06  0.3298907E+04  0.7818609E-02  0.8163174E-01
       -2   -1    0    0    0  501  0.00000000000E+00  0.00000000000E+00  0.16720051273E+04  0.16720051273E+04  0.25500000920E-02 0. -1.
        2   -1    0    0  501    0  0.00000000000E+00  0.00000000000E+00 -0.16272056506E+04  0.16272056506E+04  0.25500000920E-02 0.  1.
    10030    2    1    2    0    0  0.00000000000E+00  0.00000000000E+00  0.44799476707E+02  0.32992107778E+04  0.32989066012E+04 0.  0.
        3    1    3    3  502    0  0.39346414625E+03  0.48417698802E+03 -0.15046512612E+04  0.16288697978E+04  0.10100000352E+00 0.  1.
       -3    1    3    3    0  502 -0.39346414625E+03 -0.48417698802E+03  0.15494507379E+04  0.16703409800E+04  0.10100000352E+00 0. -1.
</event>
<event>
 5   0  0.1782660E-06  0.3772836E+04  0.7818609E-02  0.8052010E-01
       -2   -1    0    0    0  501  0.00000000000E+00  0.00000000000E+00  0.13987125366E+04  0.13987125366E+04  0.25500000920E-02 0.  1.
        2   -1    0    0  501    0  0.00000000000E+00  0.00000000000E+00 -0.25441767958E+04  0.25441767958E+04  0.25500000920E-02 0. -1.
    10030    2    1    2    0    0  0.00000000000E+00  0.00000000000E+00 -0.11454642592E+04  0.39428893324E+04  0.37728355277E+04 0.  0.
        4    1    3    3  502    0  0.28423601972E+03 -0.16749121089E+04 -0.14297238182E+04  0.22204126861E+04  0.12699999809E+01 0. -1.
       -4    1    3    3    0  502 -0.28423601972E+03  0.16749121089E+04  0.28425955902E+03  0.17224766463E+04  0.12699999809E+01 0.  1.
</event>
<event>
 5   0  0.1782660E-06  0.3388742E+04  0.7818609E-02  0.8140675E-01
        2   -1    0    0  501    0  0.00000000000E+00  0.00000000000E+00  0.16104642181E+04  0.16104642181E+04  0.25500000920E-02 0.  1.
       -2   -1    0    0    0  501  0.00000000000E+00  0.00000000000E+00 -0.17826490467E+04  0.17826490467E+04  0.25500000920E-02 0. -1.
    10030    2    1    2    0    0  0.00000000000E+00  0.00000000000E+00 -0.17218482861E+03  0.33931132647E+04  0.33887416561E+04 0.  0.
        4    1    3    3  502    0  0.71932161034E+03 -0.78124762033E+03 -0.14080681144E+04  0.17636407942E+04  0.12699999809E+01 0. -1.
       -4    1    3    3    0  502 -0.71932161034E+03  0.78124762033E+03  0.12358832857E+04  0.16294724705E+04  0.12699999809E+01 0.  1.
</event>
<event>
 5   0  0.1102175E-06  0.3442946E+04  0.7818609E-02  0.8127446E-01
       -1   -1    0    0    0  501  0.00000000000E+00  0.00000000000E+00  0.14333918617E+04  0.14333918617E+04  0.50400001928E-02 0.  1.
        1   -1    0    0  501    0  0.00000000000E+00  0.00000000000E+00 -0.20674520534E+04  0.20674520535E+04  0.50400001928E-02 0. -1.
    10030    2    1    2    0    0  0.00000000000E+00  0.00000000000E+00 -0.63406019177E+03  0.35008439151E+04  0.34429458014E+04 0.  0.
        5    1    3    3  502    0 -0.50935318253E+03 -0.57558741378E+03  0.12492320950E+04  0.14667462128E+04  0.46999998093E+01 0.  1.
       -5    1    3    3    0  502  0.50935318253E+03  0.57558741378E+03 -0.18832922868E+04  0.20340977024E+04  0.46999998093E+01 0. -1.
</event>
<event>
 5   0  0.1042825E-06  0.3510855E+04  0.7818609E-02  0.8111222E-01
       -3   -1    0    0    0  501  0.00000000000E+00  0.00000000000E+00  0.12011771331E+04  0.12011771374E+04  0.10100000352E+00 0.  1.
        3   -1    0    0  501    0  0.00000000000E+00  0.00000000000E+00 -0.25654218688E+04  0.25654218708E+04  0.10100000352E+00 0. -1.
    10030    2    1    2    0    0  0.00000000000E+00  0.00000000000E+00 -0.13642447356E+04  0.37665990081E+04  0.35108552219E+04 0.  0.
        2    1    3    3  502    0  0.13219487496E+03  0.17410162804E+04 -0.87675681221E+03  0.19537951994E+04  0.25500000920E-02 0. -1.
       -2    1    3    3    0  502 -0.13219487496E+03 -0.17410162804E+04 -0.48748792344E+03  0.18128038087E+04  0.25500000920E-02 0.  1.
</event>
<event>
 5   0  0.1130707E-06  0.2332112E+04  0.7818609E-02  0.8465366E-01
        1   -1    0    0  501    0  0.00000000000E+00  0.00000000000E+00  0.22276441253E+04  0.22276441253E+04  0.50400001928E-02 0.  1.
       -1   -1    0    0    0  501  0.00000000000E+00  0.00000000000E+00 -0.61036958143E+03  0.61036958146E+03  0.50400001928E-02 0. -1.
    10030    2    1    2    0    0  0.00000000000E+00  0.00000000000E+00  0.16172745439E+04  0.28380137068E+04  0.23321116718E+04 0.  0.
        3    1    3    3  502    0  0.87889150697E+03 -0.76132920717E+03  0.70245189268E+03  0.13584959015E+04  0.10100000352E+00 0. -1.
       -3    1    3    3    0  502 -0.87889150697E+03  0.76132920717E+03  0.91482265120E+03  0.14795178053E+04  0.10100000352E+00 0.  1.
</event>
<event>
 5   0  0.1130707E-06  0.2230316E+04  0.7818609E-02  0.8505915E-01
        1   -1    0    0  501    0  0.00000000000E+00  0.00000000000E+00  0.78804600964E+03  0.78804600966E+03  0.50400001928E-02 0.  1.
       -1   -1    0    0    0  501  0.00000000000E+00  0.00000000000E+00 -0.15780516264E+04  0.15780516264E+04  0.50400001928E-02 0. -1.
    10030    2    1    2    0    0  0.00000000000E+00  0.00000000000E+00 -0.79000561677E+03  0.23660976361E+04  0.22303159303E+04 0.  0.
        3    1    3    3  502    0  0.10760847570E+04 -0.24444931639E+03 -0.22439098619E+03  0.11260840099E+04  0.10100000352E+00 0.  1.
       -3    1    3    3    0  502 -0.10760847570E+04  0.24444931639E+03 -0.56561463058E+03  0.12400136262E+04  0.10100000352E+00 0. -1.
</event>
<event>
 5   0  0.1782660E-06  0.3167289E+04  0.7818609E-02  0.8197510E-01
       -2   -1    0    0    0  501  0.00000000000E+00  0.00000000000E+00  0.16900430566E+04  0.16900430566E+04  0.25500000920E-02 0. -1.
        2   -1    0    0  501    0  0.00000000000E+00  0.00000000000E+00 -0.14839447601E+04  0.14839447601E+04  0.25500000920E-02 0.  1.
    10030    2    1    2    0    0  0.00000000000E+00  0.00000000000E+00  0.20609829649E+03  0.31739878167E+04  0.31672894015E+04 0.  0.
        4    1    3    3  502    0  0.28179900352E+03  0.20866481685E+03 -0.14445540816E+04  0.14865025367E+04  0.12699999809E+01 0.  1.
       -4    1    3    3    0  502 -0.28179900352E+03 -0.20866481685E+03  0.16506523781E+04  0.16874852800E+04  0.12699999809E+01 0. -1.
</event>
<event>
 5   0  0.1089337E-06  0.3333028E+04  0.7818609E-02  0.8154542E-01
        1   -1    0    0  501    0  0.00000000000E+00  0.00000000000E+00  0.19359584337E+04  0.19359584337E+04  0.50400001928E-02 0. -1.
       -1   -1    0    0    0  501  0.00000000000E+00  0.00000000000E+00 -0.14345709041E+04  0.14345709041E+04  0.50400001928E-02 0.  1.
    10030    2    1    2    0    0  0.00000000000E+00  0.00000000000E+00  0.50138752962E+03  0.33705293378E+04  0.33330284370E+04 0.  0.
        2    1    3    3  502    0 -0.10090983986E+04  0.12821414495E+04  0.59377984986E+03  0.17363008912E+04  0.25500000920E-02 0.  1.
       -2    1    3    3    0  502  0.10090983986E+04 -0.12821414495E+04 -0.92392320236E+02  0.16342284466E+04  0.25500000920E-02 0. -1.
</event>
<event>
 5   0  0.1782660E-06  0.3479126E+04  0.7818609E-02  0.8118755E-01
       -2   -1    0    0    0  501  0.00000000000E+00  0.00000000000E+00  0.13318880565E+04  0.13318880565E+04  0.25500000920E-02 0.  1.
        2   -1    0    0  501    0  0.00000000000E+00  0.00000000000E+00 -0.22720218542E+04  0.22720218542E+04  0.25500000920E-02 0. -1.
    10030    2    1    2    0    0  0.00000000000E+00  0.00000000000E+00 -0.94013379762E+03  0.36039099107E+04  0.34791256211E+04 0.  0.
        4    1    3    3  502    0  0.10495079593E+04  0.93574792885E+03  0.59086782848E+03  0.15251942652E+04  0.12699999809E+01 0. -1.
       -4    1    3    3    0  502 -0.10495079593E+04 -0.93574792885E+03 -0.15310016261E+04  0.20787156455E+04  0.12699999809E+01 0.  1.
</event>
<event>
 5   0  0.1125196E-06  0.3517477E+04  0.7818609E-02  0.8109660E-01
       -1   -1    0    0    0  501  0.00000000000E+00  0.00000000000E+00  0.17481839019E+04  0.17481839019E+04  0.50400001928E-02 0.  1.
        1   -1    0    0  501    0  0.00000000000E+00  0.00000000000E+00 -0.17693572432E+04  0.17693572432E+04  0.50400001928E-02 0. -1.
    10030    2    1    2    0    0  0.00000000000E+00  0.00000000000E+00 -0.21173341352E+02  0.35175411451E+04  0.35174774195E+04 0.  0.
        4    1    3    3  502    0 -0.12006964104E+04  0.10760141492E+04  0.69205107744E+03  0.17545411440E+04  0.12699999809E+01 0.  1.
       -4    1    3    3    0  502  0.12006964104E+04 -0.10760141492E+04 -0.71322441879E+03  0.17630000011E+04  0.12699999809E+01 0. -1.
</event>
<event>
 5   0  0.1102175E-06  0.3505005E+04  0.7818609E-02  0.8112605E-01
       -1   -1    0    0    0  501  0.00000000000E+00  0.00000000000E+00  0.11678155259E+04  0.11678155259E+04  0.50400001928E-02 0.  1.
        1   -1    0    0  501    0  0.00000000000E+00  0.00000000000E+00 -0.26299226049E+04  0.26299226049E+04  0.50400001928E-02 0. -1.
    10030    2    1    2    0    0  0.00000000000E+00  0.00000000000E+00 -0.14621070790E+04  0.37977381308E+04  0.35050046790E+04 0.  0.
        5    1    3    3  502    0  0.13139393299E+04  0.57796713917E+03  0.35827878228E+03  0.14794824610E+04  0.46999998093E+01 0. -1.
       -5    1    3    3    0  502 -0.13139393299E+04 -0.57796713917E+03 -0.18203858613E+04  0.23182556698E+04  0.46999998093E+01 0.  1.
</event>
<event>
 5   0  0.1908726E-06  0.3113686E+04  0.7818609E-02  0.8211992E-01
       -2   -1    0    0    0  501  0.00000000000E+00  0.00000000000E+00  0.16180789827E+04  0.16180789827E+04  0.25500000920E-02 0. -1.
        2   -1    0    0  501    0  0.00000000000E+00  0.00000000000E+00 -0.14979241196E+04  0.14979241196E+04  0.25500000920E-02 0.  1.
    10030    2    1    2    0    0  0.00000000000E+00  0.00000000000E+00  0.12015486303E+03  0.31160031023E+04  0.31136856204E+04 0.  0.
        5    1    3    3  502    0 -0.54045630580E+03 -0.12912219942E+04  0.74204643888E+03  0.15842986664E+04  0.46999998093E+01 0. -1.
       -5    1    3    3    0  502  0.54045630580E+03  0.12912219942E+04 -0.62189157585E+03  0.15317044359E+04  0.46999998093E+01 0.  1.
</event>
<event>
 5   0  0.1102175E-06  0.3491928E+04  0.7818609E-02  0.8115706E-01
        1   -1    0    0  501    0  0.00000000000E+00  0.00000000000E+00  0.16257739590E+04  0.16257739590E+04  0.50400001928E-02 0.  1.
       -1   -1    0    0    0  501  0.00000000000E+00  0.00000000000E+00 -0.18750393680E+04  0.18750393680E+04  0.50400001928E-02 0. -1.
    10030    2    1    2    0    0  0.00000000000E+00  0.00000000000E+00 -0.24926540896E+03  0.35008133270E+04  0.34919279354E+04 0.  0.
        5    1    3    3  502    0  0.44825672457E+03 -0.13436276622E+04  0.89879721315E+03  0.16775362608E+04  0.46999998093E+01 0.  1.
       -5    1    3    3    0  502 -0.44825672457E+03  0.13436276622E+04 -0.11480626221E+04  0.18232770662E+04  0.46999998093E+01 0. -1.
</event>
<event>
 5   0  0.1908726E-06  0.3114043E+04  0.7818609E-02  0.8211894E-01
       -2   -1    0    0    0  501  0.00000000000E+00  0.00000000000E+00  0.93637817690E+03  0.93637817690E+03  0.25500000920E-02 0. -1.
        2   -1    0    0  501    0  0.00000000000E+00  0.00000000000E+00 -0.25890358716E+04  0.25890358716E+04  0.25500000920E-02 0.  1.
    10030    2    1    2    0    0  0.00000000000E+00  0.00000000000E+00 -0.16526576947E+04  0.35254140485E+04  0.31140434739E+04 0.  0.
        5    1    3    3  502    0  0.13310789796E+04  0.68222500273E+03 -0.33664753903E+03  0.15331522624E+04  0.46999998093E+01 0. -1.
       -5    1    3    3    0  502 -0.13310789796E+04 -0.68222500273E+03 -0.13160101556E+04  0.19922617860E+04  0.46999998093E+01 0.  1.
</event>
<event>
 5   0  0.1782660E-06  0.3311277E+04  0.7818609E-02  0.8160032E-01
        2   -1    0    0  501    0  0.00000000000E+00  0.00000000000E+00  0.18205518473E+04  0.18205518473E+04  0.25500000920E-02 0. -1.
       -2   -1    0    0    0  501  0.00000000000E+00  0.00000000000E+00 -0.15056639621E+04  0.15056639621E+04  0.25500000920E-02 0.  1.
    10030    2    1    2    0    0  0.00000000000E+00  0.00000000000E+00  0.31488788521E+03  0.33262158093E+04  0.33112772807E+04 0.  0.
        4    1    3    3  502    0 -0.14909791730E+04  0.32540525427E+03 -0.48750418688E+03  0.16020516280E+04  0.12699999809E+01 0.  1.
       -4    1    3    3    0  502  0.14909791730E+04 -0.32540525427E+03  0.80239207209E+03  0.17241641813E+04  0.12699999809E+01 0. -1.
</event>
<event>
 5   0  0.1125196E-06  0.3494000E+04  0.7818609E-02  0.8115213E-01
        1   -1    0    0  501    0  0.00000000000E+00  0.00000000000E+00  0.31119457362E+04  0.31119457362E+04  0.50400001928E-02 0. -1.
       -1   -1    0    0    0  501  0.00000000000E+00  0.00000000000E+00 -0.98073962096E+03  0.98073962098E+03  0.50400001928E-02 0.  1.
    10030    2    1    2    0    0  0.00000000000E+00  0.00000000000E+00  0.21312061152E+04  0.40926853572E+04  0.34939997034E+04 0.  0.
        4    1    3    3  502    0 -0.35554472648E+03  0.13763010838E+04  0.22551921741E+04  0.26658038339E+04  0.12699999809E+01 0. -1.
       -4    1    3    3    0  502  0.35554472648E+03 -0.13763010838E+04 -0.12398605886E+03  0.14268815233E+04  0.12699999809E+01 0.  1.
</event>
<event>
 5   0  0.3378848E-06  0.3581963E+04  0.7818609E-02  0.8094636E-01
        2   -1    0    0  501    0  0.00000000000E+00  0.00000000000E+00  0.17966865257E+04  0.17966865257E+04  0.25500000920E-02 0. -1.
       -2   -1    0    0    0  501  0.00000000000E+00  0.00000000000E+00 -0.17852947244E+04  0.17852947244E+04  0.25500000920E-02 0.  1.
    10030    2    1    2    0    0  0.00000000000E+00  0.00000000000E+00  0.11391801267E+02  0.35819812502E+04  0.35819631354E+04 0.  0.
        1    1    3    3  502    0 -0.51260558252E+03 -0.16105588333E+04 -0.58671804815E+03  0.17891065666E+04  0.50400001928E-02 0.  1.
       -1    1    3    3    0  502  0.51260558252E+03  0.16105588333E+04  0.59810984942E+03  0.17928746835E+04  0.50400001928E-02 0. -1.
</event>
<event>
 5   0  0.3041329E-06  0.3030896E+04  0.7818609E-02  0.8234963E-01
        2   -1    0    0  501    0  0.00000000000E+00  0.00000000000E+00  0.20099995630E+04  0.20099995630E+04  0.25500000920E-02 0. -1.
       -2   -1    0    0    0  501  0.00000000000E+00  0.00000000000E+00 -0.11425790049E+04  0.11425790049E+04  0.25500000920E-02 0.  1.
    10030    2    1    2    0    0  0.00000000000E+00  0.00000000000E+00  0.86742055815E+03  0.31525785679E+04  0.30308964354E+04 0.  0.
        2    1    3    3  502    0  0.57091893017E+03 -0.87061874059E+03  0.15791281881E+04  0.18914468670E+04  0.25500000920E-02 0. -1.
       -2    1    3    3    0  502 -0.57091893017E+03  0.87061874059E+03 -0.71170762997E+03  0.12611317008E+04  0.25500000920E-02 0.  1.
</event>
<event>
 5   0  0.1782660E-06  0.3559056E+04  0.7818609E-02  0.8099935E-01
        2   -1    0    0  501    0  0.00000000000E+00  0.00000000000E+00  0.18566239942E+04  0.18566239942E+04  0.25500000920E-02 0.  1.
       -2   -1    0    0    0  501  0.00000000000E+00  0.00000000000E+00 -0.17056330516E+04  0.17056330516E+04  0.25500000920E-02 0. -1.
    10030    2    1    2    0    0  0.00000000000E+00  0.00000000000E+00  0.15099094266E+03  0.35622570458E+04  0.35590556326E+04 0.  0.
        4    1    3    3  502    0  0.82917465079E+03 -0.10956067065E+04 -0.10563767234E+04  0.17331526336E+04  0.12699999809E+01 0. -1.
       -4    1    3    3    0  502 -0.82917465079E+03  0.10956067065E+04  0.12073676660E+04  0.18291044122E+04  0.12699999809E+01 0.  1.
</event>
<event>
 5   0  0.1908726E-06  0.3459884E+04  0.7818609E-02  0.8123363E-01
        2   -1    0    0  501    0  0.00000000000E+00  0.00000000000E+00  0.28739599295E+04  0.28739599295E+04  0.25500000920E-02 0. -1.
       -2   -1    0    0    0  501  0.00000000000E+00  0.00000000000E+00 -0.10413158979E+04  0.10413158979E+04  0.25500000920E-02 0.  1.
    10030    2    1    2    0    0  0.00000000000E+00  0.00000000000E+00  0.18326440316E+04  0.39152758275E+04  0.34598844863E+04 0.  0.
        5    1    3    3  502    0 -0.16146050502E+04 -0.58878755457E+03  0.11399647405E+04  0.20623195563E+04  0.46999998093E+01 0.  1.
       -5    1    3    3    0  502  0.16146050502E+04  0.58878755457E+03  0.69267929111E+03  0.18529562712E+04  0.46999998093E+01 0. -1.
</event>
<event>
 5   0  0.1089337E-06  0.2603005E+04  0.7818609E-02  0.8367181E-01
       -1   -1    0    0    0  501  0.00000000000E+00  0.00000000000E+00  0.10425829656E+04  0.10425829656E+04  0.50400001928E-02 0.  1.
        1   -1    0    0  501    0  0.00000000000E+00  0.00000000000E+00 -0.16247229981E+04  0.16247229981E+04  0.50400001928E-02 0. -1.
    10030    2    1    2    0    0  0.00000000000E+00  0.00000000000E+00 -0.58214003248E+03  0.26673059637E+04  0.26030048188E+04 0.  0.
        2    1    3    3  502    0 -0.83395897715E+02 -0.12930585456E+04 -0.16576583394E+03  0.13063053203E+04  0.25500000920E-02 0.  1.
       -2    1    3    3    0  502  0.83395897715E+02  0.12930585456E+04 -0.41637419853E+03  0.13610006434E+04  0.25500000920E-02 0. -1.
</event>
<event>
 5   0  0.1782660E-06  0.3482722E+04  0.7818609E-02  0.8117897E-01
       -2   -1    0    0    0  501  0.00000000000E+00  0.00000000000E+00  0.14224709690E+04  0.14224709690E+04  0.25500000920E-02 0.  1.
        2   -1    0    0  501    0  0.00000000000E+00  0.00000000000E+00 -0.21317404183E+04  0.21317404183E+04  0.25500000920E-02 0. -1.
    10030    2    1    2    0    0  0.00000000000E+00  0.00000000000E+00 -0.70926944933E+03  0.35542113873E+04  0.34827224170E+04 0.  0.
        4    1    3    3  502    0  0.17382638945E+04  0.64688945867E+02 -0.27178191105E+03  0.17605717954E+04  0.12699999809E+01 0.  1.
       -4    1    3    3    0  502 -0.17382638945E+04 -0.64688945867E+02 -0.43748753828E+03  0.17936395919E+04  0.12699999809E+01 0. -1.
</event>
<event>
 5   0  0.2565004E-06  0.3518612E+04  0.7818609E-02  0.8109393E-01
        2   -1    0    0  501    0  0.00000000000E+00  0.00000000000E+00  0.16486496125E+04  0.16486496125E+04  0.25500000920E-02 0. -1.
       -2   -1    0    0    0  501  0.00000000000E+00  0.00000000000E+00 -0.18773895637E+04  0.18773895637E+04  0.25500000920E-02 0.  1.
    10030    2    1    2    0    0  0.00000000000E+00  0.00000000000E+00 -0.22873995119E+03  0.35260391762E+04  0.35186119858E+04 0.  0.
        3    1    3    3  502    0 -0.13191851087E+03 -0.84016208555E+03  0.14289726927E+04  0.16629004150E+04  0.10100000352E+00 0. -1.
       -3    1    3    3    0  502  0.13191851087E+03  0.84016208555E+03 -0.16577126439E+04  0.18631387612E+04  0.10100000352E+00 0.  1.
</event>
<event>
 5   0  0.1908726E-06  0.3408913E+04  0.7818609E-02  0.8135722E-01
        2   -1    0    0  501    0  0.00000000000E+00  0.00000000000E+00  0.22731485972E+04  0.22731485972E+04  0.25500000920E-02 0.  1.
       -2   -1    0    0    0  501  0.00000000000E+00  0.00000000000E+00 -0.12780387776E+04  0.12780387776E+04  0.25500000920E-02 0. -1.
    10030    2    1    2    0    0  0.00000000000E+00  0.00000000000E+00  0.99510981962E+03  0.35511873748E+04  0.34089130552E+04 0.  0.
        5    1    3    3  502    0  0.85166597933E+02 -0.66654497027E+03 -0.11342221407E+04  0.13183389174E+04  0.46999998093E+01 0. -1.
       -5    1    3    3    0  502 -0.85166597933E+02  0.66654497027E+03  0.21293319603E+04  0.22328484574E+04  0.46999998093E+01 0.  1.
</event>
<event>
 5   0  0.1130707E-06  0.2547663E+04  0.7818609E-02  0.8386200E-01
       -1   -1    0    0    0  501  0.00000000000E+00  0.00000000000E+00  0.18746636211E+04  0.18746636211E+04  0.50400001928E-02 0.  1.
        1   -1    0    0  501    0  0.00000000000E+00  0.00000000000E+00 -0.86556652793E+03  0.86556652795E+03  0.50400001928E-02 0. -1.
    10030    2    1    2    0    0  0.00000000000E+00  0.00000000000E+00  0.10090970931E+04  0.27402301490E+04  0.25476625220E+04 0.  0.
        3    1    3    3  502    0  0.38394809210E+03 -0.13111055760E+03 -0.79421429486E+03  0.89184217892E+03  0.10100000352E+00 0. -1.
       -3    1    3    3    0  502 -0.38394809210E+03  0.13111055760E+03  0.18033113880E+04  0.18483879701E+04  0.10100000352E+00 0.  1.
</event>
<event>
 5   0  0.1125196E-06  0.3531458E+04  0.7818609E-02  0.8106375E-01
       -1   -1    0    0    0  501  0.00000000000E+00  0.00000000000E+00  0.15965626629E+04  0.15965626629E+04  0.50400001928E-02 0.  1.
        1   -1    0    0  501    0  0.00000000000E+00  0.00000000000E+00 -0.19528198764E+04  0.19528198764E+04  0.50400001928E-02 0. -1.
    10030    2    1    2    0    0  0.00000000000E+00  0.00000000000E+00 -0.35625721349E+03  0.35493825393E+04  0.35314582269E+04 0.  0.
        4    1    3    3  502    0 -0.98602863251E+03  0.14356024239E+04  0.11419276810E+03  0.17453505048E+04  0.12699999809E+01 0.  1.
       -4    1    3    3    0  502  0.98602863251E+03 -0.14356024239E+04 -0.47044998159E+03  0.18040320345E+04  0.12699999809E+01 0. -1.
</event>
<event>
 5   0  0.3041329E-06  0.2621745E+04  0.7818609E-02  0.8360852E-01
       -2   -1    0    0    0  501  0.00000000000E+00  0.00000000000E+00  0.70647055030E+03  0.70647055030E+03  0.25500000920E-02 0. -1.
        2   -1    0    0  501    0  0.00000000000E+00  0.00000000000E+00 -0.24323535487E+04  0.24323535487E+04  0.25500000920E-02 0.  1.
    10030    2    1    2    0    0  0.00000000000E+00  0.00000000000E+00 -0.17258829984E+04  0.31388240990E+04  0.26217445719E+04 0.  0.
        2    1    3    3  502    0 -0.71835524068E+03 -0.58157732901E+03  0.24997749888E+03  0.95747333717E+03  0.25500000920E-02 0. -1.
       -2    1    3    3    0  502  0.71835524068E+03  0.58157732901E+03 -0.19758604973E+04  0.21813507619E+04  0.25500000920E-02 0.  1.
</event>
<event>
 5   0  0.1782660E-06  0.3661376E+04  0.7818609E-02  0.8076576E-01
        2   -1    0    0  501    0  0.00000000000E+00  0.00000000000E+00  0.14677614783E+04  0.14677614783E+04  0.25500000920E-02 0. -1.
       -2   -1    0    0    0  501  0.00000000000E+00  0.00000000000E+00 -0.22833538883E+04  0.22833538883E+04  0.25500000920E-02 0.  1.
    10030    2    1    2    0    0  0.00000000000E+00  0.00000000000E+00 -0.81559241004E+03  0.37511153666E+04  0.36613761776E+04 0.  0.
        4    1    3    3  502    0  0.12928346796E+04  0.10588114814E+04  0.35813288656E+03  0.17090242945E+04  0.12699999809E+01 0. -1.
       -4    1    3    3    0  502 -0.12928346796E+04 -0.10588114814E+04 -0.11737252966E+04  0.20420910721E+04  0.12699999809E+01 0.  1.
</event>
<event>
 5   0  0.1089337E-06  0.2862023E+04  0.7818609E-02  0.8284267E-01
        1   -1    0    0  501    0  0.00000000000E+00  0.00000000000E+00  0.21695883967E+04  0.21695883967E+04  0.50400001928E-02 0. -1.
       -1   -1    0    0    0  501  0.00000000000E+00  0.00000000000E+00 -0.94386296684E+03  0.94386296685E+03  0.50400001928E-02 0.  1.
    10030    2    1    2    0    0  0.00000000000E+00  0.00000000000E+00  0.12257254298E+04  0.31134513635E+04  0.28620231592E+04 0.  0.
        2    1    3    3  502    0  0.13748854167E+04 -0.24073856066E+03  0.95606024167E+03  0.16918380978E+04  0.25500000920E-02 0. -1.
       -2    1    3    3    0  502 -0.13748854167E+04  0.24073856066E+03  0.26966518817E+03  0.14216132657E+04  0.25500000920E-02 0.  1.
</event>
<event>
 5   0  0.1089337E-06  0.2357630E+04  0.7818609E-02  0.8455539E-01
        1   -1    0    0  501    0  0.00000000000E+00  0.00000000000E+00  0.13254144048E+04  0.13254144048E+04  0.50400001928E-02 0.  1.
       -1   -1    0    0    0  501  0.00000000000E+00  0.00000000000E+00 -0.10484303994E+04  0.10484303994E+04  0.50400001928E-02 0. -1.
    10030    2    1    2    0    0  0.00000000000E+00  0.00000000000E+00  0.27698400542E+03  0.23738448042E+04  0.23576299572E+04 0.  0.
        2    1    3    3  502    0 -0.66528246862E+02  0.98454007689E+03 -0.51081492748E+03  0.11111602318E+04  0.25500000920E-02 0. -1.
       -2    1    3    3    0  502  0.66528246862E+02 -0.98454007689E+03  0.78779893290E+03  0.12626845724E+04  0.25500000920E-02 0.  1.
</event>
<event>
 5   0  0.3378848E-06  0.3156773E+04  0.7818609E-02  0.8200328E-01
       -2   -1    0    0    0  501  0.00000000000E+00  0.00000000000E+00  0.83742769028E+03  0.83742769028E+03  0.25500000920E-02 0.  1.
        2   -1    0    0  501    0  0.00000000000E+00  0.00000000000E+00 -0.29749477448E+04  0.29749477448E+04  0.25500000920E-02 0. -1.
    10030    2    1    2    0    0  0.00000000000E+00  0.00000000000E+00 -0.21375200545E+04  0.38123754351E+04  0.31567727942E+04 0.  0.
        1    1    3    3  502    0 -0.89786440101E+03  0.10522777984E+04 -0.19868000477E+04  0.24209137690E+04  0.50400001928E-02 0. -1.
       -1    1    3    3    0  502  0.89786440101E+03 -0.10522777984E+04 -0.15072000681E+03  0.13914616660E+04  0.50400001928E-02 0.  1.
</event>
<event>
 5   0  0.1089337E-06  0.2030815E+04  0.7818609E-02  0.8592348E-01
       -1   -1    0    0    0  501  0.00000000000E+00  0.00000000000E+00  0.57069820350E+03  0.57069820352E+03  0.50400001928E-02 0. -1.
        1   -1    0    0  501    0  0.00000000000E+00  0.00000000000E+00 -0.18066502410E+04  0.18066502410E+04  0.50400001928E-02 0.  1.
    10030    2    1    2    0    0  0.00000000000E+00  0.00000000000E+00 -0.12359520375E+04  0.23773484445E+04  0.20308146611E+04 0.  0.
        2    1    3    3  502    0 -0.17951507072E+02  0.79753547690E+02  0.56683967516E+03  0.57270420141E+03  0.25500000920E-02 0. -1.
       -2    1    3    3    0  502  0.17951507072E+02 -0.79753547690E+02 -0.18027917127E+04  0.18046442431E+04  0.25500000920E-02 0.  1.
</event>
<event>
 5   0  0.1125196E-06  0.1752500E+04  0.7818609E-02  0.8731975E-01
        1   -1    0    0  501    0  0.00000000000E+00  0.00000000000E+00  0.17431616539E+04  0.17431616539E+04  0.50400001928E-02 0.  1.
       -1   -1    0    0    0  501  0.00000000000E+00  0.00000000000E+00 -0.44047226229E+03  0.44047226232E+03  0.50400001928E-02 0. -1.
    10030    2    1    2    0    0  0.00000000000E+00  0.00000000000E+00  0.13026893916E+04  0.21836339162E+04  0.17525003364E+04 0.  0.
        4    1    3    3  502    0  0.87237955894E+03  0.18320671615E+02  0.75126668245E+03  0.11514273676E+04  0.12699999809E+01 0. -1.
       -4    1    3    3    0  502 -0.87237955894E+03 -0.18320671615E+02  0.55142270913E+03  0.10322065486E+04  0.12699999809E+01 0.  1.
</event>
<event>
 5   0  0.1130707E-06  0.3405485E+04  0.7818609E-02  0.8136561E-01
       -1   -1    0    0    0  501  0.00000000000E+00  0.00000000000E+00  0.11963544675E+04  0.11963544675E+04  0.50400001928E-02 0. -1.
        1   -1    0    0  501    0  0.00000000000E+00  0.00000000000E+00 -0.24234730785E+04  0.24234730785E+04  0.50400001928E-02 0.  1.
    10030    2    1    2    0    0  0.00000000000E+00  0.00000000000E+00 -0.12271186110E+04  0.36198275460E+04  0.34054854834E+04 0.  0.
        3    1    3    3  502    0  0.56043586818E+03  0.16994757033E+03  0.10859363117E+04  0.12337861331E+04  0.10100000352E+00 0. -1.
       -3    1    3    3    0  502 -0.56043586818E+03 -0.16994757033E+03 -0.23130549226E+04  0.23860414130E+04  0.10100000352E+00 0.  1.
</event>
<event>
 5   0  0.1089337E-06  0.2106032E+04  0.7818609E-02  0.8558591E-01
        1   -1    0    0  501    0  0.00000000000E+00  0.00000000000E+00  0.82717790887E+03  0.82717790889E+03  0.50400001928E-02 0. -1.
       -1   -1    0    0    0  501  0.00000000000E+00  0.00000000000E+00 -0.13405129801E+04  0.13405129802E+04  0.50400001928E-02 0.  1.
    10030    2    1    2    0    0  0.00000000000E+00  0.00000000000E+00 -0.51333507127E+03  0.21676908890E+04  0.21060320261E+04 0.  0.
        2    1    3    3  502    0 -0.83250569047E+03  0.61807939542E+03 -0.44577145795E+03  0.11286275100E+04  0.25500000920E-02 0. -1.
       -2    1    3    3    0  502  0.83250569047E+03 -0.61807939542E+03 -0.67563613318E+02  0.10390633790E+04  0.25500000920E-02 0.  1.
</event>
<event>
 5   0  0.1125196E-06  0.3035567E+04  0.7818609E-02  0.8233647E-01
       -1   -1    0    0    0  501  0.00000000000E+00  0.00000000000E+00  0.23537021519E+04  0.23537021519E+04  0.50400001928E-02 0.  1.
        1   -1    0    0  501    0  0.00000000000E+00  0.00000000000E+00 -0.97874200022E+03  0.97874200023E+03  0.50400001928E-02 0. -1.
    10030    2    1    2    0    0  0.00000000000E+00  0.00000000000E+00  0.13749601516E+04  0.33324441521E+04  0.30355672630E+04 0.  0.
        4    1    3    3  502    0  0.11953384188E+04  0.43355779126E+03  0.15973030382E+04  0.20416133088E+04  0.12699999809E+01 0.  1.
       -4    1    3    3    0  502 -0.11953384188E+04 -0.43355779126E+03 -0.22234288656E+03  0.12908308433E+04  0.12699999809E+01 0. -1.
</event>
<event>
 5   0  0.1102175E-06  0.3513905E+04  0.7818609E-02  0.8110503E-01
       -1   -1    0    0    0  501  0.00000000000E+00  0.00000000000E+00  0.12966713641E+04  0.12966713641E+04  0.50400001928E-02 0. -1.
        1   -1    0    0  501    0  0.00000000000E+00  0.00000000000E+00 -0.23806201924E+04  0.23806201924E+04  0.50400001928E-02 0.  1.
    10030    2    1    2    0    0  0.00000000000E+00  0.00000000000E+00 -0.10839488283E+04  0.36772915565E+04  0.35139049688E+04 0.  0.
        5    1    3    3  502    0  0.10835592078E+04 -0.19308069543E+02 -0.19891655594E+04  0.22652317920E+04  0.46999998093E+01 0.  1.
       -5    1    3    3    0  502 -0.10835592078E+04  0.19308069543E+02  0.90521673116E+03  0.14120597646E+04  0.46999998093E+01 0. -1.
</event>
<event>
 5   0  0.2565004E-06  0.3364699E+04  0.7818609E-02  0.8146625E-01
       -2   -1    0    0    0  501  0.00000000000E+00  0.00000000000E+00  0.16007410471E+04  0.16007410471E+04  0.25500000920E-02 0.  1.
        2   -1    0    0  501    0  0.00000000000E+00  0.00000000000E+00 -0.17681187715E+04  0.17681187715E+04  0.25500000920E-02 0. -1.
    10030    2    1    2    0    0  0.00000000000E+00  0.00000000000E+00 -0.16737772441E+03  0.33688598185E+04  0.33646992695E+04 0.  0.
        3    1    3    3  502    0  0.52801269481E+03  0.89558087092E+03 -0.14079875136E+04  0.17502260856E+04  0.10100000352E+00 0. -1.
       -3    1    3    3    0  502 -0.52801269481E+03 -0.89558087092E+03  0.12406097891E+04  0.16186337329E+04  0.10100000352E+00 0.  1.
</event>
<event>
 5   0  0.1102175E-06  0.3328869E+04  0.7818609E-02  0.8155588E-01
       -1   -1    0    0    0  501  0.00000000000E+00  0.00000000000E+00  0.12869854152E+04  0.12869854152E+04  0.50400001928E-02 0.  1.
        1   -1    0    0  501    0  0.00000000000E+00  0.00000000000E+00 -0.21525823576E+04  0.21525823576E+04  0.50400001928E-02 0. -1.
    10030    2    1    2    0    0  0.00000000000E+00  0.00000000000E+00 -0.86559694243E+03  0.34395677729E+04  0.33288689367E+04 0.  0.
        5    1    3    3  502    0  0.15585647961E+04 -0.11548945211E+03 -0.10244282819E+04  0.18686726390E+04  0.46999998093E+01 0. -1.
       -5    1    3    3    0  502 -0.15585647961E+04  0.11548945211E+03  0.15883133949E+03  0.15708951338E+04  0.46999998093E+01 0.  1.
</event>
<event>
 5   0  0.1908726E-06  0.3610787E+04  0.7818609E-02  0.8088025E-01
        2   -1    0    0  501    0  0.00000000000E+00  0.00000000000E+00  0.26539642291E+04  0.26539642291E+04  0.25500000920E-02 0.  1.
       -2   -1    0    0    0  501  0.00000000000E+00  0.00000000000E+00 -0.12281421360E+04  0.12281421360E+04  0.25500000920E-02 0. -1.
    10030    2    1    2    0    0  0.00000000000E+00  0.00000000000E+00  0.14258220932E+04  0.38821063651E+04  0.36107867825E+04 0.  0.
        5    1    3    3  502    0  0.71736521284E+03  0.31281991133E+03 -0.10362862135E+04  0.12986070814E+04  0.46999998093E+01 0. -1.
       -5    1    3    3    0  502 -0.71736521284E+03 -0.31281991133E+03  0.24621083066E+04  0.25834992837E+04  0.46999998093E+01 0.  1.
</event>
<event>
 5   0  0.1089337E-06  0.3573126E+04  0.7818609E-02  0.8096675E-01
        1   -1    0    0  501    0  0.00000000000E+00  0.00000000000E+00  0.19536464380E+04  0.19536464380E+04  0.50400001928E-02 0. -1.
       -1   -1    0    0    0  501  0.00000000000E+00  0.00000000000E+00 -0.16337691603E+04  0.16337691603E+04  0.50400001928E-02 0.  1.
    10030    2    1    2    0    0  0.00000000000E+00  0.00000000000E+00  0.31987727768E+03  0.35874155983E+04  0.35731259707E+04 0.  0.
        2    1    3    3  502    0  0.43195137244E+03  0.12807954312E+04 -0.10129749613E+04  0.16891232036E+04  0.25500000920E-02 0.  1.
       -2    1    3    3    0  502 -0.43195137244E+03 -0.12807954312E+04  0.13328522390E+04  0.18982923947E+04  0.25500000920E-02 0. -1.
</event>
<event>
 5   0  0.1125196E-06  0.3284529E+04  0.7818609E-02  0.8166843E-01
        1   -1    0    0  501    0  0.00000000000E+00  0.00000000000E+00  0.17224107080E+04  0.17224107080E+04  0.50400001928E-02 0.  1.
       -1   -1    0    0    0  501  0.00000000000E+00  0.00000000000E+00 -0.15658480546E+04  0.15658480546E+04  0.50400001928E-02 0. -1.
    10030    2    1    2    0    0  0.00000000000E+00  0.00000000000E+00  0.15656265340E+03  0.32882587625E+04  0.32845294678E+04 0.  0.
        4    1    3    3  502    0 -0.48650118254E+02 -0.95574052290E+03  0.14144221156E+04  0.17077465606E+04  0.12699999809E+01 0.  1.
       -4    1    3    3    0  502  0.48650118254E+02  0.95574052290E+03 -0.12578594622E+04  0.15805122020E+04  0.12699999809E+01 0. -1.
</event>
<event>
 5   0  0.2565004E-06  0.3047745E+04  0.7818609E-02  0.8230227E-01
        2   -1    0    0  501    0  0.00000000000E+00  0.00000000000E+00  0.21418073559E+04  0.21418073559E+04  0.25500000920E-02 0. -1.
       -2   -1    0    0    0  501  0.00000000000E+00  0.00000000000E+00 -0.10842185591E+04  0.10842185591E+04  0.25500000920E-02 0.  1.
    10030    2    1    2    0    0  0.00000000000E+00  0.00000000000E+00  0.10575887968E+04  0.32260259150E+04  0.30477449272E+04 0.  0.
        3    1    3    3  502    0  0.24331606008E+03 -0.49354330754E+03  0.20329763205E+04  0.21061292532E+04  0.10100000352E+00 0. -1.
       -3    1    3    3    0  502 -0.24331606008E+03  0.49354330754E+03 -0.97538752370E+03  0.11198966618E+04  0.10100000352E+00 0.  1.
</event>
<event>
 5   0  0.1102175E-06  0.3511563E+04  0.7818609E-02  0.8111055E-01
       -1   -1    0    0    0  501  0.00000000000E+00  0.00000000000E+00  0.14784636821E+04  0.14784636822E+04  0.50400001928E-02 0.  1.
        1   -1    0    0  501    0  0.00000000000E+00  0.00000000000E+00 -0.20851158414E+04  0.20851158414E+04  0.50400001928E-02 0. -1.
    10030    2    1    2    0    0  0.00000000000E+00  0.00000000000E+00 -0.60665215929E+03  0.35635795236E+04  0.35115626406E+04 0.  0.
        5    1    3    3  502    0  0.66017429200E+03 -0.16230135167E+04 -0.18876908987E+03  0.17622879534E+04  0.46999998093E+01 0. -1.
       -5    1    3    3    0  502 -0.66017429200E+03  0.16230135167E+04 -0.41788306943E+03  0.18012915702E+04  0.46999998093E+01 0.  1.
</event>
<event>
 5   0  0.1782660E-06  0.3500096E+04  0.7818609E-02  0.8113767E-01
       -2   -1    0    0    0  501  0.00000000000E+00  0.00000000000E+00  0.18835515055E+04  0.18835515055E+04  0.25500000920E-02 0. -1.
        2   -1    0    0  501    0  0.00000000000E+00  0.00000000000E+00 -0.16260068898E+04  0.16260068898E+04  0.25500000920E-02 0.  1.
    10030    2    1    2    0    0  0.00000000000E+00  0.00000000000E+00  0.25754461568E+03  0.35095583952E+04  0.35000958416E+04 0.  0.
        4    1    3    3  502    0  0.11362843180E+04  0.83524652657E+03  0.11678592560E+04  0.18310313121E+04  0.12699999809E+01 0. -1.
       -4    1    3    3    0  502 -0.11362843180E+04 -0.83524652657E+03 -0.91031464029E+03  0.16785270831E+04  0.12699999809E+01 0.  1.
</event>
<event>
 5   0  0.1130707E-06  0.3384672E+04  0.7818609E-02  0.8141679E-01
        1   -1    0    0  501    0  0.00000000000E+00  0.00000000000E+00  0.14791251738E+04  0.14791251738E+04  0.50400001928E-02 0. -1.
       -1   -1    0    0    0  501  0.00000000000E+00  0.00000000000E+00 -0.19362802131E+04  0.19362802131E+04  0.50400001928E-02 0.  1.
    10030    2    1    2    0    0  0.00000000000E+00  0.00000000000E+00 -0.45715503928E+03  0.34154053869E+04  0.33846718049E+04 0.  0.
        3    1    3    3  502    0  0.16649563934E+04  0.26186752328E+03 -0.74394800303E+02  0.16870651997E+04  0.10100000352E+00 0.  1.
       -3    1    3    3    0  502 -0.16649563934E+04 -0.26186752328E+03 -0.38276023897E+03  0.17283401871E+04  0.10100000352E+00 0. -1.
</event>
<event>
 5   0  0.1782660E-06  0.3447545E+04  0.7818609E-02  0.8126335E-01
       -2   -1    0    0    0  501  0.00000000000E+00  0.00000000000E+00  0.22599162949E+04  0.22599162949E+04  0.25500000920E-02 0. -1.
        2   -1    0    0  501    0  0.00000000000E+00  0.00000000000E+00 -0.13148240247E+04  0.13148240247E+04  0.25500000920E-02 0.  1.
    10030    2    1    2    0    0  0.00000000000E+00  0.00000000000E+00  0.94509227016E+03  0.35747403196E+04  0.34475453519E+04 0.  0.
        4    1    3    3  502    0 -0.97759756138E+03  0.13859424397E+04  0.79189812877E+03  0.18718006565E+04  0.12699999809E+01 0. -1.
       -4    1    3    3    0  502  0.97759756138E+03 -0.13859424397E+04  0.15319414139E+03  0.17029396631E+04  0.12699999809E+01 0.  1.
</event>
<event>
 5   0  0.1102175E-06  0.2821358E+04  0.7818609E-02  0.8296668E-01
       -1   -1    0    0    0  501  0.00000000000E+00  0.00000000000E+00  0.12053453522E+04  0.12053453522E+04  0.50400001928E-02 0. -1.
        1   -1    0    0  501    0  0.00000000000E+00  0.00000000000E+00 -0.16509918208E+04  0.16509918208E+04  0.50400001928E-02 0.  1.
    10030    2    1    2    0    0  0.00000000000E+00  0.00000000000E+00 -0.44564646858E+03  0.28563371729E+04  0.28213580543E+04 0.  0.
        5    1    3    3  502    0  0.12991688504E+04  0.54469534786E+03 -0.14801186204E+03  0.14164964967E+04  0.46999998093E+01 0.  1.
       -5    1    3    3    0  502 -0.12991688504E+04 -0.54469534786E+03 -0.29763460654E+03  0.14398406762E+04  0.46999998093E+01 0. -1.
</event>
<event>
 5   0  0.1110956E-06  0.1753748E+04  0.7818609E-02  0.8731290E-01
       -1   -1    0    0    0  501  0.00000000000E+00  0.00000000000E+00  0.81985477049E+03  0.81985477051E+03  0.50400001928E-02 0.  1.
        1   -1    0    0  501    0  0.00000000000E+00  0.00000000000E+00 -0.93785850115E+03  0.93785850116E+03  0.50400001928E-02 0. -1.
    10030    2    1    2    0    0  0.00000000000E+00  0.00000000000E+00 -0.11800373065E+03  0.17577132717E+04  0.17537477199E+04 0.  0.
        1    1    3    3  502    0  0.31044823047E+02  0.71722762587E+03 -0.56365656410E+03  0.91273652859E+03  0.50400001928E-02 0. -1.
       -1    1    3    3    0  502 -0.31044823047E+02 -0.71722762587E+03  0.44565283345E+03  0.84497674307E+03  0.50400001928E-02 0.  1.
</event>
<event>
 5   0  0.3041329E-06  0.3359743E+04  0.7818609E-02  0.8147858E-01
        2   -1    0    0  501    0  0.00000000000E+00  0.00000000000E+00  0.24072186301E+04  0.24072186301E+04  0.25500000920E-02 0.  1.
       -2   -1    0    0    0  501  0.00000000000E+00  0.00000000000E+00 -0.11722942697E+04  0.11722942697E+04  0.25500000920E-02 0. -1.
    10030    2    1    2    0    0  0.00000000000E+00  0.00000000000E+00  0.12349243605E+04  0.35795128998E+04  0.33597432080E+04 0.  0.
        2    1    3    3  502    0  0.16799127149E+03  0.11918118540E+03  0.23937141629E+04  0.24025596176E+04  0.25500000920E-02 0.  1.
       -2    1    3    3    0  502 -0.16799127149E+03 -0.11918118540E+03 -0.11587898025E+04  0.11769532822E+04  0.25500000920E-02 0. -1.
</event>
<event>
 5   0  0.1782660E-06  0.3526880E+04  0.7818609E-02  0.8107449E-01
        2   -1    0    0  501    0  0.00000000000E+00  0.00000000000E+00  0.24542217607E+04  0.24542217607E+04  0.25500000920E-02 0. -1.
       -2   -1    0    0    0  501  0.00000000000E+00  0.00000000000E+00 -0.12670906555E+04  0.12670906555E+04  0.25500000920E-02 0.  1.
    10030    2    1    2    0    0  0.00000000000E+00  0.00000000000E+00  0.11871311052E+04  0.37213124162E+04  0.35268804683E+04 0.  0.
        4    1    3    3  502    0  0.47877511187E+02 -0.10412921323E+04 -0.90721839334E+03  0.13818930447E+04  0.12699999809E+01 0.  1.
       -4    1    3    3    0  502 -0.47877511187E+02  0.10412921323E+04  0.20943494985E+04  0.23394193715E+04  0.12699999809E+01 0. -1.
</event>
<event>
 5   0  0.1130707E-06  0.2055687E+04  0.7818609E-02  0.8581019E-01
        1   -1    0    0  501    0  0.00000000000E+00  0.00000000000E+00  0.13521974889E+04  0.13521974889E+04  0.50400001928E-02 0. -1.
       -1   -1    0    0    0  501  0.00000000000E+00  0.00000000000E+00 -0.78129291981E+03  0.78129291982E+03  0.50400001928E-02 0.  1.
    10030    2    1    2    0    0  0.00000000000E+00  0.00000000000E+00  0.57090456913E+03  0.21334904088E+04  0.20556870621E+04 0.  0.
        3    1    3    3  502    0  0.25155256889E+03 -0.21855910775E+03 -0.72367293397E+03  0.79671155637E+03  0.10100000352E+00 0.  1.
       -3    1    3    3    0  502 -0.25155256889E+03  0.21855910775E+03  0.12945775031E+04  0.13367788524E+04  0.10100000352E+00 0. -1.
</event>
<event>
 5   0  0.1908726E-06  0.2248142E+04  0.7818609E-02  0.8498653E-01
        2   -1    0    0  501    0  0.00000000000E+00  0.00000000000E+00  0.23432526216E+04  0.23432526216E+04  0.25500000920E-02 0.  1.
       -2   -1    0    0    0  501  0.00000000000E+00  0.00000000000E+00 -0.53922280249E+03  0.53922280249E+03  0.25500000920E-02 0. -1.
    10030    2    1    2    0    0  0.00000000000E+00  0.00000000000E+00  0.18040298191E+04  0.28824754241E+04  0.22481416731E+04 0.  0.
        5    1    3    3  502    0 -0.40245206765E+03  0.87001942083E+03  0.14934085827E+03  0.97016815106E+03  0.46999998093E+01 0. -1.
       -5    1    3    3    0  502  0.40245206765E+03 -0.87001942083E+03  0.16546889609E+04  0.19123072731E+04  0.46999998093E+01 0.  1.
</event>
<event>
 5   0  0.1782660E-06  0.3483557E+04  0.7818609E-02  0.8117698E-01
        2   -1    0    0  501    0  0.00000000000E+00  0.00000000000E+00  0.19463710209E+04  0.19463710209E+04  0.25500000920E-02 0.  1.
       -2   -1    0    0    0  501  0.00000000000E+00  0.00000000000E+00 -0.15586912655E+04  0.15586912655E+04  0.25500000920E-02 0. -1.
    10030    2    1    2    0    0  0.00000000000E+00  0.00000000000E+00  0.38767975535E+03  0.35050622864E+04  0.34835565215E+04 0.  0.
        4    1    3    3  502    0 -0.72878841678E+03 -0.15765477168E+04  0.32562416843E+03  0.17671072327E+04  0.12699999809E+01 0.  1.
       -4    1    3    3    0  502  0.72878841678E+03  0.15765477168E+04  0.62055586920E+02  0.17379550537E+04  0.12699999809E+01 0. -1.
</event>
<event>
 5   0  0.1908726E-06  0.3470333E+04  0.7818609E-02  0.8120857E-01
       -2   -1    0    0    0  501  0.00000000000E+00  0.00000000000E+00  0.13768608689E+04  0.13768608689E+04  0.25500000920E-02 0.  1.
        2   -1    0    0  501    0  0.00000000000E+00  0.00000000000E+00 -0.21867151520E+04  0.21867151520E+04  0.25500000920E-02 0. -1.
    10030    2    1    2    0    0  0.00000000000E+00  0.00000000000E+00 -0.80985428316E+03  0.35635760209E+04  0.34703328510E+04 0.  0.
        5    1    3    3  502    0  0.11284549179E+04  0.13026794885E+04 -0.61131517979E+03  0.18286915242E+04  0.46999998093E+01 0.  1.
       -5    1    3    3    0  502 -0.11284549179E+04 -0.13026794885E+04 -0.19853910336E+03  0.17348844967E+04  0.46999998093E+01 0. -1.
</event>
<event>
 5   0  0.1782660E-06  0.3673642E+04  0.7818609E-02  0.8073828E-01
       -2   -1    0    0    0  501  0.00000000000E+00  0.00000000000E+00  0.14021036092E+04  0.14021036092E+04  0.25500000920E-02 0.  1.
        2   -1    0    0  501    0  0.00000000000E+00  0.00000000000E+00 -0.24063212504E+04  0.24063212504E+04  0.25500000920E-02 0. -1.
    10030    2    1    2    0    0  0.00000000000E+00  0.00000000000E+00 -0.10042176412E+04  0.38084248595E+04  0.36736421763E+04 0.  0.
        4    1    3    3  502    0 -0.84250657748E+03 -0.13030144882E+04  0.51693390960E+03  0.16355079851E+04  0.12699999809E+01 0.  1.
       -4    1    3    3    0  502  0.84250657748E+03  0.13030144882E+04 -0.15211515508E+04  0.21729168744E+04  0.12699999809E+01 0. -1.
</event>
<event>
 5   0  0.3378848E-06  0.3390026E+04  0.7818609E-02  0.8140359E-01
       -2   -1    0    0    0  501  0.00000000000E+00  0.00000000000E+00  0.18107366784E+04  0.18107366784E+04  0.25500000920E-02 0.  1.
        2   -1    0    0  501    0  0.00000000000E+00  0.00000000000E+00 -0.15866855670E+04  0.15866855670E+04  0.25500000920E-02 0. -1.
    10030    2    1    2    0    0  0.00000000000E+00  0.00000000000E+00  0.22405111137E+03  0.33974222454E+04  0.33900264030E+04 0.  0.
        1    1    3    3  502    0  0.28047286817E+03  0.16650186042E+04  0.26107045753E+03  0.17085402441E+04  0.50400001928E-02 0.  1.
       -1    1    3    3    0  502 -0.28047286817E+03 -0.16650186042E+04 -0.37019346166E+02  0.16888820012E+04  0.50400001928E-02 0. -1.
</event>
<event>
 5   0  0.1908726E-06  0.2078943E+04  0.7818609E-02  0.8570576E-01
       -2   -1    0    0    0  501  0.00000000000E+00  0.00000000000E+00  0.97482527412E+03  0.97482527413E+03  0.25500000920E-02 0.  1.
        2   -1    0    0  501    0  0.00000000000E+00  0.00000000000E+00 -0.11084048522E+04  0.11084048522E+04  0.25500000920E-02 0. -1.
    10030    2    1    2    0    0  0.00000000000E+00  0.00000000000E+00 -0.13357957805E+03  0.20832301263E+04  0.20789430621E+04 0.  0.
        5    1    3    3  502    0  0.65480207187E+03  0.29882717700E+03 -0.81827996566E+03  0.10898016458E+04  0.46999998093E+01 0. -1.
       -5    1    3    3    0  502 -0.65480207187E+03 -0.29882717700E+03  0.68470038761E+03  0.99342848048E+03  0.46999998093E+01 0.  1.
</event>
<event>
 5   0  0.1802333E-06  0.1752715E+04  0.7818609E-02  0.8731857E-01
        1   -1    0    0  501    0  0.00000000000E+00  0.00000000000E+00  0.11681430598E+04  0.11681430598E+04  0.50400001928E-02 0.  1.
       -1   -1    0    0    0  501  0.00000000000E+00  0.00000000000E+00 -0.65745590801E+03  0.65745590803E+03  0.50400001928E-02 0. -1.
    10030    2    1    2    0    0  0.00000000000E+00  0.00000000000E+00  0.51068715178E+03  0.18255989678E+04  0.17527151007E+04 0.  0.
        2    1    3    3  502    0  0.38650295549E+03 -0.39558169105E+03 -0.45272873743E+03  0.71472562470E+03  0.25500000920E-02 0. -1.
       -2    1    3    3    0  502 -0.38650295549E+03  0.39558169105E+03  0.96341588921E+03  0.11108733431E+04  0.25500000920E-02 0.  1.
</event>
<event>
 5   0  0.1110956E-06  0.3530962E+04  0.7818609E-02  0.8106491E-01
        1   -1    0    0  501    0  0.00000000000E+00  0.00000000000E+00  0.23177387960E+04  0.23177387960E+04  0.50400001928E-02 0. -1.
       -1   -1    0    0    0  501  0.00000000000E+00  0.00000000000E+00 -0.13448123594E+04  0.13448123594E+04  0.50400001928E-02 0.  1.
    10030    2    1    2    0    0  0.00000000000E+00  0.00000000000E+00  0.97292643656E+03  0.36625511554E+04  0.35309623497E+04 0.  0.
        1    1    3    3  502    0  0.12999252982E+03  0.15419707787E+03  0.23057507956E+04  0.23145542828E+04  0.50400001928E-02 0. -1.
       -1    1    3    3    0  502 -0.12999252982E+03 -0.15419707787E+03 -0.13328243590E+04  0.13479968726E+04  0.50400001928E-02 0.  1.
</event>
<event>
 5   0  0.1125196E-06  0.2169679E+04  0.7818609E-02  0.8531155E-01
       -1   -1    0    0    0  501  0.00000000000E+00  0.00000000000E+00  0.66273669934E+03  0.66273669936E+03  0.50400001928E-02 0. -1.
        1   -1    0    0  501    0  0.00000000000E+00  0.00000000000E+00 -0.17757838981E+04  0.17757838981E+04  0.50400001928E-02 0.  1.
    10030    2    1    2    0    0  0.00000000000E+00  0.00000000000E+00 -0.11130471987E+04  0.24385205974E+04  0.21696793859E+04 0.  0.
        4    1    3    3  502    0 -0.46429406726E+03 -0.98044968317E+03 -0.55090581647E+03  0.12166960975E+04  0.12699999809E+01 0.  1.
       -4    1    3    3    0  502  0.46429406726E+03  0.98044968317E+03 -0.56214138224E+03  0.12218244999E+04  0.12699999809E+01 0. -1.
</event>
<event>
 5   0  0.3378848E-06  0.3258035E+04  0.7818609E-02  0.8173656E-01
        2   -1    0    0  501    0  0.00000000000E+00  0.00000000000E+00  0.11249158367E+04  0.11249158367E+04  0.25500000920E-02 0.  1.
       -2   -1    0    0    0  501  0.00000000000E+00  0.00000000000E+00 -0.23590186222E+04  0.23590186222E+04  0.25500000920E-02 0. -1.
    10030    2    1    2    0    0  0.00000000000E+00  0.00000000000E+00 -0.12341027856E+04  0.34839344589E+04  0.32580346266E+04 0.  0.
        1    1    3    3  502    0  0.65026574308E+03 -0.19841745113E+03 -0.22000599872E+04  0.23027112213E+04  0.50400001928E-02 0. -1.
       -1    1    3    3    0  502 -0.65026574308E+03  0.19841745113E+03  0.96595720163E+03  0.11812232376E+04  0.50400001928E-02 0.  1.
</event>
<event>
 5   0  0.1102175E-06  0.2127584E+04  0.7818609E-02  0.8549189E-01
        1   -1    0    0  501    0  0.00000000000E+00  0.00000000000E+00  0.24329817520E+04  0.24329817520E+04  0.50400001928E-02 0.  1.
       -1   -1    0    0    0  501  0.00000000000E+00  0.00000000000E+00 -0.46513018921E+03  0.46513018924E+03  0.50400001928E-02 0. -1.
    10030    2    1    2    0    0  0.00000000000E+00  0.00000000000E+00  0.19678515628E+04  0.28981119412E+04  0.21275838528E+04 0.  0.
        5    1    3    3  502    0 -0.72276826148E+03  0.34479685504E+03  0.30070260965E+02  0.80137702839E+03  0.46999998093E+01 0. -1.
       -5    1    3    3    0  502  0.72276826148E+03 -0.34479685504E+03  0.19377813018E+04  0.20967349128E+04  0.46999998093E+01 0.  1.
</event>
<event>
 5   0  0.2565004E-06  0.3590813E+04  0.7818609E-02  0.8092599E-01
        2   -1    0    0  501    0  0.00000000000E+00  0.00000000000E+00  0.25714261495E+04  0.25714261495E+04  0.25500000920E-02 0.  1.
       -2   -1    0    0    0  501  0.00000000000E+00  0.00000000000E+00 -0.12535788134E+04  0.12535788134E+04  0.25500000920E-02 0. -1.
    10030    2    1    2    0    0  0.00000000000E+00  0.00000000000E+00  0.13178473361E+04  0.38250049629E+04  0.35908134685E+04 0.  0.
        3    1    3    3  502    0 -0.66213879494E+03 -0.15131033262E+04 -0.90960585647E+02  0.16541412569E+04  0.10100000352E+00 0. -1.
       -3    1    3    3    0  502  0.66213879494E+03  0.15131033262E+04  0.14088079218E+04  0.21708637060E+04  0.10100000352E+00 0.  1.
</event>
<event>
 5   0  0.3041329E-06  0.3514533E+04  0.7818609E-02  0.8110354E-01
        2   -1    0    0  501    0  0.00000000000E+00  0.00000000000E+00  0.10543731336E+04  0.10543731336E+04  0.25500000920E-02 0.  1.
       -2   -1    0    0    0  501  0.00000000000E+00  0.00000000000E+00 -0.29287407005E+04  0.29287407005E+04  0.25500000920E-02 0. -1.
    10030    2    1    2    0    0  0.00000000000E+00  0.00000000000E+00 -0.18743675669E+04  0.39831138341E+04  0.35145329761E+04 0.  0.
        2    1    3    3  502    0 -0.68368179367E+03 -0.73722586391E+02 -0.27699273848E+04  0.28540065752E+04  0.25500000920E-02 0. -1.
       -2    1    3    3    0  502  0.68368179367E+03  0.73722586391E+02  0.89555981784E+03  0.11291072589E+04  0.25500000920E-02 0.  1.
</event>
<event>
 5   0  0.1125196E-06  0.2543724E+04  0.7818609E-02  0.8387572E-01
       -1   -1    0    0    0  501  0.00000000000E+00  0.00000000000E+00  0.74024798831E+03  0.74024798833E+03  0.50400001928E-02 0.  1.
        1   -1    0    0  501    0  0.00000000000E+00  0.00000000000E+00 -0.21852576450E+04  0.21852576450E+04  0.50400001928E-02 0. -1.
    10030    2    1    2    0    0  0.00000000000E+00  0.00000000000E+00 -0.14450096567E+04  0.29255056333E+04  0.25437237080E+04 0.  0.
        4    1    3    3  502    0 -0.45242013848E+02  0.52621447546E+03  0.60816339435E+03  0.80548919368E+03  0.12699999809E+01 0.  1.
       -4    1    3    3    0  502  0.45242013848E+02 -0.52621447546E+03 -0.20531730510E+04  0.21200164397E+04  0.12699999809E+01 0. -1.
</event>
<event>
 5   0  0.1102175E-06  0.3570705E+04  0.7818609E-02  0.8097235E-01
       -1   -1    0    0    0  501  0.00000000000E+00  0.00000000000E+00  0.10613731657E+04  0.10613731657E+04  0.50400001928E-02 0. -1.
        1   -1    0    0  501    0  0.00000000000E+00  0.00000000000E+00 -0.30031699765E+04  0.30031699765E+04  0.50400001928E-02 0.  1.
    10030    2    1    2    0    0  0.00000000000E+00  0.00000000000E+00 -0.19417968108E+04  0.40645431422E+04  0.35707052666E+04 0.  0.
        5    1    3    3  502    0 -0.11638217964E+04 -0.12565932855E+04 -0.39726382014E+03  0.17582231063E+04  0.46999998093E+01 0. -1.
       -5    1    3    3    0  502  0.11638217964E+04  0.12565932855E+04 -0.15445329906E+04  0.23063200359E+04  0.46999998093E+01 0.  1.
</event>
<event>
 5   0  0.3041329E-06  0.3461021E+04  0.7818609E-02  0.8123090E-01
       -2   -1    0    0    0  501  0.00000000000E+00  0.00000000000E+00  0.11899142481E+04  0.11899142481E+04  0.25500000920E-02 0. -1.
        2   -1    0    0  501    0  0.00000000000E+00  0.00000000000E+00 -0.25167081248E+04  0.25167081248E+04  0.25500000920E-02 0.  1.
    10030    2    1    2    0    0  0.00000000000E+00  0.00000000000E+00 -0.13267938766E+04  0.37066223729E+04  0.34610211534E+04 0.  0.
        2    1    3    3  502    0  0.17004084566E+03 -0.17114374702E+04 -0.45813300477E+03  0.17798364964E+04  0.25500000920E-02 0.  1.
       -2    1    3    3    0  502 -0.17004084566E+03  0.17114374702E+04 -0.86866087187E+03  0.19267858765E+04  0.25500000920E-02 0. -1.
</event>
<event>
 5   0  0.1125196E-06  0.2093899E+04  0.7818609E-02  0.8563936E-01
       -1   -1    0    0    0  501  0.00000000000E+00  0.00000000000E+00  0.70399367343E+03  0.70399367345E+03  0.50400001928E-02 0. -1.
        1   -1    0    0  501    0  0.00000000000E+00  0.00000000000E+00 -0.15569790685E+04  0.15569790685E+04  0.50400001928E-02 0.  1.
    10030    2    1    2    0    0  0.00000000000E+00  0.00000000000E+00 -0.85298539505E+03  0.22609727419E+04  0.20938991513E+04 0.  0.
        4    1    3    3  502    0 -0.78455419580E+03  0.10817664716E+02  0.32196619910E+03  0.84811918636E+03  0.12699999809E+01 0. -1.
       -4    1    3    3    0  502  0.78455419580E+03 -0.10817664716E+02 -0.11749515941E+04  0.14128535556E+04  0.12699999809E+01 0.  1.
</event>
<event>
 5   0  0.1130707E-06  0.3531991E+04  0.7818609E-02  0.8106250E-01
       -1   -1    0    0    0  501  0.00000000000E+00  0.00000000000E+00  0.31705513640E+04  0.31705513640E+04  0.50400001928E-02 0. -1.
        1   -1    0    0  501    0  0.00000000000E+00  0.00000000000E+00 -0.98365855580E+03  0.98365855581E+03  0.50400001928E-02 0.  1.
    10030    2    1    2    0    0  0.00000000000E+00  0.00000000000E+00  0.21868928082E+04  0.41542099198E+04  0.35319909263E+04 0.  0.
        3    1    3    3  502    0 -0.15487193637E+04  0.72164088086E+03  0.16187108102E+04  0.23536188998E+04  0.10100000352E+00 0. -1.
       -3    1    3    3    0  502  0.15487193637E+04 -0.72164088086E+03  0.56818199800E+03  0.18005910200E+04  0.10100000352E+00 0.  1.
</event>
<event>
 5   0  0.1782660E-06  0.3475068E+04  0.7818609E-02  0.8119724E-01
        2   -1    0    0  501    0  0.00000000000E+00  0.00000000000E+00  0.23844476675E+04  0.23844476675E+04  0.25500000920E-02 0. -1.
       -2   -1    0    0    0  501  0.00000000000E+00  0.00000000000E+00 -0.12661318215E+04  0.12661318215E+04  0.25500000920E-02 0.  1.
    10030    2    1    2    0    0  0.00000000000E+00  0.00000000000E+00  0.11183158461E+04  0.36505794890E+04  0.34750683841E+04 0.  0.
        4    1    3    3  502    0 -0.10438739749E+04 -0.50127539511E+03  0.19199881622E+04  0.22421654829E+04  0.12699999809E+01 0. -1.
       -4    1    3    3    0  502  0.10438739749E+04  0.50127539511E+03 -0.80167231611E+03  0.14084140061E+04  0.12699999809E+01 0.  1.
</event>
<event>
 5   0  0.1125196E-06  0.2166449E+04  0.7818609E-02  0.8532524E-01
       -1   -1    0    0    0  501  0.00000000000E+00  0.00000000000E+00  0.67634296114E+03  0.67634296116E+03  0.50400001928E-02 0.  1.
        1   -1    0    0  501    0  0.00000000000E+00  0.00000000000E+00 -0.17348826026E+04  0.17348826026E+04  0.50400001928E-02 0. -1.
    10030    2    1    2    0    0  0.00000000000E+00  0.00000000000E+00 -0.10585396415E+04  0.24112255638E+04  0.21664492948E+04 0.  0.
        4    1    3    3  502    0  0.55751615561E+03 -0.66124115675E+03  0.19657210931E+03  0.88696467698E+03  0.12699999809E+01 0.  1.
       -4    1    3    3    0  502 -0.55751615561E+03  0.66124115675E+03 -0.12551117508E+04  0.15242608868E+04  0.12699999809E+01 0. -1.
</event>
<event>
 5   0  0.1102175E-06  0.3069513E+04  0.7818609E-02  0.8224155E-01
        1   -1    0    0  501    0  0.00000000000E+00  0.00000000000E+00  0.23231522014E+04  0.23231522014E+04  0.50400001928E-02 0.  1.
       -1   -1    0    0    0  501  0.00000000000E+00  0.00000000000E+00 -0.10139143936E+04  0.10139143936E+04  0.50400001928E-02 0. -1.
    10030    2    1    2    0    0  0.00000000000E+00  0.00000000000E+00  0.13092378078E+04  0.33370665950E+04  0.30695129617E+04 0.  0.
        5    1    3    3  502    0 -0.94686477012E+03 -0.88363793306E+03 -0.24061793132E+03  0.13173032941E+04  0.46999998093E+01 0. -1.
       -5    1    3    3    0  502  0.94686477012E+03  0.88363793306E+03  0.15498557391E+04  0.20197633009E+04  0.46999998093E+01 0.  1.
</event>
<event>
 5   0  0.1130707E-06  0.3466162E+04  0.7818609E-02  0.8121856E-01
       -1   -1    0    0    0  501  0.00000000000E+00  0.00000000000E+00  0.15259058571E+04  0.15259058571E+04  0.50400001928E-02 0. -1.
        1   -1    0    0  501    0  0.00000000000E+00  0.00000000000E+00 -0.19683851342E+04  0.19683851342E+04  0.50400001928E-02 0.  1.
    10030    2    1    2    0    0  0.00000000000E+00  0.00000000000E+00 -0.44247927713E+03  0.34942909913E+04  0.34661623766E+04 0.  0.
        3    1    3    3  502    0  0.15200686246E+04 -0.52066693120E+02  0.61631593645E+03  0.16410865022E+04  0.10100000352E+00 0. -1.
       -3    1    3    3    0  502 -0.15200686246E+04  0.52066693120E+02 -0.10587952136E+04  0.18532044891E+04  0.10100000352E+00 0.  1.
</event>
<event>
 5   0  0.1089337E-06  0.2355648E+04  0.7818609E-02  0.8456297E-01
        1   -1    0    0  501    0  0.00000000000E+00  0.00000000000E+00  0.13002941343E+04  0.13002941343E+04  0.50400001928E-02 0.  1.
       -1   -1    0    0    0  501  0.00000000000E+00  0.00000000000E+00 -0.10668890673E+04  0.10668890673E+04  0.50400001928E-02 0. -1.
    10030    2    1    2    0    0  0.00000000000E+00  0.00000000000E+00  0.23340506703E+03  0.23671832016E+04  0.23556481878E+04 0.  0.
        2    1    3    3  502    0  0.89738342846E+03  0.63817520522E+03  0.53672651780E+03  0.12250061082E+04  0.25500000920E-02 0.  1.
       -2    1    3    3    0  502 -0.89738342846E+03 -0.63817520522E+03 -0.30332145077E+03  0.11421770934E+04  0.25500000920E-02 0. -1.
</event>
<event>
 5   0  0.1908726E-06  0.3526305E+04  0.7818609E-02  0.8107584E-01
       -2   -1    0    0    0  501  0.00000000000E+00  0.00000000000E+00  0.10544945993E+04  0.10544945993E+04  0.25500000920E-02 0.  1.
        2   -1    0    0  501    0  0.00000000000E+00  0.00000000000E+00 -0.29480541845E+04  0.29480541845E+04  0.25500000920E-02 0. -1.
    10030    2    1    2    0    0  0.00000000000E+00  0.00000000000E+00 -0.18935595852E+04  0.40025487838E+04  0.35263052710E+04 0.  0.
        5    1    3    3  502    0 -0.67258914720E+02 -0.17326559584E+04 -0.13094020833E+04  0.21728268080E+04  0.46999998093E+01 0. -1.
       -5    1    3    3    0  502  0.67258914720E+02  0.17326559584E+04 -0.58415750189E+03  0.18297219758E+04  0.46999998093E+01 0.  1.
</event>
<event>
 5   0  0.1908726E-06  0.3483382E+04  0.7818609E-02  0.8117739E-01
        2   -1    0    0  501    0  0.00000000000E+00  0.00000000000E+00  0.23075322416E+04  0.23075322416E+04  0.25500000920E-02 0.  1.
       -2   -1    0    0    0  501  0.00000000000E+00  0.00000000000E+00 -0.13146027800E+04  0.13146027800E+04  0.25500000920E-02 0. -1.
    10030    2    1    2    0    0  0.00000000000E+00  0.00000000000E+00  0.99292946159E+03  0.36221350216E+04  0.34833824365E+04 0.  0.
        5    1    3    3  502    0 -0.79862941896E+03  0.44709079811E+03 -0.10443719633E+04  0.13886806754E+04  0.46999998093E+01 0. -1.
       -5    1    3    3    0  502  0.79862941896E+03 -0.44709079811E+03  0.20373014249E+04  0.22334543462E+04  0.46999998093E+01 0.  1.
</event>
<event>
 5   0  0.1130707E-06  0.3154127E+04  0.7818609E-02  0.8201038E-01
        1   -1    0    0  501    0  0.00000000000E+00  0.00000000000E+00  0.17653953145E+04  0.17653953145E+04  0.50400001928E-02 0.  1.
       -1   -1    0    0    0  501  0.00000000000E+00  0.00000000000E+00 -0.14088228611E+04  0.14088228611E+04  0.50400001928E-02 0. -1.
    10030    2    1    2    0    0  0.00000000000E+00  0.00000000000E+00  0.35657245340E+03  0.31742181755E+04  0.31541269967E+04 0.  0.
        3    1    3    3  502    0  0.65017854598E+03  0.61936024685E+03  0.14829972377E+04  0.17336724241E+04  0.10100000352E+00 0.  1.
       -3    1    3    3    0  502 -0.65017854598E+03 -0.61936024685E+03 -0.11264247843E+04  0.14405457514E+04  0.10100000352E+00 0. -1.
</event>
<event>
 5   0  0.1102175E-06  0.3526343E+04  0.7818609E-02  0.8107575E-01
       -1   -1    0    0    0  501  0.00000000000E+00  0.00000000000E+00  0.17267372444E+04  0.17267372444E+04  0.50400001928E-02 0.  1.
        1   -1    0    0  501    0  0.00000000000E+00  0.00000000000E+00 -0.18003741206E+04  0.18003741206E+04  0.50400001928E-02 0. -1.
    10030    2    1    2    0    0  0.00000000000E+00  0.00000000000E+00 -0.73636876194E+02  0.35271113649E+04  0.35263426083E+04 0.  0.
        5    1    3    3  502    0  0.48883795186E+03  0.16419252854E+03 -0.17232551725E+04  0.17987640783E+04  0.46999998093E+01 0. -1.
       -5    1    3    3    0  502 -0.48883795186E+03 -0.16419252854E+03  0.16496182963E+04  0.17283472866E+04  0.46999998093E+01 0.  1.
</event>
<event>
 5   0  0.1130707E-06  0.1753613E+04  0.7818609E-02  0.8731364E-01
        1   -1    0    0  501    0  0.00000000000E+00  0.00000000000E+00  0.66573353233E+03  0.66573353235E+03  0.50400001928E-02 0.  1.
       -1   -1    0    0    0  501  0.00000000000E+00  0.00000000000E+00 -0.11548012105E+04  0.11548012105E+04  0.50400001928E-02 0. -1.
    10030    2    1    2    0    0  0.00000000000E+00  0.00000000000E+00 -0.48906767814E+03  0.18205347428E+04  0.17536132858E+04 0.  0.
        3    1    3    3  502    0 -0.35936652934E+03 -0.27296354933E+03  0.53591028334E+03  0.70060919468E+03  0.10100000352E+00 0.  1.
       -3    1    3    3    0  502  0.35936652934E+03  0.27296354933E+03 -0.10249779615E+04  0.11199255481E+04  0.10100000352E+00 0. -1.
</event>
<event>
 5   0  0.3378848E-06  0.3029414E+04  0.7818609E-02  0.8235381E-01
       -2   -1    0    0    0  501  0.00000000000E+00  0.00000000000E+00  0.12779692951E+04  0.12779692951E+04  0.25500000920E-02 0.  1.
        2   -1    0    0  501    0  0.00000000000E+00  0.00000000000E+00 -0.17952988496E+04  0.17952988496E+04  0.25500000920E-02 0. -1.
    10030    2    1    2    0    0  0.00000000000E+00  0.00000000000E+00 -0.51732955444E+03  0.30732681447E+04  0.30294136762E+04 0.  0.
        1    1    3    3  502    0  0.37290418564E+02 -0.42882043873E+03 -0.17319480708E+04  0.17846348825E+04  0.50400001928E-02 0. -1.
       -1    1    3    3    0  502 -0.37290418564E+02  0.42882043873E+03  0.12146185164E+04  0.12886332621E+04  0.50400001928E-02 0.  1.
</event>
<event>
 5   0  0.1908726E-06  0.2163070E+04  0.7818609E-02  0.8533958E-01
       -2   -1    0    0    0  501  0.00000000000E+00  0.00000000000E+00  0.69195926172E+03  0.69195926172E+03  0.25500000920E-02 0. -1.
        2   -1    0    0  501    0  0.00000000000E+00  0.00000000000E+00 -0.16904439424E+04  0.16904439424E+04  0.25500000920E-02 0.  1.
    10030    2    1    2    0    0  0.00000000000E+00  0.00000000000E+00 -0.99848468064E+03  0.23824032041E+04  0.21630703570E+04 0.  0.
        5    1    3    3  502    0 -0.30589646120E+03  0.50497665888E+03  0.49879895413E+03  0.77291432748E+03  0.46999998093E+01 0. -1.
       -5    1    3    3    0  502  0.30589646120E+03 -0.50497665888E+03 -0.14972836348E+04  0.16094888766E+04  0.46999998093E+01 0.  1.
</event>
<event>
 5   0  0.3378848E-06  0.2089536E+04  0.7818609E-02  0.8565867E-01
       -2   -1    0    0    0  501  0.00000000000E+00  0.00000000000E+00  0.41779239208E+03  0.41779239209E+03  0.25500000920E-02 0. -1.
        2   -1    0    0  501    0  0.00000000000E+00  0.00000000000E+00 -0.26126380581E+04  0.26126380581E+04  0.25500000920E-02 0.  1.
    10030    2    1    2    0    0  0.00000000000E+00  0.00000000000E+00 -0.21948456661E+04  0.30304304502E+04  0.20895361246E+04 0.  0.
        1    1    3    3  502    0  0.12123040927E+03  0.18468352890E+03 -0.25783766459E+04  0.25878235925E+04  0.50400001928E-02 0.  1.
       -1    1    3    3    0  502 -0.12123040927E+03 -0.18468352890E+03  0.38353097982E+03  0.44260685771E+03  0.50400001928E-02 0. -1.
</event>
<event>
 5   0  0.1089337E-06  0.2265633E+04  0.7818609E-02  0.8491596E-01
       -1   -1    0    0    0  501  0.00000000000E+00  0.00000000000E+00  0.10990315687E+04  0.10990315687E+04  0.50400001928E-02 0.  1.
        1   -1    0    0  501    0  0.00000000000E+00  0.00000000000E+00 -0.11676398618E+04  0.11676398619E+04  0.50400001928E-02 0. -1.
    10030    2    1    2    0    0  0.00000000000E+00  0.00000000000E+00 -0.68608293178E+02  0.22666714305E+04  0.22656328644E+04 0.  0.
        2    1    3    3  502    0 -0.85670048368E+03 -0.66426145919E+03  0.29462318195E+03  0.11233796439E+04  0.25500000920E-02 0.  1.
       -2    1    3    3    0  502  0.85670048368E+03  0.66426145919E+03 -0.36323147513E+03  0.11432917867E+04  0.25500000920E-02 0. -1.
</event>
<event>
 5   0  0.1782660E-06  0.3523898E+04  0.7818609E-02  0.8108150E-01
        2   -1    0    0  501    0  0.00000000000E+00  0.00000000000E+00  0.25634423243E+04  0.25634423243E+04  0.25500000920E-02 0. -1.
       -2   -1    0    0    0  501  0.00000000000E+00  0.00000000000E+00 -0.12110527956E+04  0.12110527956E+04  0.25500000920E-02 0.  1.
    10030    2    1    2    0    0  0.00000000000E+00  0.00000000000E+00  0.13523895287E+04  0.37744951200E+04  0.35238978381E+04 0.  0.
        4    1    3    3  502    0 -0.45696006354E+03 -0.18544684623E+03  0.24880111011E+04  0.25364155583E+04  0.12699999809E+01 0. -1.
       -4    1    3    3    0  502  0.45696006354E+03  0.18544684623E+03 -0.11356215724E+04  0.12380795616E+04  0.12699999809E+01 0.  1.
</event>
<event>
 5   0  0.1125196E-06  0.1840516E+04  0.7818609E-02  0.8685045E-01
       -1   -1    0    0    0  501  0.00000000000E+00  0.00000000000E+00  0.62360714037E+03  0.62360714039E+03  0.50400001928E-02 0. -1.
        1   -1    0    0  501    0  0.00000000000E+00  0.00000000000E+00 -0.13580260949E+04  0.13580260949E+04  0.50400001928E-02 0.  1.
    10030    2    1    2    0    0  0.00000000000E+00  0.00000000000E+00 -0.73441895449E+03  0.19816332353E+04  0.18405159815E+04 0.  0.
        4    1    3    3  502    0 -0.58897434734E+03 -0.51063444876E+03 -0.89382771207E+03  0.11859881592E+04  0.12699999809E+01 0.  1.
       -4    1    3    3    0  502  0.58897434734E+03  0.51063444876E+03  0.15940875758E+03  0.79564507601E+03  0.12699999809E+01 0. -1.
</event>
<event>
 5   0  0.1782660E-06  0.3575574E+04  0.7818609E-02  0.8096110E-01
        2   -1    0    0  501    0  0.00000000000E+00  0.00000000000E+00  0.13202991790E+04  0.13202991790E+04  0.25500000920E-02 0. -1.
       -2   -1    0    0    0  501  0.00000000000E+00  0.00000000000E+00 -0.24208012917E+04  0.24208012917E+04  0.25500000920E-02 0.  1.
    10030    2    1    2    0    0  0.00000000000E+00  0.00000000000E+00 -0.11005021127E+04  0.37411004707E+04  0.35755737766E+04 0.  0.
        4    1    3    3  502    0 -0.68005513046E+03 -0.89722070004E+02 -0.22776358629E+04  0.23786869838E+04  0.12699999809E+01 0.  1.
       -4    1    3    3    0  502  0.68005513046E+03  0.89722070004E+02  0.11771337502E+04  0.13624134868E+04  0.12699999809E+01 0. -1.
</event>
<event>
 5   0  0.1130707E-06  0.3609168E+04  0.7818609E-02  0.8088395E-01
       -1   -1    0    0    0  501  0.00000000000E+00  0.00000000000E+00  0.20717607856E+04  0.20717607856E+04  0.50400001928E-02 0.  1.
        1   -1    0    0  501    0  0.00000000000E+00  0.00000000000E+00 -0.15718624748E+04  0.15718624748E+04  0.50400001928E-02 0. -1.
    10030    2    1    2    0    0  0.00000000000E+00  0.00000000000E+00  0.49989831076E+03  0.36436232604E+04  0.36091677909E+04 0.  0.
        3    1    3    3  502    0  0.93950532769E+03  0.33987690413E+03 -0.12671735758E+04  0.16136652231E+04  0.10100000352E+00 0. -1.
       -3    1    3    3    0  502 -0.93950532769E+03 -0.33987690413E+03  0.17670718866E+04  0.20299580373E+04  0.10100000352E+00 0.  1.
</event>
<event>
 5   0  0.3041329E-06  0.2757612E+04  0.7818609E-02  0.8316550E-01
        2   -1    0    0  501    0  0.00000000000E+00  0.00000000000E+00  0.14232969422E+04  0.14232969422E+04  0.25500000920E-02 0. -1.
       -2   -1    0    0    0  501  0.00000000000E+00  0.00000000000E+00 -0.13357062112E+04  0.13357062112E+04  0.25500000920E-02 0.  1.
    10030    2    1    2    0    0  0.00000000000E+00  0.00000000000E+00  0.87590730998E+02  0.27590031533E+04  0.27576124209E+04 0.  0.
        2    1    3    3  502    0  0.11160352870E+04  0.58583856199E+03  0.60297344960E+03  0.13972539366E+04  0.25500000920E-02 0. -1.
       -2    1    3    3    0  502 -0.11160352870E+04 -0.58583856199E+03 -0.51538271860E+03  0.13617492167E+04  0.25500000920E-02 0.  1.
</event>
<event>
 5   0  0.2565004E-06  0.3109745E+04  0.7818609E-02  0.8213069E-01
       -2   -1    0    0    0  501  0.00000000000E+00  0.00000000000E+00  0.11133691451E+04  0.11133691451E+04  0.25500000920E-02 0. -1.
        2   -1    0    0  501    0  0.00000000000E+00  0.00000000000E+00 -0.21714521538E+04  0.21714521538E+04  0.25500000920E-02 0.  1.
    10030    2    1    2    0    0  0.00000000000E+00  0.00000000000E+00 -0.10580830088E+04  0.32848212989E+04  0.31097445735E+04 0.  0.
        3    1    3    3  502    0  0.59518474909E+03  0.18446786710E+03 -0.20337971899E+04  0.21271117270E+04  0.10100000352E+00 0.  1.
       -3    1    3    3    0  502 -0.59518474909E+03 -0.18446786710E+03  0.97571418108E+03  0.11577095719E+04  0.10100000352E+00 0. -1.
</event>
<event>
 5   0  0.3041329E-06  0.3558319E+04  0.7818609E-02  0.8100106E-01
       -2   -1    0    0    0  501  0.00000000000E+00  0.00000000000E+00  0.10364460153E+04  0.10364460153E+04  0.25500000920E-02 0. -1.
        2   -1    0    0  501    0  0.00000000000E+00  0.00000000000E+00 -0.30540989146E+04  0.30540989146E+04  0.25500000920E-02 0.  1.
    10030    2    1    2    0    0  0.00000000000E+00  0.00000000000E+00 -0.20176528992E+04  0.40905449299E+04  0.35583190697E+04 0.  0.
        2    1    3    3  502    0 -0.16080473220E+04  0.70674559154E+03 -0.13341840984E+04  0.22057544581E+04  0.25500000920E-02 0. -1.
       -2    1    3    3    0  502  0.16080473220E+04 -0.70674559154E+03 -0.68346880088E+03  0.18847904718E+04  0.25500000920E-02 0.  1.
</event>
<event>
 5   0  0.3378848E-06  0.2582744E+04  0.7818609E-02  0.8374086E-01
        2   -1    0    0  501    0  0.00000000000E+00  0.00000000000E+00  0.10990987632E+04  0.10990987632E+04  0.25500000920E-02 0.  1.
       -2   -1    0    0    0  501  0.00000000000E+00  0.00000000000E+00 -0.15172814774E+04  0.15172814774E+04  0.25500000920E-02 0. -1.
    10030    2    1    2    0    0  0.00000000000E+00  0.00000000000E+00 -0.41818271417E+03  0.26163802406E+04  0.25827444281E+04 0.  0.
        1    1    3    3  502    0  0.75191714786E+03  0.17931190423E+03 -0.12570246701E+04  0.14756839694E+04  0.50400001928E-02 0. -1.
       -1    1    3    3    0  502 -0.75191714786E+03 -0.17931190423E+03  0.83884195589E+03  0.11406962712E+04  0.50400001928E-02 0.  1.
</event>
<event>
 5   0  0.2565004E-06  0.3461279E+04  0.7818609E-02  0.8123028E-01
        2   -1    0    0  501    0  0.00000000000E+00  0.00000000000E+00  0.14147950268E+04  0.14147950268E+04  0.25500000920E-02 0. -1.
       -2   -1    0    0    0  501  0.00000000000E+00  0.00000000000E+00 -0.21169943916E+04  0.21169943916E+04  0.25500000920E-02 0.  1.
    10030    2    1    2    0    0  0.00000000000E+00  0.00000000000E+00 -0.70219936479E+03  0.35317894183E+04  0.34612790335E+04 0.  0.
        3    1    3    3  502    0  0.10606748527E+04  0.35405017293E+03 -0.16988900889E+04  0.20338658295E+04  0.10100000352E+00 0.  1.
       -3    1    3    3    0  502 -0.10606748527E+04 -0.35405017293E+03  0.99669072412E+03  0.14979235888E+04  0.10100000352E+00 0. -1.
</event>
<event>
 5   0  0.3041329E-06  0.3464124E+04  0.7818609E-02  0.8122345E-01
       -2   -1    0    0    0  501  0.00000000000E+00  0.00000000000E+00  0.13549069803E+04  0.13549069803E+04  0.25500000920E-02 0.  1.
        2   -1    0    0  501    0  0.00000000000E+00  0.00000000000E+00 -0.22142023757E+04  0.22142023757E+04  0.25500000920E-02 0. -1.
    10030    2    1    2    0    0  0.00000000000E+00  0.00000000000E+00 -0.85929539542E+03  0.35691093559E+04  0.34641237013E+04 0.  0.
        2    1    3    3  502    0  0.43581381027E+03  0.82163437683E+03 -0.19351020517E+04  0.21470064454E+04  0.25500000920E-02 0. -1.
       -2    1    3    3    0  502 -0.43581381027E+03 -0.82163437683E+03  0.10758066562E+04  0.14221029105E+04  0.25500000920E-02 0.  1.
</event>
<event>
 5   0  0.1130707E-06  0.2335551E+04  0.7818609E-02  0.8464034E-01
        1   -1    0    0  501    0  0.00000000000E+00  0.00000000000E+00  0.15852173263E+04  0.15852173263E+04  0.50400001928E-02 0.  1.
       -1   -1    0    0    0  501  0.00000000000E+00  0.00000000000E+00 -0.86026044452E+03  0.86026044453E+03  0.50400001928E-02 0. -1.
    10030    2    1    2    0    0  0.00000000000E+00  0.00000000000E+00  0.72495688180E+03  0.24454777709E+04  0.23355511228E+04 0.  0.
        3    1    3    3  502    0  0.32707408927E+03  0.11121259506E+04  0.21477833036E+03  0.11789534899E+04  0.10100000352E+00 0. -1.
       -3    1    3    3    0  502 -0.32707408927E+03 -0.11121259506E+04  0.51017855145E+03  0.12665242810E+04  0.10100000352E+00 0.  1.
</event>
<event>
 5   0  0.2565004E-06  0.3366865E+04  0.7818609E-02  0.8146087E-01
       -2   -1    0    0    0  501  0.00000000000E+00  0.00000000000E+00  0.11204387194E+04  0.11204387194E+04  0.25500000920E-02 0. -1.
        2   -1    0    0  501    0  0.00000000000E+00  0.00000000000E+00 -0.25293178107E+04  0.25293178107E+04  0.25500000920E-02 0.  1.
    10030    2    1    2    0    0  0.00000000000E+00  0.00000000000E+00 -0.14088790914E+04  0.36497565301E+04  0.33668653723E+04 0.  0.
        3    1    3    3  502    0 -0.91023984310E+03  0.13922732755E+04 -0.42388056305E+03  0.17165768808E+04  0.10100000352E+00 0.  1.
       -3    1    3    3    0  502  0.91023984310E+03 -0.13922732755E+04 -0.98499852831E+03  0.19331796493E+04  0.10100000352E+00 0. -1.
</event>
<event>
 5   0  0.2565004E-06  0.3961626E+04  0.7818609E-02  0.8012333E-01
        2   -1    0    0  501    0  0.00000000000E+00  0.00000000000E+00  0.19439010880E+04  0.19439010880E+04  0.25500000920E-02 0.  1.
       -2   -1    0    0    0  501  0.00000000000E+00  0.00000000000E+00 -0.20184254493E+04  0.20184254493E+04  0.25500000920E-02 0. -1.
    10030    2    1    2    0    0  0.00000000000E+00  0.00000000000E+00 -0.74524361288E+02  0.39623265373E+04  0.39616256395E+04 0.  0.
        3    1    3    3  502    0 -0.15978134683E+04  0.72364445421E+03 -0.95772399708E+03  0.19984755291E+04  0.10100000352E+00 0. -1.
       -3    1    3    3    0  502  0.15978134683E+04 -0.72364445421E+03  0.88319963579E+03  0.19638510082E+04  0.10100000352E+00 0.  1.
</event>
<event>
 5   0  0.1102175E-06  0.3529206E+04  0.7818609E-02  0.8106903E-01
        1   -1    0    0  501    0  0.00000000000E+00  0.00000000000E+00  0.15658546201E+04  0.15658546201E+04  0.50400001928E-02 0. -1.
       -1   -1    0    0    0  501  0.00000000000E+00  0.00000000000E+00 -0.19885775988E+04  0.19885775988E+04  0.50400001928E-02 0.  1.
    10030    2    1    2    0    0  0.00000000000E+00  0.00000000000E+00 -0.42272297866E+03  0.35544322189E+04  0.35292058147E+04 0.  0.
        5    1    3    3  502    0  0.15662083353E+03 -0.16852408640E+04 -0.71416385097E+03  0.18370135958E+04  0.46999998093E+01 0.  1.
       -5    1    3    3    0  502 -0.15662083353E+03  0.16852408640E+04  0.29144087231E+03  0.17174186231E+04  0.46999998093E+01 0. -1.
</event>
<event>
 5   0  0.1089337E-06  0.3451738E+04  0.7818609E-02  0.8125324E-01
       -1   -1    0    0    0  501  0.00000000000E+00  0.00000000000E+00  0.13847093095E+04  0.13847093095E+04  0.50400001928E-02 0.  1.
        1   -1    0    0  501    0  0.00000000000E+00  0.00000000000E+00 -0.21510826187E+04  0.21510826187E+04  0.50400001928E-02 0. -1.
    10030    2    1    2    0    0  0.00000000000E+00  0.00000000000E+00 -0.76637330922E+03  0.35357919282E+04  0.34517381869E+04 0.  0.
        2    1    3    3  502    0 -0.15744853910E+03  0.11672835280E+04  0.90899210682E+03  0.14878197228E+04  0.25500000920E-02 0.  1.
       -2    1    3    3    0  502  0.15744853910E+03 -0.11672835280E+04 -0.16753654160E+04  0.20479722055E+04  0.25500000920E-02 0. -1.
</event>
<event>
 5   0  0.1782660E-06  0.3275921E+04  0.7818609E-02  0.8169049E-01
        2   -1    0    0  501    0  0.00000000000E+00  0.00000000000E+00  0.23337581243E+04  0.23337581243E+04  0.25500000920E-02 0.  1.
       -2   -1    0    0    0  501  0.00000000000E+00  0.00000000000E+00 -0.11496112858E+04  0.11496112859E+04  0.25500000920E-02 0. -1.
    10030    2    1    2    0    0  0.00000000000E+00  0.00000000000E+00  0.11841468384E+04  0.34833694101E+04  0.32759210480E+04 0.  0.
        4    1    3    3  502    0  0.10415220997E+04  0.12061922483E+04  0.99451783491E+03  0.18784928429E+04  0.12699999809E+01 0.  1.
       -4    1    3    3    0  502 -0.10415220997E+04 -0.12061922483E+04  0.18962900352E+03  0.16048765672E+04  0.12699999809E+01 0. -1.
</event>
<event>
 5   0  0.3041329E-06  0.3511980E+04  0.7818609E-02  0.8110957E-01
        2   -1    0    0  501    0  0.00000000000E+00  0.00000000000E+00  0.19389588074E+04  0.19389588074E+04  0.25500000920E-02 0. -1.
       -2   -1    0    0    0  501  0.00000000000E+00  0.00000000000E+00 -0.15902868134E+04  0.15902868134E+04  0.25500000920E-02 0.  1.
    10030    2    1    2    0    0  0.00000000000E+00  0.00000000000E+00  0.34867199403E+03  0.35292456208E+04  0.35119798536E+04 0.  0.
        2    1    3    3  502    0  0.16685736844E+04  0.54582418191E+03  0.13622269721E+03  0.17608574051E+04  0.25500000920E-02 0.  1.
       -2    1    3    3    0  502 -0.16685736844E+04 -0.54582418191E+03  0.21244929682E+03  0.17683882157E+04  0.25500000920E-02 0. -1.
</event>
<event>
 5   0  0.1908726E-06  0.3664588E+04  0.7818609E-02  0.8075855E-01
        2   -1    0    0  501    0  0.00000000000E+00  0.00000000000E+00  0.20390110211E+04  0.20390110211E+04  0.25500000920E-02 0. -1.
       -2   -1    0    0    0  501  0.00000000000E+00  0.00000000000E+00 -0.16465342491E+04  0.16465342491E+04  0.25500000920E-02 0.  1.
    10030    2    1    2    0    0  0.00000000000E+00  0.00000000000E+00  0.39247677203E+03  0.36855452703E+04  0.36645880972E+04 0.  0.
        5    1    3    3  502    0 -0.13420564106E+04 -0.11961632632E+04 -0.15984492704E+03  0.18048530278E+04  0.46999998093E+01 0.  1.
       -5    1    3    3    0  502  0.13420564106E+04  0.11961632632E+04  0.55232169907E+03  0.18806922424E+04  0.46999998093E+01 0. -1.
</event>
<event>
 5   0  0.2565004E-06  0.3255473E+04  0.7818609E-02  0.8174319E-01
        2   -1    0    0  501    0  0.00000000000E+00  0.00000000000E+00  0.20179046641E+04  0.20179046641E+04  0.25500000920E-02 0.  1.
       -2   -1    0    0    0  501  0.00000000000E+00  0.00000000000E+00 -0.13130087931E+04  0.13130087931E+04  0.25500000920E-02 0. -1.
    10030    2    1    2    0    0  0.00000000000E+00  0.00000000000E+00  0.70489587104E+03  0.33309134572E+04  0.32554732790E+04 0.  0.
        3    1    3    3  502    0 -0.12378859300E+04 -0.87694513492E+03 -0.25125226338E+03  0.15377002489E+04  0.10100000352E+00 0. -1.
       -3    1    3    3    0  502  0.12378859300E+04  0.87694513492E+03  0.95614813443E+03  0.17932132083E+04  0.10100000352E+00 0.  1.
</event>
<event>
 5   0  0.1110956E-06  0.3550305E+04  0.7818609E-02  0.8101971E-01
        1   -1    0    0  501    0  0.00000000000E+00  0.00000000000E+00  0.19439251085E+04  0.19439251085E+04  0.50400001928E-02 0.  1.
       -1   -1    0    0    0  501  0.00000000000E+00  0.00000000000E+00 -0.16210330248E+04  0.16210330249E+04  0.50400001928E-02 0. -1.
    10030    2    1    2    0    0  0.00000000000E+00  0.00000000000E+00  0.32289208369E+03  0.35649581334E+04  0.35503052256E+04 0.  0.
        1    1    3    3  502    0  0.13374509206E+04 -0.65699291027E+03 -0.80729068741E+03  0.16947368242E+04  0.50400001928E-02 0. -1.
       -1    1    3    3    0  502 -0.13374509206E+04  0.65699291027E+03  0.11301827711E+04  0.18702213092E+04  0.50400001928E-02 0.  1.
</event>
<event>
 5   0  0.1110956E-06  0.4000245E+04  0.7818609E-02  0.8004497E-01
        1   -1    0    0  501    0  0.00000000000E+00  0.00000000000E+00  0.15323898224E+04  0.15323898224E+04  0.50400001928E-02 0.  1.
       -1   -1    0    0    0  501  0.00000000000E+00  0.00000000000E+00 -0.26106214833E+04  0.26106214833E+04  0.50400001928E-02 0. -1.
    10030    2    1    2    0    0  0.00000000000E+00  0.00000000000E+00 -0.10782316609E+04  0.41430113057E+04  0.40002448881E+04 0.  0.
        1    1    3    3  502    0 -0.32737707918E+03  0.31538054560E+03  0.14781798977E+04  0.15464981250E+04  0.50400001928E-02 0.  1.
       -1    1    3    3    0  502  0.32737707918E+03 -0.31538054560E+03 -0.25564115587E+04  0.25965131807E+04  0.50400001928E-02 0. -1.
</event>
<event>
 5   0  0.1908726E-06  0.3314052E+04  0.7818609E-02  0.8159329E-01
       -2   -1    0    0    0  501  0.00000000000E+00  0.00000000000E+00  0.13809884738E+04  0.13809884738E+04  0.25500000920E-02 0.  1.
        2   -1    0    0  501    0  0.00000000000E+00  0.00000000000E+00 -0.19882394638E+04  0.19882394638E+04  0.25500000920E-02 0. -1.
    10030    2    1    2    0    0  0.00000000000E+00  0.00000000000E+00 -0.60725099000E+03  0.33692279377E+04  0.33140523730E+04 0.  0.
        5    1    3    3  502    0 -0.36463312674E+03  0.66277480682E+03 -0.18024453668E+04  0.19547529644E+04  0.46999998093E+01 0. -1.
       -5    1    3    3    0  502  0.36463312674E+03 -0.66277480682E+03  0.11951943768E+04  0.14144749733E+04  0.46999998093E+01 0.  1.
</event>
<event>
 5   0  0.1782660E-06  0.3490913E+04  0.7818609E-02  0.8115947E-01
        2   -1    0    0  501    0  0.00000000000E+00  0.00000000000E+00  0.29295407234E+04  0.29295407234E+04  0.25500000920E-02 0. -1.
       -2   -1    0    0    0  501  0.00000000000E+00  0.00000000000E+00 -0.10399646932E+04  0.10399646932E+04  0.25500000920E-02 0.  1.
    10030    2    1    2    0    0  0.00000000000E+00  0.00000000000E+00  0.18895760302E+04  0.39695054166E+04  0.34909133015E+04 0.  0.
        4    1    3    3  502    0  0.70667791236E+03  0.13285794159E+04  0.19503956956E+04  0.24634451320E+04  0.12699999809E+01 0.  1.
       -4    1    3    3    0  502 -0.70667791236E+03 -0.13285794159E+04 -0.60819665379E+02  0.15060602846E+04  0.12699999809E+01 0. -1.
</event>
<event>
 5   0  0.1042825E-06  0.2534369E+04  0.7818609E-02  0.8390843E-01
       -3   -1    0    0    0  501  0.00000000000E+00  0.00000000000E+00  0.10141137535E+04  0.10141137585E+04  0.10100000352E+00 0.  1.
        3   -1    0    0  501    0  0.00000000000E+00  0.00000000000E+00 -0.15834087218E+04  0.15834087250E+04  0.10100000352E+00 0. -1.
    10030    2    1    2    0    0  0.00000000000E+00  0.00000000000E+00 -0.56929496831E+03  0.25975224835E+04  0.25343690125E+04 0.  0.
        5    1    3    3  502    0  0.72961377433E+03  0.55251344251E+03 -0.11829156622E+04  0.14956332832E+04  0.46999998093E+01 0. -1.
       -5    1    3    3    0  502 -0.72961377433E+03 -0.55251344251E+03  0.61362069388E+03  0.11018892003E+04  0.46999998093E+01 0.  1.
</event>
<event>
 5   0  0.3041329E-06  0.2772595E+04  0.7818609E-02  0.8311827E-01
       -2   -1    0    0    0  501  0.00000000000E+00  0.00000000000E+00  0.12223946306E+04  0.12223946306E+04  0.25500000920E-02 0. -1.
        2   -1    0    0  501    0  0.00000000000E+00  0.00000000000E+00 -0.15721774595E+04  0.15721774595E+04  0.25500000920E-02 0.  1.
    10030    2    1    2    0    0  0.00000000000E+00  0.00000000000E+00 -0.34978282895E+03  0.27945720901E+04  0.27725953796E+04 0.  0.
        2    1    3    3  502    0 -0.14533958084E+03  0.18989899276E+02 -0.15643453168E+04  0.15711971488E+04  0.25500000920E-02 0.  1.
       -2    1    3    3    0  502  0.14533958084E+03 -0.18989899276E+02  0.12145624879E+04  0.12233749413E+04  0.25500000920E-02 0. -1.
</event>
<event>
 5   0  0.1782660E-06  0.3411673E+04  0.7818609E-02  0.8135047E-01
        2   -1    0    0  501    0  0.00000000000E+00  0.00000000000E+00  0.23076570192E+04  0.23076570192E+04  0.25500000920E-02 0. -1.
       -2   -1    0    0    0  501  0.00000000000E+00  0.00000000000E+00 -0.12609661570E+04  0.12609661570E+04  0.25500000920E-02 0.  1.
    10030    2    1    2    0    0  0.00000000000E+00  0.00000000000E+00  0.10466908621E+04  0.35686231762E+04  0.34116725536E+04 0.  0.
        4    1    3    3  502    0 -0.12979139593E+01 -0.90975209952E+03 -0.98602973948E+03  0.13416060626E+04  0.12699999809E+01 0.  1.
       -4    1    3    3    0  502  0.12979139593E+01  0.90975209952E+03  0.20327206016E+04  0.22270171136E+04  0.12699999809E+01 0. -1.
</event>
<event>
 5   0  0.1782660E-06  0.3459674E+04  0.7818609E-02  0.8123414E-01
       -2   -1    0    0    0  501  0.00000000000E+00  0.00000000000E+00  0.14721026072E+04  0.14721026072E+04  0.25500000920E-02 0.  1.
        2   -1    0    0  501    0  0.00000000000E+00  0.00000000000E+00 -0.20326947225E+04  0.20326947225E+04  0.25500000920E-02 0. -1.
    10030    2    1    2    0    0  0.00000000000E+00  0.00000000000E+00 -0.56059211523E+03  0.35047973297E+04  0.34596735110E+04 0.  0.
        4    1    3    3  502    0  0.11556644781E+04 -0.75433958612E+03 -0.13368491825E+04  0.19213942716E+04  0.12699999809E+01 0. -1.
       -4    1    3    3    0  502 -0.11556644781E+04  0.75433958612E+03  0.77625706727E+03  0.15834030581E+04  0.12699999809E+01 0.  1.
</event>
<event>
 5   0  0.3378848E-06  0.3514882E+04  0.7818609E-02  0.8110272E-01
        2   -1    0    0  501    0  0.00000000000E+00  0.00000000000E+00  0.20342909899E+04  0.20342909899E+04  0.25500000920E-02 0. -1.
       -2   -1    0    0    0  501  0.00000000000E+00  0.00000000000E+00 -0.15182684097E+04  0.15182684097E+04  0.25500000920E-02 0.  1.
    10030    2    1    2    0    0  0.00000000000E+00  0.00000000000E+00  0.51602258029E+03  0.35525593996E+04  0.35148824994E+04 0.  0.
        1    1    3    3  502    0  0.10935859191E+04 -0.98040309343E+03 -0.71746598033E+03  0.16345879667E+04  0.50400001928E-02 0.  1.
       -1    1    3    3    0  502 -0.10935859191E+04  0.98040309343E+03  0.12334885606E+04  0.19179714329E+04  0.50400001928E-02 0. -1.
</event>
<event>
 5   0  0.1089337E-06  0.2640709E+04  0.7818609E-02  0.8354503E-01
        1   -1    0    0  501    0  0.00000000000E+00  0.00000000000E+00  0.15053758018E+04  0.15053758018E+04  0.50400001928E-02 0. -1.
       -1   -1    0    0    0  501  0.00000000000E+00  0.00000000000E+00 -0.11580739565E+04  0.11580739565E+04  0.50400001928E-02 0.  1.
    10030    2    1    2    0    0  0.00000000000E+00  0.00000000000E+00  0.34730184532E+03  0.26634497584E+04  0.26407093826E+04 0.  0.
        2    1    3    3  502    0  0.91366411409E+03  0.58369693435E+03  0.93369991886E+03  0.14308318430E+04  0.25500000920E-02 0. -1.
       -2    1    3    3    0  502 -0.91366411409E+03 -0.58369693435E+03 -0.58639807354E+03  0.12326179153E+04  0.25500000920E-02 0.  1.
</event>
<event>
 5   0  0.3041329E-06  0.3502339E+04  0.7818609E-02  0.8113236E-01
        2   -1    0    0  501    0  0.00000000000E+00  0.00000000000E+00  0.25493254947E+04  0.25493254947E+04  0.25500000920E-02 0. -1.
       -2   -1    0    0    0  501  0.00000000000E+00  0.00000000000E+00 -0.12029042013E+04  0.12029042013E+04  0.25500000920E-02 0.  1.
    10030    2    1    2    0    0  0.00000000000E+00  0.00000000000E+00  0.13464212934E+04  0.37522296960E+04  0.35023388460E+04 0.  0.
        2    1    3    3  502    0 -0.20415772466E+03 -0.16989833524E+04  0.10717319146E+04  0.20191171598E+04  0.25500000920E-02 0.  1.
       -2    1    3    3    0  502  0.20415772466E+03  0.16989833524E+04  0.27468937872E+03  0.17331125362E+04  0.25500000920E-02 0. -1.
</event>
<event>
 5   0  0.1042825E-06  0.3605802E+04  0.7818609E-02  0.8089164E-01
       -3   -1    0    0    0  501  0.00000000000E+00  0.00000000000E+00  0.15269288458E+04  0.15269288492E+04  0.10100000352E+00 0. -1.
        3   -1    0    0  501    0  0.00000000000E+00  0.00000000000E+00 -0.21287509063E+04  0.21287509087E+04  0.10100000352E+00 0.  1.
    10030    2    1    2    0    0  0.00000000000E+00  0.00000000000E+00 -0.60182206043E+03  0.36556797579E+04  0.36058015336E+04 0.  0.
        4    1    3    3  502    0  0.15542377352E+04 -0.76022155430E+03 -0.81473305360E+03  0.19124286420E+04  0.12699999809E+01 0.  1.
       -4    1    3    3    0  502 -0.15542377352E+04  0.76022155430E+03  0.21291099317E+03  0.17432511159E+04  0.12699999809E+01 0. -1.
</event>
<event>
 5   0  0.1908726E-06  0.3510886E+04  0.7818609E-02  0.8111215E-01
       -2   -1    0    0    0  501  0.00000000000E+00  0.00000000000E+00  0.13519362146E+04  0.13519362146E+04  0.25500000920E-02 0.  1.
        2   -1    0    0  501    0  0.00000000000E+00  0.00000000000E+00 -0.22793823921E+04  0.22793823921E+04  0.25500000920E-02 0. -1.
    10030    2    1    2    0    0  0.00000000000E+00  0.00000000000E+00 -0.92744617755E+03  0.36313186067E+04  0.35108857018E+04 0.  0.
        5    1    3    3  502    0 -0.14398230816E+04 -0.88845067336E+03 -0.94788548892E+03  0.19393153677E+04  0.46999998093E+01 0. -1.
       -5    1    3    3    0  502  0.14398230816E+04  0.88845067336E+03  0.20439311370E+02  0.16920032390E+04  0.46999998093E+01 0.  1.
</event>
<event>
 5   0  0.3041329E-06  0.3418202E+04  0.7818609E-02  0.8133453E-01
       -2   -1    0    0    0  501  0.00000000000E+00  0.00000000000E+00  0.18399317224E+04  0.18399317224E+04  0.25500000920E-02 0.  1.
        2   -1    0    0  501    0  0.00000000000E+00  0.00000000000E+00 -0.15875732515E+04  0.15875732515E+04  0.25500000920E-02 0. -1.
    10030    2    1    2    0    0  0.00000000000E+00  0.00000000000E+00  0.25235847090E+03  0.34275049738E+04  0.34182020929E+04 0.  0.
        2    1    3    3  502    0  0.11689325398E+04  0.10176078356E+04  0.84862422540E+03  0.17669442735E+04  0.25500000920E-02 0. -1.
       -2    1    3    3    0  502 -0.11689325398E+04 -0.10176078356E+04 -0.59626575450E+03  0.16605607004E+04  0.25500000920E-02 0.  1.
</event>
<event>
 5   0  0.1782660E-06  0.1765766E+04  0.7818609E-02  0.8724719E-01
       -2   -1    0    0    0  501  0.00000000000E+00  0.00000000000E+00  0.93952565574E+03  0.93952565574E+03  0.25500000920E-02 0.  1.
        2   -1    0    0  501    0  0.00000000000E+00  0.00000000000E+00 -0.82965550318E+03  0.82965550319E+03  0.25500000920E-02 0. -1.
    10030    2    1    2    0    0  0.00000000000E+00  0.00000000000E+00  0.10987015255E+03  0.17691811589E+04  0.17657662707E+04 0.  0.
        4    1    3    3  502    0 -0.21267000638E+03 -0.81888608172E+03 -0.19789808766E+03  0.86888906797E+03  0.12699999809E+01 0. -1.
       -4    1    3    3    0  502  0.21267000638E+03  0.81888608172E+03  0.30776824021E+03  0.90029209095E+03  0.12699999809E+01 0.  1.
</event>
<event>
 5   0  0.1089337E-06  0.2128595E+04  0.7818609E-02  0.8548751E-01
        1   -1    0    0  501    0  0.00000000000E+00  0.00000000000E+00  0.20364144450E+04  0.20364144450E+04  0.50400001928E-02 0. -1.
       -1   -1    0    0    0  501  0.00000000000E+00  0.00000000000E+00 -0.55623697084E+03  0.55623697086E+03  0.50400001928E-02 0.  1.
    10030    2    1    2    0    0  0.00000000000E+00  0.00000000000E+00  0.14801774741E+04  0.25926514158E+04  0.21285948438E+04 0.  0.
        2    1    3    3  502    0 -0.30223187372E+03  0.60712079663E+03 -0.25896912218E+03  0.72595094424E+03  0.25500000920E-02 0.  1.
       -2    1    3    3    0  502  0.30223187372E+03 -0.60712079663E+03  0.17391465963E+04  0.18667004716E+04  0.25500000920E-02 0. -1.
</event>
<event>
 5   0  0.1110956E-06  0.3462891E+04  0.7818609E-02  0.8122641E-01
        1   -1    0    0  501    0  0.00000000000E+00  0.00000000000E+00  0.27450058935E+04  0.27450058935E+04  0.50400001928E-02 0.  1.
       -1   -1    0    0    0  501  0.00000000000E+00  0.00000000000E+00 -0.10921299997E+04  0.10921299998E+04  0.50400001928E-02 0. -1.
    10030    2    1    2    0    0  0.00000000000E+00  0.00000000000E+00  0.16528758938E+04  0.38371358933E+04  0.34628908650E+04 0.  0.
        1    1    3    3  502    0 -0.39246493853E+03 -0.15598644968E+04  0.15365539570E+04  0.22244558973E+04  0.50400001928E-02 0.  1.
       -1    1    3    3    0  502  0.39246493853E+03  0.15598644968E+04  0.11632193675E+03  0.16126799959E+04  0.50400001928E-02 0. -1.
</event>
<event>
 5   0  0.2565004E-06  0.2507629E+04  0.7818609E-02  0.8400273E-01
        2   -1    0    0  501    0  0.00000000000E+00  0.00000000000E+00  0.10637089051E+04  0.10637089051E+04  0.25500000920E-02 0.  1.
       -2   -1    0    0    0  501  0.00000000000E+00  0.00000000000E+00 -0.14778962724E+04  0.14778962725E+04  0.25500000920E-02 0. -1.
    10030    2    1    2    0    0  0.00000000000E+00  0.00000000000E+00 -0.41418736740E+03  0.25416051775E+04  0.25076294988E+04 0.  0.
        3    1    3    3  502    0 -0.67650526405E+03 -0.85761858284E+01 -0.12770089524E+04  0.14451590909E+04  0.10100000352E+00 0. -1.
       -3    1    3    3    0  502  0.67650526405E+03  0.85761858284E+01  0.86282158497E+03  0.10964460867E+04  0.10100000352E+00 0.  1.
</event>
<event>
 5   0  0.1130707E-06  0.2859692E+04  0.7818609E-02  0.8284972E-01
        1   -1    0    0  501    0  0.00000000000E+00  0.00000000000E+00  0.20423864255E+04  0.20423864255E+04  0.50400001928E-02 0.  1.
       -1   -1    0    0    0  501  0.00000000000E+00  0.00000000000E+00 -0.10010151986E+04  0.10010151986E+04  0.50400001928E-02 0. -1.
    10030    2    1    2    0    0  0.00000000000E+00  0.00000000000E+00  0.10413712269E+04  0.30434016240E+04  0.28596921885E+04 0.  0.
        3    1    3    3  502    0 -0.53206916110E+03  0.17415499016E+03  0.19208936422E+04  0.20008148209E+04  0.10100000352E+00 0.  1.
       -3    1    3    3    0  502  0.53206916110E+03 -0.17415499016E+03 -0.87952241530E+03  0.10425868031E+04  0.10100000352E+00 0. -1.
</event>
<event>
 5   0  0.1089337E-06  0.3056836E+04  0.7818609E-02  0.8227685E-01
        1   -1    0    0  501    0  0.00000000000E+00  0.00000000000E+00  0.13672324902E+04  0.13672324902E+04  0.50400001928E-02 0.  1.
       -1   -1    0    0    0  501  0.00000000000E+00  0.00000000000E+00 -0.17086064727E+04  0.17086064727E+04  0.50400001928E-02 0. -1.
    10030    2    1    2    0    0  0.00000000000E+00  0.00000000000E+00 -0.34137398255E+03  0.30758389629E+04  0.30568364578E+04 0.  0.
        2    1    3    3  502    0  0.89678116385E+03  0.15957027749E+03  0.10642907060E+04  0.14008546806E+04  0.25500000920E-02 0.  1.
       -2    1    3    3    0  502 -0.89678116385E+03 -0.15957027749E+03 -0.14056646886E+04  0.16749842823E+04  0.25500000920E-02 0. -1.
</event>
<event>
 5   0  0.1102175E-06  0.2014793E+04  0.7818609E-02  0.8599736E-01
       -1   -1    0    0    0  501  0.00000000000E+00  0.00000000000E+00  0.54989926266E+03  0.54989926268E+03  0.50400001928E-02 0. -1.
        1   -1    0    0  501    0  0.00000000000E+00  0.00000000000E+00 -0.18455149601E+04  0.18455149601E+04  0.50400001928E-02 0.  1.
    10030    2    1    2    0    0  0.00000000000E+00  0.00000000000E+00 -0.12956156975E+04  0.23954142228E+04  0.20147926105E+04 0.  0.
        5    1    3    3  502    0 -0.81129806008E+03 -0.58992700187E+03 -0.75810683831E+03  0.12573648946E+04  0.46999998093E+01 0.  1.
       -5    1    3    3    0  502  0.81129806008E+03  0.58992700187E+03 -0.53750885916E+03  0.11380493282E+04  0.46999998093E+01 0. -1.
</event>
<event>
 5   0  0.1782660E-06  0.3518953E+04  0.7818609E-02  0.8109313E-01
       -2   -1    0    0    0  501  0.00000000000E+00  0.00000000000E+00  0.23494678309E+04  0.23494678309E+04  0.25500000920E-02 0.  1.
        2   -1    0    0  501    0  0.00000000000E+00  0.00000000000E+00 -0.13176419846E+04  0.13176419846E+04  0.25500000920E-02 0. -1.
    10030    2    1    2    0    0  0.00000000000E+00  0.00000000000E+00  0.10318258463E+04  0.36671098154E+04  0.35189529439E+04 0.  0.
        4    1    3    3  502    0  0.65925647872E+03 -0.10917222305E+04 -0.74725950496E+03  0.14781322383E+04  0.12699999809E+01 0. -1.
       -4    1    3    3    0  502 -0.65925647872E+03  0.10917222305E+04  0.17790853512E+04  0.21889775771E+04  0.12699999809E+01 0.  1.
</event>
<event>
 5   0  0.1782660E-06  0.3471566E+04  0.7818609E-02  0.8120562E-01
        2   -1    0    0  501    0  0.00000000000E+00  0.00000000000E+00  0.13756966515E+04  0.13756966515E+04  0.25500000920E-02 0. -1.
       -2   -1    0    0    0  501  0.00000000000E+00  0.00000000000E+00 -0.21901214950E+04  0.21901214950E+04  0.25500000920E-02 0.  1.
    10030    2    1    2    0    0  0.00000000000E+00  0.00000000000E+00 -0.81442484353E+03  0.35658181465E+04  0.34715661060E+04 0.  0.
        4    1    3    3  502    0  0.10159305270E+03 -0.70319263786E+03  0.12194957646E+04  0.14113725827E+04  0.12699999809E+01 0. -1.
       -4    1    3    3    0  502 -0.10159305270E+03  0.70319263786E+03 -0.20339206081E+04  0.21544455638E+04  0.12699999809E+01 0.  1.
</event>
<event>
 5   0  0.1908726E-06  0.3473506E+04  0.7818609E-02  0.8120098E-01
       -2   -1    0    0    0  501  0.00000000000E+00  0.00000000000E+00  0.15919393331E+04  0.15919393331E+04  0.25500000920E-02 0.  1.
        2   -1    0    0  501    0  0.00000000000E+00  0.00000000000E+00 -0.18947399439E+04  0.18947399439E+04  0.25500000920E-02 0. -1.
    10030    2    1    2    0    0  0.00000000000E+00  0.00000000000E+00 -0.30280061086E+03  0.34866792770E+04  0.34735060344E+04 0.  0.
        5    1    3    3  502    0  0.10894298910E+04 -0.12701030489E+04  0.31541145891E+03  0.17027993777E+04  0.46999998093E+01 0.  1.
       -5    1    3    3    0  502 -0.10894298910E+04  0.12701030489E+04 -0.61821206977E+03  0.17838798994E+04  0.46999998093E+01 0. -1.
</event>
<event>
 5   0  0.3041329E-06  0.3437337E+04  0.7818609E-02  0.8128803E-01
       -2   -1    0    0    0  501  0.00000000000E+00  0.00000000000E+00  0.13829698135E+04  0.13829698135E+04  0.25500000920E-02 0. -1.
        2   -1    0    0  501    0  0.00000000000E+00  0.00000000000E+00 -0.21358539274E+04  0.21358539274E+04  0.25500000920E-02 0.  1.
    10030    2    1    2    0    0  0.00000000000E+00  0.00000000000E+00 -0.75288411388E+03  0.35188237410E+04  0.34373370552E+04 0.  0.
        2    1    3    3  502    0  0.46764538308E+02  0.10093168640E+03 -0.21321648021E+04  0.21350646058E+04  0.25500000920E-02 0.  1.
       -2    1    3    3    0  502 -0.46764538308E+02 -0.10093168640E+03  0.13792806882E+04  0.13837591352E+04  0.25500000920E-02 0. -1.
</event>
<event>
 5   0  0.1130707E-06  0.3489205E+04  0.7818609E-02  0.8116353E-01
        1   -1    0    0  501    0  0.00000000000E+00  0.00000000000E+00  0.99936999986E+03  0.99936999988E+03  0.50400001928E-02 0.  1.
       -1   -1    0    0    0  501  0.00000000000E+00  0.00000000000E+00 -0.30455565508E+04  0.30455565508E+04  0.50400001928E-02 0. -1.
    10030    2    1    2    0    0  0.00000000000E+00  0.00000000000E+00 -0.20461865509E+04  0.40449265506E+04  0.34892049809E+04 0.  0.
        3    1    3    3  502    0 -0.11106943406E+04 -0.12118270588E+04 -0.17005181404E+04  0.23651487680E+04  0.10100000352E+00 0.  1.
       -3    1    3    3    0  502  0.11106943406E+04  0.12118270588E+04 -0.34566841051E+03  0.16797777826E+04  0.10100000352E+00 0. -1.
</event>
<event>
 5   0  0.1782660E-06  0.3443763E+04  0.7818609E-02  0.8127248E-01
        2   -1    0    0  501    0  0.00000000000E+00  0.00000000000E+00  0.11600178950E+04  0.11600178950E+04  0.25500000920E-02 0. -1.
       -2   -1    0    0    0  501  0.00000000000E+00  0.00000000000E+00 -0.25558878596E+04  0.25558878596E+04  0.25500000920E-02 0.  1.
    10030    2    1    2    0    0  0.00000000000E+00  0.00000000000E+00 -0.13958699646E+04  0.37159057546E+04  0.34437628576E+04 0.  0.
        4    1    3    3  502    0 -0.12688033261E+04  0.38968891950E+03  0.48563022592E+03  0.14133498022E+04  0.12699999809E+01 0. -1.
       -4    1    3    3    0  502  0.12688033261E+04 -0.38968891950E+03 -0.18815001905E+04  0.23025559524E+04  0.12699999809E+01 0.  1.
</event>
<event>
 5   0  0.3378848E-06  0.3475936E+04  0.7818609E-02  0.8119517E-01
       -2   -1    0    0    0  501  0.00000000000E+00  0.00000000000E+00  0.18390139920E+04  0.18390139920E+04  0.25500000920E-02 0. -1.
        2   -1    0    0  501    0  0.00000000000E+00  0.00000000000E+00 -0.16424737093E+04  0.16424737093E+04  0.25500000920E-02 0.  1.
    10030    2    1    2    0    0  0.00000000000E+00  0.00000000000E+00  0.19654028268E+03  0.34814877013E+04  0.34759356340E+04 0.  0.
        1    1    3    3  502    0 -0.33892311503E+02  0.10482825139E+03 -0.16389727021E+04  0.16426713515E+04  0.50400001928E-02 0.  1.
       -1    1    3    3    0  502  0.33892311503E+02 -0.10482825139E+03  0.18355129847E+04  0.18388163498E+04  0.50400001928E-02 0. -1.
</event>
<event>
 5   0  0.3041329E-06  0.3440205E+04  0.7818609E-02  0.8128109E-01
        2   -1    0    0  501    0  0.00000000000E+00  0.00000000000E+00  0.16601362458E+04  0.16601362458E+04  0.25500000920E-02 0. -1.
       -2   -1    0    0    0  501  0.00000000000E+00  0.00000000000E+00 -0.17822349071E+04  0.17822349071E+04  0.25500000920E-02 0.  1.
    10030    2    1    2    0    0  0.00000000000E+00  0.00000000000E+00 -0.12209866126E+03  0.34423711529E+04  0.34402050914E+04 0.  0.
        2    1    3    3  502    0 -0.10215898038E+04  0.13231589100E+04  0.34461626316E+03  0.17067968822E+04  0.25500000920E-02 0. -1.
       -2    1    3    3    0  502  0.10215898038E+04 -0.13231589100E+04 -0.46671492442E+03  0.17355742707E+04  0.25500000920E-02 0.  1.
</event>
<event>
 5   0  0.1110956E-06  0.3440776E+04  0.7818609E-02  0.8127970E-01
       -1   -1    0    0    0  501  0.00000000000E+00  0.00000000000E+00  0.22445409140E+04  0.22445409141E+04  0.50400001928E-02 0. -1.
        1   -1    0    0  501    0  0.00000000000E+00  0.00000000000E+00 -0.13186369633E+04  0.13186369633E+04  0.50400001928E-02 0.  1.
    10030    2    1    2    0    0  0.00000000000E+00  0.00000000000E+00  0.92590395076E+03  0.35631778774E+04  0.34407758514E+04 0.  0.
        1    1    3    3  502    0  0.78411195039E+03  0.14544054830E+04  0.95917212824E+03  0.19105334415E+04  0.50400001928E-02 0. -1.
       -1    1    3    3    0  502 -0.78411195039E+03 -0.14544054830E+04 -0.33268177479E+02  0.16526444358E+04  0.50400001928E-02 0.  1.
</event>
<event>
 5   0  0.1782660E-06  0.3516160E+04  0.7818609E-02  0.8109971E-01
       -2   -1    0    0    0  501  0.00000000000E+00  0.00000000000E+00  0.23611896949E+04  0.23611896949E+04  0.25500000920E-02 0.  1.
        2   -1    0    0  501    0  0.00000000000E+00  0.00000000000E+00 -0.13090200287E+04  0.13090200287E+04  0.25500000920E-02 0. -1.
    10030    2    1    2    0    0  0.00000000000E+00  0.00000000000E+00  0.10521696663E+04  0.36702097236E+04  0.35161596108E+04 0.  0.
        4    1    3    3  502    0 -0.35332010171E+03 -0.54685520088E+03 -0.11785459637E+04  0.13464241183E+04  0.12699999809E+01 0. -1.
       -4    1    3    3    0  502  0.35332010171E+03  0.54685520088E+03  0.22307156299E+04  0.23237856053E+04  0.12699999809E+01 0.  1.
</event>
<event>
 5   0  0.1125196E-06  0.3182229E+04  0.7818609E-02  0.8193526E-01
        1   -1    0    0  501    0  0.00000000000E+00  0.00000000000E+00  0.11992929170E+04  0.11992929170E+04  0.50400001928E-02 0.  1.
       -1   -1    0    0    0  501  0.00000000000E+00  0.00000000000E+00 -0.21109487823E+04  0.21109487823E+04  0.50400001928E-02 0. -1.
    10030    2    1    2    0    0  0.00000000000E+00  0.00000000000E+00 -0.91165586532E+03  0.33102416993E+04  0.31822293586E+04 0.  0.
        4    1    3    3  502    0  0.15223898529E+04 -0.45421684316E+03 -0.54687310598E+03  0.16801951112E+04  0.12699999809E+01 0. -1.
       -4    1    3    3    0  502 -0.15223898529E+04  0.45421684316E+03 -0.36478275935E+03  0.16300465881E+04  0.12699999809E+01 0.  1.
</event>
<event>
 5   0  0.1125196E-06  0.3443468E+04  0.7818609E-02  0.8127319E-01
       -1   -1    0    0    0  501  0.00000000000E+00  0.00000000000E+00  0.13256265398E+04  0.13256265398E+04  0.50400001928E-02 0.  1.
        1   -1    0    0  501    0  0.00000000000E+00  0.00000000000E+00 -0.22362015804E+04  0.22362015804E+04  0.50400001928E-02 0. -1.
    10030    2    1    2    0    0  0.00000000000E+00  0.00000000000E+00 -0.91057504064E+03  0.35618281202E+04  0.34434681141E+04 0.  0.
        4    1    3    3  502    0  0.72015015244E+03 -0.14515024706E+04  0.14686545572E+03  0.16269747199E+04  0.12699999809E+01 0.  1.
       -4    1    3    3    0  502 -0.72015015244E+03  0.14515024706E+04 -0.10574404964E+04  0.19348534003E+04  0.12699999809E+01 0. -1.
</event>
<event>
 5   0  0.2565004E-06  0.3245204E+04  0.7818609E-02  0.8176980E-01
        2   -1    0    0  501    0  0.00000000000E+00  0.00000000000E+00  0.16116855572E+04  0.16116855572E+04  0.25500000920E-02 0. -1.
       -2   -1    0    0    0  501  0.00000000000E+00  0.00000000000E+00 -0.16335922985E+04  0.16335922985E+04  0.25500000920E-02 0.  1.
    10030    2    1    2    0    0  0.00000000000E+00  0.00000000000E+00 -0.21906741251E+02  0.32452778557E+04  0.32452039158E+04 0.  0.
        3    1    3    3  502    0  0.10768382921E+04  0.35726778849E+03  0.11490800092E+04  0.16148083037E+04  0.10100000352E+00 0. -1.
       -3    1    3    3    0  502 -0.10768382921E+04 -0.35726778849E+03 -0.11709867504E+04  0.16304695520E+04  0.10100000352E+00 0.  1.
</event>
<event>
 5   0  0.1130707E-06  0.2132214E+04  0.7818609E-02  0.8547184E-01
       -1   -1    0    0    0  501  0.00000000000E+00  0.00000000000E+00  0.69108927936E+03  0.69108927937E+03  0.50400001928E-02 0.  1.
        1   -1    0    0  501    0  0.00000000000E+00  0.00000000000E+00 -0.16446270849E+04  0.16446270849E+04  0.50400001928E-02 0. -1.
    10030    2    1    2    0    0  0.00000000000E+00  0.00000000000E+00 -0.95353780557E+03  0.23357163643E+04  0.21322140108E+04 0.  0.
        3    1    3    3  502    0  0.20801242860E+03  0.79681865837E+03 -0.12184363930E+04  0.14706380924E+04  0.10100000352E+00 0. -1.
       -3    1    3    3    0  502 -0.20801242860E+03 -0.79681865837E+03  0.26489858741E+03  0.86507827194E+03  0.10100000352E+00 0.  1.
</event>
<event>
 5   0  0.1125196E-06  0.3484295E+04  0.7818609E-02  0.8117522E-01
       -1   -1    0    0    0  501  0.00000000000E+00  0.00000000000E+00  0.16111828188E+04  0.16111828188E+04  0.50400001928E-02 0. -1.
        1   -1    0    0  501    0  0.00000000000E+00  0.00000000000E+00 -0.18837571079E+04  0.18837571079E+04  0.50400001928E-02 0.  1.
    10030    2    1    2    0    0  0.00000000000E+00  0.00000000000E+00 -0.27257428911E+03  0.34949399267E+04  0.34842945266E+04 0.  0.
        4    1    3    3  502    0 -0.90685828425E+03  0.95340939644E+03  0.10089955489E+04  0.16581480801E+04  0.12699999809E+01 0. -1.
       -4    1    3    3    0  502  0.90685828425E+03 -0.95340939644E+03 -0.12815698381E+04  0.18367918466E+04  0.12699999809E+01 0.  1.
</event>
<event>
 5   0  0.1908726E-06  0.3483922E+04  0.7818609E-02  0.8117611E-01
       -2   -1    0    0    0  501  0.00000000000E+00  0.00000000000E+00  0.12945205654E+04  0.12945205654E+04  0.25500000920E-02 0.  1.
        2   -1    0    0  501    0  0.00000000000E+00  0.00000000000E+00 -0.23440559761E+04  0.23440559761E+04  0.25500000920E-02 0. -1.
    10030    2    1    2    0    0  0.00000000000E+00  0.00000000000E+00 -0.10495354107E+04  0.36385765415E+04  0.34839223111E+04 0.  0.
        5    1    3    3  502    0 -0.13041195376E+04  0.44413675567E+03  0.58858494072E+03  0.14981453696E+04  0.46999998093E+01 0.  1.
       -5    1    3    3    0  502  0.13041195376E+04 -0.44413675567E+03 -0.16381203514E+04  0.21404311719E+04  0.46999998093E+01 0. -1.
</event>
<event>
 5   0  0.1130707E-06  0.2502719E+04  0.7818609E-02  0.8402017E-01
       -1   -1    0    0    0  501  0.00000000000E+00  0.00000000000E+00  0.58438730989E+03  0.58438730991E+03  0.50400001928E-02 0. -1.
        1   -1    0    0  501    0  0.00000000000E+00  0.00000000000E+00 -0.26795603123E+04  0.26795603124E+04  0.50400001928E-02 0.  1.
    10030    2    1    2    0    0  0.00000000000E+00  0.00000000000E+00 -0.20951730025E+04  0.32639476223E+04  0.25027193552E+04 0.  0.
        3    1    3    3  502    0 -0.75282824868E+02  0.36430865305E+03  0.51060569175E+03  0.63174874836E+03  0.10100000352E+00 0. -1.
       -3    1    3    3    0  502  0.75282824868E+02 -0.36430865305E+03 -0.26057786942E+04  0.26321988739E+04  0.10100000352E+00 0.  1.
</event>
<event>
 5   0  0.1089337E-06  0.3296447E+04  0.7818609E-02  0.8163800E-01
        1   -1    0    0  501    0  0.00000000000E+00  0.00000000000E+00  0.13943690656E+04  0.13943690656E+04  0.50400001928E-02 0. -1.
       -1   -1    0    0    0  501  0.00000000000E+00  0.00000000000E+00 -0.19482934544E+04  0.19482934544E+04  0.50400001928E-02 0.  1.
    10030    2    1    2    0    0  0.00000000000E+00  0.00000000000E+00 -0.55392438880E+03  0.33426625201E+04  0.32964466467E+04 0.  0.
        2    1    3    3  502    0 -0.20062381753E+03 -0.66472470613E+03  0.12388301151E+04  0.14201439734E+04  0.25500000920E-02 0. -1.
       -2    1    3    3    0  502  0.20062381753E+03  0.66472470613E+03 -0.17927545039E+04  0.19225185467E+04  0.25500000920E-02 0.  1.
</event>
<event>
 5   0  0.3378848E-06  0.3320391E+04  0.7818609E-02  0.8157726E-01
       -2   -1    0    0    0  501  0.00000000000E+00  0.00000000000E+00  0.93777835419E+03  0.93777835419E+03  0.25500000920E-02 0. -1.
        2   -1    0    0  501    0  0.00000000000E+00  0.00000000000E+00 -0.29391266802E+04  0.29391266802E+04  0.25500000920E-02 0.  1.
    10030    2    1    2    0    0  0.00000000000E+00  0.00000000000E+00 -0.20013483260E+04  0.38769050344E+04  0.33203911703E+04 0.  0.
        1    1    3    3  502    0 -0.63724303309E+03 -0.44587026623E+03 -0.27132645721E+04  0.28225314198E+04  0.50400001928E-02 0.  1.
       -1    1    3    3    0  502  0.63724303309E+03  0.44587026623E+03  0.71191624613E+03  0.10543736146E+04  0.50400001928E-02 0. -1.
</event>
<event>
 5   0  0.1089337E-06  0.2563866E+04  0.7818609E-02  0.8380580E-01
       -1   -1    0    0    0  501  0.00000000000E+00  0.00000000000E+00  0.62102944142E+03  0.62102944144E+03  0.50400001928E-02 0. -1.
        1   -1    0    0  501    0  0.00000000000E+00  0.00000000000E+00 -0.26461745604E+04  0.26461745604E+04  0.50400001928E-02 0.  1.
    10030    2    1    2    0    0  0.00000000000E+00  0.00000000000E+00 -0.20251451190E+04  0.32672040019E+04  0.25638660723E+04 0.  0.
        2    1    3    3  502    0 -0.11828626070E+04  0.45696840026E+03 -0.77291691529E+03  0.14850537444E+04  0.25500000920E-02 0. -1.
       -2    1    3    3    0  502  0.11828626070E+04 -0.45696840026E+03 -0.12522282037E+04  0.17821502574E+04  0.25500000920E-02 0.  1.
</event>
<event>
 5   0  0.3378848E-06  0.3598349E+04  0.7818609E-02  0.8090870E-01
        2   -1    0    0  501    0  0.00000000000E+00  0.00000000000E+00  0.19590235795E+04  0.19590235795E+04  0.25500000920E-02 0.  1.
       -2   -1    0    0    0  501  0.00000000000E+00  0.00000000000E+00 -0.16523684388E+04  0.16523684388E+04  0.25500000920E-02 0. -1.
    10030    2    1    2    0    0  0.00000000000E+00  0.00000000000E+00  0.30665514067E+03  0.36113920183E+04  0.35983489178E+04 0.  0.
        1    1    3    3  502    0  0.24646370563E+03 -0.97951630620E+02 -0.16326422928E+04  0.16540434506E+04  0.50400001928E-02 0. -1.
       -1    1    3    3    0  502 -0.24646370563E+03  0.97951630620E+02  0.19392974334E+04  0.19573485677E+04  0.50400001928E-02 0.  1.
</event>
<event>
 5   0  0.1782660E-06  0.3505335E+04  0.7818609E-02  0.8112527E-01
       -2   -1    0    0    0  501  0.00000000000E+00  0.00000000000E+00  0.12858758471E+04  0.12858758471E+04  0.25500000920E-02 0. -1.
        2   -1    0    0  501    0  0.00000000000E+00  0.00000000000E+00 -0.23889106996E+04  0.23889106996E+04  0.25500000920E-02 0.  1.
    10030    2    1    2    0    0  0.00000000000E+00  0.00000000000E+00 -0.11030348525E+04  0.36747865467E+04  0.35053345458E+04 0.  0.
        4    1    3    3  502    0  0.11626032109E+03 -0.17448225919E+04 -0.67519777137E+03  0.18745175334E+04  0.12699999809E+01 0. -1.
       -4    1    3    3    0  502 -0.11626032109E+03  0.17448225919E+04 -0.42783708113E+03  0.18002690133E+04  0.12699999809E+01 0.  1.
</event>
<event>
 5   0  0.1089337E-06  0.3471372E+04  0.7818609E-02  0.8120608E-01
        1   -1    0    0  501    0  0.00000000000E+00  0.00000000000E+00  0.13876872538E+04  0.13876872538E+04  0.50400001928E-02 0. -1.
       -1   -1    0    0    0  501  0.00000000000E+00  0.00000000000E+00 -0.21709539780E+04  0.21709539780E+04  0.50400001928E-02 0.  1.
    10030    2    1    2    0    0  0.00000000000E+00  0.00000000000E+00 -0.78326672424E+03  0.35586412318E+04  0.34713715813E+04 0.  0.
        2    1    3    3  502    0 -0.11370288131E+04  0.50824829902E+03 -0.16309312901E+04  0.20520934989E+04  0.25500000920E-02 0.  1.
       -2    1    3    3    0  502  0.11370288131E+04 -0.50824829902E+03  0.84766456586E+03  0.15065477329E+04  0.25500000920E-02 0. -1.
</event>
<event>
 5   0  0.1125196E-06  0.2306237E+04  0.7818609E-02  0.8475466E-01
       -1   -1    0    0    0  501  0.00000000000E+00  0.00000000000E+00  0.84866025901E+03  0.84866025902E+03  0.50400001928E-02 0. -1.
        1   -1    0    0  501    0  0.00000000000E+00  0.00000000000E+00 -0.15668021562E+04  0.15668021562E+04  0.50400001928E-02 0.  1.
    10030    2    1    2    0    0  0.00000000000E+00  0.00000000000E+00 -0.71814189715E+03  0.24154624152E+04  0.23062373891E+04 0.  0.
        4    1    3    3  502    0 -0.25486958491E+03  0.82246151303E+03 -0.11623902349E+04  0.14465663195E+04  0.12699999809E+01 0.  1.
       -4    1    3    3    0  502  0.25486958491E+03 -0.82246151303E+03  0.44424833773E+03  0.96889609567E+03  0.12699999809E+01 0. -1.
</event>
<event>
 5   0  0.3041329E-06  0.3863024E+04  0.7818609E-02  0.8032764E-01
        2   -1    0    0  501    0  0.00000000000E+00  0.00000000000E+00  0.31148203298E+04  0.31148203298E+04  0.25500000920E-02 0.  1.
       -2   -1    0    0    0  501  0.00000000000E+00  0.00000000000E+00 -0.11977380862E+04  0.11977380862E+04  0.25500000920E-02 0. -1.
    10030    2    1    2    0    0  0.00000000000E+00  0.00000000000E+00  0.19170822435E+04  0.43125584160E+04  0.38630241733E+04 0.  0.
        2    1    3    3  502    0 -0.14289446140E+04 -0.12389626783E+04  0.52069162365E+03  0.19616398740E+04  0.25500000920E-02 0.  1.
       -2    1    3    3    0  502  0.14289446140E+04  0.12389626783E+04  0.13963906199E+04  0.23509185421E+04  0.25500000920E-02 0. -1.
</event>
<event>
 5   0  0.3378848E-06  0.3456730E+04  0.7818609E-02  0.8124122E-01
        2   -1    0    0  501    0  0.00000000000E+00  0.00000000000E+00  0.12984221456E+04  0.12984221456E+04  0.25500000920E-02 0.  1.
       -2   -1    0    0    0  501  0.00000000000E+00  0.00000000000E+00 -0.23006738294E+04  0.23006738294E+04  0.25500000920E-02 0. -1.
    10030    2    1    2    0    0  0.00000000000E+00  0.00000000000E+00 -0.10022516839E+04  0.35990959750E+04  0.34567301601E+04 0.  0.
        1    1    3    3  502    0 -0.10558292864E+04 -0.75559973550E+03  0.68671050438E+03  0.14687674286E+04  0.50400001928E-02 0.  1.
       -1    1    3    3    0  502  0.10558292864E+04  0.75559973550E+03 -0.16889621882E+04  0.21303285464E+04  0.50400001928E-02 0. -1.
</event>
<event>
 5   0  0.1089337E-06  0.4123208E+04  0.7818609E-02  0.7980143E-01
       -1   -1    0    0    0  501  0.00000000000E+00  0.00000000000E+00  0.21706880671E+04  0.21706880671E+04  0.50400001928E-02 0.  1.
        1   -1    0    0  501    0  0.00000000000E+00  0.00000000000E+00 -0.19580012841E+04  0.19580012841E+04  0.50400001928E-02 0. -1.
    10030    2    1    2    0    0  0.00000000000E+00  0.00000000000E+00  0.21268678300E+03  0.41286893511E+04  0.41232075003E+04 0.  0.
        2    1    3    3  502    0  0.45176744489E+03 -0.10712108666E+03  0.21176555515E+04  0.21679561311E+04  0.25500000920E-02 0.  1.
       -2    1    3    3    0  502 -0.45176744489E+03  0.10712108666E+03 -0.19049687685E+04  0.19607332201E+04  0.25500000920E-02 0. -1.
</event>
<event>
 5   0  0.1908726E-06  0.3624732E+04  0.7818609E-02  0.8084850E-01
       -2   -1    0    0    0  501  0.00000000000E+00  0.00000000000E+00  0.21130642625E+04  0.21130642625E+04  0.25500000920E-02 0. -1.
        2   -1    0    0  501    0  0.00000000000E+00  0.00000000000E+00 -0.15544580476E+04  0.15544580476E+04  0.25500000920E-02 0.  1.
    10030    2    1    2    0    0  0.00000000000E+00  0.00000000000E+00  0.55860621496E+03  0.36675223101E+04  0.36247315751E+04 0.  0.
        5    1    3    3  502    0  0.78211946639E+03  0.47822075226E+03 -0.13025603330E+04  0.15928249931E+04  0.46999998093E+01 0.  1.
       -5    1    3    3    0  502 -0.78211946639E+03 -0.47822075226E+03  0.18611665480E+04  0.20746973169E+04  0.46999998093E+01 0. -1.
</event>
<event>
 5   0  0.1089337E-06  0.3535273E+04  0.7818609E-02  0.8105481E-01
        1   -1    0    0  501    0  0.00000000000E+00  0.00000000000E+00  0.18301381623E+04  0.18301381623E+04  0.50400001928E-02 0.  1.
       -1   -1    0    0    0  501  0.00000000000E+00  0.00000000000E+00 -0.17072691890E+04  0.17072691890E+04  0.50400001928E-02 0. -1.
    10030    2    1    2    0    0  0.00000000000E+00  0.00000000000E+00  0.12286897328E+03  0.35374073513E+04  0.35352728302E+04 0.  0.
        2    1    3    3  502    0  0.16769949757E+04 -0.55872684773E+03  0.68556161823E+02  0.17689510412E+04  0.25500000920E-02 0.  1.
       -2    1    3    3    0  502 -0.16769949757E+04  0.55872684773E+03  0.54312811462E+02  0.17684563100E+04  0.25500000920E-02 0. -1.
</event>
<event>
 5   0  0.3041329E-06  0.2800864E+04  0.7818609E-02  0.8303000E-01
        2   -1    0    0  501    0  0.00000000000E+00  0.00000000000E+00  0.26462834559E+04  0.26462834559E+04  0.25500000920E-02 0.  1.
       -2   -1    0    0    0  501  0.00000000000E+00  0.00000000000E+00 -0.74111847710E+03  0.74111847710E+03  0.25500000920E-02 0. -1.
    10030    2    1    2    0    0  0.00000000000E+00  0.00000000000E+00  0.19051649788E+04  0.33874019330E+04  0.28008638416E+04 0.  0.
        2    1    3    3  502    0 -0.13304443054E+04 -0.43412473964E+03  0.10149960137E+04  0.17288039933E+04  0.25500000920E-02 0.  1.
       -2    1    3    3    0  502  0.13304443054E+04  0.43412473964E+03  0.89016896503E+03  0.16585979397E+04  0.25500000920E-02 0. -1.
</event>
<event>
 5   0  0.1130707E-06  0.2671930E+04  0.7818609E-02  0.8344170E-01
       -1   -1    0    0    0  501  0.00000000000E+00  0.00000000000E+00  0.11735665852E+04  0.11735665852E+04  0.50400001928E-02 0. -1.
        1   -1    0    0  501    0  0.00000000000E+00  0.00000000000E+00 -0.15208365675E+04  0.15208365675E+04  0.50400001928E-02 0.  1.
    10030    2    1    2    0    0  0.00000000000E+00  0.00000000000E+00 -0.34726998230E+03  0.26944031527E+04  0.26719303712E+04 0.  0.
        3    1    3    3  502    0  0.12213832744E+04  0.53001969784E+03 -0.62686972485E+02  0.13329019655E+04  0.10100000352E+00 0. -1.
       -3    1    3    3    0  502 -0.12213832744E+04 -0.53001969784E+03 -0.28458300981E+03  0.13615011872E+04  0.10100000352E+00 0.  1.
</event>
<event>
 5   0  0.1110956E-06  0.3454562E+04  0.7818609E-02  0.8124643E-01
       -1   -1    0    0    0  501  0.00000000000E+00  0.00000000000E+00  0.13800367789E+04  0.13800367789E+04  0.50400001928E-02 0. -1.
        1   -1    0    0  501    0  0.00000000000E+00  0.00000000000E+00 -0.21618981057E+04  0.21618981057E+04  0.50400001928E-02 0.  1.
    10030    2    1    2    0    0  0.00000000000E+00  0.00000000000E+00 -0.78186132679E+03  0.35419348846E+04  0.34545615630E+04 0.  0.
        1    1    3    3  502    0 -0.14703145916E+04 -0.81745467593E+03  0.10693109172E+02  0.16823113529E+04  0.50400001928E-02 0. -1.
       -1    1    3    3    0  502  0.14703145916E+04  0.81745467593E+03 -0.79255443597E+03  0.18596235317E+04  0.50400001928E-02 0.  1.
</event>
<event>
 5   0  0.1102175E-06  0.3522056E+04  0.7818609E-02  0.8108583E-01
        1   -1    0    0  501    0  0.00000000000E+00  0.00000000000E+00  0.15987742625E+04  0.15987742625E+04  0.50400001928E-02 0.  1.
       -1   -1    0    0    0  501  0.00000000000E+00  0.00000000000E+00 -0.19397487497E+04  0.19397487497E+04  0.50400001928E-02 0. -1.
    10030    2    1    2    0    0  0.00000000000E+00  0.00000000000E+00 -0.34097448720E+03  0.35385230123E+04  0.35220564316E+04 0.  0.
        5    1    3    3  502    0  0.30898286716E+03 -0.16810387316E+04 -0.59654141857E+03  0.18103163766E+04  0.46999998093E+01 0. -1.
       -5    1    3    3    0  502 -0.30898286716E+03  0.16810387316E+04  0.25556693137E+03  0.17282066357E+04  0.46999998093E+01 0.  1.
</event>
<event>
 5   0  0.1125196E-06  0.1803784E+04  0.7818609E-02  0.8704290E-01
        1   -1    0    0  501    0  0.00000000000E+00  0.00000000000E+00  0.13398137511E+04  0.13398137511E+04  0.50400001928E-02 0.  1.
       -1   -1    0    0    0  501  0.00000000000E+00  0.00000000000E+00 -0.60710647426E+03  0.60710647428E+03  0.50400001928E-02 0. -1.
    10030    2    1    2    0    0  0.00000000000E+00  0.00000000000E+00  0.73270727681E+03  0.19469202254E+04  0.18037844689E+04 0.  0.
        4    1    3    3  502    0  0.39098751929E+03 -0.10430232545E+03  0.12363267570E+04  0.13008672793E+04  0.12699999809E+01 0.  1.
       -4    1    3    3    0  502 -0.39098751929E+03  0.10430232545E+03 -0.50361948022E+03  0.64605294605E+03  0.12699999809E+01 0. -1.
</event>
<event>
 5   0  0.3378848E-06  0.3461871E+04  0.7818609E-02  0.8122886E-01
        2   -1    0    0  501    0  0.00000000000E+00  0.00000000000E+00  0.14602546549E+04  0.14602546549E+04  0.25500000920E-02 0.  1.
       -2   -1    0    0    0  501  0.00000000000E+00  0.00000000000E+00 -0.20517908677E+04  0.20517908677E+04  0.25500000920E-02 0. -1.
    10030    2    1    2    0    0  0.00000000000E+00  0.00000000000E+00 -0.59153621281E+03  0.35120455226E+04  0.34618706882E+04 0.  0.
        1    1    3    3  502    0 -0.87637904853E+03 -0.14835580860E+04 -0.12860020927E+03  0.17278665589E+04  0.50400001928E-02 0.  1.
       -1    1    3    3    0  502  0.87637904853E+03  0.14835580860E+04 -0.46293600353E+03  0.17841789638E+04  0.50400001928E-02 0. -1.
</event>
<event>
 5   0  0.1102175E-06  0.3562588E+04  0.7818609E-02  0.8099116E-01
       -1   -1    0    0    0  501  0.00000000000E+00  0.00000000000E+00  0.29889355043E+04  0.29889355043E+04  0.50400001928E-02 0. -1.
        1   -1    0    0  501    0  0.00000000000E+00  0.00000000000E+00 -0.10615845071E+04  0.10615845071E+04  0.50400001928E-02 0.  1.
    10030    2    1    2    0    0  0.00000000000E+00  0.00000000000E+00  0.19273509973E+04  0.40505200114E+04  0.35625876124E+04 0.  0.
        5    1    3    3  502    0 -0.15881821497E+04 -0.20199206158E+03  0.18515694284E+04  0.24477448338E+04  0.46999998093E+01 0. -1.
       -5    1    3    3    0  502  0.15881821497E+04  0.20199206158E+03  0.75781568879E+02  0.16027751775E+04  0.46999998093E+01 0.  1.
</event>
<event>
 5   0  0.3378848E-06  0.2368316E+04  0.7818609E-02  0.8451462E-01
        2   -1    0    0  501    0  0.00000000000E+00  0.00000000000E+00  0.13917958301E+04  0.13917958301E+04  0.25500000920E-02 0. -1.
       -2   -1    0    0    0  501  0.00000000000E+00  0.00000000000E+00 -0.10074970943E+04  0.10074970943E+04  0.25500000920E-02 0.  1.
    10030    2    1    2    0    0  0.00000000000E+00  0.00000000000E+00  0.38429873579E+03  0.23992929244E+04  0.23683160724E+04 0.  0.
        1    1    3    3  502    0  0.56252203768E+03 -0.12910249109E+03 -0.85536316123E+03  0.10318646392E+04  0.50400001928E-02 0.  1.
       -1    1    3    3    0  502 -0.56252203768E+03  0.12910249109E+03  0.12396618970E+04  0.13674282851E+04  0.50400001928E-02 0. -1.
</event>
<event>
 5   0  0.1089337E-06  0.3514419E+04  0.7818609E-02  0.8110381E-01
       -1   -1    0    0    0  501  0.00000000000E+00  0.00000000000E+00  0.14329930348E+04  0.14329930348E+04  0.50400001928E-02 0.  1.
        1   -1    0    0  501    0  0.00000000000E+00  0.00000000000E+00 -0.21547801462E+04  0.21547801462E+04  0.50400001928E-02 0. -1.
    10030    2    1    2    0    0  0.00000000000E+00  0.00000000000E+00 -0.72178711145E+03  0.35877731810E+04  0.35144188373E+04 0.  0.
        2    1    3    3  502    0  0.13274720823E+04  0.95469294058E+03 -0.10178820132E+04  0.19260593275E+04  0.25500000920E-02 0. -1.
       -2    1    3    3    0  502 -0.13274720823E+04 -0.95469294058E+03  0.29609490178E+03  0.16617138535E+04  0.25500000920E-02 0.  1.
</event>
<event>
 5   0  0.1102175E-06  0.3500266E+04  0.7818609E-02  0.8113727E-01
        1   -1    0    0  501    0  0.00000000000E+00  0.00000000000E+00  0.23565712995E+04  0.23565712996E+04  0.50400001928E-02 0.  1.
       -1   -1    0    0    0  501  0.00000000000E+00  0.00000000000E+00 -0.12997554183E+04  0.12997554183E+04  0.50400001928E-02 0. -1.
    10030    2    1    2    0    0  0.00000000000E+00  0.00000000000E+00  0.10568158813E+04  0.36563267178E+04  0.35002664557E+04 0.  0.
        5    1    3    3  502    0  0.16875308386E+04 -0.45378844708E+03  0.42788898708E+03  0.17991096023E+04  0.46999998093E+01 0.  1.
       -5    1    3    3    0  502 -0.16875308386E+04  0.45378844708E+03  0.62892689418E+03  0.18572171155E+04  0.46999998093E+01 0. -1.
</event>
<event>
 5   0  0.1782660E-06  0.2261951E+04  0.7818609E-02  0.8493076E-01
       -2   -1    0    0    0  501  0.00000000000E+00  0.00000000000E+00  0.49861047698E+03  0.49861047698E+03  0.25500000920E-02 0. -1.
        2   -1    0    0  501    0  0.00000000000E+00  0.00000000000E+00 -0.25653405032E+04  0.25653405032E+04  0.25500000920E-02 0.  1.
    10030    2    1    2    0    0  0.00000000000E+00  0.00000000000E+00 -0.20667300262E+04  0.30639509802E+04  0.22619510622E+04 0.  0.
        4    1    3    3  502    0  0.11192790944E+04  0.49681623690E+02 -0.12425562873E+04  0.16730814968E+04  0.12699999809E+01 0.  1.
       -4    1    3    3    0  502 -0.11192790944E+04 -0.49681623690E+02 -0.82417373890E+03  0.13908694834E+04  0.12699999809E+01 0. -1.
</event>
<event>
 5   0  0.1908726E-06  0.3548851E+04  0.7818609E-02  0.8102309E-01
        2   -1    0    0  501    0  0.00000000000E+00  0.00000000000E+00  0.14389211746E+04  0.14389211746E+04  0.25500000920E-02 0.  1.
       -2   -1    0    0    0  501  0.00000000000E+00  0.00000000000E+00 -0.21881576368E+04  0.21881576368E+04  0.25500000920E-02 0. -1.
    10030    2    1    2    0    0  0.00000000000E+00  0.00000000000E+00 -0.74923646224E+03  0.36270788114E+04  0.35488512828E+04 0.  0.
        5    1    3    3  502    0 -0.29862213597E+02  0.19755491971E+03 -0.21766179820E+04  0.21857739196E+04  0.46999998093E+01 0. -1.
       -5    1    3    3    0  502  0.29862213597E+02 -0.19755491971E+03  0.14273815198E+04  0.14413048918E+04  0.46999998093E+01 0.  1.
</event>
<event>
 5   0  0.1125196E-06  0.3516375E+04  0.7818609E-02  0.8109920E-01
       -1   -1    0    0    0  501  0.00000000000E+00  0.00000000000E+00  0.14302139153E+04  0.14302139153E+04  0.50400001928E-02 0. -1.
        1   -1    0    0  501    0  0.00000000000E+00  0.00000000000E+00 -0.21613712176E+04  0.21613712176E+04  0.50400001928E-02 0.  1.
    10030    2    1    2    0    0  0.00000000000E+00  0.00000000000E+00 -0.73115730233E+03  0.35915851329E+04  0.35163749467E+04 0.  0.
        4    1    3    3  502    0 -0.10201471890E+04  0.11443693655E+04 -0.12447682107E+04  0.19747736689E+04  0.12699999809E+01 0. -1.
       -4    1    3    3    0  502  0.10201471890E+04 -0.11443693655E+04  0.51361090840E+03  0.16168114640E+04  0.12699999809E+01 0.  1.
</event>
<event>
 5   0  0.1908726E-06  0.3327643E+04  0.7818609E-02  0.8155897E-01
        2   -1    0    0  501    0  0.00000000000E+00  0.00000000000E+00  0.28130355056E+04  0.28130355056E+04  0.25500000920E-02 0. -1.
       -2   -1    0    0    0  501  0.00000000000E+00  0.00000000000E+00 -0.98409787929E+03  0.98409787929E+03  0.25500000920E-02 0.  1.
    10030    2    1    2    0    0  0.00000000000E+00  0.00000000000E+00  0.18289376263E+04  0.37971333849E+04  0.33276431753E+04 0.  0.
        5    1    3    3  502    0 -0.79196487816E+03 -0.41771913831E+03  0.25146722251E+04  0.26693250339E+04  0.46999998093E+01 0. -1.
       -5    1    3    3    0  502  0.79196487816E+03  0.41771913831E+03 -0.68573459877E+03  0.11278083510E+04  0.46999998093E+01 0.  1.
</event>
<event>
 5   0  0.3378848E-06  0.3353109E+04  0.7818609E-02  0.8149512E-01
        2   -1    0    0  501    0  0.00000000000E+00  0.00000000000E+00  0.17195583570E+04  0.17195583570E+04  0.25500000920E-02 0.  1.
       -2   -1    0    0    0  501  0.00000000000E+00  0.00000000000E+00 -0.16346264295E+04  0.16346264295E+04  0.25500000920E-02 0. -1.
    10030    2    1    2    0    0  0.00000000000E+00  0.00000000000E+00  0.84931927568E+02  0.33541847865E+04  0.33531093257E+04 0.  0.
        1    1    3    3  502    0 -0.25487725891E+03 -0.18358134202E+03  0.16898612013E+04  0.17188063899E+04  0.50400001928E-02 0.  1.
       -1    1    3    3    0  502  0.25487725891E+03  0.18358134202E+03 -0.16049292738E+04  0.16353783966E+04  0.50400001928E-02 0. -1.
</event>
<event>
 5   0  0.1908726E-06  0.3520665E+04  0.7818609E-02  0.8108910E-01
        2   -1    0    0  501    0  0.00000000000E+00  0.00000000000E+00  0.24936165913E+04  0.24936165913E+04  0.25500000920E-02 0.  1.
       -2   -1    0    0    0  501  0.00000000000E+00  0.00000000000E+00 -0.12426813819E+04  0.12426813819E+04  0.25500000920E-02 0. -1.
    10030    2    1    2    0    0  0.00000000000E+00  0.00000000000E+00  0.12509352094E+04  0.37362979732E+04  0.35206652278E+04 0.  0.
        5    1    3    3  502    0 -0.14133261567E+04 -0.15980616558E+03  0.17261610802E+04  0.22366678342E+04  0.46999998093E+01 0.  1.
       -5    1    3    3    0  502  0.14133261567E+04  0.15980616558E+03 -0.47522587077E+03  0.14996301390E+04  0.46999998093E+01 0. -1.
</event>
<event>
 5   0  0.1908726E-06  0.2958818E+04  0.7818609E-02  0.8255589E-01
        2   -1    0    0  501    0  0.00000000000E+00  0.00000000000E+00  0.21123738453E+04  0.21123738453E+04  0.25500000920E-02 0. -1.
       -2   -1    0    0    0  501  0.00000000000E+00  0.00000000000E+00 -0.10361094289E+04  0.10361094289E+04  0.25500000920E-02 0.  1.
    10030    2    1    2    0    0  0.00000000000E+00  0.00000000000E+00  0.10762644164E+04  0.31484832742E+04  0.29588176412E+04 0.  0.
        5    1    3    3  502    0 -0.13886388306E+04 -0.41891156938E+03  0.84804657167E+03  0.16801814731E+04  0.46999998093E+01 0.  1.
       -5    1    3    3    0  502  0.13886388306E+04  0.41891156938E+03  0.22821784472E+03  0.14683018012E+04  0.46999998093E+01 0. -1.
</event>
<event>
 5   0  0.3041329E-06  0.3488028E+04  0.7818609E-02  0.8116633E-01
        2   -1    0    0  501    0  0.00000000000E+00  0.00000000000E+00  0.18098693197E+04  0.18098693197E+04  0.25500000920E-02 0.  1.
       -2   -1    0    0    0  501  0.00000000000E+00  0.00000000000E+00 -0.16805549239E+04  0.16805549239E+04  0.25500000920E-02 0. -1.
    10030    2    1    2    0    0  0.00000000000E+00  0.00000000000E+00  0.12931439582E+03  0.34904242435E+04  0.34880279797E+04 0.  0.
        2    1    3    3  502    0  0.13930915021E+04 -0.29759242896E+02  0.11141843087E+04  0.17840953505E+04  0.25500000920E-02 0.  1.
       -2    1    3    3    0  502 -0.13930915021E+04  0.29759242896E+02 -0.98486991293E+03  0.17063288930E+04  0.25500000920E-02 0. -1.
</event>
<event>
 5   0  0.1130707E-06  0.3413564E+04  0.7818609E-02  0.8134585E-01
       -1   -1    0    0    0  501  0.00000000000E+00  0.00000000000E+00  0.15994278856E+04  0.15994278856E+04  0.50400001928E-02 0.  1.
        1   -1    0    0  501    0  0.00000000000E+00  0.00000000000E+00 -0.18213418543E+04  0.18213418543E+04  0.50400001928E-02 0. -1.
    10030    2    1    2    0    0  0.00000000000E+00  0.00000000000E+00 -0.22191396876E+03  0.34207697399E+04  0.34135640911E+04 0.  0.
        3    1    3    3  502    0  0.82089861631E+03  0.28811820915E+03  0.13605493782E+04  0.16149245374E+04  0.10100000352E+00 0.  1.
       -3    1    3    3    0  502 -0.82089861631E+03 -0.28811820915E+03 -0.15824633470E+04  0.18058452025E+04  0.10100000352E+00 0. -1.
</event>
<event>
 5   0  0.1125196E-06  0.2168371E+04  0.7818609E-02  0.8531709E-01
        1   -1    0    0  501    0  0.00000000000E+00  0.00000000000E+00  0.14906294374E+04  0.14906294374E+04  0.50400001928E-02 0. -1.
       -1   -1    0    0    0  501  0.00000000000E+00  0.00000000000E+00 -0.78856466010E+03  0.78856466012E+03  0.50400001928E-02 0.  1.
    10030    2    1    2    0    0  0.00000000000E+00  0.00000000000E+00  0.70206477725E+03  0.22791940975E+04  0.21683705363E+04 0.  0.
        4    1    3    3  502    0 -0.11045518515E+03 -0.43336248987E+03 -0.68709564473E+03  0.81982036658E+03  0.12699999809E+01 0.  1.
       -4    1    3    3    0  502  0.11045518515E+03  0.43336248987E+03  0.13891604220E+04  0.14593737309E+04  0.12699999809E+01 0. -1.
</event>
<event>
 5   0  0.2565004E-06  0.3537682E+04  0.7818609E-02  0.8104917E-01
        2   -1    0    0  501    0  0.00000000000E+00  0.00000000000E+00  0.96064067715E+03  0.96064067716E+03  0.25500000920E-02 0. -1.
       -2   -1    0    0    0  501  0.00000000000E+00  0.00000000000E+00 -0.32569916569E+04  0.32569916569E+04  0.25500000920E-02 0.  1.
    10030    2    1    2    0    0  0.00000000000E+00  0.00000000000E+00 -0.22963509798E+04  0.42176323341E+04  0.35376821060E+04 0.  0.
        3    1    3    3  502    0  0.76298443611E+03 -0.13271680774E+04 -0.91694436665E+02  0.15335997637E+04  0.10100000352E+00 0. -1.
       -3    1    3    3    0  502 -0.76298443611E+03  0.13271680774E+04 -0.22046565431E+04  0.26840325703E+04  0.10100000352E+00 0.  1.
</event>
<event>
 5   0  0.1125196E-06  0.3534817E+04  0.7818609E-02  0.8105588E-01
       -1   -1    0    0    0  501  0.00000000000E+00  0.00000000000E+00  0.21615034660E+04  0.21615034660E+04  0.50400001928E-02 0.  1.
        1   -1    0    0  501    0  0.00000000000E+00  0.00000000000E+00 -0.14451667927E+04  0.14451667927E+04  0.50400001928E-02 0. -1.
    10030    2    1    2    0    0  0.00000000000E+00  0.00000000000E+00  0.71633667333E+03  0.36066702587E+04  0.35348171276E+04 0.  0.
        4    1    3    3  502    0  0.13898019395E+04  0.10916804368E+04  0.33736238117E+03  0.17992027669E+04  0.12699999809E+01 0.  1.
       -4    1    3    3    0  502 -0.13898019395E+04 -0.10916804368E+04  0.37897429217E+03  0.18074674919E+04  0.12699999809E+01 0. -1.
</event>
<event>
 5   0  0.3041329E-06  0.3464914E+04  0.7818609E-02  0.8122155E-01
        2   -1    0    0  501    0  0.00000000000E+00  0.00000000000E+00  0.24397799116E+04  0.24397799116E+04  0.25500000920E-02 0. -1.
       -2   -1    0    0    0  501  0.00000000000E+00  0.00000000000E+00 -0.12301961063E+04  0.12301961063E+04  0.25500000920E-02 0.  1.
    10030    2    1    2    0    0  0.00000000000E+00  0.00000000000E+00  0.12095838052E+04  0.36699760179E+04  0.34649142833E+04 0.  0.
        2    1    3    3  502    0 -0.12289815798E+04 -0.53037043722E+03 -0.56017348443E+03  0.14510282068E+04  0.25500000920E-02 0. -1.
       -2    1    3    3    0  502  0.12289815798E+04  0.53037043722E+03  0.17697572897E+04  0.22189478111E+04  0.25500000920E-02 0.  1.
</event>
<event>
 5   0  0.3041329E-06  0.3673790E+04  0.7818609E-02  0.8073795E-01
       -2   -1    0    0    0  501  0.00000000000E+00  0.00000000000E+00  0.16567126472E+04  0.16567126472E+04  0.25500000920E-02 0.  1.
        2   -1    0    0  501    0  0.00000000000E+00  0.00000000000E+00 -0.20366732557E+04  0.20366732557E+04  0.25500000920E-02 0. -1.
    10030    2    1    2    0    0  0.00000000000E+00  0.00000000000E+00 -0.37996060850E+03  0.36933859028E+04  0.36737895099E+04 0.  0.
        2    1    3    3  502    0  0.12577760543E+04  0.43279366669E+03 -0.14635729236E+04  0.19777150107E+04  0.25500000920E-02 0. -1.
       -2    1    3    3    0  502 -0.12577760543E+04 -0.43279366669E+03  0.10836123151E+04  0.17156708921E+04  0.25500000920E-02 0.  1.
</event>
<event>
 5   0  0.1089337E-06  0.3368774E+04  0.7818609E-02  0.8145613E-01
       -1   -1    0    0    0  501  0.00000000000E+00  0.00000000000E+00  0.14109553873E+04  0.14109553873E+04  0.50400001928E-02 0.  1.
        1   -1    0    0  501    0  0.00000000000E+00  0.00000000000E+00 -0.20108074992E+04  0.20108074992E+04  0.50400001928E-02 0. -1.
    10030    2    1    2    0    0  0.00000000000E+00  0.00000000000E+00 -0.59985211190E+03  0.34217628865E+04  0.33687740642E+04 0.  0.
        2    1    3    3  502    0  0.52391824266E+03 -0.12350942120E+04  0.73452921505E+03  0.15295362713E+04  0.25500000920E-02 0.  1.
       -2    1    3    3    0  502 -0.52391824266E+03  0.12350942120E+04 -0.13343813269E+04  0.18922266152E+04  0.25500000920E-02 0. -1.
</event>
<event>
 5   0  0.2565004E-06  0.3491469E+04  0.7818609E-02  0.8115815E-01
       -2   -1    0    0    0  501  0.00000000000E+00  0.00000000000E+00  0.22226526854E+04  0.22226526854E+04  0.25500000920E-02 0.  1.
        2   -1    0    0  501    0  0.00000000000E+00  0.00000000000E+00 -0.13711491567E+04  0.13711491567E+04  0.25500000920E-02 0. -1.
    10030    2    1    2    0    0  0.00000000000E+00  0.00000000000E+00  0.85150352865E+03  0.35938018421E+04  0.34914686624E+04 0.  0.
        3    1    3    3  502    0 -0.14830781566E+04  0.37598069777E+03  0.12910491280E+04  0.20019216180E+04  0.10100000352E+00 0.  1.
       -3    1    3    3    0  502  0.14830781566E+04 -0.37598069777E+03 -0.43954559939E+03  0.15918802240E+04  0.10100000352E+00 0. -1.
</event>
<event>
 5   0  0.3041329E-06  0.3449445E+04  0.7818609E-02  0.8125876E-01
       -2   -1    0    0    0  501  0.00000000000E+00  0.00000000000E+00  0.22704950480E+04  0.22704950480E+04  0.25500000920E-02 0. -1.
        2   -1    0    0  501    0  0.00000000000E+00  0.00000000000E+00 -0.13101403319E+04  0.13101403319E+04  0.25500000920E-02 0.  1.
    10030    2    1    2    0    0  0.00000000000E+00  0.00000000000E+00  0.96035471609E+03  0.35806353800E+04  0.34494446718E+04 0.  0.
        2    1    3    3  502    0  0.14707522723E+04  0.16888611555E+03 -0.43836835147E+03  0.15439564690E+04  0.25500000920E-02 0.  1.
       -2    1    3    3    0  502 -0.14707522723E+04 -0.16888611555E+03  0.13987230676E+04  0.20366789110E+04  0.25500000920E-02 0. -1.
</event>
<event>
 5   0  0.1125196E-06  0.3502133E+04  0.7818609E-02  0.8113285E-01
       -1   -1    0    0    0  501  0.00000000000E+00  0.00000000000E+00  0.97535916849E+03  0.97535916851E+03  0.50400001928E-02 0.  1.
        1   -1    0    0  501    0  0.00000000000E+00  0.00000000000E+00 -0.31436968445E+04  0.31436968445E+04  0.50400001928E-02 0. -1.
    10030    2    1    2    0    0  0.00000000000E+00  0.00000000000E+00 -0.21683376760E+04  0.41190560130E+04  0.35021328017E+04 0.  0.
        4    1    3    3  502    0 -0.33140899089E+03  0.14661724356E+03  0.93077057644E+03  0.99883132421E+03  0.12699999809E+01 0.  1.
       -4    1    3    3    0  502  0.33140899089E+03 -0.14661724356E+03 -0.30991082524E+04  0.31202246888E+04  0.12699999809E+01 0. -1.
</event>
<event>
 5   0  0.1110956E-06  0.3545587E+04  0.7818609E-02  0.8103071E-01
        1   -1    0    0  501    0  0.00000000000E+00  0.00000000000E+00  0.23873315854E+04  0.23873315854E+04  0.50400001928E-02 0.  1.
       -1   -1    0    0    0  501  0.00000000000E+00  0.00000000000E+00 -0.13164472526E+04  0.13164472526E+04  0.50400001928E-02 0. -1.
    10030    2    1    2    0    0  0.00000000000E+00  0.00000000000E+00  0.10708843328E+04  0.37037788380E+04  0.35455866125E+04 0.  0.
        1    1    3    3  502    0 -0.54472354788E+03 -0.16837963982E+04  0.42637071744E+03  0.18203532742E+04  0.50400001928E-02 0. -1.
       -1    1    3    3    0  502  0.54472354788E+03  0.16837963982E+04  0.64451361539E+03  0.18834255638E+04  0.50400001928E-02 0.  1.
</event>
<event>
 5   0  0.1042825E-06  0.3518815E+04  0.7818609E-02  0.8109345E-01
        3   -1    0    0  501    0  0.00000000000E+00  0.00000000000E+00  0.21866174961E+04  0.21866174985E+04  0.10100000352E+00 0.  1.
       -3   -1    0    0    0  501  0.00000000000E+00  0.00000000000E+00 -0.14156637113E+04  0.14156637149E+04  0.10100000352E+00 0. -1.
    10030    2    1    2    0    0  0.00000000000E+00  0.00000000000E+00  0.77095378483E+03  0.36022812134E+04  0.35188151702E+04 0.  0.
        5    1    3    3  502    0  0.15946548094E+04  0.74222435599E+03  0.34361682819E+03  0.17921817906E+04  0.46999998093E+01 0. -1.
       -5    1    3    3    0  502 -0.15946548094E+04 -0.74222435599E+03  0.42733695663E+03  0.18100994228E+04  0.46999998093E+01 0.  1.
</event>
<event>
 5   0  0.1908726E-06  0.3816379E+04  0.7818609E-02  0.8042649E-01
       -2   -1    0    0    0  501  0.00000000000E+00  0.00000000000E+00  0.26119489981E+04  0.26119489981E+04  0.25500000920E-02 0. -1.
        2   -1    0    0  501    0  0.00000000000E+00  0.00000000000E+00 -0.13940495257E+04  0.13940495257E+04  0.25500000920E-02 0.  1.
    10030    2    1    2    0    0  0.00000000000E+00  0.00000000000E+00  0.12178994723E+04  0.40059985238E+04  0.38163785252E+04 0.  0.
        5    1    3    3  502    0  0.96971695015E+02 -0.19021307556E+04  0.48627001382E+03  0.19657023013E+04  0.46999998093E+01 0. -1.
       -5    1    3    3    0  502 -0.96971695015E+02  0.19021307556E+04  0.73162945852E+03  0.20402962225E+04  0.46999998093E+01 0.  1.
</event>
<event>
 5   0  0.3378848E-06  0.2259506E+04  0.7818609E-02  0.8494061E-01
       -2   -1    0    0    0  501  0.00000000000E+00  0.00000000000E+00  0.81442492263E+03  0.81442492263E+03  0.25500000920E-02 0.  1.
        2   -1    0    0  501    0  0.00000000000E+00  0.00000000000E+00 -0.15671688362E+04  0.15671688362E+04  0.25500000920E-02 0. -1.
    10030    2    1    2    0    0  0.00000000000E+00  0.00000000000E+00 -0.75274391353E+03  0.23815937588E+04  0.22595055726E+04 0.  0.
        1    1    3    3  502    0 -0.75435971290E+02  0.41614292512E+03 -0.14805821467E+04  0.15398016148E+04  0.50400001928E-02 0. -1.
       -1    1    3    3    0  502  0.75435971290E+02 -0.41614292512E+03  0.72783823318E+03  0.84179214394E+03  0.50400001928E-02 0.  1.
</event>
<event>
 5   0  0.3041329E-06  0.2436773E+04  0.7818609E-02  0.8425863E-01
       -2   -1    0    0    0  501  0.00000000000E+00  0.00000000000E+00  0.16962271068E+04  0.16962271068E+04  0.25500000920E-02 0. -1.
        2   -1    0    0  501    0  0.00000000000E+00  0.00000000000E+00 -0.87515773082E+03  0.87515773082E+03  0.25500000920E-02 0.  1.
    10030    2    1    2    0    0  0.00000000000E+00  0.00000000000E+00  0.82106937601E+03  0.25713848377E+04  0.24367734944E+04 0.  0.
        2    1    3    3  502    0 -0.65132813428E+03  0.66855790515E+03 -0.41584029051E+03  0.10218224691E+04  0.25500000920E-02 0.  1.
       -2    1    3    3    0  502  0.65132813428E+03 -0.66855790515E+03  0.12369096665E+04  0.15495623686E+04  0.25500000920E-02 0. -1.
</event>
<event>
 5   0  0.1782660E-06  0.3444499E+04  0.7818609E-02  0.8127070E-01
       -2   -1    0    0    0  501  0.00000000000E+00  0.00000000000E+00  0.16111418477E+04  0.16111418477E+04  0.25500000920E-02 0.  1.
        2   -1    0    0  501    0  0.00000000000E+00  0.00000000000E+00 -0.18410195274E+04  0.18410195274E+04  0.25500000920E-02 0. -1.
    10030    2    1    2    0    0  0.00000000000E+00  0.00000000000E+00 -0.22987767968E+03  0.34521613752E+04  0.34444991526E+04 0.  0.
        4    1    3    3  502    0 -0.12133453462E+04  0.21706058956E+03 -0.13204527414E+04  0.18063552485E+04  0.12699999809E+01 0. -1.
       -4    1    3    3    0  502  0.12133453462E+04 -0.21706058956E+03  0.10905750617E+04  0.16458061267E+04  0.12699999809E+01 0.  1.
</event>
<event>
 5   0  0.1908726E-06  0.3437238E+04  0.7818609E-02  0.8128827E-01
       -2   -1    0    0    0  501  0.00000000000E+00  0.00000000000E+00  0.17854681587E+04  0.17854681587E+04  0.25500000920E-02 0. -1.
        2   -1    0    0  501    0  0.00000000000E+00  0.00000000000E+00 -0.16542730214E+04  0.16542730214E+04  0.25500000920E-02 0.  1.
    10030    2    1    2    0    0  0.00000000000E+00  0.00000000000E+00  0.13119513736E+03  0.34397411801E+04  0.34372383132E+04 0.  0.
        5    1    3    3  502    0  0.20405259127E+03 -0.16250301731E+04  0.58681191219E+03  0.17397502216E+04  0.46999998093E+01 0.  1.
       -5    1    3    3    0  502 -0.20405259127E+03  0.16250301731E+04 -0.45561677482E+03  0.16999909585E+04  0.46999998093E+01 0. -1.
</event>
<event>
 5   0  0.1130707E-06  0.3412974E+04  0.7818609E-02  0.8134729E-01
       -1   -1    0    0    0  501  0.00000000000E+00  0.00000000000E+00  0.10518125251E+04  0.10518125251E+04  0.50400001928E-02 0. -1.
        1   -1    0    0  501    0  0.00000000000E+00  0.00000000000E+00 -0.27686474502E+04  0.27686474503E+04  0.50400001928E-02 0.  1.
    10030    2    1    2    0    0  0.00000000000E+00  0.00000000000E+00 -0.17168349252E+04  0.38204599753E+04  0.34129741082E+04 0.  0.
        3    1    3    3  502    0 -0.62681190042E+02 -0.11876663725E+03 -0.27627232918E+04  0.27659852572E+04  0.10100000352E+00 0.  1.
       -3    1    3    3    0  502  0.62681190042E+02  0.11876663725E+03  0.10458883666E+04  0.10544747182E+04  0.10100000352E+00 0. -1.
</event>
<event>
 5   0  0.3378848E-06  0.3334572E+04  0.7818609E-02  0.8154154E-01
        2   -1    0    0  501    0  0.00000000000E+00  0.00000000000E+00  0.27922121132E+04  0.27922121132E+04  0.25500000920E-02 0. -1.
       -2   -1    0    0    0  501  0.00000000000E+00  0.00000000000E+00 -0.99556977874E+03  0.99556977874E+03  0.25500000920E-02 0.  1.
    10030    2    1    2    0    0  0.00000000000E+00  0.00000000000E+00  0.17966423345E+04  0.37877818919E+04  0.33345716341E+04 0.  0.
        1    1    3    3  502    0 -0.17793163284E+03 -0.87178341714E+03 -0.70334619496E+03  0.11341789375E+04  0.50400001928E-02 0.  1.
       -1    1    3    3    0  502  0.17793163284E+03  0.87178341714E+03  0.24999885294E+04  0.26536029544E+04  0.50400001928E-02 0. -1.
</event>
<event>
 5   0  0.3041329E-06  0.2900990E+04  0.7818609E-02  0.8272583E-01
       -2   -1    0    0    0  501  0.00000000000E+00  0.00000000000E+00  0.12541026204E+04  0.12541026204E+04  0.25500000920E-02 0.  1.
        2   -1    0    0  501    0  0.00000000000E+00  0.00000000000E+00 -0.16776421586E+04  0.16776421586E+04  0.25500000920E-02 0. -1.
    10030    2    1    2    0    0  0.00000000000E+00  0.00000000000E+00 -0.42353953818E+03  0.29317447789E+04  0.29009897808E+04 0.  0.
        2    1    3    3  502    0  0.54659846501E+03 -0.45895398707E+03  0.10643630289E+04  0.12815136759E+04  0.25500000920E-02 0.  1.
       -2    1    3    3    0  502 -0.54659846501E+03  0.45895398707E+03 -0.14879025671E+04  0.16502311030E+04  0.25500000920E-02 0. -1.
</event>
<event>
 5   0  0.1170818E-06  0.1794626E+04  0.7818609E-02  0.8709163E-01
       -1   -1    0    0    0  501  0.00000000000E+00  0.00000000000E+00  0.76014180294E+03  0.76014180296E+03  0.50400001928E-02 0.  1.
        1   -1    0    0  501    0  0.00000000000E+00  0.00000000000E+00 -0.10592368426E+04  0.10592368426E+04  0.50400001928E-02 0. -1.
    10030    2    1    2    0    0  0.00000000000E+00  0.00000000000E+00 -0.29909503969E+03  0.18193786456E+04  0.17946255357E+04 0.  0.
        2    1    3    3  502    0  0.48445742797E+03 -0.15222222174E+03 -0.89954847237E+03  0.10329850233E+04  0.25500000920E-02 0. -1.
       -2    1    3    3    0  502 -0.48445742797E+03  0.15222222174E+03  0.60045343268E+03  0.78639362226E+03  0.25500000920E-02 0.  1.
</event>
<event>
 5   0  0.1110956E-06  0.3358604E+04  0.7818609E-02  0.8148142E-01
       -1   -1    0    0    0  501  0.00000000000E+00  0.00000000000E+00  0.24508755599E+04  0.24508755599E+04  0.50400001928E-02 0.  1.
        1   -1    0    0  501    0  0.00000000000E+00  0.00000000000E+00 -0.11506314903E+04  0.11506314903E+04  0.50400001928E-02 0. -1.
    10030    2    1    2    0    0  0.00000000000E+00  0.00000000000E+00  0.13002440696E+04  0.36015070503E+04  0.33586036373E+04 0.  0.
        1    1    3    3  502    0 -0.23137540767E+03 -0.15383914453E+04 -0.27965706543E+02  0.15559450180E+04  0.50400001928E-02 0. -1.
       -1    1    3    3    0  502  0.23137540767E+03  0.15383914453E+04  0.13282097761E+04  0.20455620322E+04  0.50400001928E-02 0.  1.
</event>
<event>
 5   0  0.1908726E-06  0.3353803E+04  0.7818609E-02  0.8149339E-01
        2   -1    0    0  501    0  0.00000000000E+00  0.00000000000E+00  0.93024800918E+03  0.93024800919E+03  0.25500000920E-02 0. -1.
       -2   -1    0    0    0  501  0.00000000000E+00  0.00000000000E+00 -0.30228485079E+04  0.30228485079E+04  0.25500000920E-02 0.  1.
    10030    2    1    2    0    0  0.00000000000E+00  0.00000000000E+00 -0.20926004987E+04  0.39530965171E+04  0.33538030989E+04 0.  0.
        5    1    3    3  502    0  0.89860980610E+03 -0.81450984567E+03  0.31866777669E+03  0.12539924698E+04  0.46999998093E+01 0. -1.
       -5    1    3    3    0  502 -0.89860980610E+03  0.81450984567E+03 -0.24112682754E+04  0.26991040473E+04  0.46999998093E+01 0.  1.
</event>
<event>
 5   0  0.1130707E-06  0.3470321E+04  0.7818609E-02  0.8120860E-01
       -1   -1    0    0    0  501  0.00000000000E+00  0.00000000000E+00  0.13368560278E+04  0.13368560278E+04  0.50400001928E-02 0.  1.
        1   -1    0    0  501    0  0.00000000000E+00  0.00000000000E+00 -0.22521366045E+04  0.22521366045E+04  0.50400001928E-02 0. -1.
    10030    2    1    2    0    0  0.00000000000E+00  0.00000000000E+00 -0.91528057674E+03  0.35889926323E+04  0.34703212503E+04 0.  0.
        3    1    3    3  502    0 -0.41768896775E+03 -0.38273657609E+03 -0.21537947003E+04  0.22270570226E+04  0.10100000352E+00 0. -1.
       -3    1    3    3    0  502  0.41768896775E+03  0.38273657609E+03  0.12385141236E+04  0.13619356097E+04  0.10100000352E+00 0.  1.
</event>
<event>
 5   0  0.1125196E-06  0.2977782E+04  0.7818609E-02  0.8250104E-01
       -1   -1    0    0    0  501  0.00000000000E+00  0.00000000000E+00  0.28193354070E+04  0.28193354070E+04  0.50400001928E-02 0.  1.
        1   -1    0    0  501    0  0.00000000000E+00  0.00000000000E+00 -0.78628347703E+03  0.78628347705E+03  0.50400001928E-02 0. -1.
    10030    2    1    2    0    0  0.00000000000E+00  0.00000000000E+00  0.20330519300E+04  0.36056188841E+04  0.29777822934E+04 0.  0.
        4    1    3    3  502    0  0.39188513248E+03 -0.21179874984E+03 -0.70370383951E+03  0.83284654897E+03  0.12699999809E+01 0. -1.
       -4    1    3    3    0  502 -0.39188513248E+03  0.21179874984E+03  0.27367557695E+04  0.27727723351E+04  0.12699999809E+01 0.  1.
</event>
<event>
 5   0  0.3843384E-06  0.1825470E+04  0.7818609E-02  0.8692871E-01
       -2   -1    0    0    0  501  0.00000000000E+00  0.00000000000E+00  0.75148558993E+03  0.75148558993E+03  0.25500000920E-02 0. -1.
        2   -1    0    0  501    0  0.00000000000E+00  0.00000000000E+00 -0.11085839632E+04  0.11085839632E+04  0.25500000920E-02 0.  1.
    10030    2    1    2    0    0  0.00000000000E+00  0.00000000000E+00 -0.35709837328E+03  0.18600695531E+04  0.18254696640E+04 0.  0.
        3    1    3    3  502    0  0.27090389786E+03  0.21742655360E+03 -0.10385980254E+04  0.10951479793E+04  0.10100000352E+00 0.  1.
       -3    1    3    3    0  502 -0.27090389786E+03 -0.21742655360E+03  0.68149965210E+03  0.76492157382E+03  0.10100000352E+00 0. -1.
</event>
<event>
 5   0  0.1102175E-06  0.2667178E+04  0.7818609E-02  0.8345734E-01
        1   -1    0    0  501    0  0.00000000000E+00  0.00000000000E+00  0.14472666174E+04  0.14472666174E+04  0.50400001928E-02 0. -1.
       -1   -1    0    0    0  501  0.00000000000E+00  0.00000000000E+00 -0.12288404301E+04  0.12288404301E+04  0.50400001928E-02 0.  1.
    10030    2    1    2    0    0  0.00000000000E+00  0.00000000000E+00  0.21842618734E+03  0.26761070475E+04  0.26671780837E+04 0.  0.
        5    1    3    3  502    0  0.21324413224E+03  0.66770726926E+03  0.12475293595E+04  0.14309638885E+04  0.46999998093E+01 0. -1.
       -5    1    3    3    0  502 -0.21324413224E+03 -0.66770726926E+03 -0.10291031722E+04  0.12451431590E+04  0.46999998093E+01 0.  1.
</event>
<event>
 5   0  0.1908726E-06  0.3465595E+04  0.7818609E-02  0.8121992E-01
       -2   -1    0    0    0  501  0.00000000000E+00  0.00000000000E+00  0.15338434079E+04  0.15338434079E+04  0.25500000920E-02 0. -1.
        2   -1    0    0  501    0  0.00000000000E+00  0.00000000000E+00 -0.19575579868E+04  0.19575579868E+04  0.25500000920E-02 0.  1.
    10030    2    1    2    0    0  0.00000000000E+00  0.00000000000E+00 -0.42371457892E+03  0.34914013947E+04  0.34655951371E+04 0.  0.
        5    1    3    3  502    0 -0.14215553308E+03 -0.35072251447E+03  0.14916958259E+04  0.15389584156E+04  0.46999998093E+01 0. -1.
       -5    1    3    3    0  502  0.14215553308E+03  0.35072251447E+03 -0.19154104049E+04  0.19524429791E+04  0.46999998093E+01 0.  1.
</event>
<event>
 5   0  0.1102175E-06  0.1733440E+04  0.7818609E-02  0.8742519E-01
       -1   -1    0    0    0  501  0.00000000000E+00  0.00000000000E+00  0.12516221482E+04  0.12516221482E+04  0.50400001928E-02 0. -1.
        1   -1    0    0  501    0  0.00000000000E+00  0.00000000000E+00 -0.60018426441E+03  0.60018426443E+03  0.50400001928E-02 0.  1.
    10030    2    1    2    0    0  0.00000000000E+00  0.00000000000E+00  0.65143788377E+03  0.18518064126E+04  0.17334404153E+04 0.  0.
        5    1    3    3  502    0 -0.24018392961E+02  0.18963491543E+03  0.12288097108E+04  0.12435970729E+04  0.46999998093E+01 0. -1.
       -5    1    3    3    0  502  0.24018392961E+02 -0.18963491543E+03 -0.57737182700E+03  0.60820933976E+03  0.46999998093E+01 0.  1.
</event>
<event>
 5   0  0.1102175E-06  0.1944511E+04  0.7818609E-02  0.8633012E-01
       -1   -1    0    0    0  501  0.00000000000E+00  0.00000000000E+00  0.79615523987E+03  0.79615523989E+03  0.50400001928E-02 0.  1.
        1   -1    0    0  501    0  0.00000000000E+00  0.00000000000E+00 -0.11873074419E+04  0.11873074420E+04  0.50400001928E-02 0. -1.
    10030    2    1    2    0    0  0.00000000000E+00  0.00000000000E+00 -0.39115220207E+03  0.19834626818E+04  0.19445112921E+04 0.  0.
        5    1    3    3  502    0 -0.71678444518E+03  0.62370918117E+03 -0.40577651439E+03  0.10331842784E+04  0.46999998093E+01 0. -1.
       -5    1    3    3    0  502  0.71678444518E+03 -0.62370918117E+03  0.14624312319E+02  0.95027840343E+03  0.46999998093E+01 0.  1.
</event>
<event>
 5   0  0.1782660E-06  0.2575657E+04  0.7818609E-02  0.8376517E-01
        2   -1    0    0  501    0  0.00000000000E+00  0.00000000000E+00  0.15630213480E+04  0.15630213481E+04  0.25500000920E-02 0.  1.
       -2   -1    0    0    0  501  0.00000000000E+00  0.00000000000E+00 -0.10610874733E+04  0.10610874733E+04  0.25500000920E-02 0. -1.
    10030    2    1    2    0    0  0.00000000000E+00  0.00000000000E+00  0.50193387475E+03  0.26241088214E+04  0.25756570990E+04 0.  0.
        4    1    3    3  502    0  0.30088396821E+03  0.14442869708E+02  0.15266233760E+04  0.15560592225E+04  0.12699999809E+01 0.  1.
       -4    1    3    3    0  502 -0.30088396821E+03 -0.14442869708E+02 -0.10246895012E+04  0.10680495989E+04  0.12699999809E+01 0. -1.
</event>
<event>
 5   0  0.1908726E-06  0.3083100E+04  0.7818609E-02  0.8220391E-01
       -2   -1    0    0    0  501  0.00000000000E+00  0.00000000000E+00  0.15517233141E+04  0.15517233141E+04  0.25500000920E-02 0.  1.
        2   -1    0    0  501    0  0.00000000000E+00  0.00000000000E+00 -0.15314435446E+04  0.15314435446E+04  0.25500000920E-02 0. -1.
    10030    2    1    2    0    0  0.00000000000E+00  0.00000000000E+00  0.20279769434E+02  0.30831668587E+04  0.30831001621E+04 0.  0.
        5    1    3    3  502    0  0.20471763041E+03  0.94056195261E+03 -0.11939577835E+04  0.15336633835E+04  0.46999998093E+01 0. -1.
       -5    1    3    3    0  502 -0.20471763041E+03 -0.94056195261E+03  0.12142375530E+04  0.15495034753E+04  0.46999998093E+01 0.  1.
</event>
<event>
 5   0  0.1110956E-06  0.3594649E+04  0.7818609E-02  0.8091719E-01
       -1   -1    0    0    0  501  0.00000000000E+00  0.00000000000E+00  0.14996662615E+04  0.14996662615E+04  0.50400001928E-02 0. -1.
        1   -1    0    0  501    0  0.00000000000E+00  0.00000000000E+00 -0.21540628293E+04  0.21540628293E+04  0.50400001928E-02 0.  1.
    10030    2    1    2    0    0  0.00000000000E+00  0.00000000000E+00 -0.65439656784E+03  0.36537290908E+04  0.35946489955E+04 0.  0.
        1    1    3    3  502    0 -0.16821887703E+04  0.49252793214E+03  0.76868449089E+02  0.17544946798E+04  0.50400001928E-02 0.  1.
       -1    1    3    3    0  502  0.16821887703E+04 -0.49252793214E+03 -0.73126501693E+03  0.18992344110E+04  0.50400001928E-02 0. -1.
</event>
<event>
 5   0  0.1782660E-06  0.3143702E+04  0.7818609E-02  0.8203846E-01
        2   -1    0    0  501    0  0.00000000000E+00  0.00000000000E+00  0.19060991506E+04  0.19060991506E+04  0.25500000920E-02 0.  1.
       -2   -1    0    0    0  501  0.00000000000E+00  0.00000000000E+00 -0.12962156947E+04  0.12962156947E+04  0.25500000920E-02 0. -1.
    10030    2    1    2    0    0  0.00000000000E+00  0.00000000000E+00  0.60988345590E+03  0.32023148452E+04  0.31437020435E+04 0.  0.
        4    1    3    3  502    0 -0.12407483654E+04 -0.83244398237E+03  0.80219733557E+03  0.16958601558E+04  0.12699999809E+01 0.  1.
       -4    1    3    3    0  502  0.12407483654E+04  0.83244398237E+03 -0.19231387968E+03  0.15064546894E+04  0.12699999809E+01 0. -1.
</event>
<event>
 5   0  0.1089337E-06  0.3434416E+04  0.7818609E-02  0.8129511E-01
       -1   -1    0    0    0  501  0.00000000000E+00  0.00000000000E+00  0.11300572339E+04  0.11300572339E+04  0.50400001928E-02 0. -1.
        1   -1    0    0  501    0  0.00000000000E+00  0.00000000000E+00 -0.26094276552E+04  0.26094276552E+04  0.50400001928E-02 0.  1.
    10030    2    1    2    0    0  0.00000000000E+00  0.00000000000E+00 -0.14793704213E+04  0.37394848891E+04  0.34344155823E+04 0.  0.
        2    1    3    3  502    0  0.11250045316E+04 -0.10710282198E+04  0.57516183860E+02  0.15543631349E+04  0.25500000920E-02 0. -1.
       -2    1    3    3    0  502 -0.11250045316E+04  0.10710282198E+04 -0.15368866052E+04  0.21851217542E+04  0.25500000920E-02 0.  1.
</event>
<event>
 5   0  0.3041329E-06  0.2118011E+04  0.7818609E-02  0.8553351E-01
        2   -1    0    0  501    0  0.00000000000E+00  0.00000000000E+00  0.21587079924E+04  0.21587079924E+04  0.25500000920E-02 0. -1.
       -2   -1    0    0    0  501  0.00000000000E+00  0.00000000000E+00 -0.51952042500E+03  0.51952042501E+03  0.25500000920E-02 0.  1.
    10030    2    1    2    0    0  0.00000000000E+00  0.00000000000E+00  0.16391875674E+04  0.26782284174E+04  0.21180112310E+04 0.  0.
        2    1    3    3  502    0  0.79094832908E+03  0.58135206933E+03  0.13221013507E+04  0.16466698119E+04  0.25500000920E-02 0. -1.
       -2    1    3    3    0  502 -0.79094832908E+03 -0.58135206933E+03  0.31708621664E+03  0.10315586055E+04  0.25500000920E-02 0.  1.
</event>
<event>
 5   0  0.1110956E-06  0.3555460E+04  0.7818609E-02  0.8100771E-01
        1   -1    0    0  501    0  0.00000000000E+00  0.00000000000E+00  0.21613406969E+04  0.21613406969E+04  0.50400001928E-02 0. -1.
       -1   -1    0    0    0  501  0.00000000000E+00  0.00000000000E+00 -0.14622055615E+04  0.14622055615E+04  0.50400001928E-02 0.  1.
    10030    2    1    2    0    0  0.00000000000E+00  0.00000000000E+00  0.69913513544E+03  0.36235462584E+04  0.35554602443E+04 0.  0.
        1    1    3    3  502    0 -0.14095307914E+04  0.10563647603E+04  0.10488496552E+03  0.17645635196E+04  0.50400001928E-02 0.  1.
       -1    1    3    3    0  502  0.14095307914E+04 -0.10563647603E+04  0.59425016991E+03  0.18589827388E+04  0.50400001928E-02 0. -1.
</event>
<event>
 5   0  0.3378848E-06  0.3508028E+04  0.7818609E-02  0.8111890E-01
       -2   -1    0    0    0  501  0.00000000000E+00  0.00000000000E+00  0.14859110335E+04  0.14859110335E+04  0.25500000920E-02 0.  1.
        2   -1    0    0  501    0  0.00000000000E+00  0.00000000000E+00 -0.20704906920E+04  0.20704906920E+04  0.25500000920E-02 0. -1.
    10030    2    1    2    0    0  0.00000000000E+00  0.00000000000E+00 -0.58457965852E+03  0.35564017255E+04  0.35080279155E+04 0.  0.
        1    1    3    3  502    0  0.25055341681E+03  0.70900086206E+03  0.13142084729E+04  0.15141344548E+04  0.50400001928E-02 0.  1.
       -1    1    3    3    0  502 -0.25055341681E+03 -0.70900086206E+03 -0.18987881314E+04  0.20422672707E+04  0.50400001928E-02 0. -1.
</event>
<event>
 5   0  0.1908726E-06  0.3301281E+04  0.7818609E-02  0.8162569E-01
        2   -1    0    0  501    0  0.00000000000E+00  0.00000000000E+00  0.23444829615E+04  0.23444829615E+04  0.25500000920E-02 0.  1.
       -2   -1    0    0    0  501  0.00000000000E+00  0.00000000000E+00 -0.11621388917E+04  0.11621388917E+04  0.25500000920E-02 0. -1.
    10030    2    1    2    0    0  0.00000000000E+00  0.00000000000E+00  0.11823440697E+04  0.35066218532E+04  0.33012814666E+04 0.  0.
        5    1    3    3  502    0  0.39334698977E+03 -0.15318769434E+04  0.89318782636E+02  0.15840987214E+04  0.46999998093E+01 0. -1.
       -5    1    3    3    0  502 -0.39334698977E+03  0.15318769434E+04  0.10930252871E+04  0.19225231318E+04  0.46999998093E+01 0.  1.
</event>
<event>
 5   0  0.3041329E-06  0.2918152E+04  0.7818609E-02  0.8267497E-01
        2   -1    0    0  501    0  0.00000000000E+00  0.00000000000E+00  0.15624620337E+04  0.15624620337E+04  0.25500000920E-02 0.  1.
       -2   -1    0    0    0  501  0.00000000000E+00  0.00000000000E+00 -0.13625306800E+04  0.13625306800E+04  0.25500000920E-02 0. -1.
    10030    2    1    2    0    0  0.00000000000E+00  0.00000000000E+00  0.19993135373E+03  0.29249927136E+04  0.29181517830E+04 0.  0.
        2    1    3    3  502    0  0.98731630406E+03  0.10725044378E+04  0.16210458425E+03  0.14667437233E+04  0.25500000920E-02 0.  1.
       -2    1    3    3    0  502 -0.98731630406E+03 -0.10725044378E+04  0.37826769477E+02  0.14582489904E+04  0.25500000920E-02 0. -1.
</event>
<event>
 5   0  0.3378848E-06  0.3646845E+04  0.7818609E-02  0.8079845E-01
        2   -1    0    0  501    0  0.00000000000E+00  0.00000000000E+00  0.24540807881E+04  0.24540807881E+04  0.25500000920E-02 0. -1.
       -2   -1    0    0    0  501  0.00000000000E+00  0.00000000000E+00 -0.13548330436E+04  0.13548330436E+04  0.25500000920E-02 0.  1.
    10030    2    1    2    0    0  0.00000000000E+00  0.00000000000E+00  0.10992477445E+04  0.38089138316E+04  0.36468450712E+04 0.  0.
        1    1    3    3  502    0  0.10086505638E+04 -0.14273266482E+04  0.66829681830E+01  0.17477648533E+04  0.50400001928E-02 0.  1.
       -1    1    3    3    0  502 -0.10086505638E+04  0.14273266482E+04  0.10925647763E+04  0.20611489783E+04  0.50400001928E-02 0. -1.
</event>
<event>
 5   0  0.1125196E-06  0.2969326E+04  0.7818609E-02  0.8252545E-01
       -1   -1    0    0    0  501  0.00000000000E+00  0.00000000000E+00  0.91280043954E+03  0.91280043956E+03  0.50400001928E-02 0.  1.
        1   -1    0    0  501    0  0.00000000000E+00  0.00000000000E+00 -0.24147934124E+04  0.24147934124E+04  0.50400001928E-02 0. -1.
    10030    2    1    2    0    0  0.00000000000E+00  0.00000000000E+00 -0.15019929729E+04  0.33275938520E+04  0.29693261783E+04 0.  0.
        4    1    3    3  502    0 -0.37607831334E+03  0.34259888980E+03  0.81207349329E+03  0.95826607394E+03  0.12699999809E+01 0.  1.
       -4    1    3    3    0  502  0.37607831334E+03 -0.34259888980E+03 -0.23140664661E+04  0.23693277780E+04  0.12699999809E+01 0. -1.
</event>
<event>
 5   0  0.1102175E-06  0.3464318E+04  0.7818609E-02  0.8122299E-01
       -1   -1    0    0    0  501  0.00000000000E+00  0.00000000000E+00  0.17559900946E+04  0.17559900946E+04  0.50400001928E-02 0.  1.
        1   -1    0    0  501    0  0.00000000000E+00  0.00000000000E+00 -0.17086514294E+04  0.17086514294E+04  0.50400001928E-02 0. -1.
    10030    2    1    2    0    0  0.00000000000E+00  0.00000000000E+00  0.47338665180E+02  0.34646415241E+04  0.34643181062E+04 0.  0.
        5    1    3    3  502    0  0.34186845631E+03  0.23348482143E+02 -0.16744095851E+04  0.17091192883E+04  0.46999998093E+01 0. -1.
       -5    1    3    3    0  502 -0.34186845631E+03 -0.23348482143E+02  0.17217482503E+04  0.17555222358E+04  0.46999998093E+01 0.  1.
</event>
<event>
 5   0  0.1908726E-06  0.3592130E+04  0.7818609E-02  0.8092297E-01
       -2   -1    0    0    0  501  0.00000000000E+00  0.00000000000E+00  0.15032104707E+04  0.15032104707E+04  0.25500000920E-02 0. -1.
        2   -1    0    0  501    0  0.00000000000E+00  0.00000000000E+00 -0.21459735623E+04  0.21459735623E+04  0.25500000920E-02 0.  1.
    10030    2    1    2    0    0  0.00000000000E+00  0.00000000000E+00 -0.64276309159E+03  0.36491840330E+04  0.35921302475E+04 0.  0.
        5    1    3    3  502    0 -0.12979127645E+04 -0.94667851144E+03 -0.11372880792E+04  0.19683048578E+04  0.46999998093E+01 0.  1.
       -5    1    3    3    0  502  0.12979127645E+04  0.94667851144E+03  0.49452498759E+03  0.16808791752E+04  0.46999998093E+01 0. -1.
</event>
<event>
 5   0  0.3041329E-06  0.1904066E+04  0.7818609E-02  0.8652835E-01
        2   -1    0    0  501    0  0.00000000000E+00  0.00000000000E+00  0.16915432669E+04  0.16915432669E+04  0.25500000920E-02 0.  1.
       -2   -1    0    0    0  501  0.00000000000E+00  0.00000000000E+00 -0.53582225423E+03  0.53582225423E+03  0.25500000920E-02 0. -1.
    10030    2    1    2    0    0  0.00000000000E+00  0.00000000000E+00  0.11557210126E+04  0.22273655211E+04  0.19040656778E+04 0.  0.
        2    1    3    3  502    0 -0.47358421679E+03 -0.53154751387E+03  0.13172795903E+04  0.14973477515E+04  0.25500000920E-02 0.  1.
       -2    1    3    3    0  502  0.47358421679E+03  0.53154751387E+03 -0.16155857767E+03  0.73001776959E+03  0.25500000920E-02 0. -1.
</event>
<event>
 5   0  0.1782660E-06  0.1889501E+04  0.7818609E-02  0.8660100E-01
        2   -1    0    0  501    0  0.00000000000E+00  0.00000000000E+00  0.18007012709E+04  0.18007012709E+04  0.25500000920E-02 0. -1.
       -2   -1    0    0    0  501  0.00000000000E+00  0.00000000000E+00 -0.49566995819E+03  0.49566995820E+03  0.25500000920E-02 0.  1.
    10030    2    1    2    0    0  0.00000000000E+00  0.00000000000E+00  0.13050313127E+04  0.22963712291E+04  0.18895010174E+04 0.  0.
        4    1    3    3  502    0 -0.37274544321E+03 -0.56960708978E+03  0.14486838844E+04  0.16006492470E+04  0.12699999809E+01 0. -1.
       -4    1    3    3    0  502  0.37274544321E+03  0.56960708978E+03 -0.14365257165E+03  0.69572198212E+03  0.12699999809E+01 0.  1.
</event>
<event>
 5   0  0.3378848E-06  0.3477259E+04  0.7818609E-02  0.8119200E-01
        2   -1    0    0  501    0  0.00000000000E+00  0.00000000000E+00  0.26336412229E+04  0.26336412229E+04  0.25500000920E-02 0. -1.
       -2   -1    0    0    0  501  0.00000000000E+00  0.00000000000E+00 -0.11477770341E+04  0.11477770341E+04  0.25500000920E-02 0.  1.
    10030    2    1    2    0    0  0.00000000000E+00  0.00000000000E+00  0.14858641889E+04  0.37814182570E+04  0.34772592148E+04 0.  0.
        1    1    3    3  502    0 -0.20147102349E+03  0.16837856978E+04  0.11600279622E+04  0.20546020838E+04  0.50400001928E-02 0. -1.
       -1    1    3    3    0  502  0.20147102349E+03 -0.16837856978E+04  0.32583622670E+03  0.17268161733E+04  0.50400001928E-02 0.  1.
</event>
<event>
 5   0  0.2565004E-06  0.2995525E+04  0.7818609E-02  0.8245010E-01
        2   -1    0    0  501    0  0.00000000000E+00  0.00000000000E+00  0.20678553261E+04  0.20678553261E+04  0.25500000920E-02 0.  1.
       -2   -1    0    0    0  501  0.00000000000E+00  0.00000000000E+00 -0.10848401158E+04  0.10848401158E+04  0.25500000920E-02 0. -1.
    10030    2    1    2    0    0  0.00000000000E+00  0.00000000000E+00  0.98301521037E+03  0.31526954419E+04  0.29955249365E+04 0.  0.
        3    1    3    3  502    0  0.11865220205E+04  0.68732470391E+02  0.14507757115E+04  0.18754489683E+04  0.10100000352E+00 0.  1.
       -3    1    3    3    0  502 -0.11865220205E+04 -0.68732470391E+02 -0.46776050114E+03  0.12772464735E+04  0.10100000352E+00 0. -1.
</event>
<event>
 5   0  0.1089337E-06  0.3477668E+04  0.7818609E-02  0.8119103E-01
       -1   -1    0    0    0  501  0.00000000000E+00  0.00000000000E+00  0.18075828486E+04  0.18075828486E+04  0.50400001928E-02 0.  1.
        1   -1    0    0  501    0  0.00000000000E+00  0.00000000000E+00 -0.16726995036E+04  0.16726995036E+04  0.50400001928E-02 0. -1.
    10030    2    1    2    0    0  0.00000000000E+00  0.00000000000E+00  0.13488334501E+03  0.34802823522E+04  0.34776675710E+04 0.  0.
        2    1    3    3  502    0  0.15391558825E+04 -0.74594916577E+03 -0.24600612518E+03  0.17279930562E+04  0.25500000920E-02 0. -1.
       -2    1    3    3    0  502 -0.15391558825E+04  0.74594916577E+03  0.38088947020E+03  0.17522892961E+04  0.25500000920E-02 0.  1.
</event>
<event>
 5   0  0.1110956E-06  0.3562837E+04  0.7818609E-02  0.8099058E-01
       -1   -1    0    0    0  501  0.00000000000E+00  0.00000000000E+00  0.13507080278E+04  0.13507080278E+04  0.50400001928E-02 0.  1.
        1   -1    0    0  501    0  0.00000000000E+00  0.00000000000E+00 -0.23494731088E+04  0.23494731088E+04  0.50400001928E-02 0. -1.
    10030    2    1    2    0    0  0.00000000000E+00  0.00000000000E+00 -0.99876508095E+03  0.37001811366E+04  0.35628371780E+04 0.  0.
        1    1    3    3  502    0 -0.16452849372E+04 -0.22977182319E+03 -0.11673678655E+04  0.20303953676E+04  0.50400001928E-02 0. -1.
       -1    1    3    3    0  502  0.16452849372E+04  0.22977182319E+03  0.16860278456E+03  0.16697857690E+04  0.50400001928E-02 0.  1.
</event>
<event>
 5   0  0.1089337E-06  0.3443457E+04  0.7818609E-02  0.8127322E-01
        1   -1    0    0  501    0  0.00000000000E+00  0.00000000000E+00  0.20306797217E+04  0.20306797217E+04  0.50400001928E-02 0.  1.
       -1   -1    0    0    0  501  0.00000000000E+00  0.00000000000E+00 -0.14597812556E+04  0.14597812556E+04  0.50400001928E-02 0. -1.
    10030    2    1    2    0    0  0.00000000000E+00  0.00000000000E+00  0.57089846609E+03  0.34904609773E+04  0.34434565156E+04 0.  0.
        2    1    3    3  502    0 -0.32512474530E+03 -0.60941297776E+03 -0.13131831087E+04  0.14837587926E+04  0.25500000920E-02 0. -1.
       -2    1    3    3    0  502  0.32512474530E+03  0.60941297776E+03  0.18840815748E+04  0.20067021847E+04  0.25500000920E-02 0.  1.
</event>
<event>
 5   0  0.1782660E-06  0.2444811E+04  0.7818609E-02  0.8422915E-01
       -2   -1    0    0    0  501  0.00000000000E+00  0.00000000000E+00  0.99610156135E+03  0.99610156136E+03  0.25500000920E-02 0.  1.
        2   -1    0    0  501    0  0.00000000000E+00  0.00000000000E+00 -0.15001232075E+04  0.15001232075E+04  0.25500000920E-02 0. -1.
    10030    2    1    2    0    0  0.00000000000E+00  0.00000000000E+00 -0.50402164617E+03  0.24962247689E+04  0.24448108878E+04 0.  0.
        4    1    3    3  502    0  0.74175890534E+03 -0.75632187071E+03  0.37077082913E+03  0.11223643198E+04  0.12699999809E+01 0.  1.
       -4    1    3    3    0  502 -0.74175890534E+03  0.75632187071E+03 -0.87479247530E+03  0.13738604491E+04  0.12699999809E+01 0. -1.
</event>
<event>
 5   0  0.1782660E-06  0.3458427E+04  0.7818609E-02  0.8123714E-01
       -2   -1    0    0    0  501  0.00000000000E+00  0.00000000000E+00  0.12136241049E+04  0.12136241049E+04  0.25500000920E-02 0. -1.
        2   -1    0    0  501    0  0.00000000000E+00  0.00000000000E+00 -0.24638423727E+04  0.24638423727E+04  0.25500000920E-02 0.  1.
    10030    2    1    2    0    0  0.00000000000E+00  0.00000000000E+00 -0.12502182677E+04  0.36774664776E+04  0.34584265175E+04 0.  0.
        4    1    3    3  502    0  0.45011564424E+03  0.57843391602E+03  0.10402879226E+04  0.12725527350E+04  0.12699999809E+01 0. -1.
       -4    1    3    3    0  502 -0.45011564424E+03 -0.57843391602E+03 -0.22905061904E+04  0.24049137426E+04  0.12699999809E+01 0.  1.
</event>
<event>
 5   0  0.1102175E-06  0.2324927E+04  0.7818609E-02  0.8468157E-01
        1   -1    0    0  501    0  0.00000000000E+00  0.00000000000E+00  0.14581642500E+04  0.14581642500E+04  0.50400001928E-02 0. -1.
       -1   -1    0    0    0  501  0.00000000000E+00  0.00000000000E+00 -0.92672782772E+03  0.92672782774E+03  0.50400001928E-02 0.  1.
    10030    2    1    2    0    0  0.00000000000E+00  0.00000000000E+00  0.53143642227E+03  0.23848920777E+04  0.23249269992E+04 0.  0.
        5    1    3    3  502    0 -0.10611244607E+04  0.31140158913E+03  0.63320851731E+03  0.12743355866E+04  0.46999998093E+01 0. -1.
       -5    1    3    3    0  502  0.10611244607E+04 -0.31140158913E+03 -0.10177209504E+03  0.11105564912E+04  0.46999998093E+01 0.  1.
</event>
<event>
 5   0  0.1130707E-06  0.1961950E+04  0.7818609E-02  0.8624620E-01
       -1   -1    0    0    0  501  0.00000000000E+00  0.00000000000E+00  0.78329691233E+03  0.78329691234E+03  0.50400001928E-02 0.  1.
        1   -1    0    0  501    0  0.00000000000E+00  0.00000000000E+00 -0.12285402203E+04  0.12285402203E+04  0.50400001928E-02 0. -1.
    10030    2    1    2    0    0  0.00000000000E+00  0.00000000000E+00 -0.44524330796E+03  0.20118371326E+04  0.19619498070E+04 0.  0.
        3    1    3    3  502    0  0.53323229337E+03  0.20547047055E+03  0.59499642929E+03  0.82497003220E+03  0.10100000352E+00 0.  1.
       -3    1    3    3    0  502 -0.53323229337E+03 -0.20547047055E+03 -0.10402397373E+04  0.11868671004E+04  0.10100000352E+00 0. -1.
</event>
<event>
 5   0  0.3041329E-06  0.3453659E+04  0.7818609E-02  0.8124861E-01
        2   -1    0    0  501    0  0.00000000000E+00  0.00000000000E+00  0.21583022618E+04  0.21583022618E+04  0.25500000920E-02 0. -1.
       -2   -1    0    0    0  501  0.00000000000E+00  0.00000000000E+00 -0.13816139391E+04  0.13816139391E+04  0.25500000920E-02 0.  1.
    10030    2    1    2    0    0  0.00000000000E+00  0.00000000000E+00  0.77668832276E+03  0.35399162009E+04  0.34536592129E+04 0.  0.
        2    1    3    3  502    0  0.42546482231E+02  0.13057958652E+04 -0.76902862405E+03  0.15160204713E+04  0.25500000920E-02 0.  1.
       -2    1    3    3    0  502 -0.42546482231E+02 -0.13057958652E+04  0.15457169468E+04  0.20238957296E+04  0.25500000920E-02 0. -1.
</event>
<event>
 5   0  0.1908726E-06  0.3529536E+04  0.7818609E-02  0.8106826E-01
       -2   -1    0    0    0  501  0.00000000000E+00  0.00000000000E+00  0.20468256219E+04  0.20468256219E+04  0.25500000920E-02 0.  1.
        2   -1    0    0  501    0  0.00000000000E+00  0.00000000000E+00 -0.15215784543E+04  0.15215784543E+04  0.25500000920E-02 0. -1.
    10030    2    1    2    0    0  0.00000000000E+00  0.00000000000E+00  0.52524716755E+03  0.35684040762E+04  0.35295358143E+04 0.  0.
        5    1    3    3  502    0 -0.95159993740E+03 -0.10239031278E+04  0.13517347202E+04  0.19445125095E+04  0.46999998093E+01 0.  1.
       -5    1    3    3    0  502  0.95159993740E+03  0.10239031278E+04 -0.82648755263E+03  0.16238915667E+04  0.46999998093E+01 0. -1.
</event>
<event>
 5   0  0.1125196E-06  0.3019878E+04  0.7818609E-02  0.8238077E-01
        1   -1    0    0  501    0  0.00000000000E+00  0.00000000000E+00  0.12591059309E+04  0.12591059309E+04  0.50400001928E-02 0.  1.
       -1   -1    0    0    0  501  0.00000000000E+00  0.00000000000E+00 -0.18107414123E+04  0.18107414123E+04  0.50400001928E-02 0. -1.
    10030    2    1    2    0    0  0.00000000000E+00  0.00000000000E+00 -0.55163548142E+03  0.30698473432E+04  0.30198776476E+04 0.  0.
        4    1    3    3  502    0  0.34144151053E+03  0.76251083197E+03 -0.15543689303E+04  0.17646726207E+04  0.12699999809E+01 0. -1.
       -4    1    3    3    0  502 -0.34144151053E+03 -0.76251083197E+03  0.10027334488E+04  0.13051747225E+04  0.12699999809E+01 0.  1.
</event>
<event>
 5   0  0.2565004E-06  0.2140507E+04  0.7818609E-02  0.8543607E-01
       -2   -1    0    0    0  501  0.00000000000E+00  0.00000000000E+00  0.11308510333E+04  0.11308510333E+04  0.25500000920E-02 0. -1.
        2   -1    0    0  501    0  0.00000000000E+00  0.00000000000E+00 -0.10129033533E+04  0.10129033533E+04  0.25500000920E-02 0.  1.
    10030    2    1    2    0    0  0.00000000000E+00  0.00000000000E+00  0.11794768005E+03  0.21437543866E+04  0.21405072330E+04 0.  0.
        3    1    3    3  502    0 -0.16836871074E+02 -0.82332024976E+03 -0.62565887487E+03  0.10342092399E+04  0.10100000352E+00 0.  1.
       -3    1    3    3    0  502  0.16836871074E+02  0.82332024976E+03  0.74360655492E+03  0.11095451467E+04  0.10100000352E+00 0. -1.
</event>
<event>
 5   0  0.1782660E-06  0.2910551E+04  0.7818609E-02  0.8269745E-01
        2   -1    0    0  501    0  0.00000000000E+00  0.00000000000E+00  0.19700861358E+04  0.19700861358E+04  0.25500000920E-02 0.  1.
       -2   -1    0    0    0  501  0.00000000000E+00  0.00000000000E+00 -0.10749919808E+04  0.10749919808E+04  0.25500000920E-02 0. -1.
    10030    2    1    2    0    0  0.00000000000E+00  0.00000000000E+00  0.89509415499E+03  0.30450781166E+04  0.29105510114E+04 0.  0.
        4    1    3    3  502    0 -0.29046379882E+03 -0.32997598997E+02  0.19390506693E+04  0.19609633273E+04  0.12699999809E+01 0.  1.
       -4    1    3    3    0  502  0.29046379882E+03  0.32997598997E+02 -0.10439565143E+04  0.10841147894E+04  0.12699999809E+01 0. -1.
</event>
<event>
 5   0  0.1908726E-06  0.2826101E+04  0.7818609E-02  0.8295211E-01
       -2   -1    0    0    0  501  0.00000000000E+00  0.00000000000E+00  0.63243858458E+03  0.63243858459E+03  0.25500000920E-02 0.  1.
        2   -1    0    0  501    0  0.00000000000E+00  0.00000000000E+00 -0.31571619641E+04  0.31571619641E+04  0.25500000920E-02 0. -1.
    10030    2    1    2    0    0  0.00000000000E+00  0.00000000000E+00 -0.25247233796E+04  0.37896005487E+04  0.28261005247E+04 0.  0.
        5    1    3    3  502    0 -0.59838245618E+03 -0.81282092081E+03  0.63700989546E+02  0.10113453017E+04  0.46999998093E+01 0.  1.
       -5    1    3    3    0  502  0.59838245618E+03  0.81282092081E+03 -0.25884243691E+04  0.27782552470E+04  0.46999998093E+01 0. -1.
</event>
<event>
 5   0  0.1908726E-06  0.3179005E+04  0.7818609E-02  0.8194384E-01
       -2   -1    0    0    0  501  0.00000000000E+00  0.00000000000E+00  0.88987163610E+03  0.88987163610E+03  0.25500000920E-02 0. -1.
        2   -1    0    0  501    0  0.00000000000E+00  0.00000000000E+00 -0.28391946612E+04  0.28391946612E+04  0.25500000920E-02 0.  1.
    10030    2    1    2    0    0  0.00000000000E+00  0.00000000000E+00 -0.19493230251E+04  0.37290662973E+04  0.31790053780E+04 0.  0.
        5    1    3    3  502    0  0.83782366311E+03 -0.13382673343E+04 -0.75967766696E+03  0.17521530173E+04  0.46999998093E+01 0. -1.
       -5    1    3    3    0  502 -0.83782366311E+03  0.13382673343E+04 -0.11896453582E+04  0.19769132800E+04  0.46999998093E+01 0.  1.
</event>
<event>
 5   0  0.1110956E-06  0.2862337E+04  0.7818609E-02  0.8284172E-01
       -1   -1    0    0    0  501  0.00000000000E+00  0.00000000000E+00  0.13591303780E+04  0.13591303780E+04  0.50400001928E-02 0. -1.
        1   -1    0    0  501    0  0.00000000000E+00  0.00000000000E+00 -0.15070252091E+04  0.15070252091E+04  0.50400001928E-02 0.  1.
    10030    2    1    2    0    0  0.00000000000E+00  0.00000000000E+00 -0.14789483114E+03  0.28661555871E+04  0.28623373261E+04 0.  0.
        1    1    3    3  502    0 -0.82531042267E+03 -0.60973584166E+03 -0.10729398541E+04  0.14846262226E+04  0.50400001928E-02 0.  1.
       -1    1    3    3    0  502  0.82531042267E+03  0.60973584166E+03  0.92504502296E+03  0.13815293645E+04  0.50400001928E-02 0. -1.
</event>
<event>
 5   0  0.1782660E-06  0.3466494E+04  0.7818609E-02  0.8121777E-01
        2   -1    0    0  501    0  0.00000000000E+00  0.00000000000E+00  0.21483539424E+04  0.21483539424E+04  0.25500000920E-02 0.  1.
       -2   -1    0    0    0  501  0.00000000000E+00  0.00000000000E+00 -0.13983472553E+04  0.13983472553E+04  0.25500000920E-02 0. -1.
    10030    2    1    2    0    0  0.00000000000E+00  0.00000000000E+00  0.75000668709E+03  0.35467011977E+04  0.34664938129E+04 0.  0.
        4    1    3    3  502    0 -0.19580310755E+03 -0.74244445625E+03  0.19648492227E+04  0.21095489348E+04  0.12699999809E+01 0.  1.
       -4    1    3    3    0  502  0.19580310755E+03  0.74244445625E+03 -0.12148425356E+04  0.14371522629E+04  0.12699999809E+01 0. -1.
</event>
<event>
 5   0  0.1130707E-06  0.3475545E+04  0.7818609E-02  0.8119610E-01
       -1   -1    0    0    0  501  0.00000000000E+00  0.00000000000E+00  0.18434971997E+04  0.18434971997E+04  0.50400001928E-02 0.  1.
        1   -1    0    0  501    0  0.00000000000E+00  0.00000000000E+00 -0.16381114272E+04  0.16381114272E+04  0.50400001928E-02 0. -1.
    10030    2    1    2    0    0  0.00000000000E+00  0.00000000000E+00  0.20538577256E+03  0.34816086269E+04  0.34755453263E+04 0.  0.
        3    1    3    3  502    0  0.17046373340E+04  0.13472902808E+03 -0.20754639668E+03  0.17225027920E+04  0.10100000352E+00 0. -1.
       -3    1    3    3    0  502 -0.17046373340E+04 -0.13472902808E+03  0.41293216925E+03  0.17591058349E+04  0.10100000352E+00 0.  1.
</event>
<event>
 5   0  0.3378848E-06  0.3618592E+04  0.7818609E-02  0.8086246E-01
       -2   -1    0    0    0  501  0.00000000000E+00  0.00000000000E+00  0.15178352678E+04  0.15178352678E+04  0.25500000920E-02 0.  1.
        2   -1    0    0  501    0  0.00000000000E+00  0.00000000000E+00 -0.21567238980E+04  0.21567238980E+04  0.25500000920E-02 0. -1.
    10030    2    1    2    0    0  0.00000000000E+00  0.00000000000E+00 -0.63888863018E+03  0.36745591658E+04  0.36185917677E+04 0.  0.
        1    1    3    3  502    0  0.51155874347E+03  0.80789581625E+03  0.12402686523E+04  0.15660952486E+04  0.50400001928E-02 0.  1.
       -1    1    3    3    0  502 -0.51155874347E+03 -0.80789581625E+03 -0.18791572825E+04  0.21084639172E+04  0.50400001928E-02 0. -1.
</event>
<event>
 5   0  0.3378848E-06  0.3333084E+04  0.7818609E-02  0.8154528E-01
       -2   -1    0    0    0  501  0.00000000000E+00  0.00000000000E+00  0.19134815430E+04  0.19134815430E+04  0.25500000920E-02 0.  1.
        2   -1    0    0  501    0  0.00000000000E+00  0.00000000000E+00 -0.14514708948E+04  0.14514708948E+04  0.25500000920E-02 0. -1.
    10030    2    1    2    0    0  0.00000000000E+00  0.00000000000E+00  0.46201064825E+03  0.33649524378E+04  0.33330843178E+04 0.  0.
        1    1    3    3  502    0 -0.91248203327E+03  0.11854380841E+04  0.97251809606E+03  0.17842865127E+04  0.50400001928E-02 0.  1.
       -1    1    3    3    0  502  0.91248203327E+03 -0.11854380841E+04 -0.51050744780E+03  0.15806659251E+04  0.50400001928E-02 0. -1.
</event>
<event>
 5   0  0.1130707E-06  0.2011923E+04  0.7818609E-02  0.8601067E-01
       -1   -1    0    0    0  501  0.00000000000E+00  0.00000000000E+00  0.80824052848E+03  0.80824052850E+03  0.50400001928E-02 0.  1.
        1   -1    0    0  501    0  0.00000000000E+00  0.00000000000E+00 -0.12520508304E+04  0.12520508304E+04  0.50400001928E-02 0. -1.
    10030    2    1    2    0    0  0.00000000000E+00  0.00000000000E+00 -0.44381030194E+03  0.20602913589E+04  0.20119226873E+04 0.  0.
        3    1    3    3  502    0 -0.89863204185E+03  0.30947061600E+02 -0.68381570390E+03  0.11296464909E+04  0.10100000352E+00 0.  1.
       -3    1    3    3    0  502  0.89863204185E+03 -0.30947061600E+02  0.24000540196E+03  0.93064486805E+03  0.10100000352E+00 0. -1.
</event>
<event>
 5   0  0.1130707E-06  0.2728510E+04  0.7818609E-02  0.8325813E-01
        1   -1    0    0  501    0  0.00000000000E+00  0.00000000000E+00  0.78556264635E+03  0.78556264637E+03  0.50400001928E-02 0. -1.
       -1   -1    0    0    0  501  0.00000000000E+00  0.00000000000E+00 -0.23692458429E+04  0.23692458429E+04  0.50400001928E-02 0.  1.
    10030    2    1    2    0    0  0.00000000000E+00  0.00000000000E+00 -0.15836831965E+04  0.31548084893E+04  0.27285095083E+04 0.  0.
        3    1    3    3  502    0  0.84174981180E+03 -0.81587797130E+03  0.15036972543E+02  0.11723590450E+04  0.10100000352E+00 0. -1.
       -3    1    3    3    0  502 -0.84174981180E+03  0.81587797130E+03 -0.15987201691E+04  0.19824494442E+04  0.10100000352E+00 0.  1.
</event>
<event>
 5   0  0.1130707E-06  0.1957860E+04  0.7818609E-02  0.8626580E-01
       -1   -1    0    0    0  501  0.00000000000E+00  0.00000000000E+00  0.10079700010E+04  0.10079700011E+04  0.50400001928E-02 0. -1.
        1   -1    0    0  501    0  0.00000000000E+00  0.00000000000E+00 -0.95072692576E+03  0.95072692577E+03  0.50400001928E-02 0.  1.
    10030    2    1    2    0    0  0.00000000000E+00  0.00000000000E+00  0.57243075292E+02  0.19586969268E+04  0.19578602814E+04 0.  0.
        3    1    3    3  502    0  0.12742338336E+03 -0.60410968829E+03 -0.73138656614E+03  0.95713716543E+03  0.10100000352E+00 0.  1.
       -3    1    3    3    0  502 -0.12742338336E+03  0.60410968829E+03  0.78862964143E+03  0.10015597614E+04  0.10100000352E+00 0. -1.
</event>
<event>
 5   0  0.1130707E-06  0.1910406E+04  0.7818609E-02  0.8649694E-01
       -1   -1    0    0    0  501  0.00000000000E+00  0.00000000000E+00  0.10187004647E+04  0.10187004647E+04  0.50400001928E-02 0. -1.
        1   -1    0    0  501    0  0.00000000000E+00  0.00000000000E+00 -0.89566378146E+03  0.89566378148E+03  0.50400001928E-02 0.  1.
    10030    2    1    2    0    0  0.00000000000E+00  0.00000000000E+00  0.12303668322E+03  0.19143642462E+04  0.19104063551E+04 0.  0.
        3    1    3    3  502    0 -0.52069789160E+02  0.71765012696E+03 -0.56801893803E+03  0.91672159996E+03  0.10100000352E+00 0.  1.
       -3    1    3    3    0  502  0.52069789160E+02 -0.71765012696E+03  0.69105562126E+03  0.99764264621E+03  0.10100000352E+00 0. -1.
</event>
<event>
 5   0  0.1102175E-06  0.3572463E+04  0.7818609E-02  0.8096829E-01
        1   -1    0    0  501    0  0.00000000000E+00  0.00000000000E+00  0.21614654801E+04  0.21614654801E+04  0.50400001928E-02 0.  1.
       -1   -1    0    0    0  501  0.00000000000E+00  0.00000000000E+00 -0.14761384671E+04  0.14761384671E+04  0.50400001928E-02 0. -1.
    10030    2    1    2    0    0  0.00000000000E+00  0.00000000000E+00  0.68532701302E+03  0.36376039473E+04  0.35724626468E+04 0.  0.
        5    1    3    3  502    0  0.78098111724E+03 -0.80720823589E+03  0.17569039130E+04  0.20852458107E+04  0.46999998093E+01 0.  1.
       -5    1    3    3    0  502 -0.78098111724E+03  0.80720823589E+03 -0.10715769000E+04  0.15523581366E+04  0.46999998093E+01 0. -1.
</event>
<event>
 5   0  0.3378848E-06  0.3719381E+04  0.7818609E-02  0.8063680E-01
       -2   -1    0    0    0  501  0.00000000000E+00  0.00000000000E+00  0.16477507719E+04  0.16477507719E+04  0.25500000920E-02 0.  1.
        2   -1    0    0  501    0  0.00000000000E+00  0.00000000000E+00 -0.20988906477E+04  0.20988906477E+04  0.25500000920E-02 0. -1.
    10030    2    1    2    0    0  0.00000000000E+00  0.00000000000E+00 -0.45113987583E+03  0.37466414195E+04  0.37193809618E+04 0.  0.
        1    1    3    3  502    0 -0.70080740132E+03 -0.84719866391E+03  0.12852803243E+04  0.16913964946E+04  0.50400001928E-02 0.  1.
       -1    1    3    3    0  502  0.70080740132E+03  0.84719866391E+03 -0.17364202002E+04  0.20552449249E+04  0.50400001928E-02 0. -1.
</event>
<event>
 5   0  0.1130707E-06  0.2405638E+04  0.7818609E-02  0.8437396E-01
       -1   -1    0    0    0  501  0.00000000000E+00  0.00000000000E+00  0.84247275827E+03  0.84247275828E+03  0.50400001928E-02 0. -1.
        1   -1    0    0  501    0  0.00000000000E+00  0.00000000000E+00 -0.17172942049E+04  0.17172942049E+04  0.50400001928E-02 0.  1.
    10030    2    1    2    0    0  0.00000000000E+00  0.00000000000E+00 -0.87482144659E+03  0.25597669631E+04  0.24056380322E+04 0.  0.
        3    1    3    3  502    0  0.31708257541E+03  0.10618977616E+04 -0.93491927623E+03  0.14499111279E+04  0.10100000352E+00 0.  1.
       -3    1    3    3    0  502 -0.31708257541E+03 -0.10618977616E+04  0.60097829640E+02  0.11098558352E+04  0.10100000352E+00 0. -1.
</event>
<event>
 5   0  0.3041329E-06  0.1824620E+04  0.7818609E-02  0.8693315E-01
        2   -1    0    0  501    0  0.00000000000E+00  0.00000000000E+00  0.15883764497E+04  0.15883764497E+04  0.25500000920E-02 0. -1.
       -2   -1    0    0    0  501  0.00000000000E+00  0.00000000000E+00 -0.52400033923E+03  0.52400033924E+03  0.25500000920E-02 0.  1.
    10030    2    1    2    0    0  0.00000000000E+00  0.00000000000E+00  0.10643761105E+04  0.21123767890E+04  0.18246202876E+04 0.  0.
        2    1    3    3  502    0  0.96384198782E+02  0.78651368731E+03  0.87606695770E+01  0.79244586152E+03  0.25500000920E-02 0.  1.
       -2    1    3    3    0  502 -0.96384198782E+02 -0.78651368731E+03  0.10556154409E+04  0.13199309274E+04  0.25500000920E-02 0. -1.
</event>
<event>
 5   0  0.1782660E-06  0.3372857E+04  0.7818609E-02  0.8144600E-01
       -2   -1    0    0    0  501  0.00000000000E+00  0.00000000000E+00  0.11077927044E+04  0.11077927044E+04  0.25500000920E-02 0. -1.
        2   -1    0    0  501    0  0.00000000000E+00  0.00000000000E+00 -0.25673039717E+04  0.25673039717E+04  0.25500000920E-02 0.  1.
    10030    2    1    2    0    0  0.00000000000E+00  0.00000000000E+00 -0.14595112673E+04  0.36750966762E+04  0.33728567179E+04 0.  0.
        4    1    3    3  502    0  0.44138450506E+03 -0.12896431778E+04 -0.18117324712E+04  0.22672397243E+04  0.12699999809E+01 0.  1.
       -4    1    3    3    0  502 -0.44138450506E+03  0.12896431778E+04  0.35222120394E+03  0.14078569518E+04  0.12699999809E+01 0. -1.
</event>
<event>
 5   0  0.1125196E-06  0.3537084E+04  0.7818609E-02  0.8105057E-01
        1   -1    0    0  501    0  0.00000000000E+00  0.00000000000E+00  0.13142763729E+04  0.13142763729E+04  0.50400001928E-02 0.  1.
       -1   -1    0    0    0  501  0.00000000000E+00  0.00000000000E+00 -0.23798202561E+04  0.23798202561E+04  0.50400001928E-02 0. -1.
    10030    2    1    2    0    0  0.00000000000E+00  0.00000000000E+00 -0.10655438832E+04  0.36940966290E+04  0.35370844120E+04 0.  0.
        4    1    3    3  502    0 -0.14814639695E+04 -0.15129362382E+03  0.46357566974E+03  0.15596567789E+04  0.12699999809E+01 0. -1.
       -4    1    3    3    0  502  0.14814639695E+04  0.15129362382E+03 -0.15291195529E+04  0.21344398501E+04  0.12699999809E+01 0.  1.
</event>
<event>
 5   0  0.1782660E-06  0.3554601E+04  0.7818609E-02  0.8100971E-01
        2   -1    0    0  501    0  0.00000000000E+00  0.00000000000E+00  0.23034166986E+04  0.23034166986E+04  0.25500000920E-02 0. -1.
       -2   -1    0    0    0  501  0.00000000000E+00  0.00000000000E+00 -0.13713525853E+04  0.13713525853E+04  0.25500000920E-02 0.  1.
    10030    2    1    2    0    0  0.00000000000E+00  0.00000000000E+00  0.93206411327E+03  0.36747692840E+04  0.35546006497E+04 0.  0.
        4    1    3    3  502    0  0.49833566152E+03  0.16827791062E+04  0.75607122128E+03  0.19109498310E+04  0.12699999809E+01 0. -1.
       -4    1    3    3    0  502 -0.49833566152E+03 -0.16827791062E+04  0.17599289199E+03  0.17638194530E+04  0.12699999809E+01 0.  1.
</event>
<event>
 5   0  0.1782660E-06  0.3567261E+04  0.7818609E-02  0.8098032E-01
       -2   -1    0    0    0  501  0.00000000000E+00  0.00000000000E+00  0.16178263421E+04  0.16178263421E+04  0.25500000920E-02 0. -1.
        2   -1    0    0  501    0  0.00000000000E+00  0.00000000000E+00 -0.19664267775E+04  0.19664267775E+04  0.25500000920E-02 0.  1.
    10030    2    1    2    0    0  0.00000000000E+00  0.00000000000E+00 -0.34860043534E+03  0.35842531196E+04  0.35672605963E+04 0.  0.
        4    1    3    3  502    0 -0.12437105079E+04  0.44711226051E+03  0.10291573893E+04  0.16750796237E+04  0.12699999809E+01 0.  1.
       -4    1    3    3    0  502  0.12437105079E+04 -0.44711226051E+03 -0.13777578247E+04  0.19091734959E+04  0.12699999809E+01 0. -1.
</event>
<event>
 5   0  0.2565004E-06  0.3435101E+04  0.7818609E-02  0.8129345E-01
        2   -1    0    0  501    0  0.00000000000E+00  0.00000000000E+00  0.21037012289E+04  0.21037012289E+04  0.25500000920E-02 0. -1.
       -2   -1    0    0    0  501  0.00000000000E+00  0.00000000000E+00 -0.14022804602E+04  0.14022804602E+04  0.25500000920E-02 0.  1.
    10030    2    1    2    0    0  0.00000000000E+00  0.00000000000E+00  0.70142076864E+03  0.35059816891E+04  0.34351006550E+04 0.  0.
        3    1    3    3  502    0  0.49235739963E+03 -0.16322457632E+04  0.13823922716E+03  0.17104830121E+04  0.10100000352E+00 0. -1.
       -3    1    3    3    0  502 -0.49235739963E+03  0.16322457632E+04  0.56318154148E+03  0.17954986771E+04  0.10100000352E+00 0.  1.
</event>
<event>
 5   0  0.1102175E-06  0.3263052E+04  0.7818609E-02  0.8172361E-01
       -1   -1    0    0    0  501  0.00000000000E+00  0.00000000000E+00  0.14836594107E+04  0.14836594107E+04  0.50400001928E-02 0. -1.
        1   -1    0    0  501    0  0.00000000000E+00  0.00000000000E+00 -0.17941289990E+04  0.17941289990E+04  0.50400001928E-02 0.  1.
    10030    2    1    2    0    0  0.00000000000E+00  0.00000000000E+00 -0.31046958830E+03  0.32777884098E+04  0.32630515616E+04 0.  0.
        5    1    3    3  502    0  0.27936587574E+03 -0.49331936472E+03  0.13815257381E+04  0.14933334334E+04  0.46999998093E+01 0. -1.
       -5    1    3    3    0  502 -0.27936587574E+03  0.49331936472E+03 -0.16919953264E+04  0.17844549764E+04  0.46999998093E+01 0.  1.
</event>
<event>
 5   0  0.1908726E-06  0.3432650E+04  0.7818609E-02  0.8129939E-01
       -2   -1    0    0    0  501  0.00000000000E+00  0.00000000000E+00  0.25482922117E+04  0.25482922117E+04  0.25500000920E-02 0. -1.
        2   -1    0    0  501    0  0.00000000000E+00  0.00000000000E+00 -0.11559787851E+04  0.11559787851E+04  0.25500000920E-02 0.  1.
    10030    2    1    2    0    0  0.00000000000E+00  0.00000000000E+00  0.13923134266E+04  0.37042709967E+04  0.34326501336E+04 0.  0.
        5    1    3    3  502    0  0.30756089014E+03  0.78391950669E+03 -0.91771834348E+03  0.12455330353E+04  0.46999998093E+01 0.  1.
       -5    1    3    3    0  502 -0.30756089014E+03 -0.78391950669E+03  0.23100317701E+04  0.24587379614E+04  0.46999998093E+01 0. -1.
</event>
<event>
 5   0  0.1908726E-06  0.3506309E+04  0.7818609E-02  0.8112296E-01
        2   -1    0    0  501    0  0.00000000000E+00  0.00000000000E+00  0.20504730267E+04  0.20504730267E+04  0.25500000920E-02 0. -1.
       -2   -1    0    0    0  501  0.00000000000E+00  0.00000000000E+00 -0.14989474430E+04  0.14989474430E+04  0.25500000920E-02 0.  1.
    10030    2    1    2    0    0  0.00000000000E+00  0.00000000000E+00  0.55152558379E+03  0.35494204697E+04  0.35063093419E+04 0.  0.
        5    1    3    3  502    0  0.62598430274E+03  0.15267204101E+04  0.87532680802E+03  0.18678733010E+04  0.46999998093E+01 0. -1.
       -5    1    3    3    0  502 -0.62598430274E+03 -0.15267204101E+04 -0.32380122423E+03  0.16815471687E+04  0.46999998093E+01 0.  1.
</event>
<event>
 5   0  0.3378848E-06  0.3468199E+04  0.7818609E-02  0.8121368E-01
       -2   -1    0    0    0  501  0.00000000000E+00  0.00000000000E+00  0.12402651669E+04  0.12402651669E+04  0.25500000920E-02 0.  1.
        2   -1    0    0  501    0  0.00000000000E+00  0.00000000000E+00 -0.24245632444E+04  0.24245632444E+04  0.25500000920E-02 0. -1.
    10030    2    1    2    0    0  0.00000000000E+00  0.00000000000E+00 -0.11842980775E+04  0.36648284113E+04  0.34681991506E+04 0.  0.
        1    1    3    3  502    0  0.42756383424E+03 -0.51890211923E+03  0.10969212128E+04  0.12865871089E+04  0.50400001928E-02 0.  1.
       -1    1    3    3    0  502 -0.42756383424E+03  0.51890211923E+03 -0.22812192903E+04  0.23782413023E+04  0.50400001928E-02 0. -1.
</event>
<event>
 5   0  0.1782660E-06  0.3420748E+04  0.7818609E-02  0.8132833E-01
       -2   -1    0    0    0  501  0.00000000000E+00  0.00000000000E+00  0.12457566143E+04  0.12457566143E+04  0.25500000920E-02 0. -1.
        2   -1    0    0  501    0  0.00000000000E+00  0.00000000000E+00 -0.23482747718E+04  0.23482747718E+04  0.25500000920E-02 0.  1.
    10030    2    1    2    0    0  0.00000000000E+00  0.00000000000E+00 -0.11025181575E+04  0.35940313860E+04  0.34207477715E+04 0.  0.
        4    1    3    3  502    0  0.12129623442E+04  0.10333111016E+04 -0.12043313412E+04  0.19973545188E+04  0.12699999809E+01 0.  1.
       -4    1    3    3    0  502 -0.12129623442E+04 -0.10333111016E+04  0.10181318374E+03  0.15966768673E+04  0.12699999809E+01 0. -1.
</event>
<event>
 5   0  0.1782660E-06  0.1838706E+04  0.7818609E-02  0.8685983E-01
       -2   -1    0    0    0  501  0.00000000000E+00  0.00000000000E+00  0.56853747019E+03  0.56853747020E+03  0.25500000920E-02 0. -1.
        2   -1    0    0  501    0  0.00000000000E+00  0.00000000000E+00 -0.14866388579E+04  0.14866388579E+04  0.25500000920E-02 0.  1.
    10030    2    1    2    0    0  0.00000000000E+00  0.00000000000E+00 -0.91810138773E+03  0.20551763281E+04  0.18387059530E+04 0.  0.
        4    1    3    3  502    0 -0.50624255230E+03 -0.37329945985E+03 -0.12084918390E+04  0.13623832597E+04  0.12699999809E+01 0.  1.
       -4    1    3    3    0  502  0.50624255230E+03  0.37329945985E+03  0.29039045131E+03  0.69279306838E+03  0.12699999809E+01 0. -1.
</event>
<event>
 5   0  0.1125196E-06  0.1755574E+04  0.7818609E-02  0.8730288E-01
       -1   -1    0    0    0  501  0.00000000000E+00  0.00000000000E+00  0.64786992902E+03  0.64786992904E+03  0.50400001928E-02 0.  1.
        1   -1    0    0  501    0  0.00000000000E+00  0.00000000000E+00 -0.11892980105E+04  0.11892980105E+04  0.50400001928E-02 0. -1.
    10030    2    1    2    0    0  0.00000000000E+00  0.00000000000E+00 -0.54142808150E+03  0.18371679396E+04  0.17555744561E+04 0.  0.
        4    1    3    3  502    0  0.33197152296E+03  0.68602764425E+03  0.18503806050E+03  0.78427018143E+03  0.12699999809E+01 0.  1.
       -4    1    3    3    0  502 -0.33197152296E+03 -0.68602764425E+03 -0.72646614201E+03  0.10528977582E+04  0.12699999809E+01 0. -1.
</event>
<event>
 5   0  0.1125196E-06  0.1875483E+04  0.7818609E-02  0.8667157E-01
        1   -1    0    0  501    0  0.00000000000E+00  0.00000000000E+00  0.76895105316E+03  0.76895105318E+03  0.50400001928E-02 0.  1.
       -1   -1    0    0    0  501  0.00000000000E+00  0.00000000000E+00 -0.11435826577E+04  0.11435826577E+04  0.50400001928E-02 0. -1.
    10030    2    1    2    0    0  0.00000000000E+00  0.00000000000E+00 -0.37463160458E+03  0.19125337109E+04  0.18754829661E+04 0.  0.
        4    1    3    3  502    0 -0.83357044651E+03 -0.10004222790E+03  0.23867999272E+03  0.87282179652E+03  0.12699999809E+01 0.  1.
       -4    1    3    3    0  502  0.83357044651E+03  0.10004222790E+03 -0.61331159730E+03  0.10397119144E+04  0.12699999809E+01 0. -1.
</event>
<event>
 5   0  0.1908726E-06  0.3317660E+04  0.7818609E-02  0.8158416E-01
       -2   -1    0    0    0  501  0.00000000000E+00  0.00000000000E+00  0.13406106688E+04  0.13406106688E+04  0.25500000920E-02 0.  1.
        2   -1    0    0  501    0  0.00000000000E+00  0.00000000000E+00 -0.20525841389E+04  0.20525841389E+04  0.25500000920E-02 0. -1.
    10030    2    1    2    0    0  0.00000000000E+00  0.00000000000E+00 -0.71197347010E+03  0.33931948078E+04  0.33176595337E+04 0.  0.
        5    1    3    3  502    0 -0.49013448183E+02 -0.94484782823E+02 -0.20490809964E+04  0.20518490958E+04  0.46999998093E+01 0. -1.
       -5    1    3    3    0  502  0.49013448183E+02  0.94484782823E+02  0.13371075263E+04  0.13413457120E+04  0.46999998093E+01 0.  1.
</event>
<event>
 5   0  0.1782660E-06  0.3486575E+04  0.7818609E-02  0.8116979E-01
       -2   -1    0    0    0  501  0.00000000000E+00  0.00000000000E+00  0.95477458096E+03  0.95477458096E+03  0.25500000920E-02 0.  1.
        2   -1    0    0  501    0  0.00000000000E+00  0.00000000000E+00 -0.31830036725E+04  0.31830036725E+04  0.25500000920E-02 0. -1.
    10030    2    1    2    0    0  0.00000000000E+00  0.00000000000E+00 -0.22282290915E+04  0.41377782534E+04  0.34865748221E+04 0.  0.
        4    1    3    3  502    0 -0.33735913117E+03 -0.11243029818E+04 -0.26437104132E+04  0.28925896252E+04  0.12699999809E+01 0. -1.
       -4    1    3    3    0  502  0.33735913117E+03  0.11243029818E+04  0.41548132167E+03  0.12451886282E+04  0.12699999809E+01 0.  1.
</event>
<event>
 5   0  0.1782660E-06  0.3473047E+04  0.7818609E-02  0.8120207E-01
       -2   -1    0    0    0  501  0.00000000000E+00  0.00000000000E+00  0.14449123880E+04  0.14449123880E+04  0.25500000920E-02 0. -1.
        2   -1    0    0  501    0  0.00000000000E+00  0.00000000000E+00 -0.20869871280E+04  0.20869871280E+04  0.25500000920E-02 0.  1.
    10030    2    1    2    0    0  0.00000000000E+00  0.00000000000E+00 -0.64207474003E+03  0.35318995160E+04  0.34730468208E+04 0.  0.
        4    1    3    3  502    0 -0.20735936083E+03 -0.60112445828E+03  0.13222545803E+04  0.14672107234E+04  0.12699999809E+01 0. -1.
       -4    1    3    3    0  502  0.20735936083E+03  0.60112445828E+03 -0.19643293203E+04  0.20646887926E+04  0.12699999809E+01 0.  1.
</event>
<event>
 5   0  0.1110956E-06  0.3184791E+04  0.7818609E-02  0.8192845E-01
        1   -1    0    0  501    0  0.00000000000E+00  0.00000000000E+00  0.17807881870E+04  0.17807881870E+04  0.50400001928E-02 0.  1.
       -1   -1    0    0    0  501  0.00000000000E+00  0.00000000000E+00 -0.14239329191E+04  0.14239329191E+04  0.50400001928E-02 0. -1.
    10030    2    1    2    0    0  0.00000000000E+00  0.00000000000E+00  0.35685526784E+03  0.32047211061E+04  0.31847906816E+04 0.  0.
        1    1    3    3  502    0  0.13214078284E+04 -0.75889532922E+03 -0.28672284327E+03  0.15505646580E+04  0.50400001928E-02 0. -1.
       -1    1    3    3    0  502 -0.13214078284E+04  0.75889532922E+03  0.64357811111E+03  0.16541564481E+04  0.50400001928E-02 0.  1.
</event>
<event>
 5   0  0.1102175E-06  0.3544632E+04  0.7818609E-02  0.8103294E-01
       -1   -1    0    0    0  501  0.00000000000E+00  0.00000000000E+00  0.12319672597E+04  0.12319672597E+04  0.50400001928E-02 0. -1.
        1   -1    0    0  501    0  0.00000000000E+00  0.00000000000E+00 -0.25496646024E+04  0.25496646024E+04  0.50400001928E-02 0.  1.
    10030    2    1    2    0    0  0.00000000000E+00  0.00000000000E+00 -0.13176973427E+04  0.37816318621E+04  0.35446316104E+04 0.  0.
        5    1    3    3  502    0 -0.32416650958E+03  0.65599282299E+02  0.11987454445E+04  0.12435432933E+04  0.46999998093E+01 0. -1.
       -5    1    3    3    0  502  0.32416650958E+03 -0.65599282299E+02 -0.25164427872E+04  0.25380885688E+04  0.46999998093E+01 0.  1.
</event>
<event>
 5   0  0.1782660E-06  0.1979504E+04  0.7818609E-02  0.8616263E-01
       -2   -1    0    0    0  501  0.00000000000E+00  0.00000000000E+00  0.56411310007E+03  0.56411310007E+03  0.25500000920E-02 0.  1.
        2   -1    0    0  501    0  0.00000000000E+00  0.00000000000E+00 -0.17365477872E+04  0.17365477872E+04  0.25500000920E-02 0. -1.
    10030    2    1    2    0    0  0.00000000000E+00  0.00000000000E+00 -0.11724346872E+04  0.23006608873E+04  0.19795043376E+04 0.  0.
        4    1    3    3  502    0 -0.35054509534E+02  0.93915681123E+01 -0.17357733078E+04  0.17361531065E+04  0.12699999809E+01 0. -1.
       -4    1    3    3    0  502  0.35054509534E+02 -0.93915681123E+01  0.56333862064E+03  0.56450778081E+03  0.12699999809E+01 0.  1.
</event>
<event>
 5   0  0.1125196E-06  0.3508271E+04  0.7818609E-02  0.8111833E-01
       -1   -1    0    0    0  501  0.00000000000E+00  0.00000000000E+00  0.19022633867E+04  0.19022633867E+04  0.50400001928E-02 0. -1.
        1   -1    0    0  501    0  0.00000000000E+00  0.00000000000E+00 -0.16175423198E+04  0.16175423198E+04  0.50400001928E-02 0.  1.
    10030    2    1    2    0    0  0.00000000000E+00  0.00000000000E+00  0.28472106683E+03  0.35198057065E+04  0.35082711021E+04 0.  0.
        4    1    3    3  502    0  0.11521254699E+04 -0.39578192013E+03  0.14086327936E+04  0.18623330494E+04  0.12699999809E+01 0. -1.
       -4    1    3    3    0  502 -0.11521254699E+04  0.39578192013E+03 -0.11239117268E+04  0.16574726571E+04  0.12699999809E+01 0.  1.
</event>
<event>
 5   0  0.1130707E-06  0.3229662E+04  0.7818609E-02  0.8181027E-01
       -1   -1    0    0    0  501  0.00000000000E+00  0.00000000000E+00  0.19042505109E+04  0.19042505109E+04  0.50400001928E-02 0.  1.
        1   -1    0    0  501    0  0.00000000000E+00  0.00000000000E+00 -0.13693988656E+04  0.13693988656E+04  0.50400001928E-02 0. -1.
    10030    2    1    2    0    0  0.00000000000E+00  0.00000000000E+00  0.53485164527E+03  0.32736493766E+04  0.32296615857E+04 0.  0.
        3    1    3    3  502    0  0.51352055779E+03 -0.14515956066E+04  0.76072176159E+03  0.17174198022E+04  0.10100000352E+00 0.  1.
       -3    1    3    3    0  502 -0.51352055779E+03  0.14515956066E+04 -0.22587011632E+03  0.15562295743E+04  0.10100000352E+00 0. -1.
</event>
<event>
 5   0  0.1110956E-06  0.3400205E+04  0.7818609E-02  0.8137856E-01
        1   -1    0    0  501    0  0.00000000000E+00  0.00000000000E+00  0.22765371816E+04  0.22765371816E+04  0.50400001928E-02 0. -1.
       -1   -1    0    0    0  501  0.00000000000E+00  0.00000000000E+00 -0.12696251563E+04  0.12696251563E+04  0.50400001928E-02 0.  1.
    10030    2    1    2    0    0  0.00000000000E+00  0.00000000000E+00  0.10069120254E+04  0.35461623379E+04  0.34002052144E+04 0.  0.
        1    1    3    3  502    0 -0.12669454044E+03  0.40068183733E+03 -0.12146047401E+04  0.12852478812E+04  0.50400001928E-02 0.  1.
       -1    1    3    3    0  502  0.12669454044E+03 -0.40068183733E+03  0.22215167655E+04  0.22609144567E+04  0.50400001928E-02 0. -1.
</event>
<event>
 5   0  0.2565004E-06  0.3487432E+04  0.7818609E-02  0.8116775E-01
       -2   -1    0    0    0  501  0.00000000000E+00  0.00000000000E+00  0.15119653391E+04  0.15119653391E+04  0.25500000920E-02 0. -1.
        2   -1    0    0  501    0  0.00000000000E+00  0.00000000000E+00 -0.20109883152E+04  0.20109883152E+04  0.25500000920E-02 0.  1.
    10030    2    1    2    0    0  0.00000000000E+00  0.00000000000E+00 -0.49902297610E+03  0.35229536544E+04  0.34874315076E+04 0.  0.
        3    1    3    3  502    0 -0.52783274432E+03 -0.16236440083E+04 -0.60768943996E+03  0.18122123875E+04  0.10100000352E+00 0.  1.
       -3    1    3    3    0  502  0.52783274432E+03  0.16236440083E+04  0.10866646386E+03  0.17107412669E+04  0.10100000352E+00 0. -1.
</event>
<event>
 5   0  0.1102175E-06  0.3570926E+04  0.7818609E-02  0.8097184E-01
       -1   -1    0    0    0  501  0.00000000000E+00  0.00000000000E+00  0.12614916680E+04  0.12614916681E+04  0.50400001928E-02 0.  1.
        1   -1    0    0  501    0  0.00000000000E+00  0.00000000000E+00 -0.25270698558E+04  0.25270698558E+04  0.50400001928E-02 0. -1.
    10030    2    1    2    0    0  0.00000000000E+00  0.00000000000E+00 -0.12655781877E+04  0.37885615238E+04  0.35709256882E+04 0.  0.
        5    1    3    3  502    0  0.36322032686E+03 -0.83882935286E+03  0.99440413381E+03  0.13507129082E+04  0.46999998093E+01 0.  1.
       -5    1    3    3    0  502 -0.36322032686E+03  0.83882935286E+03 -0.22599823215E+04  0.24378486156E+04  0.46999998093E+01 0. -1.
</event>
<event>
 5   0  0.2565004E-06  0.3536340E+04  0.7818609E-02  0.8105231E-01
       -2   -1    0    0    0  501  0.00000000000E+00  0.00000000000E+00  0.12940210354E+04  0.12940210354E+04  0.25500000920E-02 0. -1.
        2   -1    0    0  501    0  0.00000000000E+00  0.00000000000E+00 -0.24160548368E+04  0.24160548368E+04  0.25500000920E-02 0.  1.
    10030    2    1    2    0    0  0.00000000000E+00  0.00000000000E+00 -0.11220338014E+04  0.37100758722E+04  0.35363403578E+04 0.  0.
        3    1    3    3  502    0  0.70158811115E+02  0.16162582742E+04 -0.13096660728E+04  0.20814510084E+04  0.10100000352E+00 0.  1.
       -3    1    3    3    0  502 -0.70158811115E+02 -0.16162582742E+04  0.18763227144E+03  0.16286248639E+04  0.10100000352E+00 0. -1.
</event>
<event>
 5   0  0.3041329E-06  0.3488611E+04  0.7818609E-02  0.8116494E-01
       -2   -1    0    0    0  501  0.00000000000E+00  0.00000000000E+00  0.12844529231E+04  0.12844529231E+04  0.25500000920E-02 0.  1.
        2   -1    0    0  501    0  0.00000000000E+00  0.00000000000E+00 -0.23687915310E+04  0.23687915310E+04  0.25500000920E-02 0. -1.
    10030    2    1    2    0    0  0.00000000000E+00  0.00000000000E+00 -0.10843386079E+04  0.36532444541E+04  0.34886107299E+04 0.  0.
        2    1    3    3  502    0  0.10385795997E+04 -0.82512322872E+03 -0.17283770399E+04  0.21787067539E+04  0.25500000920E-02 0. -1.
       -2    1    3    3    0  502 -0.10385795997E+04  0.82512322872E+03  0.64403843197E+03  0.14745377002E+04  0.25500000920E-02 0.  1.
</event>
<event>
 5   0  0.1089337E-06  0.3260563E+04  0.7818609E-02  0.8173003E-01
       -1   -1    0    0    0  501  0.00000000000E+00  0.00000000000E+00  0.12001038412E+04  0.12001038412E+04  0.50400001928E-02 0. -1.
        1   -1    0    0  501    0  0.00000000000E+00  0.00000000000E+00 -0.22146571029E+04  0.22146571029E+04  0.50400001928E-02 0.  1.
    10030    2    1    2    0    0  0.00000000000E+00  0.00000000000E+00 -0.10145532617E+04  0.34147609441E+04  0.32605634459E+04 0.  0.
        2    1    3    3  502    0 -0.13669024314E+04 -0.34650863802E+03 -0.13640918021E+04  0.19619472312E+04  0.25500000920E-02 0.  1.
       -2    1    3    3    0  502  0.13669024314E+04  0.34650863802E+03  0.34953854041E+03  0.14528137129E+04  0.25500000920E-02 0. -1.
</event>
<event>
 5   0  0.2565004E-06  0.3527548E+04  0.7818609E-02  0.8107292E-01
        2   -1    0    0  501    0  0.00000000000E+00  0.00000000000E+00  0.19708075093E+04  0.19708075093E+04  0.25500000920E-02 0.  1.
       -2   -1    0    0    0  501  0.00000000000E+00  0.00000000000E+00 -0.15784889657E+04  0.15784889657E+04  0.25500000920E-02 0. -1.
    10030    2    1    2    0    0  0.00000000000E+00  0.00000000000E+00  0.39231854358E+03  0.35492964749E+04  0.35275475372E+04 0.  0.
        3    1    3    3  502    0  0.63698906500E+03  0.13987567978E+03  0.18450362616E+04  0.19569054887E+04  0.10100000352E+00 0.  1.
       -3    1    3    3    0  502 -0.63698906500E+03 -0.13987567978E+03 -0.14527177180E+04  0.15923909863E+04  0.10100000352E+00 0. -1.
</event>
<event>
 5   0  0.1110956E-06  0.3585204E+04  0.7818609E-02  0.8093889E-01
        1   -1    0    0  501    0  0.00000000000E+00  0.00000000000E+00  0.19155574053E+04  0.19155574053E+04  0.50400001928E-02 0. -1.
       -1   -1    0    0    0  501  0.00000000000E+00  0.00000000000E+00 -0.16775387097E+04  0.16775387097E+04  0.50400001928E-02 0.  1.
    10030    2    1    2    0    0  0.00000000000E+00  0.00000000000E+00  0.23801869564E+03  0.35930961150E+04  0.35852038704E+04 0.  0.
        1    1    3    3  502    0  0.13004651223E+04  0.34576420579E+03  0.13059556518E+04  0.18751753478E+04  0.50400001928E-02 0. -1.
       -1    1    3    3    0  502 -0.13004651223E+04 -0.34576420579E+03 -0.10679369562E+04  0.17179207673E+04  0.50400001928E-02 0.  1.
</event>
<event>
 5   0  0.3378848E-06  0.3741244E+04  0.7818609E-02  0.8058883E-01
       -2   -1    0    0    0  501  0.00000000000E+00  0.00000000000E+00  0.15478324224E+04  0.15478324224E+04  0.25500000920E-02 0. -1.
        2   -1    0    0  501    0  0.00000000000E+00  0.00000000000E+00 -0.22607271349E+04  0.22607271349E+04  0.25500000920E-02 0.  1.
    10030    2    1    2    0    0  0.00000000000E+00  0.00000000000E+00 -0.71289471243E+03  0.38085595573E+04  0.37412440485E+04 0.  0.
        1    1    3    3  502    0  0.11597278241E+03 -0.10911184936E+04  0.11858159582E+04  0.16155954754E+04  0.50400001928E-02 0. -1.
       -1    1    3    3    0  502 -0.11597278241E+03  0.10911184936E+04 -0.18987106707E+04  0.21929640819E+04  0.50400001928E-02 0.  1.
</event>
<event>
 5   0  0.2565004E-06  0.3437611E+04  0.7818609E-02  0.8128736E-01
       -2   -1    0    0    0  501  0.00000000000E+00  0.00000000000E+00  0.13509192935E+04  0.13509192935E+04  0.25500000920E-02 0. -1.
        2   -1    0    0  501    0  0.00000000000E+00  0.00000000000E+00 -0.21868759320E+04  0.21868759320E+04  0.25500000920E-02 0.  1.
    10030    2    1    2    0    0  0.00000000000E+00  0.00000000000E+00 -0.83595663845E+03  0.35377952256E+04  0.34376113155E+04 0.  0.
        3    1    3    3  502    0 -0.11806607650E+04 -0.11596359062E+04  0.59856441248E+02  0.16559885509E+04  0.10100000352E+00 0. -1.
       -3    1    3    3    0  502  0.11806607650E+04  0.11596359062E+04 -0.89581307970E+03  0.18818066747E+04  0.10100000352E+00 0.  1.
</event>
<event>
 5   0  0.1908726E-06  0.3427806E+04  0.7818609E-02  0.8131115E-01
        2   -1    0    0  501    0  0.00000000000E+00  0.00000000000E+00  0.28939077255E+04  0.28939077255E+04  0.25500000920E-02 0.  1.
       -2   -1    0    0    0  501  0.00000000000E+00  0.00000000000E+00 -0.10150509243E+04  0.10150509243E+04  0.25500000920E-02 0. -1.
    10030    2    1    2    0    0  0.00000000000E+00  0.00000000000E+00  0.18788568012E+04  0.39089586499E+04  0.34278061274E+04 0.  0.
        5    1    3    3  502    0  0.43107476910E+02  0.77344702449E+03  0.26828720477E+04  0.27924725726E+04  0.46999998093E+01 0.  1.
       -5    1    3    3    0  502 -0.43107476910E+02 -0.77344702449E+03 -0.80401524646E+03  0.11164860773E+04  0.46999998093E+01 0. -1.
</event>
<event>
 5   0  0.2565004E-06  0.1929457E+04  0.7818609E-02  0.8640331E-01
        2   -1    0    0  501    0  0.00000000000E+00  0.00000000000E+00  0.15514776435E+04  0.15514776436E+04  0.25500000920E-02 0.  1.
       -2   -1    0    0    0  501  0.00000000000E+00  0.00000000000E+00 -0.59988028897E+03  0.59988028898E+03  0.25500000920E-02 0. -1.
    10030    2    1    2    0    0  0.00000000000E+00  0.00000000000E+00  0.95159735458E+03  0.21513579325E+04  0.19294567703E+04 0.  0.
        3    1    3    3  502    0 -0.98090915122E+02 -0.54581004957E+03 -0.40440064749E+03  0.68634563577E+03  0.10100000352E+00 0. -1.
       -3    1    3    3    0  502  0.98090915122E+02  0.54581004957E+03  0.13559980021E+04  0.14650122968E+04  0.10100000352E+00 0.  1.
</event>
<event>
 5   0  0.3041329E-06  0.3564951E+04  0.7818609E-02  0.8098568E-01
       -2   -1    0    0    0  501  0.00000000000E+00  0.00000000000E+00  0.12530914896E+04  0.12530914896E+04  0.25500000920E-02 0. -1.
        2   -1    0    0  501    0  0.00000000000E+00  0.00000000000E+00 -0.25355044656E+04  0.25355044656E+04  0.25500000920E-02 0.  1.
    10030    2    1    2    0    0  0.00000000000E+00  0.00000000000E+00 -0.12824129760E+04  0.37885959553E+04  0.35649510896E+04 0.  0.
        2    1    3    3  502    0 -0.49019399072E+03 -0.89047905697E+03 -0.21972963455E+04  0.24210234054E+04  0.25500000920E-02 0.  1.
       -2    1    3    3    0  502  0.49019399072E+03  0.89047905697E+03  0.91488336949E+03  0.13675725499E+04  0.25500000920E-02 0. -1.
</event>
<event>
 5   0  0.1782660E-06  0.2525574E+04  0.7818609E-02  0.8393931E-01
       -2   -1    0    0    0  501  0.00000000000E+00  0.00000000000E+00  0.15320254825E+04  0.15320254825E+04  0.25500000920E-02 0.  1.
        2   -1    0    0  501    0  0.00000000000E+00  0.00000000000E+00 -0.10408646603E+04  0.10408646603E+04  0.25500000920E-02 0. -1.
    10030    2    1    2    0    0  0.00000000000E+00  0.00000000000E+00  0.49116082212E+03  0.25728901428E+04  0.25255741394E+04 0.  0.
        4    1    3    3  502    0 -0.16473660433E+03 -0.10716430466E+04  0.90506667702E+03  0.14123399983E+04  0.12699999809E+01 0.  1.
       -4    1    3    3    0  502  0.16473660433E+03  0.10716430466E+04 -0.41390585490E+03  0.11605501445E+04  0.12699999809E+01 0. -1.
</event>
<event>
 5   0  0.2565004E-06  0.3447104E+04  0.7818609E-02  0.8126441E-01
       -2   -1    0    0    0  501  0.00000000000E+00  0.00000000000E+00  0.14043122928E+04  0.14043122928E+04  0.25500000920E-02 0.  1.
        2   -1    0    0  501    0  0.00000000000E+00  0.00000000000E+00 -0.21153644188E+04  0.21153644188E+04  0.25500000920E-02 0. -1.
    10030    2    1    2    0    0  0.00000000000E+00  0.00000000000E+00 -0.71105212596E+03  0.35196767116E+04  0.34471044412E+04 0.  0.
        3    1    3    3  502    0  0.58106632601E+03  0.27061138812E+01 -0.20123359501E+04  0.20945504016E+04  0.10100000352E+00 0. -1.
       -3    1    3    3    0  502 -0.58106632601E+03 -0.27061138812E+01  0.13012838242E+04  0.14251263100E+04  0.10100000352E+00 0.  1.
</event>
<event>
 5   0  0.1782660E-06  0.3426158E+04  0.7818609E-02  0.8131516E-01
        2   -1    0    0  501    0  0.00000000000E+00  0.00000000000E+00  0.26873073990E+04  0.26873073990E+04  0.25500000920E-02 0.  1.
       -2   -1    0    0    0  501  0.00000000000E+00  0.00000000000E+00 -0.10920374700E+04  0.10920374700E+04  0.25500000920E-02 0. -1.
    10030    2    1    2    0    0  0.00000000000E+00  0.00000000000E+00  0.15952699290E+04  0.37793448690E+04  0.34261584161E+04 0.  0.
        4    1    3    3  502    0 -0.32201896901E+02  0.13910047391E+04 -0.30473726532E+03  0.14243586487E+04  0.12699999809E+01 0. -1.
       -4    1    3    3    0  502  0.32201896901E+02 -0.13910047391E+04  0.19000071943E+04  0.23549862203E+04  0.12699999809E+01 0.  1.
</event>
<event>
 5   0  0.1782660E-06  0.1854021E+04  0.7818609E-02  0.8678088E-01
        2   -1    0    0  501    0  0.00000000000E+00  0.00000000000E+00  0.12861057030E+04  0.12861057030E+04  0.25500000920E-02 0.  1.
       -2   -1    0    0    0  501  0.00000000000E+00  0.00000000000E+00 -0.66817862062E+03  0.66817862062E+03  0.25500000920E-02 0. -1.
    10030    2    1    2    0    0  0.00000000000E+00  0.00000000000E+00  0.61792708240E+03  0.19542843236E+04  0.18540208571E+04 0.  0.
        4    1    3    3  502    0 -0.58096911743E+03  0.70137694361E+03  0.12672067301E+03  0.91951861009E+03  0.12699999809E+01 0. -1.
       -4    1    3    3    0  502  0.58096911743E+03 -0.70137694361E+03  0.49120640939E+03  0.10347657136E+04  0.12699999809E+01 0.  1.
</event>
<event>
 5   0  0.1089337E-06  0.2393251E+04  0.7818609E-02  0.8442035E-01
       -1   -1    0    0    0  501  0.00000000000E+00  0.00000000000E+00  0.11449028412E+04  0.11449028412E+04  0.50400001928E-02 0. -1.
        1   -1    0    0  501    0  0.00000000000E+00  0.00000000000E+00 -0.12506849320E+04  0.12506849321E+04  0.50400001928E-02 0.  1.
    10030    2    1    2    0    0  0.00000000000E+00  0.00000000000E+00 -0.10578209081E+03  0.23955877733E+04  0.23932511211E+04 0.  0.
        2    1    3    3  502    0  0.79714082445E+03  0.27072653491E+03 -0.90412499550E+03  0.12353818674E+04  0.25500000920E-02 0.  1.
       -2    1    3    3    0  502 -0.79714082445E+03 -0.27072653491E+03  0.79834290469E+03  0.11602059059E+04  0.25500000920E-02 0. -1.
</event>
<event>
 5   0  0.1908726E-06  0.3412512E+04  0.7818609E-02  0.8134842E-01
        2   -1    0    0  501    0  0.00000000000E+00  0.00000000000E+00  0.23066066168E+04  0.23066066168E+04  0.25500000920E-02 0. -1.
       -2   -1    0    0    0  501  0.00000000000E+00  0.00000000000E+00 -0.12621612888E+04  0.12621612888E+04  0.25500000920E-02 0.  1.
    10030    2    1    2    0    0  0.00000000000E+00  0.00000000000E+00  0.10444453279E+04  0.35687679056E+04  0.34125120250E+04 0.  0.
        5    1    3    3  502    0 -0.12202891197E+04 -0.11070295867E+04  0.58444436892E+02  0.16486533546E+04  0.46999998093E+01 0.  1.
       -5    1    3    3    0  502  0.12202891197E+04  0.11070295867E+04  0.98600089104E+03  0.19201145509E+04  0.46999998093E+01 0. -1.
</event>
<event>
 5   0  0.1782660E-06  0.3721244E+04  0.7818609E-02  0.8063270E-01
        2   -1    0    0  501    0  0.00000000000E+00  0.00000000000E+00  0.15759636558E+04  0.15759636558E+04  0.25500000920E-02 0. -1.
       -2   -1    0    0    0  501  0.00000000000E+00  0.00000000000E+00 -0.21966969004E+04  0.21966969004E+04  0.25500000920E-02 0.  1.
    10030    2    1    2    0    0  0.00000000000E+00  0.00000000000E+00 -0.62073324461E+03  0.37726605561E+04  0.37212441348E+04 0.  0.
        4    1    3    3  502    0  0.17099891860E+04  0.47327809448E+03  0.25760411140E+03  0.17928794332E+04  0.12699999809E+01 0. -1.
       -4    1    3    3    0  502 -0.17099891860E+04 -0.47327809448E+03 -0.87833735600E+03  0.19797811229E+04  0.12699999809E+01 0.  1.
</event>
<event>
 5   0  0.1110956E-06  0.2702267E+04  0.7818609E-02  0.8334270E-01
       -1   -1    0    0    0  501  0.00000000000E+00  0.00000000000E+00  0.78715783545E+03  0.78715783546E+03  0.50400001928E-02 0.  1.
        1   -1    0    0  501    0  0.00000000000E+00  0.00000000000E+00 -0.23191809905E+04  0.23191809905E+04  0.50400001928E-02 0. -1.
    10030    2    1    2    0    0  0.00000000000E+00  0.00000000000E+00 -0.15320231551E+04  0.31063388260E+04  0.27022668177E+04 0.  0.
        1    1    3    3  502    0  0.24883498618E+03 -0.91243317474E+03 -0.18752392736E+04  0.21002322448E+04  0.50400001928E-02 0. -1.
       -1    1    3    3    0  502 -0.24883498618E+03  0.91243317474E+03  0.34321611853E+03  0.10061065812E+04  0.50400001928E-02 0.  1.
</event>
<event>
 5   0  0.2565004E-06  0.3198487E+04  0.7818609E-02  0.8189217E-01
       -2   -1    0    0    0  501  0.00000000000E+00  0.00000000000E+00  0.94306282450E+03  0.94306282450E+03  0.25500000920E-02 0. -1.
        2   -1    0    0  501    0  0.00000000000E+00  0.00000000000E+00 -0.27119922281E+04  0.27119922281E+04  0.25500000920E-02 0.  1.
    10030    2    1    2    0    0  0.00000000000E+00  0.00000000000E+00 -0.17689294036E+04  0.36550550526E+04  0.31984865488E+04 0.  0.
        3    1    3    3  502    0  0.11666460911E+04  0.10578236817E+04 -0.12026427938E+04  0.19815155168E+04  0.10100000352E+00 0.  1.
       -3    1    3    3    0  502 -0.11666460911E+04 -0.10578236817E+04 -0.56628660978E+03  0.16735395359E+04  0.10100000352E+00 0. -1.
</event>
<event>
 5   0  0.1125196E-06  0.3132965E+04  0.7818609E-02  0.8206749E-01
        1   -1    0    0  501    0  0.00000000000E+00  0.00000000000E+00  0.15118222557E+04  0.15118222557E+04  0.50400001928E-02 0.  1.
       -1   -1    0    0    0  501  0.00000000000E+00  0.00000000000E+00 -0.16231185772E+04  0.16231185772E+04  0.50400001928E-02 0. -1.
    10030    2    1    2    0    0  0.00000000000E+00  0.00000000000E+00 -0.11129632151E+03  0.31349408329E+04  0.31329645952E+04 0.  0.
        4    1    3    3  502    0  0.85818919349E+03  0.82108230962E+03  0.96636789451E+03  0.15311869159E+04  0.12699999809E+01 0.  1.
       -4    1    3    3    0  502 -0.85818919349E+03 -0.82108230962E+03 -0.10776642160E+04  0.16037539170E+04  0.12699999809E+01 0. -1.
</event>
<event>
 5   0  0.1102175E-06  0.2371445E+04  0.7818609E-02  0.8450272E-01
        1   -1    0    0  501    0  0.00000000000E+00  0.00000000000E+00  0.24632951246E+04  0.24632951247E+04  0.50400001928E-02 0.  1.
       -1   -1    0    0    0  501  0.00000000000E+00  0.00000000000E+00 -0.57075485552E+03  0.57075485554E+03  0.50400001928E-02 0. -1.
    10030    2    1    2    0    0  0.00000000000E+00  0.00000000000E+00  0.18925402691E+04  0.30340499802E+04  0.23714448364E+04 0.  0.
        5    1    3    3  502    0 -0.33728943339E+03 -0.85728785730E+03 -0.87636569063E+01  0.92130642233E+03  0.46999998093E+01 0. -1.
       -5    1    3    3    0  502  0.33728943339E+03  0.85728785730E+03  0.19013039260E+04  0.21127435579E+04  0.46999998093E+01 0.  1.
</event>
<event>
 5   0  0.3041329E-06  0.3365599E+04  0.7818609E-02  0.8146401E-01
       -2   -1    0    0    0  501  0.00000000000E+00  0.00000000000E+00  0.14135125793E+04  0.14135125793E+04  0.25500000920E-02 0.  1.
        2   -1    0    0  501    0  0.00000000000E+00  0.00000000000E+00 -0.20033884081E+04  0.20033884081E+04  0.25500000920E-02 0. -1.
    10030    2    1    2    0    0  0.00000000000E+00  0.00000000000E+00 -0.58987582879E+03  0.34169009874E+04  0.33655993321E+04 0.  0.
        2    1    3    3  502    0 -0.12441325475E+04 -0.35612353553E+02 -0.14447563252E+04  0.19069491012E+04  0.25500000920E-02 0. -1.
       -2    1    3    3    0  502  0.12441325475E+04  0.35612353553E+02  0.85488049645E+03  0.15099518862E+04  0.25500000920E-02 0.  1.
</event>
<event>
 5   0  0.1908726E-06  0.2113203E+04  0.7818609E-02  0.8555450E-01
       -2   -1    0    0    0  501  0.00000000000E+00  0.00000000000E+00  0.95590383092E+03  0.95590383092E+03  0.25500000920E-02 0.  1.
        2   -1    0    0  501    0  0.00000000000E+00  0.00000000000E+00 -0.11679068328E+04  0.11679068328E+04  0.25500000920E-02 0. -1.
    10030    2    1    2    0    0  0.00000000000E+00  0.00000000000E+00 -0.21200300191E+03  0.21238106638E+04  0.21132028920E+04 0.  0.
        5    1    3    3  502    0  0.25390489211E+03  0.96288032100E+02 -0.11322272944E+04  0.11643452304E+04  0.46999998093E+01 0. -1.
       -5    1    3    3    0  502 -0.25390489211E+03 -0.96288032100E+02  0.92022429248E+03  0.95946543337E+03  0.46999998093E+01 0.  1.
</event>
<event>
 5   0  0.1110956E-06  0.2623513E+04  0.7818609E-02  0.8360258E-01
       -1   -1    0    0    0  501  0.00000000000E+00  0.00000000000E+00  0.75558848910E+03  0.75558848912E+03  0.50400001928E-02 0.  1.
        1   -1    0    0  501    0  0.00000000000E+00  0.00000000000E+00 -0.22773048198E+04  0.22773048198E+04  0.50400001928E-02 0. -1.
    10030    2    1    2    0    0  0.00000000000E+00  0.00000000000E+00 -0.15217163307E+04  0.30328933089E+04  0.26235131469E+04 0.  0.
        1    1    3    3  502    0  0.75088206081E+03 -0.41511735774E+03 -0.19079409589E+04  0.20919811167E+04  0.50400001928E-02 0. -1.
       -1    1    3    3    0  502 -0.75088206081E+03  0.41511735774E+03  0.38622462823E+03  0.94091219220E+03  0.50400001928E-02 0.  1.
</event>
<event>
 5   0  0.1125196E-06  0.3362828E+04  0.7818609E-02  0.8147090E-01
        1   -1    0    0  501    0  0.00000000000E+00  0.00000000000E+00  0.26132912894E+04  0.26132912894E+04  0.50400001928E-02 0.  1.
       -1   -1    0    0    0  501  0.00000000000E+00  0.00000000000E+00 -0.10818362131E+04  0.10818362131E+04  0.50400001928E-02 0. -1.
    10030    2    1    2    0    0  0.00000000000E+00  0.00000000000E+00  0.15314550763E+04  0.36951275025E+04  0.33628280671E+04 0.  0.
        4    1    3    3  502    0 -0.16251383395E+04  0.77849384055E+02  0.29951839200E+03  0.16543421742E+04  0.12699999809E+01 0. -1.
       -4    1    3    3    0  502  0.16251383395E+04 -0.77849384055E+02  0.12319366843E+04  0.20407853283E+04  0.12699999809E+01 0.  1.
</event>
<event>
 5   0  0.1908726E-06  0.3418212E+04  0.7818609E-02  0.8133451E-01
        2   -1    0    0  501    0  0.00000000000E+00  0.00000000000E+00  0.15023777777E+04  0.15023777777E+04  0.25500000920E-02 0. -1.
       -2   -1    0    0    0  501  0.00000000000E+00  0.00000000000E+00 -0.19442799064E+04  0.19442799064E+04  0.25500000920E-02 0.  1.
    10030    2    1    2    0    0  0.00000000000E+00  0.00000000000E+00 -0.44190212872E+03  0.34466576841E+04  0.34182117693E+04 0.  0.
        5    1    3    3  502    0  0.15243324787E+04 -0.74979955008E+03 -0.31687239121E+02  0.16990629895E+04  0.46999998093E+01 0. -1.
       -5    1    3    3    0  502 -0.15243324787E+04  0.74979955008E+03 -0.41021488960E+03  0.17475946946E+04  0.46999998093E+01 0.  1.
</event>
<event>
 5   0  0.3378848E-06  0.2312816E+04  0.7818609E-02  0.8472885E-01
        2   -1    0    0  501    0  0.00000000000E+00  0.00000000000E+00  0.20099103516E+04  0.20099103516E+04  0.25500000920E-02 0. -1.
       -2   -1    0    0    0  501  0.00000000000E+00  0.00000000000E+00 -0.66534258163E+03  0.66534258163E+03  0.25500000920E-02 0.  1.
    10030    2    1    2    0    0  0.00000000000E+00  0.00000000000E+00  0.13445677699E+04  0.26752529332E+04  0.23128155501E+04 0.  0.
        1    1    3    3  502    0 -0.31872796590E+03  0.97393154788E+02 -0.60858763296E+03  0.69386731431E+03  0.50400001928E-02 0.  1.
       -1    1    3    3    0  502  0.31872796590E+03 -0.97393154788E+02  0.19531554029E+04  0.19813856189E+04  0.50400001928E-02 0. -1.
</event>
<event>
 5   0  0.1782660E-06  0.2897999E+04  0.7818609E-02  0.8273473E-01
        2   -1    0    0  501    0  0.00000000000E+00  0.00000000000E+00  0.10474216913E+04  0.10474216913E+04  0.25500000920E-02 0.  1.
       -2   -1    0    0    0  501  0.00000000000E+00  0.00000000000E+00 -0.20045411103E+04  0.20045411103E+04  0.25500000920E-02 0. -1.
    10030    2    1    2    0    0  0.00000000000E+00  0.00000000000E+00 -0.95711941903E+03  0.30519628016E+04  0.28979991994E+04 0.  0.
        4    1    3    3  502    0  0.30258144438E+02  0.14302622634E+04 -0.72108227109E+03  0.16020383741E+04  0.12699999809E+01 0. -1.
       -4    1    3    3    0  502 -0.30258144438E+02 -0.14302622634E+04 -0.23603714794E+03  0.14499244275E+04  0.12699999809E+01 0.  1.
</event>
<event>
 5   0  0.1908726E-06  0.3493396E+04  0.7818609E-02  0.8115357E-01
       -2   -1    0    0    0  501  0.00000000000E+00  0.00000000000E+00  0.12408332702E+04  0.12408332702E+04  0.25500000920E-02 0. -1.
        2   -1    0    0  501    0  0.00000000000E+00  0.00000000000E+00 -0.24587950096E+04  0.24587950096E+04  0.25500000920E-02 0.  1.
    10030    2    1    2    0    0  0.00000000000E+00  0.00000000000E+00 -0.12179617394E+04  0.36996282798E+04  0.34933964290E+04 0.  0.
        5    1    3    3  502    0 -0.45852783693E+03 -0.10841430787E+04  0.75767408766E+03  0.13998950337E+04  0.46999998093E+01 0. -1.
       -5    1    3    3    0  502  0.45852783693E+03  0.10841430787E+04 -0.19756358270E+04  0.22997332461E+04  0.46999998093E+01 0.  1.
</event>
<event>
 5   0  0.1102175E-06  0.1736862E+04  0.7818609E-02  0.8740616E-01
       -1   -1    0    0    0  501  0.00000000000E+00  0.00000000000E+00  0.55977393021E+03  0.55977393023E+03  0.50400001928E-02 0. -1.
        1   -1    0    0  501    0  0.00000000000E+00  0.00000000000E+00 -0.13472801406E+04  0.13472801406E+04  0.50400001928E-02 0.  1.
    10030    2    1    2    0    0  0.00000000000E+00  0.00000000000E+00 -0.78750621040E+03  0.19070540708E+04  0.17368618822E+04 0.  0.
        5    1    3    3  502    0  0.43946374036E+03 -0.40368342485E+03 -0.10864971847E+04  0.12395914282E+04  0.46999998093E+01 0.  1.
       -5    1    3    3    0  502 -0.43946374036E+03  0.40368342485E+03  0.29899097429E+03  0.66746264262E+03  0.46999998093E+01 0. -1.
</event>
<event>
 5   0  0.1908726E-06  0.3515049E+04  0.7818609E-02  0.8110233E-01
        2   -1    0    0  501    0  0.00000000000E+00  0.00000000000E+00  0.20208716908E+04  0.20208716908E+04  0.25500000920E-02 0. -1.
       -2   -1    0    0    0  501  0.00000000000E+00  0.00000000000E+00 -0.15284950794E+04  0.15284950794E+04  0.25500000920E-02 0.  1.
    10030    2    1    2    0    0  0.00000000000E+00  0.00000000000E+00  0.49237661137E+03  0.35493667702E+04  0.35150490383E+04 0.  0.
        5    1    3    3  502    0 -0.46898067735E+03 -0.16805523853E+04  0.32769317026E+02  0.17450773947E+04  0.46999998093E+01 0. -1.
       -5    1    3    3    0  502  0.46898067735E+03  0.16805523853E+04  0.45960729434E+03  0.18042893755E+04  0.46999998093E+01 0.  1.
</event>
<event>
 5   0  0.1110956E-06  0.3561239E+04  0.7818609E-02  0.8099428E-01
       -1   -1    0    0    0  501  0.00000000000E+00  0.00000000000E+00  0.10686225034E+04  0.10686225034E+04  0.50400001928E-02 0. -1.
        1   -1    0    0  501    0  0.00000000000E+00  0.00000000000E+00 -0.29670029203E+04  0.29670029203E+04  0.50400001928E-02 0.  1.
    10030    2    1    2    0    0  0.00000000000E+00  0.00000000000E+00 -0.18983804170E+04  0.40356254237E+04  0.35612391598E+04 0.  0.
        1    1    3    3  502    0 -0.48634009794E+03 -0.97839470200E+03  0.64409536650E+03  0.12683224058E+04  0.50400001928E-02 0. -1.
       -1    1    3    3    0  502  0.48634009794E+03  0.97839470200E+03 -0.25424757835E+04  0.27673030180E+04  0.50400001928E-02 0.  1.
</event>
<event>
 5   0  0.1089337E-06  0.3456812E+04  0.7818609E-02  0.8124102E-01
        1   -1    0    0  501    0  0.00000000000E+00  0.00000000000E+00  0.25595536578E+04  0.25595536579E+04  0.50400001928E-02 0. -1.
       -1   -1    0    0    0  501  0.00000000000E+00  0.00000000000E+00 -0.11671514778E+04  0.11671514778E+04  0.50400001928E-02 0.  1.
    10030    2    1    2    0    0  0.00000000000E+00  0.00000000000E+00  0.13924021801E+04  0.37267051356E+04  0.34568117300E+04 0.  0.
        2    1    3    3  502    0  0.71801997058E+03  0.12012374870E+04 -0.39732212387E+03  0.14547814436E+04  0.25500000920E-02 0.  1.
       -2    1    3    3    0  502 -0.71801997058E+03 -0.12012374870E+04  0.17897243040E+04  0.22719236921E+04  0.25500000920E-02 0. -1.
</event>
<event>
 5   0  0.3041329E-06  0.3259262E+04  0.7818609E-02  0.8173339E-01
       -2   -1    0    0    0  501  0.00000000000E+00  0.00000000000E+00  0.17435448733E+04  0.17435448733E+04  0.25500000920E-02 0.  1.
        2   -1    0    0  501    0  0.00000000000E+00  0.00000000000E+00 -0.15231594445E+04  0.15231594445E+04  0.25500000920E-02 0. -1.
    10030    2    1    2    0    0  0.00000000000E+00  0.00000000000E+00  0.22038542878E+03  0.32667043178E+04  0.32592617818E+04 0.  0.
        2    1    3    3  502    0 -0.48303280158E+03  0.63868666929E+03  0.15327488744E+04  0.17293237005E+04  0.25500000920E-02 0.  1.
       -2    1    3    3    0  502  0.48303280158E+03 -0.63868666929E+03 -0.13123634457E+04  0.15373806173E+04  0.25500000920E-02 0. -1.
</event>
<event>
 5   0  0.1782660E-06  0.2401945E+04  0.7818609E-02  0.8438776E-01
       -2   -1    0    0    0  501  0.00000000000E+00  0.00000000000E+00  0.81436243162E+03  0.81436243163E+03  0.25500000920E-02 0. -1.
        2   -1    0    0  501    0  0.00000000000E+00  0.00000000000E+00 -0.17711216210E+04  0.17711216210E+04  0.25500000920E-02 0.  1.
    10030    2    1    2    0    0  0.00000000000E+00  0.00000000000E+00 -0.95675918935E+03  0.25854840526E+04  0.24019449702E+04 0.  0.
        4    1    3    3  502    0  0.10223699458E+04  0.40005478307E+02  0.19855695744E+03  0.10422414416E+04  0.12699999809E+01 0. -1.
       -4    1    3    3    0  502 -0.10223699458E+04 -0.40005478307E+02 -0.11553161468E+04  0.15432426110E+04  0.12699999809E+01 0.  1.
</event>
<event>
 5   0  0.1130707E-06  0.2801962E+04  0.7818609E-02  0.8302659E-01
       -1   -1    0    0    0  501  0.00000000000E+00  0.00000000000E+00  0.14466501724E+04  0.14466501724E+04  0.50400001928E-02 0.  1.
        1   -1    0    0  501    0  0.00000000000E+00  0.00000000000E+00 -0.13567536906E+04  0.13567536907E+04  0.50400001928E-02 0. -1.
    10030    2    1    2    0    0  0.00000000000E+00  0.00000000000E+00  0.89896481761E+02  0.28034038631E+04  0.28019621414E+04 0.  0.
        3    1    3    3  502    0 -0.10886192948E+04 -0.36867791281E+02  0.92647862849E+03  0.14299698816E+04  0.10100000352E+00 0.  1.
       -3    1    3    3    0  502  0.10886192948E+04  0.36867791281E+02 -0.83658214673E+03  0.13734339815E+04  0.10100000352E+00 0. -1.
</event>
<event>
 5   0  0.1102175E-06  0.1886819E+04  0.7818609E-02  0.8661445E-01
        1   -1    0    0  501    0  0.00000000000E+00  0.00000000000E+00  0.83714017930E+03  0.83714017932E+03  0.50400001928E-02 0.  1.
       -1   -1    0    0    0  501  0.00000000000E+00  0.00000000000E+00 -0.10631691433E+04  0.10631691434E+04  0.50400001928E-02 0. -1.
    10030    2    1    2    0    0  0.00000000000E+00  0.00000000000E+00 -0.22602896404E+03  0.19003093227E+04  0.18868191300E+04 0.  0.
        5    1    3    3  502    0  0.52031898796E+03  0.24042868633E+03  0.64165033272E+03  0.86039237672E+03  0.46999998093E+01 0.  1.
       -5    1    3    3    0  502 -0.52031898796E+03 -0.24042868633E+03 -0.86767929676E+03  0.10399169460E+04  0.46999998093E+01 0. -1.
</event>
<event>
 5   0  0.1089337E-06  0.2425690E+04  0.7818609E-02  0.8429948E-01
       -1   -1    0    0    0  501  0.00000000000E+00  0.00000000000E+00  0.86359647253E+03  0.86359647254E+03  0.50400001928E-02 0. -1.
        1   -1    0    0  501    0  0.00000000000E+00  0.00000000000E+00 -0.17033332462E+04  0.17033332462E+04  0.50400001928E-02 0.  1.
    10030    2    1    2    0    0  0.00000000000E+00  0.00000000000E+00 -0.83973677371E+03  0.25669297188E+04  0.24256896611E+04 0.  0.
        2    1    3    3  502    0  0.13739727984E+03  0.12042541718E+04 -0.37390600123E+03  0.12684288788E+04  0.25500000920E-02 0. -1.
       -2    1    3    3    0  502 -0.13739727984E+03 -0.12042541718E+04 -0.46583077248E+03  0.12985008400E+04  0.25500000920E-02 0.  1.
</event>
<event>
 5   0  0.3041329E-06  0.3433430E+04  0.7818609E-02  0.8129750E-01
        2   -1    0    0  501    0  0.00000000000E+00  0.00000000000E+00  0.19552003170E+04  0.19552003170E+04  0.25500000920E-02 0.  1.
       -2   -1    0    0    0  501  0.00000000000E+00  0.00000000000E+00 -0.15073192849E+04  0.15073192849E+04  0.25500000920E-02 0. -1.
    10030    2    1    2    0    0  0.00000000000E+00  0.00000000000E+00  0.44788103212E+03  0.34625196019E+04  0.34334304383E+04 0.  0.
        2    1    3    3  502    0  0.13902514597E+03 -0.13071011143E+04  0.13375012316E+04  0.18753002050E+04  0.25500000920E-02 0.  1.
       -2    1    3    3    0  502 -0.13902514597E+03  0.13071011143E+04 -0.88962019952E+03  0.15872193969E+04  0.25500000920E-02 0. -1.
</event>
<event>
 5   0  0.1125196E-06  0.3716441E+04  0.7818609E-02  0.8064328E-01
       -1   -1    0    0    0  501  0.00000000000E+00  0.00000000000E+00  0.18374379017E+04  0.18374379017E+04  0.50400001928E-02 0.  1.
        1   -1    0    0  501    0  0.00000000000E+00  0.00000000000E+00 -0.18792381388E+04  0.18792381388E+04  0.50400001928E-02 0. -1.
    10030    2    1    2    0    0  0.00000000000E+00  0.00000000000E+00 -0.41800237100E+02  0.37166760406E+04  0.37164409764E+04 0.  0.
        4    1    3    3  502    0  0.56555666598E+03 -0.17581346735E+04  0.18427108226E+03  0.18560305270E+04  0.12699999809E+01 0.  1.
       -4    1    3    3    0  502 -0.56555666598E+03  0.17581346735E+04 -0.22607131936E+03  0.18606455135E+04  0.12699999809E+01 0. -1.
</event>
<event>
 5   0  0.1102175E-06  0.2311571E+04  0.7818609E-02  0.8473373E-01
        1   -1    0    0  501    0  0.00000000000E+00  0.00000000000E+00  0.14952490385E+04  0.14952490385E+04  0.50400001928E-02 0.  1.
       -1   -1    0    0    0  501  0.00000000000E+00  0.00000000000E+00 -0.89338946811E+03  0.89338946812E+03  0.50400001928E-02 0. -1.
    10030    2    1    2    0    0  0.00000000000E+00  0.00000000000E+00  0.60185957040E+03  0.23886385066E+04  0.23115706723E+04 0.  0.
        5    1    3    3  502    0 -0.42787523161E+03 -0.91503603925E+03  0.88130407555E+03  0.13405547846E+04  0.46999998093E+01 0.  1.
       -5    1    3    3    0  502  0.42787523161E+03  0.91503603925E+03 -0.27944450515E+03  0.10480837220E+04  0.46999998093E+01 0. -1.
</event>
<event>
 5   0  0.1782660E-06  0.3391318E+04  0.7818609E-02  0.8140040E-01
        2   -1    0    0  501    0  0.00000000000E+00  0.00000000000E+00  0.15028294360E+04  0.15028294360E+04  0.25500000920E-02 0.  1.
       -2   -1    0    0    0  501  0.00000000000E+00  0.00000000000E+00 -0.19132305498E+04  0.19132305498E+04  0.25500000920E-02 0. -1.
    10030    2    1    2    0    0  0.00000000000E+00  0.00000000000E+00 -0.41040111386E+03  0.34160599858E+04  0.33913178489E+04 0.  0.
        4    1    3    3  502    0  0.15099237775E+03 -0.15480905877E+04 -0.88531124422E+03  0.17897376283E+04  0.12699999809E+01 0. -1.
       -4    1    3    3    0  502 -0.15099237775E+03  0.15480905877E+04  0.47491013036E+03  0.16263223576E+04  0.12699999809E+01 0.  1.
</event>
<event>
 5   0  0.1125196E-06  0.2412488E+04  0.7818609E-02  0.8434843E-01
       -1   -1    0    0    0  501  0.00000000000E+00  0.00000000000E+00  0.12830898949E+04  0.12830898949E+04  0.50400001928E-02 0. -1.
        1   -1    0    0  501    0  0.00000000000E+00  0.00000000000E+00 -0.11340006301E+04  0.11340006301E+04  0.50400001928E-02 0.  1.
    10030    2    1    2    0    0  0.00000000000E+00  0.00000000000E+00  0.14908926473E+03  0.24170905250E+04  0.24124881341E+04 0.  0.
        4    1    3    3  502    0  0.27789509292E+03 -0.67339528289E+03 -0.88871358339E+03  0.11491302519E+04  0.12699999809E+01 0.  1.
       -4    1    3    3    0  502 -0.27789509292E+03  0.67339528289E+03  0.10378028481E+04  0.12679602731E+04  0.12699999809E+01 0. -1.
</event>
<event>
 5   0  0.1102175E-06  0.3405770E+04  0.7818609E-02  0.8136492E-01
        1   -1    0    0  501    0  0.00000000000E+00  0.00000000000E+00  0.21810821096E+04  0.21810821096E+04  0.50400001928E-02 0.  1.
       -1   -1    0    0    0  501  0.00000000000E+00  0.00000000000E+00 -0.13295314527E+04  0.13295314527E+04  0.50400001928E-02 0. -1.
    10030    2    1    2    0    0  0.00000000000E+00  0.00000000000E+00  0.85155065695E+03  0.35106135623E+04  0.34057699661E+04 0.  0.
        5    1    3    3  502    0 -0.16522579817E+03 -0.16141528616E+04  0.95840866878E+03  0.18845047868E+04  0.46999998093E+01 0.  1.
       -5    1    3    3    0  502  0.16522579817E+03  0.16141528616E+04 -0.10685801183E+03  0.16261087755E+04  0.46999998093E+01 0. -1.
</event>
<event>
 5   0  0.2565004E-06  0.1899643E+04  0.7818609E-02  0.8655034E-01
        2   -1    0    0  501    0  0.00000000000E+00  0.00000000000E+00  0.64142940960E+03  0.64142940960E+03  0.25500000920E-02 0.  1.
       -2   -1    0    0    0  501  0.00000000000E+00  0.00000000000E+00 -0.14064852754E+04  0.14064852754E+04  0.25500000920E-02 0. -1.
    10030    2    1    2    0    0  0.00000000000E+00  0.00000000000E+00 -0.76505586583E+03  0.20479146850E+04  0.18996431453E+04 0.  0.
        3    1    3    3  502    0  0.65902992723E+03  0.60372985074E+03 -0.35953258535E+02  0.89448466989E+03  0.10100000352E+00 0. -1.
       -3    1    3    3    0  502 -0.65902992723E+03 -0.60372985074E+03 -0.72910260729E+03  0.11534300151E+04  0.10100000352E+00 0.  1.
</event>
<event>
 5   0  0.1782660E-06  0.3434521E+04  0.7818609E-02  0.8129485E-01
        2   -1    0    0  501    0  0.00000000000E+00  0.00000000000E+00  0.27529173571E+04  0.27529173571E+04  0.25500000920E-02 0.  1.
       -2   -1    0    0    0  501  0.00000000000E+00  0.00000000000E+00 -0.10712209671E+04  0.10712209671E+04  0.25500000920E-02 0. -1.
    10030    2    1    2    0    0  0.00000000000E+00  0.00000000000E+00  0.16816963899E+04  0.38241383242E+04  0.34345205160E+04 0.  0.
        4    1    3    3  502    0  0.37902038349E+03  0.15530035921E+04  0.15393095299E+04  0.22192232988E+04  0.12699999809E+01 0. -1.
       -4    1    3    3    0  502 -0.37902038349E+03 -0.15530035921E+04  0.14238686005E+03  0.16049150254E+04  0.12699999809E+01 0.  1.
</event>
<event>
 5   0  0.1908726E-06  0.3493064E+04  0.7818609E-02  0.8115436E-01
       -2   -1    0    0    0  501  0.00000000000E+00  0.00000000000E+00  0.97988547415E+03  0.97988547415E+03  0.25500000920E-02 0. -1.
        2   -1    0    0  501    0  0.00000000000E+00  0.00000000000E+00 -0.31129911901E+04  0.31129911901E+04  0.25500000920E-02 0.  1.
    10030    2    1    2    0    0  0.00000000000E+00  0.00000000000E+00 -0.21331057159E+04  0.40928766642E+04  0.34930644702E+04 0.  0.
        5    1    3    3  502    0 -0.68640540984E+02  0.37745909330E+03  0.92989504110E+03  0.10059392469E+04  0.46999998093E+01 0. -1.
       -5    1    3    3    0  502  0.68640540984E+02 -0.37745909330E+03 -0.30630007570E+04  0.30869374173E+04  0.46999998093E+01 0.  1.
</event>
<event>
 5   0  0.3041329E-06  0.1832732E+04  0.7818609E-02  0.8689084E-01
        2   -1    0    0  501    0  0.00000000000E+00  0.00000000000E+00  0.50689836621E+03  0.50689836622E+03  0.25500000920E-02 0.  1.
       -2   -1    0    0    0  501  0.00000000000E+00  0.00000000000E+00 -0.16565980319E+04  0.16565980319E+04  0.25500000920E-02 0. -1.
    10030    2    1    2    0    0  0.00000000000E+00  0.00000000000E+00 -0.11496996657E+04  0.21634963981E+04  0.18327322072E+04 0.  0.
        2    1    3    3  502    0  0.42886906894E+03 -0.66134765175E+03 -0.11265470863E+04  0.13749246279E+04  0.25500000920E-02 0. -1.
       -2    1    3    3    0  502 -0.42886906894E+03  0.66134765175E+03 -0.23152579335E+02  0.78857177017E+03  0.25500000920E-02 0.  1.
</event>
<event>
 5   0  0.1102175E-06  0.2221841E+04  0.7818609E-02  0.8509392E-01
       -1   -1    0    0    0  501  0.00000000000E+00  0.00000000000E+00  0.10704171434E+04  0.10704171434E+04  0.50400001928E-02 0. -1.
        1   -1    0    0  501    0  0.00000000000E+00  0.00000000000E+00 -0.11529569661E+04  0.11529569661E+04  0.50400001928E-02 0.  1.
    10030    2    1    2    0    0  0.00000000000E+00  0.00000000000E+00 -0.82539822692E+02  0.22233741096E+04  0.22218414905E+04 0.  0.
        5    1    3    3  502    0 -0.71177136787E+03 -0.82957394810E+03  0.15713787371E+03  0.11043214282E+04  0.46999998093E+01 0.  1.
       -5    1    3    3    0  502  0.71177136787E+03  0.82957394810E+03 -0.23967769640E+03  0.11190526813E+04  0.46999998093E+01 0. -1.
</event>
<event>
 5   0  0.1782660E-06  0.3422013E+04  0.7818609E-02  0.8132525E-01
       -2   -1    0    0    0  501  0.00000000000E+00  0.00000000000E+00  0.22812908720E+04  0.22812908720E+04  0.25500000920E-02 0.  1.
        2   -1    0    0  501    0  0.00000000000E+00  0.00000000000E+00 -0.12832839701E+04  0.12832839701E+04  0.25500000920E-02 0. -1.
    10030    2    1    2    0    0  0.00000000000E+00  0.00000000000E+00  0.99800690190E+03  0.35645748422E+04  0.34220134467E+04 0.  0.
        4    1    3    3  502    0  0.10436128713E+04  0.25796251551E+03  0.18855739070E+04  0.21704983428E+04  0.12699999809E+01 0.  1.
       -4    1    3    3    0  502 -0.10436128713E+04 -0.25796251551E+03 -0.88756700512E+03  0.13940764993E+04  0.12699999809E+01 0. -1.
</event>
<event>
 5   0  0.1102175E-06  0.3197442E+04  0.7818609E-02  0.8189493E-01
        1   -1    0    0  501    0  0.00000000000E+00  0.00000000000E+00  0.18247302803E+04  0.18247302803E+04  0.50400001928E-02 0.  1.
       -1   -1    0    0    0  501  0.00000000000E+00  0.00000000000E+00 -0.14007047626E+04  0.14007047626E+04  0.50400001928E-02 0. -1.
    10030    2    1    2    0    0  0.00000000000E+00  0.00000000000E+00  0.42402551773E+03  0.32254350429E+04  0.31974417237E+04 0.  0.
        5    1    3    3  502    0 -0.24286963586E+03  0.98434059324E+03  0.14589473666E+04  0.17766433440E+04  0.46999998093E+01 0.  1.
       -5    1    3    3    0  502  0.24286963586E+03 -0.98434059324E+03 -0.10349218488E+04  0.14487916989E+04  0.46999998093E+01 0. -1.
</event>
<event>
 5   0  0.1908726E-06  0.3478560E+04  0.7818609E-02  0.8118890E-01
        2   -1    0    0  501    0  0.00000000000E+00  0.00000000000E+00  0.14174684398E+04  0.14174684398E+04  0.25500000920E-02 0. -1.
       -2   -1    0    0    0  501  0.00000000000E+00  0.00000000000E+00 -0.21341538072E+04  0.21341538072E+04  0.25500000920E-02 0.  1.
    10030    2    1    2    0    0  0.00000000000E+00  0.00000000000E+00 -0.71668536740E+03  0.35516222470E+04  0.34785604306E+04 0.  0.
        5    1    3    3  502    0 -0.15586078982E+04 -0.13107831146E+03 -0.11349992028E+04  0.19325334110E+04  0.46999998093E+01 0.  1.
       -5    1    3    3    0  502  0.15586078982E+04  0.13107831146E+03  0.41831383538E+03  0.16190888360E+04  0.46999998093E+01 0. -1.
</event>
<event>
 5   0  0.1042825E-06  0.2162102E+04  0.7818609E-02  0.8534370E-01
       -3   -1    0    0    0  501  0.00000000000E+00  0.00000000000E+00  0.11365814147E+04  0.11365814191E+04  0.10100000352E+00 0. -1.
        3   -1    0    0  501    0  0.00000000000E+00  0.00000000000E+00 -0.10282339548E+04  0.10282339598E+04  0.10100000352E+00 0.  1.
    10030    2    1    2    0    0  0.00000000000E+00  0.00000000000E+00  0.10834745986E+03  0.21648153789E+04  0.21621023224E+04 0.  0.
        1    1    3    3  502    0 -0.35996125963E+03 -0.14196995192E+03  0.10648679623E+04  0.11329922122E+04  0.50400001928E-02 0. -1.
       -1    1    3    3    0  502  0.35996125963E+03  0.14196995192E+03 -0.95652050247E+03  0.10318231667E+04  0.50400001928E-02 0.  1.
</event>
<event>
 5   0  0.1908726E-06  0.3278261E+04  0.7818609E-02  0.8168449E-01
        2   -1    0    0  501    0  0.00000000000E+00  0.00000000000E+00  0.19018764066E+04  0.19018764066E+04  0.25500000920E-02 0.  1.
       -2   -1    0    0    0  501  0.00000000000E+00  0.00000000000E+00 -0.14126828434E+04  0.14126828434E+04  0.25500000920E-02 0. -1.
    10030    2    1    2    0    0  0.00000000000E+00  0.00000000000E+00  0.48919356321E+03  0.33145592500E+04  0.32782606180E+04 0.  0.
        5    1    3    3  502    0 -0.85612290457E+03 -0.86869663538E+03 -0.86258340915E+03  0.14938716477E+04  0.46999998093E+01 0. -1.
       -5    1    3    3    0  502  0.85612290457E+03  0.86869663538E+03  0.13517769724E+04  0.18206876023E+04  0.46999998093E+01 0.  1.
</event>
<event>
 5   0  0.2565004E-06  0.2149298E+04  0.7818609E-02  0.8539833E-01
        2   -1    0    0  501    0  0.00000000000E+00  0.00000000000E+00  0.20494464867E+04  0.20494464867E+04  0.25500000920E-02 0. -1.
       -2   -1    0    0    0  501  0.00000000000E+00  0.00000000000E+00 -0.56350340584E+03  0.56350340584E+03  0.25500000920E-02 0.  1.
    10030    2    1    2    0    0  0.00000000000E+00  0.00000000000E+00  0.14859430809E+04  0.26129498925E+04  0.21492976298E+04 0.  0.
        3    1    3    3  502    0  0.40635022811E+03  0.82636377388E+03  0.69508934356E+02  0.92348746436E+03  0.10100000352E+00 0. -1.
       -3    1    3    3    0  502 -0.40635022811E+03 -0.82636377388E+03  0.14164341465E+04  0.16894624282E+04  0.10100000352E+00 0.  1.
</event>
<event>
 5   0  0.1291680E-06  0.1810421E+04  0.7818609E-02  0.8700778E-01
       -1   -1    0    0    0  501  0.00000000000E+00  0.00000000000E+00  0.84929887966E+03  0.84929887967E+03  0.50400001928E-02 0. -1.
        1   -1    0    0  501    0  0.00000000000E+00  0.00000000000E+00 -0.96480241612E+03  0.96480241613E+03  0.50400001928E-02 0.  1.
    10030    2    1    2    0    0  0.00000000000E+00  0.00000000000E+00 -0.11550353646E+03  0.18141012958E+04  0.18104205159E+04 0.  0.
        1    1    3    3  502    0 -0.59520204690E+03 -0.51788660556E+03 -0.50242601609E+03  0.93536298543E+03  0.50400001928E-02 0.  1.
       -1    1    3    3    0  502  0.59520204690E+03  0.51788660556E+03  0.38692247963E+03  0.87873831037E+03  0.50400001928E-02 0. -1.
</event>
<event>
 5   0  0.1125196E-06  0.2145568E+04  0.7818609E-02  0.8541432E-01
       -1   -1    0    0    0  501  0.00000000000E+00  0.00000000000E+00  0.13154741813E+04  0.13154741813E+04  0.50400001928E-02 0.  1.
        1   -1    0    0  501    0  0.00000000000E+00  0.00000000000E+00 -0.87486727306E+03  0.87486727308E+03  0.50400001928E-02 0. -1.
    10030    2    1    2    0    0  0.00000000000E+00  0.00000000000E+00  0.44060690827E+03  0.21903414544E+04  0.21455678128E+04 0.  0.
        4    1    3    3  502    0  0.11749149069E+02  0.99726685207E+03 -0.18314542717E+03  0.10140133516E+04  0.12699999809E+01 0. -1.
       -4    1    3    3    0  502 -0.11749149069E+02 -0.99726685207E+03  0.62375233544E+03  0.11763281029E+04  0.12699999809E+01 0.  1.
</event>
<event>
 5   0  0.3378848E-06  0.2038344E+04  0.7818609E-02  0.8588901E-01
        2   -1    0    0  501    0  0.00000000000E+00  0.00000000000E+00  0.17159554990E+04  0.17159554990E+04  0.25500000920E-02 0.  1.
       -2   -1    0    0    0  501  0.00000000000E+00  0.00000000000E+00 -0.60532544996E+03  0.60532544996E+03  0.25500000920E-02 0. -1.
    10030    2    1    2    0    0  0.00000000000E+00  0.00000000000E+00  0.11106300491E+04  0.23212809490E+04  0.20383439696E+04 0.  0.
        1    1    3    3  502    0  0.85344077669E+03  0.19169177363E+03  0.11509935759E+04  0.14456462593E+04  0.50400001928E-02 0.  1.
       -1    1    3    3    0  502 -0.85344077669E+03 -0.19169177363E+03 -0.40363526821E+02  0.87563468964E+03  0.50400001928E-02 0. -1.
</event>
<event>
 5   0  0.1102175E-06  0.3607108E+04  0.7818609E-02  0.8088865E-01
        1   -1    0    0  501    0  0.00000000000E+00  0.00000000000E+00  0.22480263834E+04  0.22480263834E+04  0.50400001928E-02 0. -1.
       -1   -1    0    0    0  501  0.00000000000E+00  0.00000000000E+00 -0.14469612239E+04  0.14469612239E+04  0.50400001928E-02 0.  1.
    10030    2    1    2    0    0  0.00000000000E+00  0.00000000000E+00  0.80106515944E+03  0.36949876073E+04  0.36071079868E+04 0.  0.
        5    1    3    3  502    0 -0.75231319342E+03  0.16088695415E+04  0.79286470256E+02  0.17778483560E+04  0.46999998093E+01 0.  1.
       -5    1    3    3    0  502  0.75231319342E+03 -0.16088695415E+04  0.72177868918E+03  0.19171392513E+04  0.46999998093E+01 0. -1.
</event>
<event>
 5   0  0.2565004E-06  0.2698813E+04  0.7818609E-02  0.8335390E-01
        2   -1    0    0  501    0  0.00000000000E+00  0.00000000000E+00  0.20688030146E+04  0.20688030146E+04  0.25500000920E-02 0. -1.
       -2   -1    0    0    0  501  0.00000000000E+00  0.00000000000E+00 -0.88016977022E+03  0.88016977022E+03  0.25500000920E-02 0.  1.
    10030    2    1    2    0    0  0.00000000000E+00  0.00000000000E+00  0.11886332443E+04  0.29489727848E+04  0.26988129791E+04 0.  0.
        3    1    3    3  502    0 -0.13416076661E+04 -0.32511603355E+02  0.74857497117E+03  0.15366628230E+04  0.10100000352E+00 0. -1.
       -3    1    3    3    0  502  0.13416076661E+04  0.32511603355E+02  0.44005827318E+03  0.14123099618E+04  0.10100000352E+00 0.  1.
</event>
<event>
 5   0  0.1110956E-06  0.3668214E+04  0.7818609E-02  0.8075043E-01
       -1   -1    0    0    0  501  0.00000000000E+00  0.00000000000E+00  0.20773234083E+04  0.20773234083E+04  0.50400001928E-02 0. -1.
        1   -1    0    0  501    0  0.00000000000E+00  0.00000000000E+00 -0.16193669578E+04  0.16193669578E+04  0.50400001928E-02 0.  1.
    10030    2    1    2    0    0  0.00000000000E+00  0.00000000000E+00  0.45795645043E+03  0.36966903661E+04  0.36682142185E+04 0.  0.
        1    1    3    3  502    0  0.69864351895E+03  0.88044644708E+03 -0.12316385588E+04  0.16673998477E+04  0.50400001928E-02 0.  1.
       -1    1    3    3    0  502 -0.69864351895E+03 -0.88044644708E+03  0.16895950092E+04  0.20292905184E+04  0.50400001928E-02 0. -1.
</event>
<event>
 5   0  0.1908726E-06  0.3519213E+04  0.7818609E-02  0.8109252E-01
        2   -1    0    0  501    0  0.00000000000E+00  0.00000000000E+00  0.19332320702E+04  0.19332320702E+04  0.25500000920E-02 0.  1.
       -2   -1    0    0    0  501  0.00000000000E+00  0.00000000000E+00 -0.16015746044E+04  0.16015746044E+04  0.25500000920E-02 0. -1.
    10030    2    1    2    0    0  0.00000000000E+00  0.00000000000E+00  0.33165746582E+03  0.35348066747E+04  0.35192132008E+04 0.  0.
        5    1    3    3  502    0 -0.92649881379E+03  0.10072461651E+04  0.12767350034E+04  0.18716354474E+04  0.46999998093E+01 0.  1.
       -5    1    3    3    0  502  0.92649881379E+03 -0.10072461651E+04 -0.94507753759E+03  0.16631712272E+04  0.46999998093E+01 0. -1.
</event>
<event>
 5   0  0.1782660E-06  0.3623282E+04  0.7818609E-02  0.8085179E-01
       -2   -1    0    0    0  501  0.00000000000E+00  0.00000000000E+00  0.32412362212E+04  0.32412362212E+04  0.25500000920E-02 0. -1.
        2   -1    0    0  501    0  0.00000000000E+00  0.00000000000E+00 -0.10125900290E+04  0.10125900290E+04  0.25500000920E-02 0.  1.
    10030    2    1    2    0    0  0.00000000000E+00  0.00000000000E+00  0.22286461922E+04  0.42538262502E+04  0.36232822022E+04 0.  0.
        4    1    3    3  502    0 -0.47149593054E+03 -0.11783864564E+04  0.26320158102E+04  0.29220561068E+04  0.12699999809E+01 0. -1.
       -4    1    3    3    0  502  0.47149593054E+03  0.11783864564E+04 -0.40336961800E+03  0.13317701434E+04  0.12699999809E+01 0.  1.
</event>
<event>
 5   0  0.2565004E-06  0.3457146E+04  0.7818609E-02  0.8124022E-01
       -2   -1    0    0    0  501  0.00000000000E+00  0.00000000000E+00  0.17881002647E+04  0.17881002647E+04  0.25500000920E-02 0. -1.
        2   -1    0    0  501    0  0.00000000000E+00  0.00000000000E+00 -0.16710274262E+04  0.16710274262E+04  0.25500000920E-02 0.  1.
    10030    2    1    2    0    0  0.00000000000E+00  0.00000000000E+00  0.11707283857E+03  0.34591276909E+04  0.34571459808E+04 0.  0.
        3    1    3    3  502    0  0.64957376356E+03  0.11114527789E+04 -0.10956807256E+04  0.16904998127E+04  0.10100000352E+00 0.  1.
       -3    1    3    3    0  502 -0.64957376356E+03 -0.11114527789E+04  0.12127535641E+04  0.17686278782E+04  0.10100000352E+00 0. -1.
</event>
<event>
 5   0  0.1089337E-06  0.3193287E+04  0.7818609E-02  0.8190592E-01
       -1   -1    0    0    0  501  0.00000000000E+00  0.00000000000E+00  0.12912244093E+04  0.12912244093E+04  0.50400001928E-02 0.  1.
        1   -1    0    0  501    0  0.00000000000E+00  0.00000000000E+00 -0.19743043650E+04  0.19743043650E+04  0.50400001928E-02 0. -1.
    10030    2    1    2    0    0  0.00000000000E+00  0.00000000000E+00 -0.68307995570E+03  0.32655287743E+04  0.31932867002E+04 0.  0.
        2    1    3    3  502    0  0.97642925031E+03  0.12009786375E+04 -0.74220237937E+03  0.17165745368E+04  0.25500000920E-02 0. -1.
       -2    1    3    3    0  502 -0.97642925031E+03 -0.12009786375E+04  0.59122423676E+02  0.15489542374E+04  0.25500000920E-02 0.  1.
</event>
<event>
 5   0  0.3041329E-06  0.3217196E+04  0.7818609E-02  0.8184290E-01
        2   -1    0    0  501    0  0.00000000000E+00  0.00000000000E+00  0.14246619738E+04  0.14246619738E+04  0.25500000920E-02 0.  1.
       -2   -1    0    0    0  501  0.00000000000E+00  0.00000000000E+00 -0.18162816969E+04  0.18162816969E+04  0.25500000920E-02 0. -1.
    10030    2    1    2    0    0  0.00000000000E+00  0.00000000000E+00 -0.39161972305E+03  0.32409436707E+04  0.32171959637E+04 0.  0.
        2    1    3    3  502    0  0.35579879766E+03  0.70169241949E+03 -0.16092427169E+04  0.17912641229E+04  0.25500000920E-02 0. -1.
       -2    1    3    3    0  502 -0.35579879766E+03 -0.70169241949E+03  0.12176229939E+04  0.14496795478E+04  0.25500000920E-02 0.  1.
</event>
<event>
 5   0  0.1130707E-06  0.3565118E+04  0.7818609E-02  0.8098529E-01
       -1   -1    0    0    0  501  0.00000000000E+00  0.00000000000E+00  0.13899014401E+04  0.13899014401E+04  0.50400001928E-02 0. -1.
        1   -1    0    0  501    0  0.00000000000E+00  0.00000000000E+00 -0.22861458708E+04  0.22861458708E+04  0.50400001928E-02 0.  1.
    10030    2    1    2    0    0  0.00000000000E+00  0.00000000000E+00 -0.89624443067E+03  0.36760473109E+04  0.35651184767E+04 0.  0.
        3    1    3    3  502    0 -0.12438977912E+04  0.11651372815E+04 -0.98656850756E+03  0.19693003910E+04  0.10100000352E+00 0.  1.
       -3    1    3    3    0  502  0.12438977912E+04 -0.11651372815E+04  0.90324076892E+02  0.17067469199E+04  0.10100000352E+00 0. -1.
</event>
<event>
 5   0  0.1908726E-06  0.2677476E+04  0.7818609E-02  0.8342350E-01
       -2   -1    0    0    0  501  0.00000000000E+00  0.00000000000E+00  0.13932486912E+04  0.13932486912E+04  0.25500000920E-02 0.  1.
        2   -1    0    0  501    0  0.00000000000E+00  0.00000000000E+00 -0.12863599513E+04  0.12863599513E+04  0.25500000920E-02 0. -1.
    10030    2    1    2    0    0  0.00000000000E+00  0.00000000000E+00  0.10688873990E+03  0.26796086425E+04  0.26774759147E+04 0.  0.
        5    1    3    3  502    0  0.84542261147E+02  0.49249933792E+03 -0.11895168301E+04  0.12902229927E+04  0.46999998093E+01 0. -1.
       -5    1    3    3    0  502 -0.84542261147E+02 -0.49249933792E+03  0.12964055700E+04  0.13893856498E+04  0.46999998093E+01 0.  1.
</event>
<event>
 5   0  0.1782660E-06  0.3346831E+04  0.7818609E-02  0.8151081E-01
        2   -1    0    0  501    0  0.00000000000E+00  0.00000000000E+00  0.25613528263E+04  0.25613528263E+04  0.25500000920E-02 0. -1.
       -2   -1    0    0    0  501  0.00000000000E+00  0.00000000000E+00 -0.10932967401E+04  0.10932967401E+04  0.25500000920E-02 0.  1.
    10030    2    1    2    0    0  0.00000000000E+00  0.00000000000E+00  0.14680560862E+04  0.36546495665E+04  0.33468305576E+04 0.  0.
        4    1    3    3  502    0 -0.11053762879E+04  0.14570121747E+03 -0.62863539846E+03  0.12799490848E+04  0.12699999809E+01 0.  1.
       -4    1    3    3    0  502  0.11053762879E+04 -0.14570121747E+03  0.20966914847E+04  0.23747004816E+04  0.12699999809E+01 0. -1.
</event>
<event>
 5   0  0.1125196E-06  0.1843710E+04  0.7818609E-02  0.8683394E-01
       -1   -1    0    0    0  501  0.00000000000E+00  0.00000000000E+00  0.72582409771E+03  0.72582409773E+03  0.50400001928E-02 0. -1.
        1   -1    0    0  501    0  0.00000000000E+00  0.00000000000E+00 -0.11708303564E+04  0.11708303564E+04  0.50400001928E-02 0.  1.
    10030    2    1    2    0    0  0.00000000000E+00  0.00000000000E+00 -0.44500625870E+03  0.18966544541E+04  0.18437102669E+04 0.  0.
        4    1    3    3  502    0 -0.65510888667E+03  0.58066277670E+03 -0.51972618636E+03  0.10180637678E+04  0.12699999809E+01 0.  1.
       -4    1    3    3    0  502  0.65510888667E+03 -0.58066277670E+03  0.74719927660E+02  0.87859068634E+03  0.12699999809E+01 0. -1.
</event>
<event>
 5   0  0.1125196E-06  0.3338449E+04  0.7818609E-02  0.8153180E-01
       -1   -1    0    0    0  501  0.00000000000E+00  0.00000000000E+00  0.21737291065E+04  0.21737291065E+04  0.50400001928E-02 0. -1.
        1   -1    0    0  501    0  0.00000000000E+00  0.00000000000E+00 -0.12818112555E+04  0.12818112555E+04  0.50400001928E-02 0.  1.
    10030    2    1    2    0    0  0.00000000000E+00  0.00000000000E+00  0.89191785104E+03  0.34555403620E+04  0.33384490022E+04 0.  0.
        4    1    3    3  502    0  0.10216193346E+04 -0.10749095186E+04 -0.34718864369E+03  0.15230489503E+04  0.12699999809E+01 0.  1.
       -4    1    3    3    0  502 -0.10216193346E+04  0.10749095186E+04  0.12391064947E+04  0.19324914117E+04  0.12699999809E+01 0. -1.
</event>
<event>
 5   0  0.1782660E-06  0.3520719E+04  0.7818609E-02  0.8108897E-01
       -2   -1    0    0    0  501  0.00000000000E+00  0.00000000000E+00  0.13945102001E+04  0.13945102001E+04  0.25500000920E-02 0.  1.
        2   -1    0    0  501    0  0.00000000000E+00  0.00000000000E+00 -0.22221886230E+04  0.22221886230E+04  0.25500000920E-02 0. -1.
    10030    2    1    2    0    0  0.00000000000E+00  0.00000000000E+00 -0.82767842294E+03  0.36166988231E+04  0.35207185069E+04 0.  0.
        4    1    3    3  502    0  0.49784982290E+03 -0.20288827570E+03  0.13081174729E+04  0.14142811016E+04  0.12699999809E+01 0.  1.
       -4    1    3    3    0  502 -0.49784982290E+03  0.20288827570E+03 -0.21357958958E+04  0.22024177215E+04  0.12699999809E+01 0. -1.
</event>
<event>
 5   0  0.1782660E-06  0.3422825E+04  0.7818609E-02  0.8132327E-01
        2   -1    0    0  501    0  0.00000000000E+00  0.00000000000E+00  0.13122474082E+04  0.13122474082E+04  0.25500000920E-02 0. -1.
       -2   -1    0    0    0  501  0.00000000000E+00  0.00000000000E+00 -0.22319977925E+04  0.22319977925E+04  0.25500000920E-02 0.  1.
    10030    2    1    2    0    0  0.00000000000E+00  0.00000000000E+00 -0.91975038426E+03  0.35442452007E+04  0.34228253350E+04 0.  0.
        4    1    3    3  502    0 -0.19284010914E+03 -0.93082132546E+03 -0.19334949138E+04  0.21545347159E+04  0.12699999809E+01 0.  1.
       -4    1    3    3    0  502  0.19284010914E+03  0.93082132546E+03  0.10137445295E+04  0.13897104848E+04  0.12699999809E+01 0. -1.
</event>
<event>
 5   0  0.1908726E-06  0.3481698E+04  0.7818609E-02  0.8118141E-01
       -2   -1    0    0    0  501  0.00000000000E+00  0.00000000000E+00  0.14441054216E+04  0.14441054216E+04  0.25500000920E-02 0.  1.
        2   -1    0    0  501    0  0.00000000000E+00  0.00000000000E+00 -0.20985691638E+04  0.20985691638E+04  0.25500000920E-02 0. -1.
    10030    2    1    2    0    0  0.00000000000E+00  0.00000000000E+00 -0.65446374217E+03  0.35426745854E+04  0.34816979232E+04 0.  0.
        5    1    3    3  502    0 -0.22650933775E+03  0.11486746587E+04  0.98365293470E+03  0.15291681194E+04  0.46999998093E+01 0.  1.
       -5    1    3    3    0  502  0.22650933775E+03 -0.11486746587E+04 -0.16381166769E+04  0.20135064660E+04  0.46999998093E+01 0. -1.
</event>
<event>
 5   0  0.1089337E-06  0.3358110E+04  0.7818609E-02  0.8148265E-01
        1   -1    0    0  501    0  0.00000000000E+00  0.00000000000E+00  0.16274925086E+04  0.16274925086E+04  0.50400001928E-02 0. -1.
       -1   -1    0    0    0  501  0.00000000000E+00  0.00000000000E+00 -0.17322509328E+04  0.17322509328E+04  0.50400001928E-02 0.  1.
    10030    2    1    2    0    0  0.00000000000E+00  0.00000000000E+00 -0.10475842427E+03  0.33597434414E+04  0.33581098351E+04 0.  0.
        2    1    3    3  502    0  0.46118675386E+03 -0.22969119125E+03 -0.16512098485E+04  0.17297240327E+04  0.25500000920E-02 0.  1.
       -2    1    3    3    0  502 -0.46118675386E+03  0.22969119125E+03  0.15464514243E+04  0.16300194087E+04  0.25500000920E-02 0. -1.
</event>
<event>
 5   0  0.1110956E-06  0.3542398E+04  0.7818609E-02  0.8103815E-01
        1   -1    0    0  501    0  0.00000000000E+00  0.00000000000E+00  0.96880830767E+03  0.96880830768E+03  0.50400001928E-02 0.  1.
       -1   -1    0    0    0  501  0.00000000000E+00  0.00000000000E+00 -0.32381492888E+04  0.32381492888E+04  0.50400001928E-02 0. -1.
    10030    2    1    2    0    0  0.00000000000E+00  0.00000000000E+00 -0.22693409812E+04  0.42069575965E+04  0.35423980197E+04 0.  0.
        1    1    3    3  502    0 -0.11955411061E+04  0.73883134502E+03 -0.24148343203E+04  0.27940320484E+04  0.50400001928E-02 0. -1.
       -1    1    3    3    0  502  0.11955411061E+04 -0.73883134502E+03  0.14549333918E+03  0.14129255481E+04  0.50400001928E-02 0.  1.
</event>
<event>
 5   0  0.3041329E-06  0.3576657E+04  0.7818609E-02  0.8095860E-01
        2   -1    0    0  501    0  0.00000000000E+00  0.00000000000E+00  0.14982596905E+04  0.14982596905E+04  0.25500000920E-02 0.  1.
       -2   -1    0    0    0  501  0.00000000000E+00  0.00000000000E+00 -0.21345560913E+04  0.21345560913E+04  0.25500000920E-02 0. -1.
    10030    2    1    2    0    0  0.00000000000E+00  0.00000000000E+00 -0.63629640077E+03  0.36328157819E+04  0.35766572935E+04 0.  0.
        2    1    3    3  502    0 -0.15257289376E+04  0.80142096995E+03  0.16683723352E+03  0.17314615285E+04  0.25500000920E-02 0. -1.
       -2    1    3    3    0  502  0.15257289376E+04 -0.80142096995E+03 -0.80313363428E+03  0.19013542534E+04  0.25500000920E-02 0.  1.
</event>
<event>
 5   0  0.1089337E-06  0.3052991E+04  0.7818609E-02  0.8228759E-01
        1   -1    0    0  501    0  0.00000000000E+00  0.00000000000E+00  0.90206523676E+03  0.90206523677E+03  0.50400001928E-02 0.  1.
       -1   -1    0    0    0  501  0.00000000000E+00  0.00000000000E+00 -0.25831707972E+04  0.25831707972E+04  0.50400001928E-02 0. -1.
    10030    2    1    2    0    0  0.00000000000E+00  0.00000000000E+00 -0.16811055604E+04  0.34852360340E+04  0.30529910428E+04 0.  0.
        2    1    3    3  502    0  0.13326794350E+04 -0.64533793659E+03 -0.41694622513E+03  0.15382911570E+04  0.25500000920E-02 0. -1.
       -2    1    3    3    0  502 -0.13326794350E+04  0.64533793659E+03 -0.12641593353E+04  0.19469448770E+04  0.25500000920E-02 0.  1.
</event>
<event>
 5   0  0.2565004E-06  0.3216520E+04  0.7818609E-02  0.8184468E-01
       -2   -1    0    0    0  501  0.00000000000E+00  0.00000000000E+00  0.20155601061E+04  0.20155601061E+04  0.25500000920E-02 0.  1.
        2   -1    0    0  501    0  0.00000000000E+00  0.00000000000E+00 -0.12832661973E+04  0.12832661973E+04  0.25500000920E-02 0. -1.
    10030    2    1    2    0    0  0.00000000000E+00  0.00000000000E+00  0.73229390880E+03  0.32988263034E+04  0.32165199535E+04 0.  0.
        3    1    3    3  502    0  0.56544931948E+03 -0.46392771139E+03  0.18351172445E+04  0.19755042813E+04  0.10100000352E+00 0.  1.
       -3    1    3    3    0  502 -0.56544931948E+03  0.46392771139E+03 -0.11028233357E+04  0.13233220221E+04  0.10100000352E+00 0. -1.
</event>
<event>
 5   0  0.1110956E-06  0.3441917E+04  0.7818609E-02  0.8127695E-01
        1   -1    0    0  501    0  0.00000000000E+00  0.00000000000E+00  0.17795443998E+04  0.17795443998E+04  0.50400001928E-02 0.  1.
       -1   -1    0    0    0  501  0.00000000000E+00  0.00000000000E+00 -0.16643008935E+04  0.16643008935E+04  0.50400001928E-02 0. -1.
    10030    2    1    2    0    0  0.00000000000E+00  0.00000000000E+00  0.11524350633E+03  0.34438452933E+04  0.34419165212E+04 0.  0.
        1    1    3    3  502    0  0.16864091796E+03 -0.56171846418E+03  0.16764684407E+04  0.17760951058E+04  0.50400001928E-02 0.  1.
       -1    1    3    3    0  502 -0.16864091796E+03  0.56171846418E+03 -0.15612249344E+04  0.16677501875E+04  0.50400001928E-02 0. -1.
</event>
<event>
 5   0  0.1089337E-06  0.2412241E+04  0.7818609E-02  0.8434935E-01
        1   -1    0    0  501    0  0.00000000000E+00  0.00000000000E+00  0.12808173145E+04  0.12808173145E+04  0.50400001928E-02 0.  1.
       -1   -1    0    0    0  501  0.00000000000E+00  0.00000000000E+00 -0.11357795510E+04  0.11357795510E+04  0.50400001928E-02 0. -1.
    10030    2    1    2    0    0  0.00000000000E+00  0.00000000000E+00  0.14503776350E+03  0.24165968655E+04  0.24122405472E+04 0.  0.
        2    1    3    3  502    0 -0.44608217417E+03  0.78407443999E+03  0.87456703088E+03  0.12564352451E+04  0.25500000920E-02 0.  1.
       -2    1    3    3    0  502  0.44608217417E+03 -0.78407443999E+03 -0.72952926737E+03  0.11601616204E+04  0.25500000920E-02 0. -1.
</event>
<event>
 5   0  0.3041329E-06  0.1786386E+04  0.7818609E-02  0.8713573E-01
        2   -1    0    0  501    0  0.00000000000E+00  0.00000000000E+00  0.15063588514E+04  0.15063588514E+04  0.25500000920E-02 0. -1.
       -2   -1    0    0    0  501  0.00000000000E+00  0.00000000000E+00 -0.52961709865E+03  0.52961709866E+03  0.25500000920E-02 0.  1.
    10030    2    1    2    0    0  0.00000000000E+00  0.00000000000E+00  0.97674175276E+03  0.20359759501E+04  0.17863856296E+04 0.  0.
        2    1    3    3  502    0  0.25278924192E+03  0.76614115362E+03  0.51517175508E+02  0.80841121187E+03  0.25500000920E-02 0.  1.
       -2    1    3    3    0  502 -0.25278924192E+03 -0.76614115362E+03  0.92522457725E+03  0.12275647382E+04  0.25500000920E-02 0. -1.
</event>
<event>
 5   0  0.1110956E-06  0.3602954E+04  0.7818609E-02  0.8089815E-01
       -1   -1    0    0    0  501  0.00000000000E+00  0.00000000000E+00  0.14343853962E+04  0.14343853962E+04  0.50400001928E-02 0. -1.
        1   -1    0    0  501    0  0.00000000000E+00  0.00000000000E+00 -0.22625159548E+04  0.22625159548E+04  0.50400001928E-02 0.  1.
    10030    2    1    2    0    0  0.00000000000E+00  0.00000000000E+00 -0.82813055861E+03  0.36969013510E+04  0.36029542569E+04 0.  0.
        1    1    3    3  502    0 -0.49512651573E+03 -0.14225274704E+04  0.59992589940E+03  0.16213098888E+04  0.50400001928E-02 0.  1.
       -1    1    3    3    0  502  0.49512651573E+03  0.14225274704E+04 -0.14280564580E+04  0.20755914622E+04  0.50400001928E-02 0. -1.
</event>
<event>
 5   0  0.1102175E-06  0.2120808E+04  0.7818609E-02  0.8552132E-01
       -1   -1    0    0    0  501  0.00000000000E+00  0.00000000000E+00  0.17155096783E+04  0.17155096783E+04  0.50400001928E-02 0. -1.
        1   -1    0    0  501    0  0.00000000000E+00  0.00000000000E+00 -0.65546506261E+03  0.65546506263E+03  0.50400001928E-02 0.  1.
    10030    2    1    2    0    0  0.00000000000E+00  0.00000000000E+00  0.10600446156E+04  0.23709747409E+04  0.21208080146E+04 0.  0.
        5    1    3    3  502    0 -0.56056543545E+03 -0.44854019629E+03 -0.34242404087E+03  0.79542330169E+03  0.46999998093E+01 0.  1.
       -5    1    3    3    0  502  0.56056543545E+03  0.44854019629E+03  0.14024686565E+04  0.15755514392E+04  0.46999998093E+01 0. -1.
</event>
<event>
 5   0  0.1782660E-06  0.3454759E+04  0.7818609E-02  0.8124596E-01
       -2   -1    0    0    0  501  0.00000000000E+00  0.00000000000E+00  0.11707984245E+04  0.11707984245E+04  0.25500000920E-02 0. -1.
        2   -1    0    0  501    0  0.00000000000E+00  0.00000000000E+00 -0.25485518278E+04  0.25485518278E+04  0.25500000920E-02 0.  1.
    10030    2    1    2    0    0  0.00000000000E+00  0.00000000000E+00 -0.13777534033E+04  0.37193502523E+04  0.34547593055E+04 0.  0.
        4    1    3    3  502    0 -0.13474714115E+04 -0.39931629681E+03  0.39238697863E+03  0.14591442230E+04  0.12699999809E+01 0. -1.
       -4    1    3    3    0  502  0.13474714115E+04  0.39931629681E+03 -0.17701403820E+04  0.22602060292E+04  0.12699999809E+01 0.  1.
</event>
<event>
 5   0  0.1089337E-06  0.2317456E+04  0.7818609E-02  0.8471070E-01
       -1   -1    0    0    0  501  0.00000000000E+00  0.00000000000E+00  0.68171443186E+03  0.68171443188E+03  0.50400001928E-02 0. -1.
        1   -1    0    0  501    0  0.00000000000E+00  0.00000000000E+00 -0.19695197691E+04  0.19695197692E+04  0.50400001928E-02 0.  1.
    10030    2    1    2    0    0  0.00000000000E+00  0.00000000000E+00 -0.12878053373E+04  0.26512342010E+04  0.23174555448E+04 0.  0.
        2    1    3    3  502    0  0.53346335739E+03  0.10196566519E+04 -0.79894784730E+03  0.14009284436E+04  0.25500000920E-02 0.  1.
       -2    1    3    3    0  502 -0.53346335739E+03 -0.10196566519E+04 -0.48885748998E+03  0.12503057574E+04  0.25500000920E-02 0. -1.
</event>
<event>
 5   0  0.1102175E-06  0.3357518E+04  0.7818609E-02  0.8148412E-01
        1   -1    0    0  501    0  0.00000000000E+00  0.00000000000E+00  0.15957651759E+04  0.15957651759E+04  0.50400001928E-02 0. -1.
       -1   -1    0    0    0  501  0.00000000000E+00  0.00000000000E+00 -0.17660688951E+04  0.17660688951E+04  0.50400001928E-02 0.  1.
    10030    2    1    2    0    0  0.00000000000E+00  0.00000000000E+00 -0.17030371914E+03  0.33618340710E+04  0.33575176789E+04 0.  0.
        5    1    3    3  502    0  0.62297970895E+03  0.41655816568E+03 -0.15892763705E+04  0.17571129431E+04  0.46999998093E+01 0.  1.
       -5    1    3    3    0  502 -0.62297970895E+03 -0.41655816568E+03  0.14189726513E+04  0.16047211279E+04  0.46999998093E+01 0. -1.
</event>
<event>
 5   0  0.1908726E-06  0.2699534E+04  0.7818609E-02  0.8335156E-01
       -2   -1    0    0    0  501  0.00000000000E+00  0.00000000000E+00  0.14880374365E+04  0.14880374365E+04  0.25500000920E-02 0. -1.
        2   -1    0    0  501    0  0.00000000000E+00  0.00000000000E+00 -0.12243444935E+04  0.12243444935E+04  0.25500000920E-02 0.  1.
    10030    2    1    2    0    0  0.00000000000E+00  0.00000000000E+00  0.26369294295E+03  0.27123819300E+04  0.26995336201E+04 0.  0.
        5    1    3    3  502    0 -0.13137729941E+04  0.27696451003E+03 -0.71576746647E+01  0.13426772293E+04  0.46999998093E+01 0. -1.
       -5    1    3    3    0  502  0.13137729941E+04 -0.27696451003E+03  0.27085061762E+03  0.13697047006E+04  0.46999998093E+01 0.  1.
</event>
<event>
 5   0  0.1782660E-06  0.3617736E+04  0.7818609E-02  0.8086441E-01
        2   -1    0    0  501    0  0.00000000000E+00  0.00000000000E+00  0.27009108999E+04  0.27009109000E+04  0.25500000920E-02 0.  1.
       -2   -1    0    0    0  501  0.00000000000E+00  0.00000000000E+00 -0.12114441475E+04  0.12114441475E+04  0.25500000920E-02 0. -1.
    10030    2    1    2    0    0  0.00000000000E+00  0.00000000000E+00  0.14894667525E+04  0.39123550474E+04  0.36177355916E+04 0.  0.
        4    1    3    3  502    0 -0.16150643497E+04 -0.77050146414E+03  0.10306416739E+04  0.20650252378E+04  0.12699999809E+01 0.  1.
       -4    1    3    3    0  502  0.16150643497E+04  0.77050146414E+03  0.45882507853E+03  0.18473298096E+04  0.12699999809E+01 0. -1.
</event>
<event>
 5   0  0.3041329E-06  0.2455776E+04  0.7818609E-02  0.8418912E-01
        2   -1    0    0  501    0  0.00000000000E+00  0.00000000000E+00  0.18708426467E+04  0.18708426467E+04  0.25500000920E-02 0. -1.
       -2   -1    0    0    0  501  0.00000000000E+00  0.00000000000E+00 -0.80589860518E+03  0.80589860518E+03  0.25500000920E-02 0.  1.
    10030    2    1    2    0    0  0.00000000000E+00  0.00000000000E+00  0.10649440415E+04  0.26767412519E+04  0.24557764389E+04 0.  0.
        2    1    3    3  502    0  0.18629466146E+03 -0.11161808450E+04  0.12992664429E+02  0.11316952722E+04  0.25500000920E-02 0.  1.
       -2    1    3    3    0  502 -0.18629466146E+03  0.11161808450E+04  0.10519513771E+04  0.15450459797E+04  0.25500000920E-02 0. -1.
</event>
<event>
 5   0  0.1102175E-06  0.3293571E+04  0.7818609E-02  0.8164533E-01
        1   -1    0    0  501    0  0.00000000000E+00  0.00000000000E+00  0.18272337080E+04  0.18272337080E+04  0.50400001928E-02 0.  1.
       -1   -1    0    0    0  501  0.00000000000E+00  0.00000000000E+00 -0.14841576113E+04  0.14841576113E+04  0.50400001928E-02 0. -1.
    10030    2    1    2    0    0  0.00000000000E+00  0.00000000000E+00  0.34307609676E+03  0.33113913193E+04  0.32935712018E+04 0.  0.
        5    1    3    3  502    0 -0.30064226892E+03 -0.80057781077E+03  0.15864797966E+04  0.18022904427E+04  0.46999998093E+01 0.  1.
       -5    1    3    3    0  502  0.30064226892E+03  0.80057781077E+03 -0.12434036998E+04  0.15091008766E+04  0.46999998093E+01 0. -1.
</event>
<event>
 5   0  0.1782660E-06  0.1862669E+04  0.7818609E-02  0.8673665E-01
        2   -1    0    0  501    0  0.00000000000E+00  0.00000000000E+00  0.20422983615E+04  0.20422983615E+04  0.25500000920E-02 0. -1.
       -2   -1    0    0    0  501  0.00000000000E+00  0.00000000000E+00 -0.42470986044E+03  0.42470986044E+03  0.25500000920E-02 0.  1.
    10030    2    1    2    0    0  0.00000000000E+00  0.00000000000E+00  0.16175885011E+04  0.24670082219E+04  0.18626693234E+04 0.  0.
        4    1    3    3  502    0  0.53190474507E+03  0.72989247732E+03  0.11099917064E+04  0.14309957678E+04  0.12699999809E+01 0. -1.
       -4    1    3    3    0  502 -0.53190474507E+03 -0.72989247732E+03  0.50759679466E+03  0.10360124541E+04  0.12699999809E+01 0.  1.
</event>
<event>
 5   0  0.1908726E-06  0.3561764E+04  0.7818609E-02  0.8099307E-01
        2   -1    0    0  501    0  0.00000000000E+00  0.00000000000E+00  0.23738909884E+04  0.23738909884E+04  0.25500000920E-02 0. -1.
       -2   -1    0    0    0  501  0.00000000000E+00  0.00000000000E+00 -0.13360096226E+04  0.13360096226E+04  0.25500000920E-02 0.  1.
    10030    2    1    2    0    0  0.00000000000E+00  0.00000000000E+00  0.10378813658E+04  0.37099006111E+04  0.35617642840E+04 0.  0.
        5    1    3    3  502    0 -0.11033619604E+04 -0.11373787121E+04  0.13654413766E+04  0.20917672417E+04  0.46999998093E+01 0. -1.
       -5    1    3    3    0  502  0.11033619604E+04  0.11373787121E+04 -0.32756001085E+03  0.16181333694E+04  0.46999998093E+01 0.  1.
</event>
<event>
 5   0  0.1782660E-06  0.3480483E+04  0.7818609E-02  0.8118431E-01
        2   -1    0    0  501    0  0.00000000000E+00  0.00000000000E+00  0.19368300691E+04  0.19368300691E+04  0.25500000920E-02 0. -1.
       -2   -1    0    0    0  501  0.00000000000E+00  0.00000000000E+00 -0.15636067831E+04  0.15636067831E+04  0.25500000920E-02 0.  1.
    10030    2    1    2    0    0  0.00000000000E+00  0.00000000000E+00  0.37322328603E+03  0.35004368522E+04  0.34804830894E+04 0.  0.
        4    1    3    3  502    0  0.16012789973E+04 -0.12012554140E+03  0.86121374379E+03  0.18221457950E+04  0.12699999809E+01 0. -1.
       -4    1    3    3    0  502 -0.16012789973E+04  0.12012554140E+03 -0.48799045776E+03  0.16782910572E+04  0.12699999809E+01 0.  1.
</event>
<event>
 5   0  0.1908726E-06  0.3547144E+04  0.7818609E-02  0.8102707E-01
       -2   -1    0    0    0  501  0.00000000000E+00  0.00000000000E+00  0.14129934839E+04  0.14129934839E+04  0.25500000920E-02 0. -1.
        2   -1    0    0  501    0  0.00000000000E+00  0.00000000000E+00 -0.22261663160E+04  0.22261663160E+04  0.25500000920E-02 0.  1.
    10030    2    1    2    0    0  0.00000000000E+00  0.00000000000E+00 -0.81317283216E+03  0.36391597999E+04  0.35471444845E+04 0.  0.
        5    1    3    3  502    0  0.16317992021E+04 -0.69147477671E+03 -0.33677414335E+03  0.18039802982E+04  0.46999998093E+01 0.  1.
       -5    1    3    3    0  502 -0.16317992021E+04  0.69147477671E+03 -0.47639868881E+03  0.18351795017E+04  0.46999998093E+01 0. -1.
</event>
<event>
 5   0  0.1908726E-06  0.3521128E+04  0.7818609E-02  0.8108801E-01
        2   -1    0    0  501    0  0.00000000000E+00  0.00000000000E+00  0.23735740776E+04  0.23735740776E+04  0.25500000920E-02 0. -1.
       -2   -1    0    0    0  501  0.00000000000E+00  0.00000000000E+00 -0.13058729887E+04  0.13058729887E+04  0.25500000920E-02 0.  1.
    10030    2    1    2    0    0  0.00000000000E+00  0.00000000000E+00  0.10677010889E+04  0.36794470663E+04  0.35211283842E+04 0.  0.
        5    1    3    3  502    0  0.15064039385E+04 -0.64677635544E+03 -0.13687513662E+03  0.16450925119E+04  0.46999998093E+01 0.  1.
       -5    1    3    3    0  502 -0.15064039385E+04  0.64677635544E+03  0.12045762255E+04  0.20343545543E+04  0.46999998093E+01 0. -1.
</event>
<event>
 5   0  0.1089337E-06  0.3526511E+04  0.7818609E-02  0.8107536E-01
        1   -1    0    0  501    0  0.00000000000E+00  0.00000000000E+00  0.14646451779E+04  0.14646451779E+04  0.50400001928E-02 0.  1.
       -1   -1    0    0    0  501  0.00000000000E+00  0.00000000000E+00 -0.21227456614E+04  0.21227456614E+04  0.50400001928E-02 0. -1.
    10030    2    1    2    0    0  0.00000000000E+00  0.00000000000E+00 -0.65810048346E+03  0.35873908393E+04  0.35265105682E+04 0.  0.
        2    1    3    3  502    0 -0.15542401331E+04 -0.80614909452E+03 -0.54129161533E+03  0.18326307230E+04  0.25500000920E-02 0.  1.
       -2    1    3    3    0  502  0.15542401331E+04  0.80614909452E+03 -0.11680886813E+03  0.17547601163E+04  0.25500000920E-02 0. -1.
</event>
<event>
 5   0  0.1782660E-06  0.2682290E+04  0.7818609E-02  0.8340774E-01
        2   -1    0    0  501    0  0.00000000000E+00  0.00000000000E+00  0.21072147349E+04  0.21072147349E+04  0.25500000920E-02 0.  1.
       -2   -1    0    0    0  501  0.00000000000E+00  0.00000000000E+00 -0.85357665564E+03  0.85357665564E+03  0.25500000920E-02 0. -1.
    10030    2    1    2    0    0  0.00000000000E+00  0.00000000000E+00  0.12536380793E+04  0.29607913905E+04  0.26822895490E+04 0.  0.
        4    1    3    3  502    0 -0.97862866636E+03  0.73641148437E+03  0.23586603959E+02  0.12249791352E+04  0.12699999809E+01 0. -1.
       -4    1    3    3    0  502  0.97862866636E+03 -0.73641148437E+03  0.12300514753E+04  0.17358122553E+04  0.12699999809E+01 0.  1.
</event>
<event>
 5   0  0.1125196E-06  0.1942340E+04  0.7818609E-02  0.8634064E-01
       -1   -1    0    0    0  501  0.00000000000E+00  0.00000000000E+00  0.10658506167E+04  0.10658506167E+04  0.50400001928E-02 0.  1.
        1   -1    0    0  501    0  0.00000000000E+00  0.00000000000E+00 -0.88489976686E+03  0.88489976688E+03  0.50400001928E-02 0. -1.
    10030    2    1    2    0    0  0.00000000000E+00  0.00000000000E+00  0.18095084982E+03  0.19507503836E+04  0.19423397872E+04 0.  0.
        4    1    3    3  502    0 -0.60711513712E+03 -0.15187909743E+03  0.83633056903E+03  0.10445604260E+04  0.12699999809E+01 0.  1.
       -4    1    3    3    0  502  0.60711513712E+03  0.15187909743E+03 -0.65537971921E+03  0.90618995757E+03  0.12699999809E+01 0. -1.
</event>
<event>
 5   0  0.1110956E-06  0.2029711E+04  0.7818609E-02  0.8592855E-01
       -1   -1    0    0    0  501  0.00000000000E+00  0.00000000000E+00  0.74103645907E+03  0.74103645909E+03  0.50400001928E-02 0. -1.
        1   -1    0    0  501    0  0.00000000000E+00  0.00000000000E+00 -0.13898525823E+04  0.13898525823E+04  0.50400001928E-02 0.  1.
    10030    2    1    2    0    0  0.00000000000E+00  0.00000000000E+00 -0.64881612320E+03  0.21308890414E+04  0.20297107540E+04 0.  0.
        1    1    3    3  502    0 -0.40785223050E+02 -0.10090912014E+04 -0.42940840249E+03  0.10974151737E+04  0.50400001928E-02 0.  1.
       -1    1    3    3    0  502  0.40785223050E+02  0.10090912014E+04 -0.21940772070E+03  0.10334738677E+04  0.50400001928E-02 0. -1.
</event>
<event>
 5   0  0.1125196E-06  0.3474168E+04  0.7818609E-02  0.8119939E-01
       -1   -1    0    0    0  501  0.00000000000E+00  0.00000000000E+00  0.15978355415E+04  0.15978355415E+04  0.50400001928E-02 0. -1.
        1   -1    0    0  501    0  0.00000000000E+00  0.00000000000E+00 -0.18884676318E+04  0.18884676318E+04  0.50400001928E-02 0.  1.
    10030    2    1    2    0    0  0.00000000000E+00  0.00000000000E+00 -0.29063209027E+03  0.34863031733E+04  0.34741679298E+04 0.  0.
        4    1    3    3  502    0  0.11244096682E+04  0.12193459783E+04 -0.66321699110E+03  0.17863258681E+04  0.12699999809E+01 0.  1.
       -4    1    3    3    0  502 -0.11244096682E+04 -0.12193459783E+04  0.37258490084E+03  0.16999773052E+04  0.12699999809E+01 0. -1.
</event>
<event>
 5   0  0.3041329E-06  0.3433156E+04  0.7818609E-02  0.8129816E-01
       -2   -1    0    0    0  501  0.00000000000E+00  0.00000000000E+00  0.11432213099E+04  0.11432213099E+04  0.25500000920E-02 0.  1.
        2   -1    0    0  501    0  0.00000000000E+00  0.00000000000E+00 -0.25774889336E+04  0.25774889336E+04  0.25500000920E-02 0. -1.
    10030    2    1    2    0    0  0.00000000000E+00  0.00000000000E+00 -0.14342676236E+04  0.37207102435E+04  0.34331561427E+04 0.  0.
        2    1    3    3  502    0 -0.22963922759E+03  0.11310041952E+04  0.66002176632E+03  0.13294861400E+04  0.25500000920E-02 0.  1.
       -2    1    3    3    0  502  0.22963922759E+03 -0.11310041952E+04 -0.20942893900E+04  0.23912241035E+04  0.25500000920E-02 0. -1.
</event>
<event>
 5   0  0.3041329E-06  0.2069589E+04  0.7818609E-02  0.8574759E-01
        2   -1    0    0  501    0  0.00000000000E+00  0.00000000000E+00  0.11779260328E+04  0.11779260328E+04  0.25500000920E-02 0. -1.
       -2   -1    0    0    0  501  0.00000000000E+00  0.00000000000E+00 -0.90905537809E+03  0.90905537809E+03  0.25500000920E-02 0.  1.
    10030    2    1    2    0    0  0.00000000000E+00  0.00000000000E+00  0.26887065474E+03  0.20869814109E+04  0.20695893265E+04 0.  0.
        2    1    3    3  502    0 -0.61328453791E+03 -0.57436998560E+03 -0.47461141259E+03  0.96502580161E+03  0.25500000920E-02 0.  1.
       -2    1    3    3    0  502  0.61328453791E+03  0.57436998560E+03  0.74348206733E+03  0.11219556093E+04  0.25500000920E-02 0. -1.
</event>
<event>
 5   0  0.1130707E-06  0.3583470E+04  0.7818609E-02  0.8094289E-01
        1   -1    0    0  501    0  0.00000000000E+00  0.00000000000E+00  0.19802829291E+04  0.19802829291E+04  0.50400001928E-02 0. -1.
       -1   -1    0    0    0  501  0.00000000000E+00  0.00000000000E+00 -0.16211394194E+04  0.16211394194E+04  0.50400001928E-02 0.  1.
    10030    2    1    2    0    0  0.00000000000E+00  0.00000000000E+00  0.35914350972E+03  0.36014223485E+04  0.35834702275E+04 0.  0.
        3    1    3    3  502    0 -0.99492307829E+03 -0.59442281559E+02  0.16759597873E+04  0.19499350080E+04  0.10100000352E+00 0. -1.
       -3    1    3    3    0  502  0.99492307829E+03  0.59442281559E+02 -0.13168162776E+04  0.16514873405E+04  0.10100000352E+00 0.  1.
</event>
<event>
 5   0  0.1782660E-06  0.3166018E+04  0.7818609E-02  0.8197850E-01
       -2   -1    0    0    0  501  0.00000000000E+00  0.00000000000E+00  0.15100049611E+04  0.15100049611E+04  0.25500000920E-02 0. -1.
        2   -1    0    0  501    0  0.00000000000E+00  0.00000000000E+00 -0.16595422230E+04  0.16595422230E+04  0.25500000920E-02 0.  1.
    10030    2    1    2    0    0  0.00000000000E+00  0.00000000000E+00 -0.14953726187E+03  0.31695471841E+04  0.31660176815E+04 0.  0.
        4    1    3    3  502    0 -0.71198072755E+03  0.77826970450E+03 -0.12564637409E+04  0.16405252313E+04  0.12699999809E+01 0.  1.
       -4    1    3    3    0  502  0.71198072755E+03 -0.77826970450E+03  0.11069264790E+04  0.15290219528E+04  0.12699999809E+01 0. -1.
</event>
<event>
 5   0  0.1130707E-06  0.3559940E+04  0.7818609E-02  0.8099730E-01
        1   -1    0    0  501    0  0.00000000000E+00  0.00000000000E+00  0.19272562292E+04  0.19272562292E+04  0.50400001928E-02 0. -1.
       -1   -1    0    0    0  501  0.00000000000E+00  0.00000000000E+00 -0.16439397323E+04  0.16439397324E+04  0.50400001928E-02 0.  1.
    10030    2    1    2    0    0  0.00000000000E+00  0.00000000000E+00  0.28331649687E+03  0.35711959616E+04  0.35599399375E+04 0.  0.
        3    1    3    3  502    0  0.74625051601E+02 -0.13238705352E+02 -0.16423203375E+04  0.16440682051E+04  0.10100000352E+00 0.  1.
       -3    1    3    3    0  502 -0.74625051601E+02  0.13238705352E+02  0.19256368344E+04  0.19271277565E+04  0.10100000352E+00 0. -1.
</event>
<event>
 5   0  0.1130707E-06  0.2180774E+04  0.7818609E-02  0.8526473E-01
        1   -1    0    0  501    0  0.00000000000E+00  0.00000000000E+00  0.20183404780E+04  0.20183404780E+04  0.50400001928E-02 0. -1.
       -1   -1    0    0    0  501  0.00000000000E+00  0.00000000000E+00 -0.58906979163E+03  0.58906979165E+03  0.50400001928E-02 0.  1.
    10030    2    1    2    0    0  0.00000000000E+00  0.00000000000E+00  0.14292706864E+04  0.26074102697E+04  0.21807736287E+04 0.  0.
        3    1    3    3  502    0  0.71329939443E+03 -0.43699377987E+03 -0.12161213351E+03  0.84531006794E+03  0.10100000352E+00 0.  1.
       -3    1    3    3    0  502 -0.71329939443E+03  0.43699377987E+03  0.15508828199E+04  0.17621002018E+04  0.10100000352E+00 0. -1.
</event>
<event>
 5   0  0.1125196E-06  0.3151516E+04  0.7818609E-02  0.8201740E-01
        1   -1    0    0  501    0  0.00000000000E+00  0.00000000000E+00  0.17743631443E+04  0.17743631444E+04  0.50400001928E-02 0. -1.
       -1   -1    0    0    0  501  0.00000000000E+00  0.00000000000E+00 -0.13993829817E+04  0.13993829817E+04  0.50400001928E-02 0.  1.
    10030    2    1    2    0    0  0.00000000000E+00  0.00000000000E+00  0.37498016267E+03  0.31737461260E+04  0.31515161986E+04 0.  0.
        4    1    3    3  502    0  0.13886282815E+04 -0.70956117647E+03  0.41546357342E+03  0.16138082789E+04  0.12699999809E+01 0. -1.
       -4    1    3    3    0  502 -0.13886282815E+04  0.70956117647E+03 -0.40483410749E+02  0.15599378471E+04  0.12699999809E+01 0.  1.
</event>
<event>
 5   0  0.1102175E-06  0.1787823E+04  0.7818609E-02  0.8712802E-01
        1   -1    0    0  501    0  0.00000000000E+00  0.00000000000E+00  0.18463173873E+04  0.18463173873E+04  0.50400001928E-02 0. -1.
       -1   -1    0    0    0  501  0.00000000000E+00  0.00000000000E+00 -0.43279548625E+03  0.43279548628E+03  0.50400001928E-02 0.  1.
    10030    2    1    2    0    0  0.00000000000E+00  0.00000000000E+00  0.14135219011E+04  0.22791128736E+04  0.17878230689E+04 0.  0.
        5    1    3    3  502    0 -0.63853158624E+03 -0.33120132828E+03  0.13832917408E+04  0.15591456111E+04  0.46999998093E+01 0. -1.
       -5    1    3    3    0  502  0.63853158624E+03  0.33120132828E+03  0.30230160267E+02  0.71996726250E+03  0.46999998093E+01 0.  1.
</event>
<event>
 5   0  0.1908726E-06  0.3493589E+04  0.7818609E-02  0.8115311E-01
        2   -1    0    0  501    0  0.00000000000E+00  0.00000000000E+00  0.22498620887E+04  0.22498620887E+04  0.25500000920E-02 0.  1.
       -2   -1    0    0    0  501  0.00000000000E+00  0.00000000000E+00 -0.13562121244E+04  0.13562121244E+04  0.25500000920E-02 0. -1.
    10030    2    1    2    0    0  0.00000000000E+00  0.00000000000E+00  0.89364996428E+03  0.36060742131E+04  0.34935885521E+04 0.  0.
        5    1    3    3  502    0  0.39621798186E+03  0.16670703106E+04  0.96552297163E+02  0.17162332434E+04  0.46999998093E+01 0. -1.
       -5    1    3    3    0  502 -0.39621798186E+03 -0.16670703106E+04  0.79709766711E+03  0.18898409697E+04  0.46999998093E+01 0.  1.
</event>
<event>
 5   0  0.2565004E-06  0.3449420E+04  0.7818609E-02  0.8125882E-01
        2   -1    0    0  501    0  0.00000000000E+00  0.00000000000E+00  0.16341199953E+04  0.16341199953E+04  0.25500000920E-02 0.  1.
       -2   -1    0    0    0  501  0.00000000000E+00  0.00000000000E+00 -0.18203221463E+04  0.18203221463E+04  0.25500000920E-02 0. -1.
    10030    2    1    2    0    0  0.00000000000E+00  0.00000000000E+00 -0.18620215101E+03  0.34544421416E+04  0.34494201351E+04 0.  0.
        3    1    3    3  502    0 -0.64751815138E+03 -0.15530499811E+04 -0.47230894279E+03  0.17476612223E+04  0.10100000352E+00 0. -1.
       -3    1    3    3    0  502  0.64751815138E+03  0.15530499811E+04  0.28610679178E+03  0.17067809193E+04  0.10100000352E+00 0.  1.
</event>
<event>
 5   0  0.1110956E-06  0.3546831E+04  0.7818609E-02  0.8102780E-01
       -1   -1    0    0    0  501  0.00000000000E+00  0.00000000000E+00  0.18289390818E+04  0.18289390818E+04  0.50400001928E-02 0.  1.
        1   -1    0    0  501    0  0.00000000000E+00  0.00000000000E+00 -0.17195774434E+04  0.17195774434E+04  0.50400001928E-02 0. -1.
    10030    2    1    2    0    0  0.00000000000E+00  0.00000000000E+00  0.10936163834E+03  0.35485165252E+04  0.35468309181E+04 0.  0.
        1    1    3    3  502    0 -0.10732419899E+04  0.14116447619E+04  0.75015036719E+02  0.17748849423E+04  0.50400001928E-02 0.  1.
       -1    1    3    3    0  502  0.10732419899E+04 -0.14116447619E+04  0.34346601618E+02  0.17736315829E+04  0.50400001928E-02 0. -1.
</event>
<event>
 5   0  0.1908726E-06  0.3270605E+04  0.7818609E-02  0.8170416E-01
        2   -1    0    0  501    0  0.00000000000E+00  0.00000000000E+00  0.24106386957E+04  0.24106386957E+04  0.25500000920E-02 0. -1.
       -2   -1    0    0    0  501  0.00000000000E+00  0.00000000000E+00 -0.11093381937E+04  0.11093381937E+04  0.25500000920E-02 0.  1.
    10030    2    1    2    0    0  0.00000000000E+00  0.00000000000E+00  0.13013005019E+04  0.35199768894E+04  0.32706045780E+04 0.  0.
        5    1    3    3  502    0  0.12734470505E+03  0.10697383040E+04  0.19747549293E+04  0.22494967957E+04  0.46999998093E+01 0. -1.
       -5    1    3    3    0  502 -0.12734470505E+03 -0.10697383040E+04 -0.67345442739E+03  0.12704800938E+04  0.46999998093E+01 0.  1.
</event>
<event>
 5   0  0.2565004E-06  0.2384937E+04  0.7818609E-02  0.8445164E-01
       -2   -1    0    0    0  501  0.00000000000E+00  0.00000000000E+00  0.95520519578E+03  0.95520519579E+03  0.25500000920E-02 0. -1.
        2   -1    0    0  501    0  0.00000000000E+00  0.00000000000E+00 -0.14886660856E+04  0.14886660856E+04  0.25500000920E-02 0.  1.
    10030    2    1    2    0    0  0.00000000000E+00  0.00000000000E+00 -0.53346088982E+03  0.24438712814E+04  0.23849373826E+04 0.  0.
        3    1    3    3  502    0  0.90818650961E+03  0.62192596016E+02  0.52257030549E+03  0.10496429820E+04  0.10100000352E+00 0. -1.
       -3    1    3    3    0  502 -0.90818650961E+03 -0.62192596016E+02 -0.10560311953E+04  0.13942282994E+04  0.10100000352E+00 0.  1.
</event>
<event>
 5   0  0.1110956E-06  0.1965475E+04  0.7818609E-02  0.8622935E-01
       -1   -1    0    0    0  501  0.00000000000E+00  0.00000000000E+00  0.10139776329E+04  0.10139776329E+04  0.50400001928E-02 0. -1.
        1   -1    0    0  501    0  0.00000000000E+00  0.00000000000E+00 -0.95245958578E+03  0.95245958580E+03  0.50400001928E-02 0.  1.
    10030    2    1    2    0    0  0.00000000000E+00  0.00000000000E+00  0.61518047067E+02  0.19664372187E+04  0.19654747174E+04 0.  0.
        1    1    3    3  502    0  0.85450887519E+03  0.27415891155E+03  0.43148505076E+03  0.99575492749E+03  0.50400001928E-02 0. -1.
       -1    1    3    3    0  502 -0.85450887519E+03 -0.27415891155E+03 -0.36996700369E+03  0.97068229118E+03  0.50400001928E-02 0.  1.
</event>
<event>
 5   0  0.1110956E-06  0.3728578E+04  0.7818609E-02  0.8061658E-01
       -1   -1    0    0    0  501  0.00000000000E+00  0.00000000000E+00  0.15743353146E+04  0.15743353146E+04  0.50400001928E-02 0.  1.
        1   -1    0    0  501    0  0.00000000000E+00  0.00000000000E+00 -0.22076447969E+04  0.22076447969E+04  0.50400001928E-02 0. -1.
    10030    2    1    2    0    0  0.00000000000E+00  0.00000000000E+00 -0.63330948224E+03  0.37819801115E+04  0.37285778339E+04 0.  0.
        1    1    3    3  502    0  0.99689371224E+03 -0.29004355570E+03  0.12539575639E+04  0.16279840017E+04  0.50400001928E-02 0.  1.
       -1    1    3    3    0  502 -0.99689371224E+03  0.29004355570E+03 -0.18872670461E+04  0.21539961098E+04  0.50400001928E-02 0. -1.
</event>
<event>
 5   0  0.1125196E-06  0.3638860E+04  0.7818609E-02  0.8081648E-01
        1   -1    0    0  501    0  0.00000000000E+00  0.00000000000E+00  0.24145207071E+04  0.24145207072E+04  0.50400001928E-02 0. -1.
       -1   -1    0    0    0  501  0.00000000000E+00  0.00000000000E+00 -0.13710072168E+04  0.13710072168E+04  0.50400001928E-02 0.  1.
    10030    2    1    2    0    0  0.00000000000E+00  0.00000000000E+00  0.10435134903E+04  0.37855279240E+04  0.36388598845E+04 0.  0.
        4    1    3    3  502    0 -0.54492390840E+03  0.10762190904E+04  0.19386879856E+04  0.22833533049E+04  0.12699999809E+01 0. -1.
       -4    1    3    3    0  502  0.54492390840E+03 -0.10762190904E+04 -0.89517449525E+03  0.15021746191E+04  0.12699999809E+01 0.  1.
</event>
<event>
 5   0  0.1908726E-06  0.2484220E+04  0.7818609E-02  0.8408629E-01
        2   -1    0    0  501    0  0.00000000000E+00  0.00000000000E+00  0.14286319489E+04  0.14286319489E+04  0.25500000920E-02 0.  1.
       -2   -1    0    0    0  501  0.00000000000E+00  0.00000000000E+00 -0.10799399454E+04  0.10799399454E+04  0.25500000920E-02 0. -1.
    10030    2    1    2    0    0  0.00000000000E+00  0.00000000000E+00  0.34869200351E+03  0.25085718943E+04  0.24842195626E+04 0.  0.
        5    1    3    3  502    0  0.11594793026E+04 -0.27291822719E+03 -0.18115336280E+03  0.12048714631E+04  0.46999998093E+01 0. -1.
       -5    1    3    3    0  502 -0.11594793026E+04  0.27291822719E+03  0.52984536631E+03  0.13037004311E+04  0.46999998093E+01 0.  1.
</event>
<event>
 5   0  0.1908726E-06  0.2733654E+04  0.7818609E-02  0.8324167E-01
        2   -1    0    0  501    0  0.00000000000E+00  0.00000000000E+00  0.23772090636E+04  0.23772090636E+04  0.25500000920E-02 0.  1.
       -2   -1    0    0    0  501  0.00000000000E+00  0.00000000000E+00 -0.78588649004E+03  0.78588649004E+03  0.25500000920E-02 0. -1.
    10030    2    1    2    0    0  0.00000000000E+00  0.00000000000E+00  0.15913225736E+04  0.31630955537E+04  0.27336543213E+04 0.  0.
        5    1    3    3  502    0  0.66877367975E+03  0.27389716701E+03  0.21380484025E+04  0.22568896638E+04  0.46999998093E+01 0.  1.
       -5    1    3    3    0  502 -0.66877367975E+03 -0.27389716701E+03 -0.54672582897E+03  0.90620588989E+03  0.46999998093E+01 0. -1.
</event>
<event>
 5   0  0.1908726E-06  0.3573476E+04  0.7818609E-02  0.8096595E-01
        2   -1    0    0  501    0  0.00000000000E+00  0.00000000000E+00  0.17887148779E+04  0.17887148779E+04  0.25500000920E-02 0. -1.
       -2   -1    0    0    0  501  0.00000000000E+00  0.00000000000E+00 -0.17847630371E+04  0.17847630371E+04  0.25500000920E-02 0.  1.
    10030    2    1    2    0    0  0.00000000000E+00  0.00000000000E+00  0.39518408015E+01  0.35734779149E+04  0.35734757298E+04 0.  0.
        5    1    3    3  502    0  0.92733032100E+03  0.49048102526E+01 -0.15252592871E+04  0.17850500173E+04  0.46999998093E+01 0.  1.
       -5    1    3    3    0  502 -0.92733032100E+03 -0.49048102526E+01  0.15292111279E+04  0.17884278976E+04  0.46999998093E+01 0. -1.
</event>
<event>
 5   0  0.2565004E-06  0.2101625E+04  0.7818609E-02  0.8560528E-01
       -2   -1    0    0    0  501  0.00000000000E+00  0.00000000000E+00  0.58591934790E+03  0.58591934791E+03  0.25500000920E-02 0.  1.
        2   -1    0    0  501    0  0.00000000000E+00  0.00000000000E+00 -0.18845722495E+04  0.18845722495E+04  0.25500000920E-02 0. -1.
    10030    2    1    2    0    0  0.00000000000E+00  0.00000000000E+00 -0.12986529016E+04  0.24704915974E+04  0.21016254124E+04 0.  0.
        3    1    3    3  502    0 -0.19508161377E+03 -0.99410647171E+03 -0.32122763729E+03  0.10627754788E+04  0.10100000352E+00 0.  1.
       -3    1    3    3    0  502  0.19508161377E+03  0.99410647171E+03 -0.97742526432E+03  0.14077161186E+04  0.10100000352E+00 0. -1.
</event>
<event>
 5   0  0.1782660E-06  0.2062244E+04  0.7818609E-02  0.8578060E-01
       -2   -1    0    0    0  501  0.00000000000E+00  0.00000000000E+00  0.88494851381E+03  0.88494851381E+03  0.25500000920E-02 0. -1.
        2   -1    0    0  501    0  0.00000000000E+00  0.00000000000E+00 -0.12014400535E+04  0.12014400535E+04  0.25500000920E-02 0.  1.
    10030    2    1    2    0    0  0.00000000000E+00  0.00000000000E+00 -0.31649153970E+03  0.20863885673E+04  0.20622440106E+04 0.  0.
        4    1    3    3  502    0  0.16692815632E+03 -0.53937146246E+03 -0.10311476744E+04  0.11756078101E+04  0.12699999809E+01 0.  1.
       -4    1    3    3    0  502 -0.16692815632E+03  0.53937146246E+03  0.71465613471E+03  0.91078075719E+03  0.12699999809E+01 0. -1.
</event>
<event>
 5   0  0.1782660E-06  0.2628075E+04  0.7818609E-02  0.8358727E-01
        2   -1    0    0  501    0  0.00000000000E+00  0.00000000000E+00  0.15407940851E+04  0.15407940851E+04  0.25500000920E-02 0.  1.
       -2   -1    0    0    0  501  0.00000000000E+00  0.00000000000E+00 -0.11206519508E+04  0.11206519508E+04  0.25500000920E-02 0. -1.
    10030    2    1    2    0    0  0.00000000000E+00  0.00000000000E+00  0.42014213424E+03  0.26614460359E+04  0.26280745022E+04 0.  0.
        4    1    3    3  502    0  0.94297823251E+03  0.42345366025E+03  0.10316503395E+04  0.14604194552E+04  0.12699999809E+01 0.  1.
       -4    1    3    3    0  502 -0.94297823251E+03 -0.42345366025E+03 -0.61150820525E+03  0.12010265806E+04  0.12699999809E+01 0. -1.
</event>
<event>
 5   0  0.1110956E-06  0.1889128E+04  0.7818609E-02  0.8660287E-01
       -1   -1    0    0    0  501  0.00000000000E+00  0.00000000000E+00  0.53002610617E+03  0.53002610620E+03  0.50400001928E-02 0.  1.
        1   -1    0    0  501    0  0.00000000000E+00  0.00000000000E+00 -0.16833154806E+04  0.16833154806E+04  0.50400001928E-02 0. -1.
    10030    2    1    2    0    0  0.00000000000E+00  0.00000000000E+00 -0.11532893744E+04  0.22133415868E+04  0.18891279996E+04 0.  0.
        1    1    3    3  502    0  0.30590490130E+03  0.79681513898E+03 -0.10506937631E+04  0.13536800058E+04  0.50400001928E-02 0. -1.
       -1    1    3    3    0  502 -0.30590490130E+03 -0.79681513898E+03 -0.10259561135E+03  0.85966158100E+03  0.50400001928E-02 0.  1.
</event>
<event>
 5   0  0.1125196E-06  0.3483412E+04  0.7818609E-02  0.8117732E-01
       -1   -1    0    0    0  501  0.00000000000E+00  0.00000000000E+00  0.27502030957E+04  0.27502030957E+04  0.50400001928E-02 0.  1.
        1   -1    0    0  501    0  0.00000000000E+00  0.00000000000E+00 -0.11030237321E+04  0.11030237321E+04  0.50400001928E-02 0. -1.
    10030    2    1    2    0    0  0.00000000000E+00  0.00000000000E+00  0.16471793637E+04  0.38532268278E+04  0.34834117084E+04 0.  0.
        4    1    3    3  502    0  0.30772459951E+03  0.14003872501E+04 -0.27020455972E+03  0.14590376953E+04  0.12699999809E+01 0. -1.
       -4    1    3    3    0  502 -0.30772459951E+03 -0.14003872501E+04  0.19173839234E+04  0.23941891325E+04  0.12699999809E+01 0.  1.
</event>
<event>
 5   0  0.1782660E-06  0.3253942E+04  0.7818609E-02  0.8174715E-01
       -2   -1    0    0    0  501  0.00000000000E+00  0.00000000000E+00  0.11672838111E+04  0.11672838112E+04  0.25500000920E-02 0. -1.
        2   -1    0    0  501    0  0.00000000000E+00  0.00000000000E+00 -0.22676872800E+04  0.22676872800E+04  0.25500000920E-02 0.  1.
    10030    2    1    2    0    0  0.00000000000E+00  0.00000000000E+00 -0.11004034689E+04  0.34349710912E+04  0.32539420098E+04 0.  0.
        4    1    3    3  502    0  0.14134765492E+04  0.43360784936E+01 -0.14006903548E+04  0.19899421699E+04  0.12699999809E+01 0.  1.
       -4    1    3    3    0  502 -0.14134765492E+04 -0.43360784936E+01  0.30028688590E+03  0.14450289213E+04  0.12699999809E+01 0. -1.
</event>
<event>
 5   0  0.1130707E-06  0.1779990E+04  0.7818609E-02  0.8717014E-01
        1   -1    0    0  501    0  0.00000000000E+00  0.00000000000E+00  0.56407885697E+03  0.56407885699E+03  0.50400001928E-02 0. -1.
       -1   -1    0    0    0  501  0.00000000000E+00  0.00000000000E+00 -0.14042203672E+04  0.14042203672E+04  0.50400001928E-02 0.  1.
    10030    2    1    2    0    0  0.00000000000E+00  0.00000000000E+00 -0.84014151023E+03  0.19682992242E+04  0.17799899097E+04 0.  0.
        3    1    3    3  502    0 -0.23200958495E+03 -0.83128681636E+03 -0.17976808148E+03  0.88157971385E+03  0.10100000352E+00 0.  1.
       -3    1    3    3    0  502  0.23200958495E+03  0.83128681636E+03 -0.66037342876E+03  0.10867195103E+04  0.10100000352E+00 0. -1.
</event>
<event>
 5   0  0.2565004E-06  0.3461754E+04  0.7818609E-02  0.8122914E-01
       -2   -1    0    0    0  501  0.00000000000E+00  0.00000000000E+00  0.15392116092E+04  0.15392116092E+04  0.25500000920E-02 0.  1.
        2   -1    0    0  501    0  0.00000000000E+00  0.00000000000E+00 -0.19464088353E+04  0.19464088353E+04  0.25500000920E-02 0. -1.
    10030    2    1    2    0    0  0.00000000000E+00  0.00000000000E+00 -0.40719722618E+03  0.34856204445E+04  0.34617539344E+04 0.  0.
        3    1    3    3  502    0  0.38805035336E+03 -0.18086005478E+03  0.14850570467E+04  0.15455380546E+04  0.10100000352E+00 0.  1.
       -3    1    3    3    0  502 -0.38805035336E+03  0.18086005478E+03 -0.18922542729E+04  0.19400823899E+04  0.10100000352E+00 0. -1.
</event>
<event>
 5   0  0.1171386E-06  0.1851734E+04  0.7818609E-02  0.8679262E-01
        1   -1    0    0  501    0  0.00000000000E+00  0.00000000000E+00  0.91727103672E+03  0.91727103674E+03  0.50400001928E-02 0. -1.
       -1   -1    0    0    0  501  0.00000000000E+00  0.00000000000E+00 -0.93454350073E+03  0.93454350074E+03  0.50400001928E-02 0.  1.
    10030    2    1    2    0    0  0.00000000000E+00  0.00000000000E+00 -0.17272464007E+02  0.18518145375E+04  0.18517339828E+04 0.  0.
        1    1    3    3  502    0  0.18662189861E+03  0.53946208945E+03  0.72035542809E+03  0.91910773134E+03  0.50400001928E-02 0. -1.
       -1    1    3    3    0  502 -0.18662189861E+03 -0.53946208945E+03 -0.73762789210E+03  0.93270680614E+03  0.50400001928E-02 0.  1.
</event>
<event>
 5   0  0.1125196E-06  0.3503006E+04  0.7818609E-02  0.8113078E-01
        1   -1    0    0  501    0  0.00000000000E+00  0.00000000000E+00  0.25419311015E+04  0.25419311015E+04  0.50400001928E-02 0.  1.
       -1   -1    0    0    0  501  0.00000000000E+00  0.00000000000E+00 -0.12068631820E+04  0.12068631820E+04  0.50400001928E-02 0. -1.
    10030    2    1    2    0    0  0.00000000000E+00  0.00000000000E+00  0.13350679195E+04  0.37487942835E+04  0.35030061704E+04 0.  0.
        4    1    3    3  502    0 -0.89961162598E+03  0.11379094413E+04  0.17180535752E+04  0.22485214418E+04  0.12699999809E+01 0.  1.
       -4    1    3    3    0  502  0.89961162598E+03 -0.11379094413E+04 -0.38298565568E+03  0.15002728417E+04  0.12699999809E+01 0. -1.
</event>
<event>
 5   0  0.3041329E-06  0.3325009E+04  0.7818609E-02  0.8156561E-01
       -2   -1    0    0    0  501  0.00000000000E+00  0.00000000000E+00  0.13074760873E+04  0.13074760873E+04  0.25500000920E-02 0.  1.
        2   -1    0    0  501    0  0.00000000000E+00  0.00000000000E+00 -0.21139366139E+04  0.21139366140E+04  0.25500000920E-02 0. -1.
    10030    2    1    2    0    0  0.00000000000E+00  0.00000000000E+00 -0.80646052666E+03  0.34214127012E+04  0.33250092167E+04 0.  0.
        2    1    3    3  502    0 -0.13627328773E+03  0.11893741186E+04  0.78379312414E+03  0.14309132973E+04  0.25500000920E-02 0.  1.
       -2    1    3    3    0  502  0.13627328773E+03 -0.11893741186E+04 -0.15902536508E+04  0.19904994039E+04  0.25500000920E-02 0. -1.
</event>
<event>
 5   0  0.2565004E-06  0.3580975E+04  0.7818609E-02  0.8094864E-01
       -2   -1    0    0    0  501  0.00000000000E+00  0.00000000000E+00  0.31520864184E+04  0.31520864184E+04  0.25500000920E-02 0.  1.
        2   -1    0    0  501    0  0.00000000000E+00  0.00000000000E+00 -0.10170550808E+04  0.10170550808E+04  0.25500000920E-02 0. -1.
    10030    2    1    2    0    0  0.00000000000E+00  0.00000000000E+00  0.21350313375E+04  0.41691414992E+04  0.35809750108E+04 0.  0.
        3    1    3    3  502    0  0.10823198903E+04  0.10677032799E+04  0.21686002319E+04  0.26484398454E+04  0.10100000352E+00 0.  1.
       -3    1    3    3    0  502 -0.10823198903E+04 -0.10677032799E+04 -0.33568894370E+02  0.15207016538E+04  0.10100000352E+00 0. -1.
</event>
<event>
 5   0  0.1782660E-06  0.3572820E+04  0.7818609E-02  0.8096746E-01
       -2   -1    0    0    0  501  0.00000000000E+00  0.00000000000E+00  0.33874273170E+04  0.33874273170E+04  0.25500000920E-02 0. -1.
        2   -1    0    0  501    0  0.00000000000E+00  0.00000000000E+00 -0.94208982562E+03  0.94208982562E+03  0.25500000920E-02 0.  1.
    10030    2    1    2    0    0  0.00000000000E+00  0.00000000000E+00  0.24453374914E+04  0.43295171426E+04  0.35728200684E+04 0.  0.
        4    1    3    3  502    0 -0.38087807603E+03 -0.40167226214E+03 -0.83554262439E+03  0.10022683299E+04  0.12699999809E+01 0.  1.
       -4    1    3    3    0  502  0.38087807603E+03  0.40167226214E+03  0.32808801158E+04  0.33272488128E+04  0.12699999809E+01 0. -1.
</event>
<event>
 5   0  0.1782660E-06  0.3499545E+04  0.7818609E-02  0.8113898E-01
       -2   -1    0    0    0  501  0.00000000000E+00  0.00000000000E+00  0.19760184223E+04  0.19760184223E+04  0.25500000920E-02 0.  1.
        2   -1    0    0  501    0  0.00000000000E+00  0.00000000000E+00 -0.15494310237E+04  0.15494310237E+04  0.25500000920E-02 0. -1.
    10030    2    1    2    0    0  0.00000000000E+00  0.00000000000E+00  0.42658739863E+03  0.35254494460E+04  0.34995452544E+04 0.  0.
        4    1    3    3  502    0 -0.15727321746E+04  0.29303490190E+03 -0.50071688339E+03  0.16763278191E+04  0.12699999809E+01 0. -1.
       -4    1    3    3    0  502  0.15727321746E+04 -0.29303490190E+03  0.92730428202E+03  0.18491216269E+04  0.12699999809E+01 0.  1.
</event>
<event>
 5   0  0.2565004E-06  0.1775173E+04  0.7818609E-02  0.8719615E-01
        2   -1    0    0  501    0  0.00000000000E+00  0.00000000000E+00  0.15189546438E+04  0.15189546438E+04  0.25500000920E-02 0.  1.
       -2   -1    0    0    0  501  0.00000000000E+00  0.00000000000E+00 -0.51865245196E+03  0.51865245197E+03  0.25500000920E-02 0. -1.
    10030    2    1    2    0    0  0.00000000000E+00  0.00000000000E+00  0.10003021918E+04  0.20376070957E+04  0.17751727245E+04 0.  0.
        3    1    3    3  502    0 -0.79451807547E+02 -0.14739901201E+03 -0.50035798846E+03  0.52763357103E+03  0.10100000352E+00 0. -1.
       -3    1    3    3    0  502  0.79451807547E+02  0.14739901201E+03  0.15006601803E+04  0.15099735247E+04  0.10100000352E+00 0.  1.
</event>
<event>
 5   0  0.3378848E-06  0.3495216E+04  0.7818609E-02  0.8114925E-01
        2   -1    0    0  501    0  0.00000000000E+00  0.00000000000E+00  0.20467347146E+04  0.20467347146E+04  0.25500000920E-02 0. -1.
       -2   -1    0    0    0  501  0.00000000000E+00  0.00000000000E+00 -0.14921977628E+04  0.14921977628E+04  0.25500000920E-02 0.  1.
    10030    2    1    2    0    0  0.00000000000E+00  0.00000000000E+00  0.55453695178E+03  0.35389324774E+04  0.34952155654E+04 0.  0.
        1    1    3    3  502    0 -0.41183751945E+03 -0.13740535062E+04  0.12880025677E+04  0.19278443389E+04  0.50400001928E-02 0. -1.
       -1    1    3    3    0  502  0.41183751945E+03  0.13740535062E+04 -0.73346561594E+03  0.16110881385E+04  0.50400001928E-02 0.  1.
</event>
<event>
 5   0  0.1908726E-06  0.2386825E+04  0.7818609E-02  0.8444453E-01
        2   -1    0    0  501    0  0.00000000000E+00  0.00000000000E+00  0.29302207875E+04  0.29302207875E+04  0.25500000920E-02 0. -1.
       -2   -1    0    0    0  501  0.00000000000E+00  0.00000000000E+00 -0.48604983379E+03  0.48604983380E+03  0.25500000920E-02 0.  1.
    10030    2    1    2    0    0  0.00000000000E+00  0.00000000000E+00  0.24441709537E+04  0.34162706213E+04  0.23868249427E+04 0.  0.
        5    1    3    3  502    0 -0.16963820881E+03  0.51652339936E+03 -0.29849347165E+03  0.62023704065E+03  0.46999998093E+01 0.  1.
       -5    1    3    3    0  502  0.16963820881E+03 -0.51652339936E+03  0.27426644254E+04  0.27960335807E+04  0.46999998093E+01 0. -1.
</event>
<event>
 5   0  0.2565004E-06  0.3403449E+04  0.7818609E-02  0.8137060E-01
        2   -1    0    0  501    0  0.00000000000E+00  0.00000000000E+00  0.17267348685E+04  0.17267348685E+04  0.25500000920E-02 0.  1.
       -2   -1    0    0    0  501  0.00000000000E+00  0.00000000000E+00 -0.16770765252E+04  0.16770765252E+04  0.25500000920E-02 0. -1.
    10030    2    1    2    0    0  0.00000000000E+00  0.00000000000E+00  0.49658343325E+02  0.34038113937E+04  0.34034491406E+04 0.  0.
        3    1    3    3  502    0 -0.79100643816E+03  0.34338375517E+03 -0.14423862522E+04  0.16805004312E+04  0.10100000352E+00 0. -1.
       -3    1    3    3    0  502  0.79100643816E+03 -0.34338375517E+03  0.14920445955E+04  0.17233109625E+04  0.10100000352E+00 0.  1.
</event>
<event>
 5   0  0.1110956E-06  0.3518370E+04  0.7818609E-02  0.8109450E-01
       -1   -1    0    0    0  501  0.00000000000E+00  0.00000000000E+00  0.20254400818E+04  0.20254400818E+04  0.50400001928E-02 0. -1.
        1   -1    0    0  501    0  0.00000000000E+00  0.00000000000E+00 -0.15279309074E+04  0.15279309074E+04  0.50400001928E-02 0.  1.
    10030    2    1    2    0    0  0.00000000000E+00  0.00000000000E+00  0.49750917442E+03  0.35533709892E+04  0.35183703625E+04 0.  0.
        1    1    3    3  502    0 -0.25197134573E+03  0.27752980435E+03  0.19846374939E+04  0.20197272919E+04  0.50400001928E-02 0. -1.
       -1    1    3    3    0  502  0.25197134573E+03 -0.27752980435E+03 -0.14871283195E+04  0.15336436972E+04  0.50400001928E-02 0.  1.
</event>
<event>
 5   0  0.1102175E-06  0.3408823E+04  0.7818609E-02  0.8135744E-01
       -1   -1    0    0    0  501  0.00000000000E+00  0.00000000000E+00  0.15468525376E+04  0.15468525376E+04  0.50400001928E-02 0. -1.
        1   -1    0    0  501    0  0.00000000000E+00  0.00000000000E+00 -0.18780187512E+04  0.18780187512E+04  0.50400001928E-02 0.  1.
    10030    2    1    2    0    0  0.00000000000E+00  0.00000000000E+00 -0.33116621360E+03  0.34248712888E+04  0.34088227122E+04 0.  0.
        5    1    3    3  502    0  0.71371691254E+03  0.11472958096E+04 -0.12093757777E+04  0.18133646538E+04  0.46999998093E+01 0.  1.
       -5    1    3    3    0  502 -0.71371691254E+03 -0.11472958096E+04  0.87820956406E+03  0.16115066349E+04  0.46999998093E+01 0. -1.
</event>
<event>
 5   0  0.1110956E-06  0.3605906E+04  0.7818609E-02  0.8089140E-01
        1   -1    0    0  501    0  0.00000000000E+00  0.00000000000E+00  0.18422738414E+04  0.18422738414E+04  0.50400001928E-02 0.  1.
       -1   -1    0    0    0  501  0.00000000000E+00  0.00000000000E+00 -0.17644712605E+04  0.17644712605E+04  0.50400001928E-02 0. -1.
    10030    2    1    2    0    0  0.00000000000E+00  0.00000000000E+00  0.77802580970E+02  0.36067451019E+04  0.36059058486E+04 0.  0.
        1    1    3    3  502    0 -0.61931166992E+03 -0.11698988783E+04  0.12632895049E+04  0.18297843324E+04  0.50400001928E-02 0.  1.
       -1    1    3    3    0  502  0.61931166992E+03  0.11698988783E+04 -0.11854869239E+04  0.17769607696E+04  0.50400001928E-02 0. -1.
</event>
<event>
 5   0  0.1110956E-06  0.3465470E+04  0.7818609E-02  0.8122022E-01
        1   -1    0    0  501    0  0.00000000000E+00  0.00000000000E+00  0.18030402681E+04  0.18030402681E+04  0.50400001928E-02 0.  1.
       -1   -1    0    0    0  501  0.00000000000E+00  0.00000000000E+00 -0.16651715860E+04  0.16651715860E+04  0.50400001928E-02 0. -1.
    10030    2    1    2    0    0  0.00000000000E+00  0.00000000000E+00  0.13786868208E+03  0.34682118540E+04  0.34654704862E+04 0.  0.
        1    1    3    3  502    0 -0.82989392117E+03  0.95664957487E+03  0.12524386681E+04  0.17811527017E+04  0.50400001928E-02 0.  1.
       -1    1    3    3    0  502  0.82989392117E+03 -0.95664957487E+03 -0.11145699860E+04  0.16870591523E+04  0.50400001928E-02 0. -1.
</event>
<event>
 5   0  0.1102175E-06  0.3478446E+04  0.7818609E-02  0.8118917E-01
        1   -1    0    0  501    0  0.00000000000E+00  0.00000000000E+00  0.14063636173E+04  0.14063636173E+04  0.50400001928E-02 0.  1.
       -1   -1    0    0    0  501  0.00000000000E+00  0.00000000000E+00 -0.21508643097E+04  0.21508643097E+04  0.50400001928E-02 0. -1.
    10030    2    1    2    0    0  0.00000000000E+00  0.00000000000E+00 -0.74450069237E+03  0.35572279270E+04  0.34784463837E+04 0.  0.
        5    1    3    3  502    0  0.11868766363E+04  0.90082749540E+03  0.54512228758E+03  0.15866148634E+04  0.46999998093E+01 0. -1.
       -5    1    3    3    0  502 -0.11868766363E+04 -0.90082749540E+03 -0.12896229799E+04  0.19706130637E+04  0.46999998093E+01 0.  1.
</event>
<event>
 5   0  0.1089337E-06  0.1982575E+04  0.7818609E-02  0.8614811E-01
        1   -1    0    0  501    0  0.00000000000E+00  0.00000000000E+00  0.10317864552E+04  0.10317864553E+04  0.50400001928E-02 0. -1.
       -1   -1    0    0    0  501  0.00000000000E+00  0.00000000000E+00 -0.95237860643E+03  0.95237860644E+03  0.50400001928E-02 0.  1.
    10030    2    1    2    0    0  0.00000000000E+00  0.00000000000E+00  0.79407848816E+02  0.19841650617E+04  0.19825754426E+04 0.  0.
        2    1    3    3  502    0 -0.26304747120E+02 -0.86623698070E+03  0.52133078091E+03  0.10113576171E+04  0.25500000920E-02 0. -1.
       -2    1    3    3    0  502  0.26304747120E+02  0.86623698070E+03 -0.44192293209E+03  0.97280744465E+03  0.25500000920E-02 0.  1.
</event>
<event>
 5   0  0.3378848E-06  0.3511619E+04  0.7818609E-02  0.8111042E-01
       -2   -1    0    0    0  501  0.00000000000E+00  0.00000000000E+00  0.19450450264E+04  0.19450450264E+04  0.25500000920E-02 0. -1.
        2   -1    0    0  501    0  0.00000000000E+00  0.00000000000E+00 -0.15849846491E+04  0.15849846491E+04  0.25500000920E-02 0.  1.
    10030    2    1    2    0    0  0.00000000000E+00  0.00000000000E+00  0.36006037726E+03  0.35300296755E+04  0.35116187200E+04 0.  0.
        1    1    3    3  502    0  0.83373527669E+03 -0.10054568308E+04  0.13595568972E+04  0.18853256767E+04  0.50400001928E-02 0. -1.
       -1    1    3    3    0  502 -0.83373527669E+03  0.10054568308E+04 -0.99949651995E+03  0.16447039988E+04  0.50400001928E-02 0.  1.
</event>
<event>
 5   0  0.1908726E-06  0.1750803E+04  0.7818609E-02  0.8732908E-01
       -2   -1    0    0    0  501  0.00000000000E+00  0.00000000000E+00  0.65417337428E+03  0.65417337429E+03  0.25500000920E-02 0.  1.
        2   -1    0    0  501    0  0.00000000000E+00  0.00000000000E+00 -0.11714448323E+04  0.11714448323E+04  0.25500000920E-02 0. -1.
    10030    2    1    2    0    0  0.00000000000E+00  0.00000000000E+00 -0.51727145803E+03  0.18256182066E+04  0.17508032656E+04 0.  0.
        5    1    3    3  502    0 -0.13956487071E+03  0.48472174357E+03  0.48738942288E+03  0.70143001174E+03  0.46999998093E+01 0.  1.
       -5    1    3    3    0  502  0.13956487071E+03 -0.48472174357E+03 -0.10046608809E+04  0.11241881949E+04  0.46999998093E+01 0. -1.
</event>
<event>
 5   0  0.1908726E-06  0.3489427E+04  0.7818609E-02  0.8116300E-01
        2   -1    0    0  501    0  0.00000000000E+00  0.00000000000E+00  0.23792376924E+04  0.23792376924E+04  0.25500000920E-02 0.  1.
       -2   -1    0    0    0  501  0.00000000000E+00  0.00000000000E+00 -0.12794120509E+04  0.12794120509E+04  0.25500000920E-02 0. -1.
    10030    2    1    2    0    0  0.00000000000E+00  0.00000000000E+00  0.10998256415E+04  0.36586497433E+04  0.34894271023E+04 0.  0.
        5    1    3    3  502    0 -0.13988048857E+04 -0.50175358046E+03 -0.40852450184E+03  0.15412093052E+04  0.46999998093E+01 0. -1.
       -5    1    3    3    0  502  0.13988048857E+04  0.50175358046E+03  0.15083501434E+04  0.21174404381E+04  0.46999998093E+01 0.  1.
</event>
<event>
 5   0  0.3041329E-06  0.3487440E+04  0.7818609E-02  0.8116773E-01
        2   -1    0    0  501    0  0.00000000000E+00  0.00000000000E+00  0.22282611863E+04  0.22282611863E+04  0.25500000920E-02 0.  1.
       -2   -1    0    0    0  501  0.00000000000E+00  0.00000000000E+00 -0.13645434772E+04  0.13645434772E+04  0.25500000920E-02 0. -1.
    10030    2    1    2    0    0  0.00000000000E+00  0.00000000000E+00  0.86371770911E+03  0.35928046634E+04  0.34874399018E+04 0.  0.
        2    1    3    3  502    0 -0.72286337985E+03  0.75660466186E+03 -0.10051224110E+04  0.14509490485E+04  0.25500000920E-02 0. -1.
       -2    1    3    3    0  502  0.72286337985E+03 -0.75660466186E+03  0.18688401202E+04  0.21418556149E+04  0.25500000920E-02 0.  1.
</event>
<event>
 5   0  0.3041329E-06  0.3277885E+04  0.7818609E-02  0.8168545E-01
       -2   -1    0    0    0  501  0.00000000000E+00  0.00000000000E+00  0.17438423330E+04  0.17438423331E+04  0.25500000920E-02 0.  1.
        2   -1    0    0  501    0  0.00000000000E+00  0.00000000000E+00 -0.15403527103E+04  0.15403527103E+04  0.25500000920E-02 0. -1.
    10030    2    1    2    0    0  0.00000000000E+00  0.00000000000E+00  0.20348962277E+03  0.32841950433E+04  0.32778848448E+04 0.  0.
        2    1    3    3  502    0  0.10267019634E+04  0.11484183557E+04 -0.45893108852E+03  0.16073578896E+04  0.25500000920E-02 0.  1.
       -2    1    3    3    0  502 -0.10267019634E+04 -0.11484183557E+04  0.66242071130E+03  0.16768371537E+04  0.25500000920E-02 0. -1.
</event>
<event>
 5   0  0.1089337E-06  0.3550974E+04  0.7818609E-02  0.8101815E-01
       -1   -1    0    0    0  501  0.00000000000E+00  0.00000000000E+00  0.12186254504E+04  0.12186254505E+04  0.50400001928E-02 0.  1.
        1   -1    0    0  501    0  0.00000000000E+00  0.00000000000E+00 -0.25868114727E+04  0.25868114727E+04  0.50400001928E-02 0. -1.
    10030    2    1    2    0    0  0.00000000000E+00  0.00000000000E+00 -0.13681860223E+04  0.38054369232E+04  0.35509741177E+04 0.  0.
        2    1    3    3  502    0  0.11281701426E+04  0.91795530984E+03  0.40718341032E+03  0.15103668929E+04  0.25500000920E-02 0.  1.
       -2    1    3    3    0  502 -0.11281701426E+04 -0.91795530984E+03 -0.17753694326E+04  0.22950700303E+04  0.25500000920E-02 0. -1.
</event>
<event>
 5   0  0.1102175E-06  0.3398852E+04  0.7818609E-02  0.8138188E-01
       -1   -1    0    0    0  501  0.00000000000E+00  0.00000000000E+00  0.16906274537E+04  0.16906274537E+04  0.50400001928E-02 0.  1.
        1   -1    0    0  501    0  0.00000000000E+00  0.00000000000E+00 -0.17082698449E+04  0.17082698449E+04  0.50400001928E-02 0. -1.
    10030    2    1    2    0    0  0.00000000000E+00  0.00000000000E+00 -0.17642391193E+02  0.33988972985E+04  0.33988515107E+04 0.  0.
        5    1    3    3  502    0 -0.12972882032E+04 -0.51347075831E+03  0.96145828527E+03  0.16944122952E+04  0.46999998093E+01 0.  1.
       -5    1    3    3    0  502  0.12972882032E+04  0.51347075831E+03 -0.97910067646E+03  0.17044850033E+04  0.46999998093E+01 0. -1.
</event>
<event>
 5   0  0.2565004E-06  0.3489034E+04  0.7818609E-02  0.8116394E-01
       -2   -1    0    0    0  501  0.00000000000E+00  0.00000000000E+00  0.11239821786E+04  0.11239821787E+04  0.25500000920E-02 0. -1.
        2   -1    0    0  501    0  0.00000000000E+00  0.00000000000E+00 -0.27076397667E+04  0.27076397667E+04  0.25500000920E-02 0.  1.
    10030    2    1    2    0    0  0.00000000000E+00  0.00000000000E+00 -0.15836575881E+04  0.38316219454E+04  0.34890335877E+04 0.  0.
        3    1    3    3  502    0  0.72578913566E+03  0.74031996768E+03  0.74896561505E+03  0.12789812456E+04  0.10100000352E+00 0. -1.
       -3    1    3    3    0  502 -0.72578913566E+03 -0.74031996768E+03 -0.23326232031E+04  0.25526406997E+04  0.10100000352E+00 0.  1.
</event>
<event>
 5   0  0.1102175E-06  0.1928958E+04  0.7818609E-02  0.8640575E-01
        1   -1    0    0  501    0  0.00000000000E+00  0.00000000000E+00  0.12254287189E+04  0.12254287189E+04  0.50400001928E-02 0. -1.
       -1   -1    0    0    0  501  0.00000000000E+00  0.00000000000E+00 -0.75909764922E+03  0.75909764924E+03  0.50400001928E-02 0.  1.
    10030    2    1    2    0    0  0.00000000000E+00  0.00000000000E+00  0.46633106971E+03  0.19845263682E+04  0.19289583301E+04 0.  0.
        5    1    3    3  502    0  0.52841715040E+03  0.43449464131E+03  0.93259385904E+03  0.11566173412E+04  0.46999998093E+01 0. -1.
       -5    1    3    3    0  502 -0.52841715040E+03 -0.43449464131E+03 -0.46626278933E+03  0.82790902693E+03  0.46999998093E+01 0.  1.
</event>
<event>
 5   0  0.1102175E-06  0.3557814E+04  0.7818609E-02  0.8100224E-01
        1   -1    0    0  501    0  0.00000000000E+00  0.00000000000E+00  0.22486280111E+04  0.22486280111E+04  0.50400001928E-02 0.  1.
       -1   -1    0    0    0  501  0.00000000000E+00  0.00000000000E+00 -0.14073072203E+04  0.14073072203E+04  0.50400001928E-02 0. -1.
    10030    2    1    2    0    0  0.00000000000E+00  0.00000000000E+00  0.84132079078E+03  0.36559352314E+04  0.35578141805E+04 0.  0.
        5    1    3    3  502    0 -0.44755054597E+03 -0.77551917699E+03  0.20001790078E+04  0.21914537728E+04  0.46999998093E+01 0.  1.
       -5    1    3    3    0  502  0.44755054597E+03  0.77551917699E+03 -0.11588582171E+04  0.14644814585E+04  0.46999998093E+01 0. -1.
</event>
<event>
 5   0  0.1125196E-06  0.2344844E+04  0.7818609E-02  0.8460447E-01
        1   -1    0    0  501    0  0.00000000000E+00  0.00000000000E+00  0.12305988804E+04  0.12305988804E+04  0.50400001928E-02 0.  1.
       -1   -1    0    0    0  501  0.00000000000E+00  0.00000000000E+00 -0.11169959024E+04  0.11169959024E+04  0.50400001928E-02 0. -1.
    10030    2    1    2    0    0  0.00000000000E+00  0.00000000000E+00  0.11360297801E+03  0.23475947827E+04  0.23448444783E+04 0.  0.
        4    1    3    3  502    0 -0.10780695689E+03  0.74645981382E+03  0.95548884107E+03  0.12172859697E+04  0.12699999809E+01 0.  1.
       -4    1    3    3    0  502  0.10780695689E+03 -0.74645981382E+03 -0.84188586306E+03  0.11303088131E+04  0.12699999809E+01 0. -1.
</event>
<event>
 5   0  0.1782660E-06  0.3476209E+04  0.7818609E-02  0.8119451E-01
       -2   -1    0    0    0  501  0.00000000000E+00  0.00000000000E+00  0.10562819260E+04  0.10562819260E+04  0.25500000920E-02 0. -1.
        2   -1    0    0  501    0  0.00000000000E+00  0.00000000000E+00 -0.28600382462E+04  0.28600382462E+04  0.25500000920E-02 0.  1.
    10030    2    1    2    0    0  0.00000000000E+00  0.00000000000E+00 -0.18037563201E+04  0.39163201722E+04  0.34762086860E+04 0.  0.
        4    1    3    3  502    0  0.25863704917E+03 -0.83793248595E+03 -0.25925321034E+04  0.27368317986E+04  0.12699999809E+01 0.  1.
       -4    1    3    3    0  502 -0.25863704917E+03  0.83793248595E+03  0.78877578326E+03  0.11794883736E+04  0.12699999809E+01 0. -1.
</event>
<event>
 5   0  0.1130707E-06  0.1894942E+04  0.7818609E-02  0.8657378E-01
        1   -1    0    0  501    0  0.00000000000E+00  0.00000000000E+00  0.14780809650E+04  0.14780809650E+04  0.50400001928E-02 0. -1.
       -1   -1    0    0    0  501  0.00000000000E+00  0.00000000000E+00 -0.60734248566E+03  0.60734248568E+03  0.50400001928E-02 0.  1.
    10030    2    1    2    0    0  0.00000000000E+00  0.00000000000E+00  0.87073847933E+03  0.20854234507E+04  0.18949420754E+04 0.  0.
        3    1    3    3  502    0  0.14714327843E+03  0.58407567684E+03  0.12402600595E+04  0.13787822765E+04  0.10100000352E+00 0. -1.
       -3    1    3    3    0  502 -0.14714327843E+03 -0.58407567684E+03 -0.36952158015E+03  0.70664117419E+03  0.10100000352E+00 0.  1.
</event>
<event>
 5   0  0.1908726E-06  0.3541900E+04  0.7818609E-02  0.8103931E-01
        2   -1    0    0  501    0  0.00000000000E+00  0.00000000000E+00  0.16460117072E+04  0.16460117072E+04  0.25500000920E-02 0. -1.
       -2   -1    0    0    0  501  0.00000000000E+00  0.00000000000E+00 -0.19053719606E+04  0.19053719606E+04  0.25500000920E-02 0.  1.
    10030    2    1    2    0    0  0.00000000000E+00  0.00000000000E+00 -0.25936025333E+03  0.35513836678E+04  0.35419003677E+04 0.  0.
        5    1    3    3  502    0 -0.13405279021E+04  0.66255037519E+03  0.82167766803E+03  0.17062134498E+04  0.46999998093E+01 0. -1.
       -5    1    3    3    0  502  0.13405279021E+04 -0.66255037519E+03 -0.10810379214E+04  0.18451702180E+04  0.46999998093E+01 0.  1.
</event>
<event>
 5   0  0.1102175E-06  0.3517246E+04  0.7818609E-02  0.8109715E-01
       -1   -1    0    0    0  501  0.00000000000E+00  0.00000000000E+00  0.14769347414E+04  0.14769347414E+04  0.50400001928E-02 0. -1.
        1   -1    0    0  501    0  0.00000000000E+00  0.00000000000E+00 -0.20940356637E+04  0.20940356637E+04  0.50400001928E-02 0.  1.
    10030    2    1    2    0    0  0.00000000000E+00  0.00000000000E+00 -0.61710092233E+03  0.35709704051E+04  0.35172455254E+04 0.  0.
        5    1    3    3  502    0  0.31245848090E+03 -0.90940931235E+03 -0.18034804336E+04  0.20438246902E+04  0.46999998093E+01 0.  1.
       -5    1    3    3    0  502 -0.31245848090E+03  0.90940931235E+03  0.11863795113E+04  0.15271457149E+04  0.46999998093E+01 0. -1.
</event>
<event>
 5   0  0.1125196E-06  0.3482832E+04  0.7818609E-02  0.8117871E-01
       -1   -1    0    0    0  501  0.00000000000E+00  0.00000000000E+00  0.18139344776E+04  0.18139344776E+04  0.50400001928E-02 0. -1.
        1   -1    0    0  501    0  0.00000000000E+00  0.00000000000E+00 -0.16717970068E+04  0.16717970068E+04  0.50400001928E-02 0.  1.
    10030    2    1    2    0    0  0.00000000000E+00  0.00000000000E+00  0.14213747080E+03  0.34857314844E+04  0.34828323130E+04 0.  0.
        4    1    3    3  502    0 -0.80544003132E+02 -0.43419869041E+03  0.17569627819E+04  0.18116113461E+04  0.12699999809E+01 0. -1.
       -4    1    3    3    0  502  0.80544003132E+02  0.43419869041E+03 -0.16148253111E+04  0.16741201383E+04  0.12699999809E+01 0.  1.
</event>
<event>
 5   0  0.1089337E-06  0.3460538E+04  0.7818609E-02  0.8123206E-01
        1   -1    0    0  501    0  0.00000000000E+00  0.00000000000E+00  0.23064991463E+04  0.23064991463E+04  0.50400001928E-02 0. -1.
       -1   -1    0    0    0  501  0.00000000000E+00  0.00000000000E+00 -0.12979974821E+04  0.12979974822E+04  0.50400001928E-02 0.  1.
    10030    2    1    2    0    0  0.00000000000E+00  0.00000000000E+00  0.10085016642E+04  0.36044966285E+04  0.34605375793E+04 0.  0.
        2    1    3    3  502    0  0.28971357082E+03 -0.15598604994E+04 -0.21492968179E+03  0.16010288875E+04  0.25500000920E-02 0.  1.
       -2    1    3    3    0  502 -0.28971357082E+03  0.15598604994E+04  0.12234313459E+04  0.20034677409E+04  0.25500000920E-02 0. -1.
</event>
<event>
 5   0  0.1125196E-06  0.2295722E+04  0.7818609E-02  0.8479610E-01
       -1   -1    0    0    0  501  0.00000000000E+00  0.00000000000E+00  0.83046894102E+03  0.83046894103E+03  0.50400001928E-02 0.  1.
        1   -1    0    0  501    0  0.00000000000E+00  0.00000000000E+00 -0.15865553325E+04  0.15865553326E+04  0.50400001928E-02 0. -1.
    10030    2    1    2    0    0  0.00000000000E+00  0.00000000000E+00 -0.75608639153E+03  0.24170242736E+04  0.22957220449E+04 0.  0.
        4    1    3    3  502    0  0.17643817570E+03  0.41046806616E+03  0.73516542011E+03  0.86028150684E+03  0.12699999809E+01 0.  1.
       -4    1    3    3    0  502 -0.17643817570E+03 -0.41046806616E+03 -0.14912518116E+04  0.15567427667E+04  0.12699999809E+01 0. -1.
</event>
<event>
 5   0  0.1102175E-06  0.1773008E+04  0.7818609E-02  0.8720787E-01
       -1   -1    0    0    0  501  0.00000000000E+00  0.00000000000E+00  0.34115220691E+03  0.34115220694E+03  0.50400001928E-02 0. -1.
        1   -1    0    0  501    0  0.00000000000E+00  0.00000000000E+00 -0.23036322830E+04  0.23036322830E+04  0.50400001928E-02 0.  1.
    10030    2    1    2    0    0  0.00000000000E+00  0.00000000000E+00 -0.19624800761E+04  0.26447844899E+04  0.17730078819E+04 0.  0.
        5    1    3    3  502    0  0.40228222806E+02  0.65945893588E+03 -0.18629341111E+04  0.19766259106E+04  0.46999998093E+01 0.  1.
       -5    1    3    3    0  502 -0.40228222806E+02 -0.65945893588E+03 -0.99545964956E+02  0.66815857935E+03  0.46999998093E+01 0. -1.
</event>
<event>
 5   0  0.1782660E-06  0.2375671E+04  0.7818609E-02  0.8448669E-01
        2   -1    0    0  501    0  0.00000000000E+00  0.00000000000E+00  0.17413299504E+04  0.17413299504E+04  0.25500000920E-02 0. -1.
       -2   -1    0    0    0  501  0.00000000000E+00  0.00000000000E+00 -0.81027309821E+03  0.81027309822E+03  0.25500000920E-02 0.  1.
    10030    2    1    2    0    0  0.00000000000E+00  0.00000000000E+00  0.93105685218E+03  0.25516030486E+04  0.23756706960E+04 0.  0.
        4    1    3    3  502    0 -0.63384224429E+03 -0.47650127971E+03  0.14154103069E+04  0.16224048231E+04  0.12699999809E+01 0. -1.
       -4    1    3    3    0  502  0.63384224429E+03  0.47650127971E+03 -0.48435345476E+03  0.92919822549E+03  0.12699999809E+01 0.  1.
</event>
<event>
 5   0  0.1782660E-06  0.2953958E+04  0.7818609E-02  0.8257002E-01
        2   -1    0    0  501    0  0.00000000000E+00  0.00000000000E+00  0.17769081246E+04  0.17769081246E+04  0.25500000920E-02 0.  1.
       -2   -1    0    0    0  501  0.00000000000E+00  0.00000000000E+00 -0.12276756662E+04  0.12276756662E+04  0.25500000920E-02 0. -1.
    10030    2    1    2    0    0  0.00000000000E+00  0.00000000000E+00  0.54923245833E+03  0.30045837908E+04  0.29539579318E+04 0.  0.
        4    1    3    3  502    0  0.40814721177E+03  0.56009483652E+03 -0.10520280682E+04  0.12597837281E+04  0.12699999809E+01 0. -1.
       -4    1    3    3    0  502 -0.40814721177E+03 -0.56009483652E+03  0.16012605265E+04  0.17448000628E+04  0.12699999809E+01 0.  1.
</event>
<event>
 5   0  0.1102175E-06  0.3455695E+04  0.7818609E-02  0.8124371E-01
       -1   -1    0    0    0  501  0.00000000000E+00  0.00000000000E+00  0.18292727749E+04  0.18292727749E+04  0.50400001928E-02 0.  1.
        1   -1    0    0  501    0  0.00000000000E+00  0.00000000000E+00 -0.16320461953E+04  0.16320461954E+04  0.50400001928E-02 0. -1.
    10030    2    1    2    0    0  0.00000000000E+00  0.00000000000E+00  0.19722657955E+03  0.34613189703E+04  0.34556953989E+04 0.  0.
        5    1    3    3  502    0 -0.73120021437E+03  0.15294737868E+03 -0.14619301100E+04  0.16417394406E+04  0.46999998093E+01 0. -1.
       -5    1    3    3    0  502  0.73120021437E+03 -0.15294737868E+03  0.16591566896E+04  0.18195795297E+04  0.46999998093E+01 0.  1.
</event>
<event>
 5   0  0.1908726E-06  0.3498484E+04  0.7818609E-02  0.8114149E-01
       -2   -1    0    0    0  501  0.00000000000E+00  0.00000000000E+00  0.28483307642E+04  0.28483307642E+04  0.25500000920E-02 0. -1.
        2   -1    0    0  501    0  0.00000000000E+00  0.00000000000E+00 -0.10742600665E+04  0.10742600666E+04  0.25500000920E-02 0.  1.
    10030    2    1    2    0    0  0.00000000000E+00  0.00000000000E+00  0.17740706977E+04  0.39225908308E+04  0.34984842411E+04 0.  0.
        5    1    3    3  502    0 -0.15642646873E+04  0.61020779503E+03  0.14369487080E+04  0.22100048064E+04  0.46999998093E+01 0.  1.
       -5    1    3    3    0  502  0.15642646873E+04 -0.61020779503E+03  0.33712198968E+03  0.17125860244E+04  0.46999998093E+01 0. -1.
</event>
<event>
 5   0  0.1908726E-06  0.3456908E+04  0.7818609E-02  0.8124079E-01
        2   -1    0    0  501    0  0.00000000000E+00  0.00000000000E+00  0.22039008870E+04  0.22039008870E+04  0.25500000920E-02 0. -1.
       -2   -1    0    0    0  501  0.00000000000E+00  0.00000000000E+00 -0.13555747425E+04  0.13555747425E+04  0.25500000920E-02 0.  1.
    10030    2    1    2    0    0  0.00000000000E+00  0.00000000000E+00  0.84832614455E+03  0.35594756295E+04  0.34569075067E+04 0.  0.
        5    1    3    3  502    0 -0.10066946119E+04 -0.11644842972E+04  0.12336652068E+04  0.19726656211E+04  0.46999998093E+01 0. -1.
       -5    1    3    3    0  502  0.10066946119E+04  0.11644842972E+04 -0.38533906226E+03  0.15868100085E+04  0.46999998093E+01 0.  1.
</event>
<event>
 5   0  0.1146404E-06  0.2052951E+04  0.7818609E-02  0.8582257E-01
       -1   -1    0    0    0  501  0.00000000000E+00  0.00000000000E+00  0.67439720570E+03  0.67439720572E+03  0.50400001928E-02 0. -1.
        1   -1    0    0  501    0  0.00000000000E+00  0.00000000000E+00 -0.15623614024E+04  0.15623614024E+04  0.50400001928E-02 0.  1.
    10030    2    1    2    0    0  0.00000000000E+00  0.00000000000E+00 -0.88796419675E+03  0.22367586082E+04  0.20529512066E+04 0.  0.
        3    1    3    3  502    0 -0.16979852049E+03  0.55594446984E+02 -0.15452894437E+04  0.15555840559E+04  0.10100000352E+00 0.  1.
       -3    1    3    3    0  502  0.16979852049E+03 -0.55594446984E+02  0.65732524696E+03  0.68117455222E+03  0.10100000352E+00 0. -1.
</event>
<event>
 5   0  0.1102175E-06  0.1961448E+04  0.7818609E-02  0.8624860E-01
       -1   -1    0    0    0  501  0.00000000000E+00  0.00000000000E+00  0.66796249272E+03  0.66796249274E+03  0.50400001928E-02 0. -1.
        1   -1    0    0  501    0  0.00000000000E+00  0.00000000000E+00 -0.14399300502E+04  0.14399300502E+04  0.50400001928E-02 0.  1.
    10030    2    1    2    0    0  0.00000000000E+00  0.00000000000E+00 -0.77196755746E+03  0.21078925429E+04  0.19614476957E+04 0.  0.
        5    1    3    3  502    0 -0.59018024972E+03 -0.42671878438E+03  0.31986156637E+03  0.79544651595E+03  0.46999998093E+01 0. -1.
       -5    1    3    3    0  502  0.59018024972E+03  0.42671878438E+03 -0.10918291238E+04  0.13124460270E+04  0.46999998093E+01 0.  1.
</event>
<event>
 5   0  0.1130707E-06  0.3501785E+04  0.7818609E-02  0.8113367E-01
       -1   -1    0    0    0  501  0.00000000000E+00  0.00000000000E+00  0.21257198089E+04  0.21257198089E+04  0.50400001928E-02 0. -1.
        1   -1    0    0  501    0  0.00000000000E+00  0.00000000000E+00 -0.14421580902E+04  0.14421580902E+04  0.50400001928E-02 0.  1.
    10030    2    1    2    0    0  0.00000000000E+00  0.00000000000E+00  0.68356171865E+03  0.35678778992E+04  0.35017846993E+04 0.  0.
        3    1    3    3  502    0 -0.56268672944E+03  0.24892638869E+03  0.20119400804E+04  0.21039210061E+04  0.10100000352E+00 0. -1.
       -3    1    3    3    0  502  0.56268672944E+03 -0.24892638869E+03 -0.13283783618E+04  0.14639568930E+04  0.10100000352E+00 0.  1.
</event>
<event>
 5   0  0.1782660E-06  0.3417834E+04  0.7818609E-02  0.8133543E-01
       -2   -1    0    0    0  501  0.00000000000E+00  0.00000000000E+00  0.22906205700E+04  0.22906205700E+04  0.25500000920E-02 0. -1.
        2   -1    0    0  501    0  0.00000000000E+00  0.00000000000E+00 -0.12749371371E+04  0.12749371371E+04  0.25500000920E-02 0.  1.
    10030    2    1    2    0    0  0.00000000000E+00  0.00000000000E+00  0.10156834330E+04  0.35655577071E+04  0.34178339524E+04 0.  0.
        4    1    3    3  502    0 -0.10223192799E+03 -0.16212549815E+04 -0.45632774288E+02  0.16251163174E+04  0.12699999809E+01 0.  1.
       -4    1    3    3    0  502  0.10223192799E+03  0.16212549815E+04  0.10613162072E+04  0.19404413897E+04  0.12699999809E+01 0. -1.
</event>
<event>
 5   0  0.1125196E-06  0.2815822E+04  0.7818609E-02  0.8298373E-01
        1   -1    0    0  501    0  0.00000000000E+00  0.00000000000E+00  0.20988749551E+04  0.20988749551E+04  0.50400001928E-02 0. -1.
       -1   -1    0    0    0  501  0.00000000000E+00  0.00000000000E+00 -0.94441735728E+03  0.94441735730E+03  0.50400001928E-02 0.  1.
    10030    2    1    2    0    0  0.00000000000E+00  0.00000000000E+00  0.11544575978E+04  0.30432923124E+04  0.28158223938E+04 0.  0.
        4    1    3    3  502    0  0.75383541420E+03  0.10183873532E+04  0.12406847913E+04  0.17733248425E+04  0.12699999809E+01 0. -1.
       -4    1    3    3    0  502 -0.75383541420E+03 -0.10183873532E+04 -0.86227193486E+02  0.12699674699E+04  0.12699999809E+01 0.  1.
</event>
<event>
 5   0  0.1782660E-06  0.2940267E+04  0.7818609E-02  0.8260997E-01
        2   -1    0    0  501    0  0.00000000000E+00  0.00000000000E+00  0.20641056539E+04  0.20641056539E+04  0.25500000920E-02 0. -1.
       -2   -1    0    0    0  501  0.00000000000E+00  0.00000000000E+00 -0.10470844741E+04  0.10470844741E+04  0.25500000920E-02 0.  1.
    10030    2    1    2    0    0  0.00000000000E+00  0.00000000000E+00  0.10170211798E+04  0.31111901280E+04  0.29402673233E+04 0.  0.
        4    1    3    3  502    0 -0.10335923379E+04 -0.44296295831E+03 -0.49351393074E+03  0.12280419032E+04  0.12699999809E+01 0.  1.
       -4    1    3    3    0  502  0.10335923379E+04  0.44296295831E+03  0.15105351105E+04  0.18831482248E+04  0.12699999809E+01 0. -1.
</event>
<event>
 5   0  0.1125196E-06  0.2609574E+04  0.7818609E-02  0.8364957E-01
        1   -1    0    0  501    0  0.00000000000E+00  0.00000000000E+00  0.19263452770E+04  0.19263452770E+04  0.50400001928E-02 0. -1.
       -1   -1    0    0    0  501  0.00000000000E+00  0.00000000000E+00 -0.88378161766E+03  0.88378161768E+03  0.50400001928E-02 0.  1.
    10030    2    1    2    0    0  0.00000000000E+00  0.00000000000E+00  0.10425636593E+04  0.28101268947E+04  0.26095735629E+04 0.  0.
        4    1    3    3  502    0  0.49112085812E+03 -0.56762637007E+03 -0.62801213278E+03  0.97867269559E+03  0.12699999809E+01 0.  1.
       -4    1    3    3    0  502 -0.49112085812E+03  0.56762637007E+03  0.16705757921E+04  0.18314541991E+04  0.12699999809E+01 0. -1.
</event>
<event>
 5   0  0.1125196E-06  0.2082339E+04  0.7818609E-02  0.8569063E-01
        1   -1    0    0  501    0  0.00000000000E+00  0.00000000000E+00  0.87229999385E+03  0.87229999387E+03  0.50400001928E-02 0.  1.
       -1   -1    0    0    0  501  0.00000000000E+00  0.00000000000E+00 -0.12427306784E+04  0.12427306784E+04  0.50400001928E-02 0. -1.
    10030    2    1    2    0    0  0.00000000000E+00  0.00000000000E+00 -0.37043068453E+03  0.21150306723E+04  0.20823390340E+04 0.  0.
        4    1    3    3  502    0 -0.28015375728E+03 -0.98930032920E+03 -0.35158890485E+03  0.10866543333E+04  0.12699999809E+01 0.  1.
       -4    1    3    3    0  502  0.28015375728E+03  0.98930032920E+03 -0.18841779681E+02  0.10283763390E+04  0.12699999809E+01 0. -1.
</event>
<event>
 5   0  0.1782660E-06  0.2225636E+04  0.7818609E-02  0.8507833E-01
        2   -1    0    0  501    0  0.00000000000E+00  0.00000000000E+00  0.18962341761E+04  0.18962341761E+04  0.25500000920E-02 0. -1.
       -2   -1    0    0    0  501  0.00000000000E+00  0.00000000000E+00 -0.65306463671E+03  0.65306463671E+03  0.25500000920E-02 0.  1.
    10030    2    1    2    0    0  0.00000000000E+00  0.00000000000E+00  0.12431695394E+04  0.25492988128E+04  0.22256356245E+04 0.  0.
        4    1    3    3  502    0 -0.94435611491E+03 -0.49887239653E+03  0.26359640938E+03  0.11000758245E+04  0.12699999809E+01 0.  1.
       -4    1    3    3    0  502  0.94435611491E+03  0.49887239653E+03  0.97957312998E+03  0.14492229882E+04  0.12699999809E+01 0. -1.
</event>
<event>
 5   0  0.3378848E-06  0.3307000E+04  0.7818609E-02  0.8161117E-01
        2   -1    0    0  501    0  0.00000000000E+00  0.00000000000E+00  0.15531762636E+04  0.15531762636E+04  0.25500000920E-02 0. -1.
       -2   -1    0    0    0  501  0.00000000000E+00  0.00000000000E+00 -0.17603038892E+04  0.17603038892E+04  0.25500000920E-02 0.  1.
    10030    2    1    2    0    0  0.00000000000E+00  0.00000000000E+00 -0.20712762561E+03  0.33134801528E+04  0.33069999803E+04 0.  0.
        1    1    3    3  502    0  0.13262760215E+04 -0.14569221966E+02 -0.10928393462E+04  0.17185802815E+04  0.50400001928E-02 0.  1.
       -1    1    3    3    0  502 -0.13262760215E+04  0.14569221966E+02  0.88571172056E+03  0.15948998713E+04  0.50400001928E-02 0. -1.
</event>
<event>
 5   0  0.1102175E-06  0.3468788E+04  0.7818609E-02  0.8121227E-01
       -1   -1    0    0    0  501  0.00000000000E+00  0.00000000000E+00  0.24136162542E+04  0.24136162542E+04  0.50400001928E-02 0. -1.
        1   -1    0    0  501    0  0.00000000000E+00  0.00000000000E+00 -0.12463135435E+04  0.12463135435E+04  0.50400001928E-02 0.  1.
    10030    2    1    2    0    0  0.00000000000E+00  0.00000000000E+00  0.11673027106E+04  0.36599297977E+04  0.34687880457E+04 0.  0.
        5    1    3    3  502    0  0.17318496297E+04 -0.38123221891E+02  0.49323191477E+03  0.18011264064E+04  0.46999998093E+01 0.  1.
       -5    1    3    3    0  502 -0.17318496297E+04  0.38123221891E+02  0.67407079586E+03  0.18588033914E+04  0.46999998093E+01 0. -1.
</event>
<event>
 5   0  0.3041329E-06  0.3520969E+04  0.7818609E-02  0.8108839E-01
        2   -1    0    0  501    0  0.00000000000E+00  0.00000000000E+00  0.15782136239E+04  0.15782136239E+04  0.25500000920E-02 0.  1.
       -2   -1    0    0    0  501  0.00000000000E+00  0.00000000000E+00 -0.19638057109E+04  0.19638057109E+04  0.25500000920E-02 0. -1.
    10030    2    1    2    0    0  0.00000000000E+00  0.00000000000E+00 -0.38559208704E+03  0.35420193348E+04  0.35209685756E+04 0.  0.
        2    1    3    3  502    0  0.15844108211E+04  0.33798442299E+03  0.50031801902E+03  0.16955557321E+04  0.25500000920E-02 0.  1.
       -2    1    3    3    0  502 -0.15844108211E+04 -0.33798442299E+03 -0.88591010605E+03  0.18464636028E+04  0.25500000920E-02 0. -1.
</event>
<event>
 5   0  0.1782660E-06  0.1990594E+04  0.7818609E-02  0.8611031E-01
       -2   -1    0    0    0  501  0.00000000000E+00  0.00000000000E+00  0.76361409285E+03  0.76361409286E+03  0.25500000920E-02 0.  1.
        2   -1    0    0  501    0  0.00000000000E+00  0.00000000000E+00 -0.12972727161E+04  0.12972727161E+04  0.25500000920E-02 0. -1.
    10030    2    1    2    0    0  0.00000000000E+00  0.00000000000E+00 -0.53365862320E+03  0.20608868089E+04  0.19905936082E+04 0.  0.
        4    1    3    3  502    0  0.87535085593E+03  0.26037818382E+03  0.14284353209E+03  0.92436021503E+03  0.12699999809E+01 0.  1.
       -4    1    3    3    0  502 -0.87535085593E+03 -0.26037818382E+03 -0.67650215529E+03  0.11365265939E+04  0.12699999809E+01 0. -1.
</event>
<event>
 5   0  0.1125196E-06  0.2336569E+04  0.7818609E-02  0.8463640E-01
        1   -1    0    0  501    0  0.00000000000E+00  0.00000000000E+00  0.20147415343E+04  0.20147415343E+04  0.50400001928E-02 0.  1.
       -1   -1    0    0    0  501  0.00000000000E+00  0.00000000000E+00 -0.67745096392E+03  0.67745096394E+03  0.50400001928E-02 0. -1.
    10030    2    1    2    0    0  0.00000000000E+00  0.00000000000E+00  0.13372905704E+04  0.26921924982E+04  0.23365689329E+04 0.  0.
        4    1    3    3  502    0  0.23825369405E+03  0.71465118080E+03 -0.36023417398E+03  0.83502179969E+03  0.12699999809E+01 0. -1.
       -4    1    3    3    0  502 -0.23825369405E+03 -0.71465118080E+03  0.16975247444E+04  0.18571706985E+04  0.12699999809E+01 0.  1.
</event>
<event>
 5   0  0.1125196E-06  0.1986032E+04  0.7818609E-02  0.8613179E-01
        1   -1    0    0  501    0  0.00000000000E+00  0.00000000000E+00  0.88753569858E+03  0.88753569859E+03  0.50400001928E-02 0. -1.
       -1   -1    0    0    0  501  0.00000000000E+00  0.00000000000E+00 -0.11110320146E+04  0.11110320146E+04  0.50400001928E-02 0.  1.
    10030    2    1    2    0    0  0.00000000000E+00  0.00000000000E+00 -0.22349631599E+03  0.19985677132E+04  0.19860317975E+04 0.  0.
        4    1    3    3  502    0 -0.37909608566E+03 -0.91734762924E+03 -0.14088688341E+03  0.10025423891E+04  0.12699999809E+01 0. -1.
       -4    1    3    3    0  502  0.37909608566E+03  0.91734762924E+03 -0.82609432577E+02  0.99602532412E+03  0.12699999809E+01 0.  1.
</event>
<event>
 5   0  0.3041329E-06  0.3365324E+04  0.7818609E-02  0.8146470E-01
        2   -1    0    0  501    0  0.00000000000E+00  0.00000000000E+00  0.22115179925E+04  0.22115179925E+04  0.25500000920E-02 0.  1.
       -2   -1    0    0    0  501  0.00000000000E+00  0.00000000000E+00 -0.12802750243E+04  0.12802750243E+04  0.25500000920E-02 0. -1.
    10030    2    1    2    0    0  0.00000000000E+00  0.00000000000E+00  0.93124296814E+03  0.34917930168E+04  0.33653239081E+04 0.  0.
        2    1    3    3  502    0 -0.52359463387E+03 -0.56040593589E+03 -0.10883759761E+04  0.13314534986E+04  0.25500000920E-02 0. -1.
       -2    1    3    3    0  502  0.52359463387E+03  0.56040593589E+03  0.20196189443E+04  0.21603395181E+04  0.25500000920E-02 0.  1.
</event>
<event>
 5   0  0.1130707E-06  0.3472469E+04  0.7818609E-02  0.8120346E-01
        1   -1    0    0  501    0  0.00000000000E+00  0.00000000000E+00  0.24637519691E+04  0.24637519691E+04  0.50400001928E-02 0.  1.
       -1   -1    0    0    0  501  0.00000000000E+00  0.00000000000E+00 -0.12235441829E+04  0.12235441829E+04  0.50400001928E-02 0. -1.
    10030    2    1    2    0    0  0.00000000000E+00  0.00000000000E+00  0.12402077863E+04  0.36872961520E+04  0.34724685109E+04 0.  0.
        3    1    3    3  502    0  0.82196105497E+03  0.15292049930E+04  0.59830346649E+03  0.18363155869E+04  0.10100000352E+00 0.  1.
       -3    1    3    3    0  502 -0.82196105497E+03 -0.15292049930E+04  0.64190431979E+03  0.18509805651E+04  0.10100000352E+00 0. -1.
</event>
<event>
 5   0  0.1908726E-06  0.3552540E+04  0.7818609E-02  0.8101450E-01
       -2   -1    0    0    0  501  0.00000000000E+00  0.00000000000E+00  0.24261699215E+04  0.24261699215E+04  0.25500000920E-02 0. -1.
        2   -1    0    0  501    0  0.00000000000E+00  0.00000000000E+00 -0.13004592541E+04  0.13004592541E+04  0.25500000920E-02 0.  1.
    10030    2    1    2    0    0  0.00000000000E+00  0.00000000000E+00  0.11257106674E+04  0.37266291756E+04  0.35525400076E+04 0.  0.
        5    1    3    3  502    0 -0.14116480319E+04  0.86897505577E+03 -0.10657471338E+03  0.16610984537E+04  0.46999998093E+01 0.  1.
       -5    1    3    3    0  502  0.14116480319E+04 -0.86897505577E+03  0.12322853808E+04  0.20655307219E+04  0.46999998093E+01 0. -1.
</event>
<event>
 5   0  0.1102175E-06  0.3565503E+04  0.7818609E-02  0.8098440E-01
       -1   -1    0    0    0  501  0.00000000000E+00  0.00000000000E+00  0.19974745135E+04  0.19974745135E+04  0.50400001928E-02 0.  1.
        1   -1    0    0  501    0  0.00000000000E+00  0.00000000000E+00 -0.15911107153E+04  0.15911107153E+04  0.50400001928E-02 0. -1.
    10030    2    1    2    0    0  0.00000000000E+00  0.00000000000E+00  0.40636379817E+03  0.35885852289E+04  0.35655031073E+04 0.  0.
        5    1    3    3  502    0 -0.15199982905E+03  0.17546232367E+04 -0.74966293349E+02  0.17627957017E+04  0.46999998093E+01 0. -1.
       -5    1    3    3    0  502  0.15199982905E+03 -0.17546232367E+04  0.48133009152E+03  0.18257895272E+04  0.46999998093E+01 0.  1.
</event>
<event>
 5   0  0.1908726E-06  0.1753097E+04  0.7818609E-02  0.8731647E-01
       -2   -1    0    0    0  501  0.00000000000E+00  0.00000000000E+00  0.34191686079E+03  0.34191686080E+03  0.25500000920E-02 0. -1.
        2   -1    0    0  501    0  0.00000000000E+00  0.00000000000E+00 -0.22471463868E+04  0.22471463868E+04  0.25500000920E-02 0.  1.
    10030    2    1    2    0    0  0.00000000000E+00  0.00000000000E+00 -0.19052295260E+04  0.25890632476E+04  0.17530969606E+04 0.  0.
        5    1    3    3  502    0  0.80696499659E+03 -0.17760437284E+02 -0.14573592073E+04  0.16659609503E+04  0.46999998093E+01 0.  1.
       -5    1    3    3    0  502 -0.80696499659E+03  0.17760437284E+02 -0.44787031871E+03  0.92310229728E+03  0.46999998093E+01 0. -1.
</event>
<event>
 5   0  0.1908726E-06  0.1777197E+04  0.7818609E-02  0.8718521E-01
       -2   -1    0    0    0  501  0.00000000000E+00  0.00000000000E+00  0.16137222705E+04  0.16137222705E+04  0.25500000920E-02 0. -1.
        2   -1    0    0  501    0  0.00000000000E+00  0.00000000000E+00 -0.48930816283E+03  0.48930816283E+03  0.25500000920E-02 0.  1.
    10030    2    1    2    0    0  0.00000000000E+00  0.00000000000E+00  0.11244141077E+04  0.21030304334E+04  0.17771972085E+04 0.  0.
        5    1    3    3  502    0 -0.72737130306E+03  0.24945017559E+03  0.10891473634E+04  0.13332510910E+04  0.46999998093E+01 0. -1.
       -5    1    3    3    0  502  0.72737130306E+03 -0.24945017559E+03  0.35266744329E+02  0.76977934232E+03  0.46999998093E+01 0.  1.
</event>
<event>
 5   0  0.3041329E-06  0.2007927E+04  0.7818609E-02  0.8602923E-01
       -2   -1    0    0    0  501  0.00000000000E+00  0.00000000000E+00  0.48384495597E+03  0.48384495598E+03  0.25500000920E-02 0.  1.
        2   -1    0    0  501    0  0.00000000000E+00  0.00000000000E+00 -0.20831938771E+04  0.20831938771E+04  0.25500000920E-02 0. -1.
    10030    2    1    2    0    0  0.00000000000E+00  0.00000000000E+00 -0.15993489211E+04  0.25670388331E+04  0.20079271399E+04 0.  0.
        2    1    3    3  502    0  0.51623801152E+02 -0.84719707454E+02 -0.20769117940E+04  0.20792799344E+04  0.25500000920E-02 0. -1.
       -2    1    3    3    0  502 -0.51623801152E+02  0.84719707454E+02  0.47756287286E+03  0.48775889865E+03  0.25500000920E-02 0.  1.
</event>
<event>
 5   0  0.1125196E-06  0.3054739E+04  0.7818609E-02  0.8228270E-01
       -1   -1    0    0    0  501  0.00000000000E+00  0.00000000000E+00  0.97331202752E+03  0.97331202754E+03  0.50400001928E-02 0. -1.
        1   -1    0    0  501    0  0.00000000000E+00  0.00000000000E+00 -0.23968238086E+04  0.23968238086E+04  0.50400001928E-02 0.  1.
    10030    2    1    2    0    0  0.00000000000E+00  0.00000000000E+00 -0.14235117810E+04  0.33701358361E+04  0.30547389026E+04 0.  0.
        4    1    3    3  502    0 -0.64167893832E+03 -0.26603417993E+03  0.78895792180E+03  0.10511813640E+04  0.12699999809E+01 0. -1.
       -4    1    3    3    0  502  0.64167893832E+03  0.26603417993E+03 -0.22124697028E+04  0.23189544721E+04  0.12699999809E+01 0.  1.
</event>
<event>
 5   0  0.3041329E-06  0.1778543E+04  0.7818609E-02  0.8717794E-01
       -2   -1    0    0    0  501  0.00000000000E+00  0.00000000000E+00  0.93007518286E+03  0.93007518286E+03  0.25500000920E-02 0. -1.
        2   -1    0    0  501    0  0.00000000000E+00  0.00000000000E+00 -0.85025801602E+03  0.85025801602E+03  0.25500000920E-02 0.  1.
    10030    2    1    2    0    0  0.00000000000E+00  0.00000000000E+00  0.79817166839E+02  0.17803331989E+04  0.17785430889E+04 0.  0.
        2    1    3    3  502    0  0.62333898432E+03 -0.63364134027E+03  0.67341316896E+02  0.89139648330E+03  0.25500000920E-02 0. -1.
       -2    1    3    3    0  502 -0.62333898432E+03  0.63364134027E+03  0.12475849943E+02  0.88893671558E+03  0.25500000920E-02 0.  1.
</event>
<event>
 5   0  0.3041329E-06  0.3583830E+04  0.7818609E-02  0.8094206E-01
       -2   -1    0    0    0  501  0.00000000000E+00  0.00000000000E+00  0.24860858039E+04  0.24860858039E+04  0.25500000920E-02 0.  1.
        2   -1    0    0  501    0  0.00000000000E+00  0.00000000000E+00 -0.12915720765E+04  0.12915720765E+04  0.25500000920E-02 0. -1.
    10030    2    1    2    0    0  0.00000000000E+00  0.00000000000E+00  0.11945137274E+04  0.37776578804E+04  0.35838297974E+04 0.  0.
        2    1    3    3  502    0  0.22297116152E+03  0.28528466699E+03  0.24471235016E+04  0.24737657351E+04  0.25500000920E-02 0.  1.
       -2    1    3    3    0  502 -0.22297116152E+03 -0.28528466699E+03 -0.12526097742E+04  0.13038921453E+04  0.25500000920E-02 0. -1.
</event>
<event>
 5   0  0.3041329E-06  0.3450518E+04  0.7818609E-02  0.8125618E-01
       -2   -1    0    0    0  501  0.00000000000E+00  0.00000000000E+00  0.18903006301E+04  0.18903006301E+04  0.25500000920E-02 0. -1.
        2   -1    0    0  501    0  0.00000000000E+00  0.00000000000E+00 -0.15746270051E+04  0.15746270052E+04  0.25500000920E-02 0.  1.
    10030    2    1    2    0    0  0.00000000000E+00  0.00000000000E+00  0.31567362492E+03  0.34649276352E+04  0.34505178857E+04 0.  0.
        2    1    3    3  502    0  0.56260528550E+03 -0.15641557898E+04 -0.30605601040E+03  0.16902006755E+04  0.25500000920E-02 0. -1.
       -2    1    3    3    0  502 -0.56260528550E+03  0.15641557898E+04  0.62172963531E+03  0.17747269597E+04  0.25500000920E-02 0.  1.
</event>
<event>
 5   0  0.1782660E-06  0.3508656E+04  0.7818609E-02  0.8111742E-01
       -2   -1    0    0    0  501  0.00000000000E+00  0.00000000000E+00  0.12335795574E+04  0.12335795574E+04  0.25500000920E-02 0. -1.
        2   -1    0    0  501    0  0.00000000000E+00  0.00000000000E+00 -0.24949080716E+04  0.24949080716E+04  0.25500000920E-02 0.  1.
    10030    2    1    2    0    0  0.00000000000E+00  0.00000000000E+00 -0.12613285142E+04  0.37284876290E+04  0.35086564920E+04 0.  0.
        4    1    3    3  502    0  0.28265264884E+03 -0.68669529450E+03  0.10583281620E+04  0.12928662184E+04  0.12699999809E+01 0. -1.
       -4    1    3    3    0  502 -0.28265264884E+03  0.68669529450E+03 -0.23196566762E+04  0.24356214106E+04  0.12699999809E+01 0.  1.
</event>
<event>
 5   0  0.1908726E-06  0.3582549E+04  0.7818609E-02  0.8094501E-01
        2   -1    0    0  501    0  0.00000000000E+00  0.00000000000E+00  0.29937498675E+04  0.29937498675E+04  0.25500000920E-02 0. -1.
       -2   -1    0    0    0  501  0.00000000000E+00  0.00000000000E+00 -0.10717879055E+04  0.10717879055E+04  0.25500000920E-02 0.  1.
    10030    2    1    2    0    0  0.00000000000E+00  0.00000000000E+00  0.19219619620E+04  0.40655377730E+04  0.35825493158E+04 0.  0.
        5    1    3    3  502    0 -0.80704179077E+03  0.13414420020E+04  0.19488974689E+04  0.24998012983E+04  0.46999998093E+01 0. -1.
       -5    1    3    3    0  502  0.80704179077E+03 -0.13414420020E+04 -0.26935506895E+02  0.15657364747E+04  0.46999998093E+01 0.  1.
</event>
<event>
 5   0  0.1782660E-06  0.3318995E+04  0.7818609E-02  0.8158079E-01
        2   -1    0    0  501    0  0.00000000000E+00  0.00000000000E+00  0.15956467771E+04  0.15956467771E+04  0.25500000920E-02 0.  1.
       -2   -1    0    0    0  501  0.00000000000E+00  0.00000000000E+00 -0.17259030051E+04  0.17259030051E+04  0.25500000920E-02 0. -1.
    10030    2    1    2    0    0  0.00000000000E+00  0.00000000000E+00 -0.13025622797E+03  0.33215497822E+04  0.33189947681E+04 0.  0.
        4    1    3    3  502    0  0.14534867204E+04 -0.72766208912E+03 -0.39977182206E+03  0.16738981107E+04  0.12699999809E+01 0. -1.
       -4    1    3    3    0  502 -0.14534867204E+04  0.72766208912E+03  0.26951559409E+03  0.16476516715E+04  0.12699999809E+01 0.  1.
</event>
<event>
 5   0  0.2714747E-06  0.1900981E+04  0.7818609E-02  0.8654368E-01
        2   -1    0    0  501    0  0.00000000000E+00  0.00000000000E+00  0.16469166264E+04  0.16469166264E+04  0.25500000920E-02 0.  1.
       -2   -1    0    0    0  501  0.00000000000E+00  0.00000000000E+00 -0.54855953956E+03  0.54855953956E+03  0.25500000920E-02 0. -1.
    10030    2    1    2    0    0  0.00000000000E+00  0.00000000000E+00  0.10983570869E+04  0.21954761660E+04  0.19009806167E+04 0.  0.
        3    1    3    3  502    0 -0.22330756491E+03 -0.60166526508E+03  0.13589104911E+04  0.15028323568E+04  0.10100000352E+00 0.  1.
       -3    1    3    3    0  502  0.22330756491E+03  0.60166526508E+03 -0.26055340420E+03  0.69264380918E+03  0.10100000352E+00 0. -1.
</event>
<event>
 5   0  0.1110956E-06  0.3582564E+04  0.7818609E-02  0.8094497E-01
        1   -1    0    0  501    0  0.00000000000E+00  0.00000000000E+00  0.23656310867E+04  0.23656310867E+04  0.50400001928E-02 0. -1.
       -1   -1    0    0    0  501  0.00000000000E+00  0.00000000000E+00 -0.13563788773E+04  0.13563788773E+04  0.50400001928E-02 0.  1.
    10030    2    1    2    0    0  0.00000000000E+00  0.00000000000E+00  0.10092522094E+04  0.37220099640E+04  0.35825644655E+04 0.  0.
        1    1    3    3  502    0 -0.17198673873E+04 -0.43093212792E+03  0.76959374728E+03  0.19328530375E+04  0.50400001928E-02 0.  1.
       -1    1    3    3    0  502  0.17198673873E+04  0.43093212792E+03  0.23965846213E+03  0.17891569264E+04  0.50400001928E-02 0. -1.
</event>
<event>
 5   0  0.2565004E-06  0.3681105E+04  0.7818609E-02  0.8072162E-01
        2   -1    0    0  501    0  0.00000000000E+00  0.00000000000E+00  0.22749364799E+04  0.22749364799E+04  0.25500000920E-02 0.  1.
       -2   -1    0    0    0  501  0.00000000000E+00  0.00000000000E+00 -0.14891115243E+04  0.14891115243E+04  0.25500000920E-02 0. -1.
    10030    2    1    2    0    0  0.00000000000E+00  0.00000000000E+00  0.78582495565E+03  0.37640480042E+04  0.36811053391E+04 0.  0.
        3    1    3    3  502    0 -0.14542279560E+04  0.11278701139E+04  0.42117910281E+03  0.18879252604E+04  0.10100000352E+00 0.  1.
       -3    1    3    3    0  502  0.14542279560E+04 -0.11278701139E+04  0.36464585284E+03  0.18761227439E+04  0.10100000352E+00 0. -1.
</event>
<event>
 5   0  0.1102175E-06  0.3350342E+04  0.7818609E-02  0.8150203E-01
        1   -1    0    0  501    0  0.00000000000E+00  0.00000000000E+00  0.18059695240E+04  0.18059695240E+04  0.50400001928E-02 0. -1.
       -1   -1    0    0    0  501  0.00000000000E+00  0.00000000000E+00 -0.15538457891E+04  0.15538457891E+04  0.50400001928E-02 0.  1.
    10030    2    1    2    0    0  0.00000000000E+00  0.00000000000E+00  0.25212373495E+03  0.33598153131E+04  0.33503421558E+04 0.  0.
        5    1    3    3  502    0 -0.15313779891E+04 -0.45374761035E+03 -0.38051058587E+03  0.16418939781E+04  0.46999998093E+01 0. -1.
       -5    1    3    3    0  502  0.15313779891E+04  0.45374761035E+03  0.63263432083E+03  0.17179213350E+04  0.46999998093E+01 0.  1.
</event>
<event>
 5   0  0.1110956E-06  0.1730843E+04  0.7818609E-02  0.8743966E-01
       -1   -1    0    0    0  501  0.00000000000E+00  0.00000000000E+00  0.97946846164E+03  0.97946846165E+03  0.50400001928E-02 0. -1.
        1   -1    0    0  501    0  0.00000000000E+00  0.00000000000E+00 -0.76465431807E+03  0.76465431809E+03  0.50400001928E-02 0.  1.
    10030    2    1    2    0    0  0.00000000000E+00  0.00000000000E+00  0.21481414356E+03  0.17441227797E+04  0.17308434807E+04 0.  0.
        1    1    3    3  502    0 -0.26776859269E+02 -0.34443209406E+03 -0.69215669950E+03  0.77358345658E+03  0.50400001928E-02 0.  1.
       -1    1    3    3    0  502  0.26776859269E+02  0.34443209406E+03  0.90697084306E+03  0.97053932316E+03  0.50400001928E-02 0. -1.
</event>
<event>
 5   0  0.2565004E-06  0.2682549E+04  0.7818609E-02  0.8340689E-01
       -2   -1    0    0    0  501  0.00000000000E+00  0.00000000000E+00  0.97922838320E+03  0.97922838320E+03  0.25500000920E-02 0. -1.
        2   -1    0    0  501    0  0.00000000000E+00  0.00000000000E+00 -0.18371788208E+04  0.18371788208E+04  0.25500000920E-02 0.  1.
    10030    2    1    2    0    0  0.00000000000E+00  0.00000000000E+00 -0.85795043758E+03  0.28164072040E+04  0.26825492699E+04 0.  0.
        3    1    3    3  502    0 -0.24661647496E+03  0.12932708776E+04 -0.15997057888E+03  0.13262578350E+04  0.10100000352E+00 0.  1.
       -3    1    3    3    0  502  0.24661647496E+03 -0.12932708776E+04 -0.69797985870E+03  0.14901493690E+04  0.10100000352E+00 0. -1.
</event>
<event>
 5   0  0.3041329E-06  0.2268308E+04  0.7818609E-02  0.8490523E-01
        2   -1    0    0  501    0  0.00000000000E+00  0.00000000000E+00  0.11605545646E+04  0.11605545646E+04  0.25500000920E-02 0.  1.
       -2   -1    0    0    0  501  0.00000000000E+00  0.00000000000E+00 -0.11083535982E+04  0.11083535982E+04  0.25500000920E-02 0. -1.
    10030    2    1    2    0    0  0.00000000000E+00  0.00000000000E+00  0.52200966341E+02  0.22689081628E+04  0.22683075872E+04 0.  0.
        2    1    3    3  502    0 -0.75737514600E+03  0.83511368192E+03 -0.97515626786E+02  0.11316100349E+04  0.25500000920E-02 0.  1.
       -2    1    3    3    0  502  0.75737514600E+03 -0.83511368192E+03  0.14971659313E+03  0.11372981279E+04  0.25500000920E-02 0. -1.
</event>
<event>
 5   0  0.1089337E-06  0.2377175E+04  0.7818609E-02  0.8448098E-01
       -1   -1    0    0    0  501  0.00000000000E+00  0.00000000000E+00  0.85677858400E+03  0.85677858402E+03  0.50400001928E-02 0. -1.
        1   -1    0    0  501    0  0.00000000000E+00  0.00000000000E+00 -0.16488983937E+04  0.16488983937E+04  0.50400001928E-02 0.  1.
    10030    2    1    2    0    0  0.00000000000E+00  0.00000000000E+00 -0.79211980966E+03  0.25056769777E+04  0.23771754928E+04 0.  0.
        2    1    3    3  502    0 -0.30707000498E+03  0.59290150871E+03 -0.14325337714E+04  0.15804990330E+04  0.25500000920E-02 0.  1.
       -2    1    3    3    0  502  0.30707000498E+03 -0.59290150871E+03  0.64041396175E+03  0.92517794472E+03  0.25500000920E-02 0. -1.
</event>
<event>
 5   0  0.1125196E-06  0.3417360E+04  0.7818609E-02  0.8133659E-01
        1   -1    0    0  501    0  0.00000000000E+00  0.00000000000E+00  0.16977962394E+04  0.16977962394E+04  0.50400001928E-02 0.  1.
       -1   -1    0    0    0  501  0.00000000000E+00  0.00000000000E+00 -0.17196339657E+04  0.17196339657E+04  0.50400001928E-02 0. -1.
    10030    2    1    2    0    0  0.00000000000E+00  0.00000000000E+00 -0.21837726292E+02  0.34174302051E+04  0.34173604317E+04 0.  0.
        4    1    3    3  502    0 -0.25674929223E+03 -0.15273934510E+04  0.71071593237E+03  0.17041037829E+04  0.12699999809E+01 0.  1.
       -4    1    3    3    0  502  0.25674929223E+03  0.15273934510E+04 -0.73255365867E+03  0.17133264222E+04  0.12699999809E+01 0. -1.
</event>
<event>
 5   0  0.1782660E-06  0.3458321E+04  0.7818609E-02  0.8123739E-01
        2   -1    0    0  501    0  0.00000000000E+00  0.00000000000E+00  0.24396522838E+04  0.24396522838E+04  0.25500000920E-02 0.  1.
       -2   -1    0    0    0  501  0.00000000000E+00  0.00000000000E+00 -0.12255826098E+04  0.12255826098E+04  0.25500000920E-02 0. -1.
    10030    2    1    2    0    0  0.00000000000E+00  0.00000000000E+00  0.12140696740E+04  0.36652348936E+04  0.34583206404E+04 0.  0.
        4    1    3    3  502    0 -0.11098539028E+04  0.97438271511E+02 -0.79447831725E+03  0.13683812743E+04  0.12699999809E+01 0. -1.
       -4    1    3    3    0  502  0.11098539028E+04 -0.97438271511E+02  0.20085479913E+04  0.22968536193E+04  0.12699999809E+01 0.  1.
</event>
<event>
 5   0  0.1782660E-06  0.3466833E+04  0.7818609E-02  0.8121695E-01
        2   -1    0    0  501    0  0.00000000000E+00  0.00000000000E+00  0.19866074097E+04  0.19866074097E+04  0.25500000920E-02 0. -1.
       -2   -1    0    0    0  501  0.00000000000E+00  0.00000000000E+00 -0.15124944622E+04  0.15124944622E+04  0.25500000920E-02 0.  1.
    10030    2    1    2    0    0  0.00000000000E+00  0.00000000000E+00  0.47411294746E+03  0.34991018719E+04  0.34668329672E+04 0.  0.
        4    1    3    3  502    0 -0.65459321133E+03 -0.12993631410E+04  0.11881085328E+04  0.18784143162E+04  0.12699999809E+01 0. -1.
       -4    1    3    3    0  502  0.65459321133E+03  0.12993631410E+04 -0.71399558538E+03  0.16206875557E+04  0.12699999809E+01 0.  1.
</event>
<event>
 5   0  0.1102175E-06  0.3256840E+04  0.7818609E-02  0.8173965E-01
       -1   -1    0    0    0  501  0.00000000000E+00  0.00000000000E+00  0.14990418943E+04  0.14990418943E+04  0.50400001928E-02 0.  1.
        1   -1    0    0  501    0  0.00000000000E+00  0.00000000000E+00 -0.17689642170E+04  0.17689642171E+04  0.50400001928E-02 0. -1.
    10030    2    1    2    0    0  0.00000000000E+00  0.00000000000E+00 -0.26992232276E+03  0.32680061114E+04  0.32568398615E+04 0.  0.
        5    1    3    3  502    0 -0.67920776830E+03  0.12434381530E+04  0.67045372194E+03  0.15674794787E+04  0.46999998093E+01 0.  1.
       -5    1    3    3    0  502  0.67920776830E+03 -0.12434381530E+04 -0.94037604469E+03  0.17005266326E+04  0.46999998093E+01 0. -1.
</event>
<event>
 5   0  0.1782660E-06  0.3460686E+04  0.7818609E-02  0.8123170E-01
        2   -1    0    0  501    0  0.00000000000E+00  0.00000000000E+00  0.17291675683E+04  0.17291675683E+04  0.25500000920E-02 0. -1.
       -2   -1    0    0    0  501  0.00000000000E+00  0.00000000000E+00 -0.17315196198E+04  0.17315196198E+04  0.25500000920E-02 0.  1.
    10030    2    1    2    0    0  0.00000000000E+00  0.00000000000E+00 -0.23520514401E+01  0.34606871881E+04  0.34606863888E+04 0.  0.
        4    1    3    3  502    0 -0.62708145930E+03 -0.15582902346E+04  0.41425919818E+03  0.17300612441E+04  0.12699999809E+01 0.  1.
       -4    1    3    3    0  502  0.62708145930E+03  0.15582902346E+04 -0.41661124962E+03  0.17306259440E+04  0.12699999809E+01 0. -1.
</event>
<event>
 5   0  0.2565004E-06  0.3013007E+04  0.7818609E-02  0.8240027E-01
        2   -1    0    0  501    0  0.00000000000E+00  0.00000000000E+00  0.78870969073E+03  0.78870969073E+03  0.25500000920E-02 0.  1.
       -2   -1    0    0    0  501  0.00000000000E+00  0.00000000000E+00 -0.28775508267E+04  0.28775508267E+04  0.25500000920E-02 0. -1.
    10030    2    1    2    0    0  0.00000000000E+00  0.00000000000E+00 -0.20888411360E+04  0.36662605174E+04  0.30130066197E+04 0.  0.
        3    1    3    3  502    0 -0.38122840485E+02 -0.13357918232E+04 -0.18907467857E+04  0.23153221296E+04  0.10100000352E+00 0. -1.
       -3    1    3    3    0  502  0.38122840485E+02  0.13357918232E+04 -0.19809435031E+03  0.13509383879E+04  0.10100000352E+00 0.  1.
</event>
<event>
 5   0  0.1110956E-06  0.3492437E+04  0.7818609E-02  0.8115585E-01
        1   -1    0    0  501    0  0.00000000000E+00  0.00000000000E+00  0.17408204351E+04  0.17408204351E+04  0.50400001928E-02 0.  1.
       -1   -1    0    0    0  501  0.00000000000E+00  0.00000000000E+00 -0.17516329629E+04  0.17516329629E+04  0.50400001928E-02 0. -1.
    10030    2    1    2    0    0  0.00000000000E+00  0.00000000000E+00 -0.10812527827E+02  0.34924533981E+04  0.34924366604E+04 0.  0.
        1    1    3    3  502    0 -0.49217179214E+03 -0.50431687943E+03 -0.16031341309E+04  0.17511732152E+04  0.50400001928E-02 0. -1.
       -1    1    3    3    0  502  0.49217179214E+03  0.50431687943E+03  0.15923216030E+04  0.17412801829E+04  0.50400001928E-02 0.  1.
</event>
<event>
 5   0  0.1089337E-06  0.3296669E+04  0.7818609E-02  0.8163743E-01
       -1   -1    0    0    0  501  0.00000000000E+00  0.00000000000E+00  0.22167805849E+04  0.22167805849E+04  0.50400001928E-02 0.  1.
        1   -1    0    0  501    0  0.00000000000E+00  0.00000000000E+00 -0.12256544174E+04  0.12256544174E+04  0.50400001928E-02 0. -1.
    10030    2    1    2    0    0  0.00000000000E+00  0.00000000000E+00  0.99112616744E+03  0.34424350023E+04  0.32966691774E+04 0.  0.
        2    1    3    3  502    0 -0.12805751673E+04 -0.73259035941E+03  0.12632185431E+04  0.19422364638E+04  0.25500000920E-02 0.  1.
       -2    1    3    3    0  502  0.12805751673E+04  0.73259035941E+03 -0.27209237566E+03  0.15001985384E+04  0.25500000920E-02 0. -1.
</event>
<event>
 5   0  0.3041329E-06  0.3484579E+04  0.7818609E-02  0.8117454E-01
       -2   -1    0    0    0  501  0.00000000000E+00  0.00000000000E+00  0.18046899867E+04  0.18046899867E+04  0.25500000920E-02 0. -1.
        2   -1    0    0  501    0  0.00000000000E+00  0.00000000000E+00 -0.16820462790E+04  0.16820462790E+04  0.25500000920E-02 0.  1.
    10030    2    1    2    0    0  0.00000000000E+00  0.00000000000E+00  0.12264370774E+03  0.34867362656E+04  0.34845786413E+04 0.  0.
        2    1    3    3  502    0 -0.14031624254E+04 -0.75431401120E+02 -0.96937293257E+03  0.17071141060E+04  0.25500000920E-02 0.  1.
       -2    1    3    3    0  502  0.14031624254E+04  0.75431401120E+02  0.10920166403E+04  0.17796221597E+04  0.25500000920E-02 0. -1.
</event>
<event>
 5   0  0.1315319E-06  0.1792393E+04  0.7818609E-02  0.8710355E-01
       -1   -1    0    0    0  501  0.00000000000E+00  0.00000000000E+00  0.54548623439E+03  0.54548623441E+03  0.50400001928E-02 0. -1.
        1   -1    0    0  501    0  0.00000000000E+00  0.00000000000E+00 -0.14723889668E+04  0.14723889668E+04  0.50400001928E-02 0.  1.
    10030    2    1    2    0    0  0.00000000000E+00  0.00000000000E+00 -0.92690273244E+03  0.20178752012E+04  0.17923927171E+04 0.  0.
        1    1    3    3  502    0 -0.10435060548E+03 -0.83593028119E+03 -0.80769475809E+03  0.11670643967E+04  0.50400001928E-02 0.  1.
       -1    1    3    3    0  502  0.10435060548E+03  0.83593028119E+03 -0.11920797435E+03  0.85081080450E+03  0.50400001928E-02 0. -1.
</event>
<event>
 5   0  0.1102175E-06  0.1721821E+04  0.7818609E-02  0.8749016E-01
        1   -1    0    0  501    0  0.00000000000E+00  0.00000000000E+00  0.66609831394E+03  0.66609831396E+03  0.50400001928E-02 0. -1.
       -1   -1    0    0    0  501  0.00000000000E+00  0.00000000000E+00 -0.11126991357E+04  0.11126991357E+04  0.50400001928E-02 0.  1.
    10030    2    1    2    0    0  0.00000000000E+00  0.00000000000E+00 -0.44660082179E+03  0.17787974497E+04  0.17218211501E+04 0.  0.
        5    1    3    3  502    0  0.20094523442E+03 -0.59010585622E+03 -0.83669972772E+03  0.10434042520E+04  0.46999998093E+01 0.  1.
       -5    1    3    3    0  502 -0.20094523442E+03  0.59010585622E+03  0.39009890593E+03  0.73539319768E+03  0.46999998093E+01 0. -1.
</event>
<event>
 5   0  0.1125196E-06  0.3405929E+04  0.7818609E-02  0.8136453E-01
        1   -1    0    0  501    0  0.00000000000E+00  0.00000000000E+00  0.13008154502E+04  0.13008154502E+04  0.50400001928E-02 0.  1.
       -1   -1    0    0    0  501  0.00000000000E+00  0.00000000000E+00 -0.22294383280E+04  0.22294383280E+04  0.50400001928E-02 0. -1.
    10030    2    1    2    0    0  0.00000000000E+00  0.00000000000E+00 -0.92862287785E+03  0.35302537782E+04  0.34059288438E+04 0.  0.
        4    1    3    3  502    0 -0.14346424495E+04  0.91753984060E+03 -0.46722331954E+03  0.17658928507E+04  0.12699999809E+01 0.  1.
       -4    1    3    3    0  502  0.14346424495E+04 -0.91753984060E+03 -0.46139955830E+03  0.17643609275E+04  0.12699999809E+01 0. -1.
</event>
<event>
 5   0  0.1908726E-06  0.2218786E+04  0.7818609E-02  0.8510650E-01
       -2   -1    0    0    0  501  0.00000000000E+00  0.00000000000E+00  0.67628149934E+03  0.67628149934E+03  0.25500000920E-02 0.  1.
        2   -1    0    0  501    0  0.00000000000E+00  0.00000000000E+00 -0.18198816759E+04  0.18198816759E+04  0.25500000920E-02 0. -1.
    10030    2    1    2    0    0  0.00000000000E+00  0.00000000000E+00 -0.11436001765E+04  0.24961631752E+04  0.22187855312E+04 0.  0.
        5    1    3    3  502    0  0.95804202858E+03 -0.28272117165E+03 -0.11147917151E+04  0.14968495073E+04  0.46999998093E+01 0. -1.
       -5    1    3    3    0  502 -0.95804202858E+03  0.28272117165E+03 -0.28808461407E+02  0.99931366791E+03  0.46999998093E+01 0.  1.
</event>
<event>
 5   0  0.3041329E-06  0.1899343E+04  0.7818609E-02  0.8655184E-01
        2   -1    0    0  501    0  0.00000000000E+00  0.00000000000E+00  0.12316604372E+04  0.12316604372E+04  0.25500000920E-02 0. -1.
       -2   -1    0    0    0  501  0.00000000000E+00  0.00000000000E+00 -0.73224390997E+03  0.73224390997E+03  0.25500000920E-02 0.  1.
    10030    2    1    2    0    0  0.00000000000E+00  0.00000000000E+00  0.49941652727E+03  0.19639043472E+04  0.18993428909E+04 0.  0.
        2    1    3    3  502    0  0.79029858836E+03  0.33040071809E+03  0.67369439620E+03  0.10897709084E+04  0.25500000920E-02 0. -1.
       -2    1    3    3    0  502 -0.79029858836E+03 -0.33040071809E+03 -0.17427786893E+03  0.87413343884E+03  0.25500000920E-02 0.  1.
</event>
<event>
 5   0  0.2565004E-06  0.3370392E+04  0.7818609E-02  0.8145211E-01
        2   -1    0    0  501    0  0.00000000000E+00  0.00000000000E+00  0.15906655777E+04  0.15906655777E+04  0.25500000920E-02 0. -1.
       -2   -1    0    0    0  501  0.00000000000E+00  0.00000000000E+00 -0.17853445032E+04  0.17853445032E+04  0.25500000920E-02 0.  1.
    10030    2    1    2    0    0  0.00000000000E+00  0.00000000000E+00 -0.19467892551E+03  0.33760100810E+04  0.33703922892E+04 0.  0.
        3    1    3    3  502    0  0.14604779616E+04 -0.40807960987E+03 -0.83365736110E+03  0.17304650965E+04  0.10100000352E+00 0.  1.
       -3    1    3    3    0  502 -0.14604779616E+04  0.40807960987E+03  0.63897843559E+03  0.16455449844E+04  0.10100000352E+00 0. -1.
</event>
<event>
 5   0  0.1110956E-06  0.3338916E+04  0.7818609E-02  0.8153063E-01
       -1   -1    0    0    0  501  0.00000000000E+00  0.00000000000E+00  0.14602484366E+04  0.14602484366E+04  0.50400001928E-02 0. -1.
        1   -1    0    0  501    0  0.00000000000E+00  0.00000000000E+00 -0.19086414817E+04  0.19086414817E+04  0.50400001928E-02 0.  1.
    10030    2    1    2    0    0  0.00000000000E+00  0.00000000000E+00 -0.44839304510E+03  0.33688899183E+04  0.33389164348E+04 0.  0.
        1    1    3    3  502    0 -0.87394803244E+03 -0.64835123832E+03 -0.15016372259E+04  0.18544699646E+04  0.50400001928E-02 0.  1.
       -1    1    3    3    0  502  0.87394803244E+03  0.64835123832E+03  0.10532441808E+04  0.15144199536E+04  0.50400001928E-02 0. -1.
</event>
<event>
 5   0  0.1544190E-06  0.1738374E+04  0.7818609E-02  0.8739776E-01
       -1   -1    0    0    0  501  0.00000000000E+00  0.00000000000E+00  0.63122776684E+03  0.63122776686E+03  0.50400001928E-02 0.  1.
        1   -1    0    0  501    0  0.00000000000E+00  0.00000000000E+00 -0.11968511950E+04  0.11968511951E+04  0.50400001928E-02 0. -1.
    10030    2    1    2    0    0  0.00000000000E+00  0.00000000000E+00 -0.56562342820E+03  0.18280789619E+04  0.17383736159E+04 0.  0.
        2    1    3    3  502    0 -0.65324687192E+03 -0.32798675327E+03  0.21175364809E+03  0.76101668410E+03  0.25500000920E-02 0.  1.
       -2    1    3    3    0  502  0.65324687192E+03  0.32798675327E+03 -0.77737707629E+03  0.10670622778E+04  0.25500000920E-02 0. -1.
</event>
<event>
 5   0  0.1110956E-06  0.3586178E+04  0.7818609E-02  0.8093665E-01
        1   -1    0    0  501    0  0.00000000000E+00  0.00000000000E+00  0.11235694851E+04  0.11235694851E+04  0.50400001928E-02 0. -1.
       -1   -1    0    0    0  501  0.00000000000E+00  0.00000000000E+00 -0.28615659972E+04  0.28615659972E+04  0.50400001928E-02 0.  1.
    10030    2    1    2    0    0  0.00000000000E+00  0.00000000000E+00 -0.17379965121E+04  0.39851354824E+04  0.35861780403E+04 0.  0.
        1    1    3    3  502    0  0.10622556257E+04  0.80556288002E+03 -0.22015006080E+04  0.25736984080E+04  0.50400001928E-02 0.  1.
       -1    1    3    3    0  502 -0.10622556257E+04 -0.80556288002E+03  0.46350409593E+03  0.14114370744E+04  0.50400001928E-02 0. -1.
</event>
<event>
 5   0  0.2565004E-06  0.2830314E+04  0.7818609E-02  0.8293918E-01
       -2   -1    0    0    0  501  0.00000000000E+00  0.00000000000E+00  0.15635213000E+04  0.15635213000E+04  0.25500000920E-02 0.  1.
        2   -1    0    0  501    0  0.00000000000E+00  0.00000000000E+00 -0.12808715283E+04  0.12808715283E+04  0.25500000920E-02 0. -1.
    10030    2    1    2    0    0  0.00000000000E+00  0.00000000000E+00  0.28264977164E+03  0.28443928283E+04  0.28303144116E+04 0.  0.
        3    1    3    3  502    0  0.42099393242E+03  0.21212260751E+03  0.14822925995E+04  0.15554495339E+04  0.10100000352E+00 0.  1.
       -3    1    3    3    0  502 -0.42099393242E+03 -0.21212260751E+03 -0.11996428278E+04  0.12889432945E+04  0.10100000352E+00 0. -1.
</event>
<event>
 5   0  0.1130707E-06  0.2663961E+04  0.7818609E-02  0.8346794E-01
        1   -1    0    0  501    0  0.00000000000E+00  0.00000000000E+00  0.19542060578E+04  0.19542060578E+04  0.50400001928E-02 0.  1.
       -1   -1    0    0    0  501  0.00000000000E+00  0.00000000000E+00 -0.90787359259E+03  0.90787359261E+03  0.50400001928E-02 0. -1.
    10030    2    1    2    0    0  0.00000000000E+00  0.00000000000E+00  0.10463324652E+04  0.28620796504E+04  0.26639610165E+04 0.  0.
        3    1    3    3  502    0 -0.84176489568E+03  0.94465338498E+03  0.75998661691E+02  0.12675622131E+04  0.10100000352E+00 0. -1.
       -3    1    3    3    0  502  0.84176489568E+03 -0.94465338498E+03  0.97033380349E+03  0.15945174373E+04  0.10100000352E+00 0.  1.
</event>
<event>
 5   0  0.3041329E-06  0.3343097E+04  0.7818609E-02  0.8152015E-01
       -2   -1    0    0    0  501  0.00000000000E+00  0.00000000000E+00  0.15086480944E+04  0.15086480944E+04  0.25500000920E-02 0.  1.
        2   -1    0    0  501    0  0.00000000000E+00  0.00000000000E+00 -0.18520387747E+04  0.18520387747E+04  0.25500000920E-02 0. -1.
    10030    2    1    2    0    0  0.00000000000E+00  0.00000000000E+00 -0.34339068029E+03  0.33606868690E+04  0.33430972275E+04 0.  0.
        2    1    3    3  502    0 -0.81071999808E+03  0.68051078650E+03  0.11288321192E+04  0.15474572043E+04  0.25500000920E-02 0.  1.
       -2    1    3    3    0  502  0.81071999808E+03 -0.68051078650E+03 -0.14722227995E+04  0.18132296647E+04  0.25500000920E-02 0. -1.
</event>
<event>
 5   0  0.3041329E-06  0.3277280E+04  0.7818609E-02  0.8168701E-01
       -2   -1    0    0    0  501  0.00000000000E+00  0.00000000000E+00  0.15956601272E+04  0.15956601272E+04  0.25500000920E-02 0. -1.
        2   -1    0    0  501    0  0.00000000000E+00  0.00000000000E+00 -0.16827776437E+04  0.16827776437E+04  0.25500000920E-02 0.  1.
    10030    2    1    2    0    0  0.00000000000E+00  0.00000000000E+00 -0.87117516481E+02  0.32784377709E+04  0.32772800850E+04 0.  0.
        2    1    3    3  502    0  0.55548034208E+03 -0.11463691787E+04 -0.10746606972E+04  0.16666182282E+04  0.25500000920E-02 0.  1.
       -2    1    3    3    0  502 -0.55548034208E+03  0.11463691787E+04  0.98754318074E+03  0.16118195427E+04  0.25500000920E-02 0. -1.
</event>
<event>
 5   0  0.2565004E-06  0.2475335E+04  0.7818609E-02  0.8411826E-01
       -2   -1    0    0    0  501  0.00000000000E+00  0.00000000000E+00  0.91564184237E+03  0.91564184237E+03  0.25500000920E-02 0.  1.
        2   -1    0    0  501    0  0.00000000000E+00  0.00000000000E+00 -0.16729478932E+04  0.16729478932E+04  0.25500000920E-02 0. -1.
    10030    2    1    2    0    0  0.00000000000E+00  0.00000000000E+00 -0.75730605083E+03  0.25885897356E+04  0.24753352025E+04 0.  0.
        3    1    3    3  502    0 -0.42137929155E+03 -0.73924566599E+02 -0.15931663900E+04  0.16496073791E+04  0.10100000352E+00 0. -1.
       -3    1    3    3    0  502  0.42137929155E+03  0.73924566599E+02  0.83586033917E+03  0.93898235643E+03  0.10100000352E+00 0.  1.
</event>
<event>
 5   0  0.1782660E-06  0.3427892E+04  0.7818609E-02  0.8131095E-01
        2   -1    0    0  501    0  0.00000000000E+00  0.00000000000E+00  0.24349476876E+04  0.24349476876E+04  0.25500000920E-02 0.  1.
       -2   -1    0    0    0  501  0.00000000000E+00  0.00000000000E+00 -0.12064367232E+04  0.12064367232E+04  0.25500000920E-02 0. -1.
    10030    2    1    2    0    0  0.00000000000E+00  0.00000000000E+00  0.12285109644E+04  0.36413844108E+04  0.34278916608E+04 0.  0.
        4    1    3    3  502    0 -0.57638597545E+03 -0.14653431253E+04 -0.10477418148E+03  0.15781097901E+04  0.12699999809E+01 0. -1.
       -4    1    3    3    0  502  0.57638597545E+03  0.14653431253E+04  0.13332851459E+04  0.20632746208E+04  0.12699999809E+01 0.  1.
</event>
<event>
 5   0  0.3041329E-06  0.2136178E+04  0.7818609E-02  0.8545472E-01
        2   -1    0    0  501    0  0.00000000000E+00  0.00000000000E+00  0.64284634312E+03  0.64284634312E+03  0.25500000920E-02 0. -1.
       -2   -1    0    0    0  501  0.00000000000E+00  0.00000000000E+00 -0.17746293307E+04  0.17746293307E+04  0.25500000920E-02 0.  1.
    10030    2    1    2    0    0  0.00000000000E+00  0.00000000000E+00 -0.11317829876E+04  0.24174756738E+04  0.21361778724E+04 0.  0.
        2    1    3    3  502    0  0.32065828921E+03  0.89286323996E+03 -0.10573630411E+02  0.94875618858E+03  0.25500000920E-02 0. -1.
       -2    1    3    3    0  502 -0.32065828921E+03 -0.89286323996E+03 -0.11212093571E+04  0.14687194852E+04  0.25500000920E-02 0.  1.
</event>
<event>
 5   0  0.1782660E-06  0.3325825E+04  0.7818609E-02  0.8156355E-01
       -2   -1    0    0    0  501  0.00000000000E+00  0.00000000000E+00  0.18470543630E+04  0.18470543630E+04  0.25500000920E-02 0. -1.
        2   -1    0    0  501    0  0.00000000000E+00  0.00000000000E+00 -0.14971289226E+04  0.14971289226E+04  0.25500000920E-02 0.  1.
    10030    2    1    2    0    0  0.00000000000E+00  0.00000000000E+00  0.34992544041E+03  0.33441832856E+04  0.33258253162E+04 0.  0.
        4    1    3    3  502    0 -0.34132707020E+03  0.77174858755E+03 -0.12658376649E+04  0.15213305552E+04  0.12699999809E+01 0.  1.
       -4    1    3    3    0  502  0.34132707020E+03 -0.77174858755E+03  0.16157631054E+04  0.18228527304E+04  0.12699999809E+01 0. -1.
</event>
<event>
 5   0  0.1908726E-06  0.3462445E+04  0.7818609E-02  0.8122748E-01
        2   -1    0    0  501    0  0.00000000000E+00  0.00000000000E+00  0.28182451724E+04  0.28182451724E+04  0.25500000920E-02 0. -1.
       -2   -1    0    0    0  501  0.00000000000E+00  0.00000000000E+00 -0.10634740797E+04  0.10634740797E+04  0.25500000920E-02 0.  1.
    10030    2    1    2    0    0  0.00000000000E+00  0.00000000000E+00  0.17547710928E+04  0.38817192521E+04  0.34624446226E+04 0.  0.
        5    1    3    3  502    0  0.74556921665E+03 -0.13985838049E+04  0.16582955809E+04  0.22938780351E+04  0.46999998093E+01 0. -1.
       -5    1    3    3    0  502 -0.74556921665E+03  0.13985838049E+04  0.96475511822E+02  0.15878412170E+04  0.46999998093E+01 0.  1.
</event>
<event>
 5   0  0.1089337E-06  0.2058675E+04  0.7818609E-02  0.8579669E-01
        1   -1    0    0  501    0  0.00000000000E+00  0.00000000000E+00  0.25056845545E+04  0.25056845545E+04  0.50400001928E-02 0. -1.
       -1   -1    0    0    0  501  0.00000000000E+00  0.00000000000E+00 -0.42285277054E+03  0.42285277057E+03  0.50400001928E-02 0.  1.
    10030    2    1    2    0    0  0.00000000000E+00  0.00000000000E+00  0.20828317840E+04  0.29285373251E+04  0.20586749681E+04 0.  0.
        2    1    3    3  502    0 -0.43929799098E+02 -0.42476985533E+03  0.23737294542E+04  0.24118355622E+04  0.25500000920E-02 0. -1.
       -2    1    3    3    0  502  0.43929799098E+02  0.42476985533E+03 -0.29089767023E+03  0.51670176291E+03  0.25500000920E-02 0.  1.
</event>
<event>
 5   0  0.1102175E-06  0.3477662E+04  0.7818609E-02  0.8119104E-01
        1   -1    0    0  501    0  0.00000000000E+00  0.00000000000E+00  0.22038681729E+04  0.22038681729E+04  0.50400001928E-02 0.  1.
       -1   -1    0    0    0  501  0.00000000000E+00  0.00000000000E+00 -0.13719212356E+04  0.13719212356E+04  0.50400001928E-02 0. -1.
    10030    2    1    2    0    0  0.00000000000E+00  0.00000000000E+00  0.83194693725E+03  0.35757894085E+04  0.34776621727E+04 0.  0.
        5    1    3    3  502    0  0.99547547083E+02 -0.16916184166E+04  0.15062827347E+02  0.16946184114E+04  0.46999998093E+01 0. -1.
       -5    1    3    3    0  502 -0.99547547083E+02  0.16916184166E+04  0.81688410990E+03  0.18811709971E+04  0.46999998093E+01 0.  1.
</event>
<event>
 5   0  0.1089337E-06  0.3438139E+04  0.7818609E-02  0.8128609E-01
        1   -1    0    0  501    0  0.00000000000E+00  0.00000000000E+00  0.16959610357E+04  0.16959610357E+04  0.50400001928E-02 0. -1.
       -1   -1    0    0    0  501  0.00000000000E+00  0.00000000000E+00 -0.17424932293E+04  0.17424932293E+04  0.50400001928E-02 0.  1.
    10030    2    1    2    0    0  0.00000000000E+00  0.00000000000E+00 -0.46532193605E+02  0.34384542650E+04  0.34381393933E+04 0.  0.
        2    1    3    3  502    0 -0.69484399252E+03  0.54648885177E+03 -0.14977628084E+04  0.17391813216E+04  0.25500000920E-02 0.  1.
       -2    1    3    3    0  502  0.69484399252E+03 -0.54648885177E+03  0.14512306148E+04  0.16992729435E+04  0.25500000920E-02 0. -1.
</event>
<event>
 5   0  0.1102175E-06  0.3174583E+04  0.7818609E-02  0.8195562E-01
        1   -1    0    0  501    0  0.00000000000E+00  0.00000000000E+00  0.16659737395E+04  0.16659737395E+04  0.50400001928E-02 0.  1.
       -1   -1    0    0    0  501  0.00000000000E+00  0.00000000000E+00 -0.15123256223E+04  0.15123256223E+04  0.50400001928E-02 0. -1.
    10030    2    1    2    0    0  0.00000000000E+00  0.00000000000E+00  0.15364811719E+03  0.31782993617E+04  0.31745832937E+04 0.  0.
        5    1    3    3  502    0  0.36621703352E+03  0.10408832330E+04 -0.10655286099E+04  0.15339250728E+04  0.46999998093E+01 0. -1.
       -5    1    3    3    0  502 -0.36621703352E+03 -0.10408832330E+04  0.12191767271E+04  0.16443742890E+04  0.46999998093E+01 0.  1.
</event>
<event>
 5   0  0.1782660E-06  0.2432804E+04  0.7818609E-02  0.8427323E-01
       -2   -1    0    0    0  501  0.00000000000E+00  0.00000000000E+00  0.88620602352E+03  0.88620602353E+03  0.25500000920E-02 0. -1.
        2   -1    0    0  501    0  0.00000000000E+00  0.00000000000E+00 -0.16696280231E+04  0.16696280231E+04  0.25500000920E-02 0.  1.
    10030    2    1    2    0    0  0.00000000000E+00  0.00000000000E+00 -0.78342199963E+03  0.25558340467E+04  0.24328044814E+04 0.  0.
        4    1    3    3  502    0 -0.79857449047E+03  0.50433502885E+03  0.41357607266E+03  0.10310779888E+04  0.12699999809E+01 0. -1.
       -4    1    3    3    0  502  0.79857449047E+03 -0.50433502885E+03 -0.11969980723E+04  0.15247560579E+04  0.12699999809E+01 0.  1.
</event>
<event>
 5   0  0.1130707E-06  0.3677397E+04  0.7818609E-02  0.8072989E-01
       -1   -1    0    0    0  501  0.00000000000E+00  0.00000000000E+00  0.16259603354E+04  0.16259603354E+04  0.50400001928E-02 0. -1.
        1   -1    0    0  501    0  0.00000000000E+00  0.00000000000E+00 -0.20792713529E+04  0.20792713529E+04  0.50400001928E-02 0.  1.
    10030    2    1    2    0    0  0.00000000000E+00  0.00000000000E+00 -0.45331101750E+03  0.37052316883E+04  0.36773973114E+04 0.  0.
        3    1    3    3  502    0 -0.91461744125E+03  0.15520329574E+04 -0.59751944868E+03  0.18979886370E+04  0.10100000352E+00 0.  1.
       -3    1    3    3    0  502  0.91461744125E+03 -0.15520329574E+04  0.14420843119E+03  0.18072430513E+04  0.10100000352E+00 0. -1.
</event>
<event>
 5   0  0.1908726E-06  0.3526093E+04  0.7818609E-02  0.8107634E-01
        2   -1    0    0  501    0  0.00000000000E+00  0.00000000000E+00  0.19095949951E+04  0.19095949951E+04  0.25500000920E-02 0. -1.
       -2   -1    0    0    0  501  0.00000000000E+00  0.00000000000E+00 -0.16277443502E+04  0.16277443502E+04  0.25500000920E-02 0.  1.
    10030    2    1    2    0    0  0.00000000000E+00  0.00000000000E+00  0.28185064490E+03  0.35373393454E+04  0.35260927183E+04 0.  0.
        5    1    3    3  502    0  0.10686595107E+04  0.13999817384E+04  0.22073002381E+03  0.17750284086E+04  0.46999998093E+01 0. -1.
       -5    1    3    3    0  502 -0.10686595107E+04 -0.13999817384E+04  0.61120621096E+02  0.17623109368E+04  0.46999998093E+01 0.  1.
</event>
<event>
 5   0  0.1089337E-06  0.2054550E+04  0.7818609E-02  0.8581533E-01
       -1   -1    0    0    0  501  0.00000000000E+00  0.00000000000E+00  0.18858660000E+04  0.18858660000E+04  0.50400001928E-02 0. -1.
        1   -1    0    0  501    0  0.00000000000E+00  0.00000000000E+00 -0.55958028850E+03  0.55958028853E+03  0.50400001928E-02 0.  1.
    10030    2    1    2    0    0  0.00000000000E+00  0.00000000000E+00  0.13262857115E+04  0.24454462885E+04  0.20545495277E+04 0.  0.
        2    1    3    3  502    0  0.32310202659E+03  0.60549898480E+02 -0.49528701359E+03  0.59444969141E+03  0.25500000920E-02 0.  1.
       -2    1    3    3    0  502 -0.32310202659E+03 -0.60549898480E+02  0.18215727251E+04  0.18509965971E+04  0.25500000920E-02 0. -1.
</event>
<event>
 5   0  0.1089337E-06  0.1890395E+04  0.7818609E-02  0.8659652E-01
        1   -1    0    0  501    0  0.00000000000E+00  0.00000000000E+00  0.93236857409E+03  0.93236857411E+03  0.50400001928E-02 0. -1.
       -1   -1    0    0    0  501  0.00000000000E+00  0.00000000000E+00 -0.95820274273E+03  0.95820274275E+03  0.50400001928E-02 0.  1.
    10030    2    1    2    0    0  0.00000000000E+00  0.00000000000E+00 -0.25834168643E+02  0.18905713169E+04  0.18903948000E+04 0.  0.
        2    1    3    3  502    0  0.61841202889E+03  0.21881623976E+03 -0.69348348542E+03  0.95458542248E+03  0.25500000920E-02 0.  1.
       -2    1    3    3    0  502 -0.61841202889E+03 -0.21881623976E+03  0.66764931678E+03  0.93598589437E+03  0.25500000920E-02 0. -1.
</event>
<event>
 5   0  0.3378848E-06  0.3654181E+04  0.7818609E-02  0.8078192E-01
        2   -1    0    0  501    0  0.00000000000E+00  0.00000000000E+00  0.14246421482E+04  0.14246421482E+04  0.25500000920E-02 0.  1.
       -2   -1    0    0    0  501  0.00000000000E+00  0.00000000000E+00 -0.23432274255E+04  0.23432274255E+04  0.25500000920E-02 0. -1.
    10030    2    1    2    0    0  0.00000000000E+00  0.00000000000E+00 -0.91858527732E+03  0.37678695737E+04  0.36541814696E+04 0.  0.
        1    1    3    3  502    0  0.47058332773E+03  0.60268501839E+03  0.12517262688E+04  0.14667980610E+04  0.50400001928E-02 0.  1.
       -1    1    3    3    0  502 -0.47058332773E+03 -0.60268501839E+03 -0.21703115461E+04  0.23010715128E+04  0.50400001928E-02 0. -1.
</event>
<event>
 5   0  0.1908726E-06  0.3538814E+04  0.7818609E-02  0.8104653E-01
        2   -1    0    0  501    0  0.00000000000E+00  0.00000000000E+00  0.18292204549E+04  0.18292204549E+04  0.25500000920E-02 0.  1.
       -2   -1    0    0    0  501  0.00000000000E+00  0.00000000000E+00 -0.17115498272E+04  0.17115498272E+04  0.25500000920E-02 0. -1.
    10030    2    1    2    0    0  0.00000000000E+00  0.00000000000E+00  0.11767062767E+03  0.35407702821E+04  0.35388144644E+04 0.  0.
        5    1    3    3  502    0  0.73019067538E+03  0.15713499785E+04  0.41744752704E+03  0.17823029219E+04  0.46999998093E+01 0.  1.
       -5    1    3    3    0  502 -0.73019067538E+03 -0.15713499785E+04 -0.29977689936E+03  0.17584673602E+04  0.46999998093E+01 0. -1.
</event>
<event>
 5   0  0.3378848E-06  0.3465917E+04  0.7818609E-02  0.8121915E-01
       -2   -1    0    0    0  501  0.00000000000E+00  0.00000000000E+00  0.13911419393E+04  0.13911419393E+04  0.25500000920E-02 0. -1.
        2   -1    0    0  501    0  0.00000000000E+00  0.00000000000E+00 -0.21587625595E+04  0.21587625595E+04  0.25500000920E-02 0.  1.
    10030    2    1    2    0    0  0.00000000000E+00  0.00000000000E+00 -0.76762062016E+03  0.35499044988E+04  0.34659169831E+04 0.  0.
        1    1    3    3  502    0  0.15631534667E+04 -0.34860450241E+03 -0.10617959020E+04  0.19215578047E+04  0.50400001928E-02 0. -1.
       -1    1    3    3    0  502 -0.15631534667E+04  0.34860450241E+03  0.29417528181E+03  0.16283466940E+04  0.50400001928E-02 0.  1.
</event>
<event>
 5   0  0.1130707E-06  0.1800083E+04  0.7818609E-02  0.8706255E-01
       -1   -1    0    0    0  501  0.00000000000E+00  0.00000000000E+00  0.36806536327E+03  0.36806536331E+03  0.50400001928E-02 0. -1.
        1   -1    0    0  501    0  0.00000000000E+00  0.00000000000E+00 -0.22008987403E+04  0.22008987403E+04  0.50400001928E-02 0.  1.
    10030    2    1    2    0    0  0.00000000000E+00  0.00000000000E+00 -0.18328333770E+04  0.25689641036E+04  0.18000828808E+04 0.  0.
        3    1    3    3  502    0  0.24901678722E+03  0.86371066607E+03 -0.98133350952E+03  0.13307971078E+04  0.10100000352E+00 0. -1.
       -3    1    3    3    0  502 -0.24901678722E+03 -0.86371066607E+03 -0.85149986752E+03  0.12381669958E+04  0.10100000352E+00 0.  1.
</event>
<event>
 5   0  0.2565004E-06  0.3453163E+04  0.7818609E-02  0.8124980E-01
        2   -1    0    0  501    0  0.00000000000E+00  0.00000000000E+00  0.91679271100E+03  0.91679271101E+03  0.25500000920E-02 0.  1.
       -2   -1    0    0    0  501  0.00000000000E+00  0.00000000000E+00 -0.32516441276E+04  0.32516441276E+04  0.25500000920E-02 0. -1.
    10030    2    1    2    0    0  0.00000000000E+00  0.00000000000E+00 -0.23348514166E+04  0.41684368386E+04  0.34531629762E+04 0.  0.
        3    1    3    3  502    0  0.68362764683E+03  0.80370627822E+03 -0.28171848019E+04  0.30082920003E+04  0.10100000352E+00 0. -1.
       -3    1    3    3    0  502 -0.68362764683E+03 -0.80370627822E+03  0.48233338524E+03  0.11601448383E+04  0.10100000352E+00 0.  1.
</event>
<event>
 5   0  0.1125196E-06  0.2442398E+04  0.7818609E-02  0.8423799E-01
        1   -1    0    0  501    0  0.00000000000E+00  0.00000000000E+00  0.15112709819E+04  0.15112709819E+04  0.50400001928E-02 0. -1.
       -1   -1    0    0    0  501  0.00000000000E+00  0.00000000000E+00 -0.98680337114E+03  0.98680337115E+03  0.50400001928E-02 0.  1.
    10030    2    1    2    0    0  0.00000000000E+00  0.00000000000E+00  0.52446761078E+03  0.24980743531E+04  0.24423982474E+04 0.  0.
        4    1    3    3  502    0  0.33009622419E+02  0.11115040615E+04  0.77851242257E+03  0.13574292316E+04  0.12699999809E+01 0. -1.
       -4    1    3    3    0  502 -0.33009622419E+02 -0.11115040615E+04 -0.25404481179E+03  0.11406451215E+04  0.12699999809E+01 0.  1.
</event>
<event>
 5   0  0.1110956E-06  0.2768915E+04  0.7818609E-02  0.8312984E-01
       -1   -1    0    0    0  501  0.00000000000E+00  0.00000000000E+00  0.10698701068E+04  0.10698701068E+04  0.50400001928E-02 0.  1.
        1   -1    0    0  501    0  0.00000000000E+00  0.00000000000E+00 -0.17915473859E+04  0.17915473859E+04  0.50400001928E-02 0. -1.
    10030    2    1    2    0    0  0.00000000000E+00  0.00000000000E+00 -0.72167727917E+03  0.28614174927E+04  0.27689153061E+04 0.  0.
        1    1    3    3  502    0  0.93172043571E+03 -0.27371956404E+03 -0.13805649167E+04  0.16878936161E+04  0.50400001928E-02 0. -1.
       -1    1    3    3    0  502 -0.93172043571E+03  0.27371956404E+03  0.65888763753E+03  0.11735238766E+04  0.50400001928E-02 0.  1.
</event>
<event>
 5   0  0.2565004E-06  0.3498228E+04  0.7818609E-02  0.8114210E-01
       -2   -1    0    0    0  501  0.00000000000E+00  0.00000000000E+00  0.13457173848E+04  0.13457173848E+04  0.25500000920E-02 0.  1.
        2   -1    0    0  501    0  0.00000000000E+00  0.00000000000E+00 -0.22734341543E+04  0.22734341543E+04  0.25500000920E-02 0. -1.
    10030    2    1    2    0    0  0.00000000000E+00  0.00000000000E+00 -0.92771676951E+03  0.36191515392E+04  0.34982280456E+04 0.  0.
        3    1    3    3  502    0 -0.13129482981E+04 -0.11163982438E+04 -0.15483338708E+03  0.17303617136E+04  0.10100000352E+00 0.  1.
       -3    1    3    3    0  502  0.13129482981E+04  0.11163982438E+04 -0.77288338243E+03  0.18887898255E+04  0.10100000352E+00 0. -1.
</event>
<event>
 5   0  0.1125196E-06  0.3534617E+04  0.7818609E-02  0.8105635E-01
       -1   -1    0    0    0  501  0.00000000000E+00  0.00000000000E+00  0.20400819083E+04  0.20400819083E+04  0.50400001928E-02 0. -1.
        1   -1    0    0  501    0  0.00000000000E+00  0.00000000000E+00 -0.15310072041E+04  0.15310072041E+04  0.50400001928E-02 0.  1.
    10030    2    1    2    0    0  0.00000000000E+00  0.00000000000E+00  0.50907470415E+03  0.35710891124E+04  0.35346174325E+04 0.  0.
        4    1    3    3  502    0 -0.15335616804E+04  0.74407210087E+03  0.72617728748E+03  0.18527789357E+04  0.12699999809E+01 0. -1.
       -4    1    3    3    0  502  0.15335616804E+04 -0.74407210087E+03 -0.21710258333E+03  0.17183101767E+04  0.12699999809E+01 0.  1.
</event>
<event>
 5   0  0.1102175E-06  0.2886310E+04  0.7818609E-02  0.8276962E-01
        1   -1    0    0  501    0  0.00000000000E+00  0.00000000000E+00  0.13466973756E+04  0.13466973756E+04  0.50400001928E-02 0. -1.
       -1   -1    0    0    0  501  0.00000000000E+00  0.00000000000E+00 -0.15465215587E+04  0.15465215587E+04  0.50400001928E-02 0.  1.
    10030    2    1    2    0    0  0.00000000000E+00  0.00000000000E+00 -0.19982418310E+03  0.28932189343E+04  0.28863101181E+04 0.  0.
        5    1    3    3  502    0  0.11756211385E+04  0.51768302043E+03  0.55938078559E+03  0.14010744891E+04  0.46999998093E+01 0. -1.
       -5    1    3    3    0  502 -0.11756211385E+04 -0.51768302043E+03 -0.75920496869E+03  0.14921444452E+04  0.46999998093E+01 0.  1.
</event>
<event>
 5   0  0.1102175E-06  0.2004151E+04  0.7818609E-02  0.8604682E-01
       -1   -1    0    0    0  501  0.00000000000E+00  0.00000000000E+00  0.12689858979E+04  0.12689858979E+04  0.50400001928E-02 0. -1.
        1   -1    0    0  501    0  0.00000000000E+00  0.00000000000E+00 -0.79130564729E+03  0.79130564730E+03  0.50400001928E-02 0.  1.
    10030    2    1    2    0    0  0.00000000000E+00  0.00000000000E+00  0.47768025056E+03  0.20602915452E+04  0.20041513988E+04 0.  0.
        5    1    3    3  502    0 -0.59953317165E+03 -0.73206634683E+03 -0.10020509326E+03  0.95153786618E+03  0.46999998093E+01 0.  1.
       -5    1    3    3    0  502  0.59953317165E+03  0.73206634683E+03  0.57788534382E+03  0.11087536790E+04  0.46999998093E+01 0. -1.
</event>
<event>
 5   0  0.1908726E-06  0.2796187E+04  0.7818609E-02  0.8304453E-01
        2   -1    0    0  501    0  0.00000000000E+00  0.00000000000E+00  0.19928215439E+04  0.19928215439E+04  0.25500000920E-02 0.  1.
       -2   -1    0    0    0  501  0.00000000000E+00  0.00000000000E+00 -0.98085296173E+03  0.98085296173E+03  0.25500000920E-02 0. -1.
    10030    2    1    2    0    0  0.00000000000E+00  0.00000000000E+00  0.10119685821E+04  0.29736745056E+04  0.27961866272E+04 0.  0.
        5    1    3    3  502    0 -0.67959852087E+02 -0.44061022767E+03 -0.90322515507E+03  0.10072704130E+04  0.46999998093E+01 0. -1.
       -5    1    3    3    0  502  0.67959852087E+02  0.44061022767E+03  0.19151937372E+04  0.19664040926E+04  0.46999998093E+01 0.  1.
</event>
<event>
 5   0  0.3041329E-06  0.3423690E+04  0.7818609E-02  0.8132116E-01
        2   -1    0    0  501    0  0.00000000000E+00  0.00000000000E+00  0.11335391995E+04  0.11335391995E+04  0.25500000920E-02 0. -1.
       -2   -1    0    0    0  501  0.00000000000E+00  0.00000000000E+00 -0.25851899394E+04  0.25851899394E+04  0.25500000920E-02 0.  1.
    10030    2    1    2    0    0  0.00000000000E+00  0.00000000000E+00 -0.14516507399E+04  0.37187291389E+04  0.34236904851E+04 0.  0.
        2    1    3    3  502    0 -0.10799403149E+03  0.17061124225E+04 -0.82256103579E+03  0.18971265025E+04  0.25500000920E-02 0. -1.
       -2    1    3    3    0  502  0.10799403149E+03 -0.17061124225E+04 -0.62908970411E+03  0.18216026364E+04  0.25500000920E-02 0.  1.
</event>
<event>
 5   0  0.3041329E-06  0.3381056E+04  0.7818609E-02  0.8142571E-01
       -2   -1    0    0    0  501  0.00000000000E+00  0.00000000000E+00  0.12114823060E+04  0.12114823060E+04  0.25500000920E-02 0. -1.
        2   -1    0    0  501    0  0.00000000000E+00  0.00000000000E+00 -0.23589991332E+04  0.23589991332E+04  0.25500000920E-02 0.  1.
    10030    2    1    2    0    0  0.00000000000E+00  0.00000000000E+00 -0.11475168272E+04  0.35704814393E+04  0.33810564679E+04 0.  0.
        2    1    3    3  502    0 -0.10141070627E+04 -0.52668561244E+03  0.74186224749E+03  0.13624134700E+04  0.25500000920E-02 0. -1.
       -2    1    3    3    0  502  0.10141070627E+04  0.52668561244E+03 -0.18893790747E+04  0.22080679693E+04  0.25500000920E-02 0.  1.
</event>
<event>
 5   0  0.1782660E-06  0.3469616E+04  0.7818609E-02  0.8121029E-01
       -2   -1    0    0    0  501  0.00000000000E+00  0.00000000000E+00  0.18887211403E+04  0.18887211403E+04  0.25500000920E-02 0. -1.
        2   -1    0    0  501    0  0.00000000000E+00  0.00000000000E+00 -0.15934371019E+04  0.15934371019E+04  0.25500000920E-02 0.  1.
    10030    2    1    2    0    0  0.00000000000E+00  0.00000000000E+00  0.29528403845E+03  0.34821582422E+04  0.34696157367E+04 0.  0.
        4    1    3    3  502    0 -0.19110245861E+03  0.40771309413E+03  0.18290510265E+04  0.18836611658E+04  0.12699999809E+01 0. -1.
       -4    1    3    3    0  502  0.19110245861E+03 -0.40771309413E+03 -0.15337669881E+04  0.15984970765E+04  0.12699999809E+01 0.  1.
</event>
<event>
 5   0  0.1782660E-06  0.3427941E+04  0.7818609E-02  0.8131082E-01
        2   -1    0    0  501    0  0.00000000000E+00  0.00000000000E+00  0.24834141504E+04  0.24834141504E+04  0.25500000920E-02 0.  1.
       -2   -1    0    0    0  501  0.00000000000E+00  0.00000000000E+00 -0.11829260923E+04  0.11829260923E+04  0.25500000920E-02 0. -1.
    10030    2    1    2    0    0  0.00000000000E+00  0.00000000000E+00  0.13004880582E+04  0.36663402427E+04  0.34279413043E+04 0.  0.
        4    1    3    3  502    0  0.79966507828E+02 -0.52204509363E+03 -0.10937284023E+04  0.12145654173E+04  0.12699999809E+01 0. -1.
       -4    1    3    3    0  502 -0.79966507828E+02  0.52204509363E+03  0.23942164604E+04  0.24517748254E+04  0.12699999809E+01 0.  1.
</event>
<event>
 5   0  0.1908726E-06  0.3566495E+04  0.7818609E-02  0.8098210E-01
        2   -1    0    0  501    0  0.00000000000E+00  0.00000000000E+00  0.22144254865E+04  0.22144254865E+04  0.25500000920E-02 0. -1.
       -2   -1    0    0    0  501  0.00000000000E+00  0.00000000000E+00 -0.14360253583E+04  0.14360253583E+04  0.25500000920E-02 0.  1.
    10030    2    1    2    0    0  0.00000000000E+00  0.00000000000E+00  0.77840012825E+03  0.36504508448E+04  0.35664947232E+04 0.  0.
        5    1    3    3  502    0  0.13083393213E+04 -0.21805953509E+03  0.16091669921E+04  0.20853638145E+04  0.46999998093E+01 0. -1.
       -5    1    3    3    0  502 -0.13083393213E+04  0.21805953509E+03 -0.83076686382E+03  0.15650870303E+04  0.46999998093E+01 0.  1.
</event>
<event>
 5   0  0.3041329E-06  0.3470631E+04  0.7818609E-02  0.8120786E-01
       -2   -1    0    0    0  501  0.00000000000E+00  0.00000000000E+00  0.25320403990E+04  0.25320403990E+04  0.25500000920E-02 0. -1.
        2   -1    0    0  501    0  0.00000000000E+00  0.00000000000E+00 -0.11892856624E+04  0.11892856624E+04  0.25500000920E-02 0.  1.
    10030    2    1    2    0    0  0.00000000000E+00  0.00000000000E+00  0.13427547366E+04  0.37213260614E+04  0.34706306880E+04 0.  0.
        2    1    3    3  502    0 -0.67582470556E+03  0.12012870896E+04  0.18018030908E+04  0.22685510975E+04  0.25500000920E-02 0. -1.
       -2    1    3    3    0  502  0.67582470556E+03 -0.12012870896E+04 -0.45904835415E+03  0.14527749639E+04  0.25500000920E-02 0.  1.
</event>
<event>
 5   0  0.3378848E-06  0.3195835E+04  0.7818609E-02  0.8189918E-01
        2   -1    0    0  501    0  0.00000000000E+00  0.00000000000E+00  0.22901176264E+04  0.22901176264E+04  0.25500000920E-02 0. -1.
       -2   -1    0    0    0  501  0.00000000000E+00  0.00000000000E+00 -0.11149382731E+04  0.11149382731E+04  0.25500000920E-02 0.  1.
    10030    2    1    2    0    0  0.00000000000E+00  0.00000000000E+00  0.11751793533E+04  0.34050558995E+04  0.31958346588E+04 0.  0.
        1    1    3    3  502    0 -0.67473964894E+03 -0.46994164545E+03 -0.87222474930E+03  0.11987054506E+04  0.50400001928E-02 0.  1.
       -1    1    3    3    0  502  0.67473964894E+03  0.46994164545E+03  0.20474041026E+04  0.22063504489E+04  0.50400001928E-02 0. -1.
</event>
<event>
 5   0  0.1130707E-06  0.3537466E+04  0.7818609E-02  0.8104968E-01
        1   -1    0    0  501    0  0.00000000000E+00  0.00000000000E+00  0.17701484873E+04  0.17701484873E+04  0.50400001928E-02 0.  1.
       -1   -1    0    0    0  501  0.00000000000E+00  0.00000000000E+00 -0.17673188420E+04  0.17673188420E+04  0.50400001928E-02 0. -1.
    10030    2    1    2    0    0  0.00000000000E+00  0.00000000000E+00  0.28296452822E+01  0.35374673293E+04  0.35374661976E+04 0.  0.
        3    1    3    3  502    0  0.53162595542E+03  0.14005467764E+04 -0.93893612297E+03  0.17679814712E+04  0.10100000352E+00 0. -1.
       -3    1    3    3    0  502 -0.53162595542E+03 -0.14005467764E+04  0.94176576826E+03  0.17694858581E+04  0.10100000352E+00 0.  1.
</event>
<event>
 5   0  0.1130707E-06  0.3449787E+04  0.7818609E-02  0.8125794E-01
        1   -1    0    0  501    0  0.00000000000E+00  0.00000000000E+00  0.12712249951E+04  0.12712249951E+04  0.50400001928E-02 0.  1.
       -1   -1    0    0    0  501  0.00000000000E+00  0.00000000000E+00 -0.23404643145E+04  0.23404643145E+04  0.50400001928E-02 0. -1.
    10030    2    1    2    0    0  0.00000000000E+00  0.00000000000E+00 -0.10692393195E+04  0.36116893096E+04  0.34497865074E+04 0.  0.
        3    1    3    3  502    0  0.16013592746E+04 -0.32157531950E+03 -0.11151659449E+04  0.19777151735E+04  0.10100000352E+00 0. -1.
       -3    1    3    3    0  502 -0.16013592746E+04  0.32157531950E+03  0.45926625400E+02  0.16339741361E+04  0.10100000352E+00 0.  1.
</event>
<event>
 5   0  0.1125196E-06  0.2548928E+04  0.7818609E-02  0.8385759E-01
        1   -1    0    0  501    0  0.00000000000E+00  0.00000000000E+00  0.12790125970E+04  0.12790125970E+04  0.50400001928E-02 0. -1.
       -1   -1    0    0    0  501  0.00000000000E+00  0.00000000000E+00 -0.12699311726E+04  0.12699311726E+04  0.50400001928E-02 0.  1.
    10030    2    1    2    0    0  0.00000000000E+00  0.00000000000E+00  0.90814244727E+01  0.25489437696E+04  0.25489275918E+04 0.  0.
        4    1    3    3  502    0  0.88898260912E+02  0.29314445046E+03  0.12416499279E+04  0.12788794806E+04  0.12699999809E+01 0. -1.
       -4    1    3    3    0  502 -0.88898260912E+02 -0.29314445046E+03 -0.12325685034E+04  0.12700642890E+04  0.12699999809E+01 0.  1.
</event>
<event>
 5   0  0.1102175E-06  0.3332239E+04  0.7818609E-02  0.8154740E-01
        1   -1    0    0  501    0  0.00000000000E+00  0.00000000000E+00  0.28010008248E+04  0.28010008248E+04  0.50400001928E-02 0. -1.
       -1   -1    0    0    0  501  0.00000000000E+00  0.00000000000E+00 -0.99105803078E+03  0.99105803079E+03  0.50400001928E-02 0.  1.
    10030    2    1    2    0    0  0.00000000000E+00  0.00000000000E+00  0.18099427940E+04  0.37920588556E+04  0.33322391041E+04 0.  0.
        5    1    3    3  502    0 -0.13347592198E+03  0.15349189670E+04  0.18331965312E+03  0.15515863631E+04  0.46999998093E+01 0.  1.
       -5    1    3    3    0  502  0.13347592198E+03 -0.15349189670E+04  0.16266231409E+04  0.22404724925E+04  0.46999998093E+01 0. -1.
</event>
<event>
 5   0  0.2565004E-06  0.3520605E+04  0.7818609E-02  0.8108924E-01
       -2   -1    0    0    0  501  0.00000000000E+00  0.00000000000E+00  0.10499967846E+04  0.10499967846E+04  0.25500000920E-02 0.  1.
        2   -1    0    0  501    0  0.00000000000E+00  0.00000000000E+00 -0.29511180206E+04  0.29511180206E+04  0.25500000920E-02 0. -1.
    10030    2    1    2    0    0  0.00000000000E+00  0.00000000000E+00 -0.19011212360E+04  0.40011148052E+04  0.35206047393E+04 0.  0.
        3    1    3    3  502    0  0.15380919664E+04 -0.17114439343E+03 -0.19038860994E+04  0.24535279885E+04  0.10100000352E+00 0. -1.
       -3    1    3    3    0  502 -0.15380919664E+04  0.17114439343E+03  0.27648633898E+01  0.15475868167E+04  0.10100000352E+00 0.  1.
</event>
<event>
 5   0  0.1908726E-06  0.3332249E+04  0.7818609E-02  0.8154738E-01
        2   -1    0    0  501    0  0.00000000000E+00  0.00000000000E+00  0.23764973710E+04  0.23764973710E+04  0.25500000920E-02 0.  1.
       -2   -1    0    0    0  501  0.00000000000E+00  0.00000000000E+00 -0.11680934478E+04  0.11680934478E+04  0.25500000920E-02 0. -1.
    10030    2    1    2    0    0  0.00000000000E+00  0.00000000000E+00  0.12084039232E+04  0.35445908188E+04  0.33322490950E+04 0.  0.
        5    1    3    3  502    0  0.19371864934E+02  0.13925068760E+04 -0.36868227713E+03  0.14406246494E+04  0.46999998093E+01 0. -1.
       -5    1    3    3    0  502 -0.19371864934E+02 -0.13925068760E+04  0.15770862003E+04  0.21039661694E+04  0.46999998093E+01 0.  1.
</event>
<event>
 5   0  0.3378848E-06  0.3475522E+04  0.7818609E-02  0.8119616E-01
       -2   -1    0    0    0  501  0.00000000000E+00  0.00000000000E+00  0.10427741801E+04  0.10427741801E+04  0.25500000920E-02 0.  1.
        2   -1    0    0  501    0  0.00000000000E+00  0.00000000000E+00 -0.28959410841E+04  0.28959410841E+04  0.25500000920E-02 0. -1.
    10030    2    1    2    0    0  0.00000000000E+00  0.00000000000E+00 -0.18531669040E+04  0.39387152642E+04  0.34755215952E+04 0.  0.
        1    1    3    3  502    0 -0.15867569142E+04  0.13335906463E+03 -0.13797642916E+03  0.15983177531E+04  0.50400001928E-02 0. -1.
       -1    1    3    3    0  502  0.15867569142E+04 -0.13335906463E+03 -0.17151904748E+04  0.23403975111E+04  0.50400001928E-02 0.  1.
</event>
<event>
 5   0  0.1130707E-06  0.3510861E+04  0.7818609E-02  0.8111221E-01
       -1   -1    0    0    0  501  0.00000000000E+00  0.00000000000E+00  0.27281462338E+04  0.27281462338E+04  0.50400001928E-02 0. -1.
        1   -1    0    0  501    0  0.00000000000E+00  0.00000000000E+00 -0.11295348319E+04  0.11295348319E+04  0.50400001928E-02 0.  1.
    10030    2    1    2    0    0  0.00000000000E+00  0.00000000000E+00  0.15986114019E+04  0.38576810658E+04  0.35108609757E+04 0.  0.
        3    1    3    3  502    0  0.67837477614E+03 -0.99907140516E+03 -0.60059982483E+03  0.13487239040E+04  0.10100000352E+00 0.  1.
       -3    1    3    3    0  502 -0.67837477614E+03  0.99907140516E+03  0.21992112267E+04  0.25089571617E+04  0.10100000352E+00 0. -1.
</event>
<event>
 5   0  0.1102175E-06  0.1742686E+04  0.7818609E-02  0.8737386E-01
       -1   -1    0    0    0  501  0.00000000000E+00  0.00000000000E+00  0.94013680374E+03  0.94013680376E+03  0.50400001928E-02 0. -1.
        1   -1    0    0  501    0  0.00000000000E+00  0.00000000000E+00 -0.80758325503E+03  0.80758325505E+03  0.50400001928E-02 0.  1.
    10030    2    1    2    0    0  0.00000000000E+00  0.00000000000E+00  0.13255354871E+03  0.17477200588E+04  0.17426861337E+04 0.  0.
        5    1    3    3  502    0  0.45487114694E+03 -0.19099710154E+03 -0.65401021675E+03  0.81923080186E+03  0.46999998093E+01 0.  1.
       -5    1    3    3    0  502 -0.45487114694E+03  0.19099710154E+03  0.78656376546E+03  0.92848925694E+03  0.46999998093E+01 0. -1.
</event>
<event>
 5   0  0.3041329E-06  0.3515645E+04  0.7818609E-02  0.8110092E-01
        2   -1    0    0  501    0  0.00000000000E+00  0.00000000000E+00  0.28528630111E+04  0.28528630111E+04  0.25500000920E-02 0.  1.
       -2   -1    0    0    0  501  0.00000000000E+00  0.00000000000E+00 -0.10831011319E+04  0.10831011319E+04  0.25500000920E-02 0. -1.
    10030    2    1    2    0    0  0.00000000000E+00  0.00000000000E+00  0.17697618792E+04  0.39359641430E+04  0.35156445535E+04 0.  0.
        2    1    3    3  502    0 -0.79875102492E+03  0.11193372738E+04 -0.34103133011E+03  0.14167644478E+04  0.25500000920E-02 0. -1.
       -2    1    3    3    0  502  0.79875102492E+03 -0.11193372738E+04  0.21107932093E+04  0.25191996953E+04  0.25500000920E-02 0.  1.
</event>
<event>
 5   0  0.1130707E-06  0.2989321E+04  0.7818609E-02  0.8246787E-01
       -1   -1    0    0    0  501  0.00000000000E+00  0.00000000000E+00  0.10084606159E+04  0.10084606159E+04  0.50400001928E-02 0.  1.
        1   -1    0    0  501    0  0.00000000000E+00  0.00000000000E+00 -0.22152681942E+04  0.22152681942E+04  0.50400001928E-02 0. -1.
    10030    2    1    2    0    0  0.00000000000E+00  0.00000000000E+00 -0.12068075783E+04  0.32237288102E+04  0.29893214799E+04 0.  0.
        3    1    3    3  502    0  0.21731370039E+03  0.34644668652E+03  0.94695037120E+03  0.10314870657E+04  0.10100000352E+00 0.  1.
       -3    1    3    3    0  502 -0.21731370039E+03 -0.34644668652E+03 -0.21537579495E+04  0.21922417445E+04  0.10100000352E+00 0. -1.
</event>
<event>
 5   0  0.3041329E-06  0.3440401E+04  0.7818609E-02  0.8128061E-01
       -2   -1    0    0    0  501  0.00000000000E+00  0.00000000000E+00  0.12221895383E+04  0.12221895383E+04  0.25500000920E-02 0. -1.
        2   -1    0    0  501    0  0.00000000000E+00  0.00000000000E+00 -0.24211384812E+04  0.24211384812E+04  0.25500000920E-02 0.  1.
    10030    2    1    2    0    0  0.00000000000E+00  0.00000000000E+00 -0.11989489429E+04  0.36433280195E+04  0.34404012106E+04 0.  0.
        2    1    3    3  502    0 -0.95917970440E+03  0.41873650662E+03  0.84623158035E+03  0.13459100471E+04  0.25500000920E-02 0. -1.
       -2    1    3    3    0  502  0.95917970440E+03 -0.41873650662E+03 -0.20451805233E+04  0.22974179724E+04  0.25500000920E-02 0.  1.
</event>
<event>
 5   0  0.2565004E-06  0.1841362E+04  0.7818609E-02  0.8684608E-01
        2   -1    0    0  501    0  0.00000000000E+00  0.00000000000E+00  0.68884560563E+03  0.68884560563E+03  0.25500000920E-02 0.  1.
       -2   -1    0    0    0  501  0.00000000000E+00  0.00000000000E+00 -0.12305415789E+04  0.12305415789E+04  0.25500000920E-02 0. -1.
    10030    2    1    2    0    0  0.00000000000E+00  0.00000000000E+00 -0.54169597331E+03  0.19193871846E+04  0.18413616258E+04 0.  0.
        3    1    3    3  502    0  0.61730120808E+03  0.67946004281E+03 -0.19768538853E+03  0.93904539524E+03  0.10100000352E+00 0.  1.
       -3    1    3    3    0  502 -0.61730120808E+03 -0.67946004281E+03 -0.34401058479E+03  0.98034178934E+03  0.10100000352E+00 0. -1.
</event>
<event>
 5   0  0.1908726E-06  0.3463862E+04  0.7818609E-02  0.8122408E-01
       -2   -1    0    0    0  501  0.00000000000E+00  0.00000000000E+00  0.15765136705E+04  0.15765136705E+04  0.25500000920E-02 0. -1.
        2   -1    0    0  501    0  0.00000000000E+00  0.00000000000E+00 -0.19026695880E+04  0.19026695880E+04  0.25500000920E-02 0.  1.
    10030    2    1    2    0    0  0.00000000000E+00  0.00000000000E+00 -0.32615591751E+03  0.34791832584E+04  0.34638617847E+04 0.  0.
        5    1    3    3  502    0 -0.80808121766E+03  0.44973699520E+03  0.13077433693E+04  0.16017095333E+04  0.46999998093E+01 0. -1.
       -5    1    3    3    0  502  0.80808121766E+03 -0.44973699520E+03 -0.16338992868E+04  0.18774737251E+04  0.46999998093E+01 0.  1.
</event>
<event>
 5   0  0.3378848E-06  0.3658962E+04  0.7818609E-02  0.8077118E-01
       -2   -1    0    0    0  501  0.00000000000E+00  0.00000000000E+00  0.25117617094E+04  0.25117617094E+04  0.25500000920E-02 0. -1.
        2   -1    0    0  501    0  0.00000000000E+00  0.00000000000E+00 -0.13325309078E+04  0.13325309078E+04  0.25500000920E-02 0.  1.
    10030    2    1    2    0    0  0.00000000000E+00  0.00000000000E+00  0.11792308016E+04  0.38442926172E+04  0.36589616619E+04 0.  0.
        1    1    3    3  502    0 -0.74039249164E+03  0.12109051981E+04  0.18024363684E+04  0.22941772605E+04  0.50400001928E-02 0. -1.
       -1    1    3    3    0  502  0.74039249164E+03 -0.12109051981E+04 -0.62320556676E+03  0.15501153567E+04  0.50400001928E-02 0.  1.
</event>
<event>
 5   0  0.1130707E-06  0.3288072E+04  0.7818609E-02  0.8165937E-01
       -1   -1    0    0    0  501  0.00000000000E+00  0.00000000000E+00  0.12416706762E+04  0.12416706763E+04  0.50400001928E-02 0. -1.
        1   -1    0    0  501    0  0.00000000000E+00  0.00000000000E+00 -0.21767879418E+04  0.21767879418E+04  0.50400001928E-02 0.  1.
    10030    2    1    2    0    0  0.00000000000E+00  0.00000000000E+00 -0.93511726557E+03  0.34184586181E+04  0.32880716268E+04 0.  0.
        3    1    3    3  502    0  0.91683104177E+03 -0.13571397058E+04 -0.61621980051E+03  0.17498954806E+04  0.10100000352E+00 0. -1.
       -3    1    3    3    0  502 -0.91683104177E+03  0.13571397058E+04 -0.31889746506E+03  0.16685631375E+04  0.10100000352E+00 0.  1.
</event>
<event>
 5   0  0.1125196E-06  0.3507065E+04  0.7818609E-02  0.8112118E-01
        1   -1    0    0  501    0  0.00000000000E+00  0.00000000000E+00  0.19819857470E+04  0.19819857470E+04  0.50400001928E-02 0. -1.
       -1   -1    0    0    0  501  0.00000000000E+00  0.00000000000E+00 -0.15514114476E+04  0.15514114476E+04  0.50400001928E-02 0.  1.
    10030    2    1    2    0    0  0.00000000000E+00  0.00000000000E+00  0.43057429941E+03  0.35333971946E+04  0.35070645143E+04 0.  0.
        4    1    3    3  502    0 -0.13977932899E+04 -0.40386535005E+03 -0.77080604943E+03  0.16465348102E+04  0.12699999809E+01 0.  1.
       -4    1    3    3    0  502  0.13977932899E+04  0.40386535005E+03  0.12013803488E+04  0.18868623845E+04  0.12699999809E+01 0. -1.
</event>
<event>
 5   0  0.1110956E-06  0.3424584E+04  0.7818609E-02  0.8131899E-01
       -1   -1    0    0    0  501  0.00000000000E+00  0.00000000000E+00  0.26690157665E+04  0.26690157665E+04  0.50400001928E-02 0. -1.
        1   -1    0    0  501    0  0.00000000000E+00  0.00000000000E+00 -0.10985112323E+04  0.10985112323E+04  0.50400001928E-02 0.  1.
    10030    2    1    2    0    0  0.00000000000E+00  0.00000000000E+00  0.15705045342E+04  0.37675269988E+04  0.34245839448E+04 0.  0.
        1    1    3    3  502    0 -0.98878625342E+03 -0.74770015588E+03  0.20847192148E+04  0.24254500578E+04  0.50400001928E-02 0. -1.
       -1    1    3    3    0  502  0.98878625342E+03  0.74770015588E+03 -0.51421468059E+03  0.13420769411E+04  0.50400001928E-02 0.  1.
</event>
<event>
 5   0  0.1089337E-06  0.3537567E+04  0.7818609E-02  0.8104944E-01
        1   -1    0    0  501    0  0.00000000000E+00  0.00000000000E+00  0.95647427854E+03  0.95647427855E+03  0.50400001928E-02 0.  1.
       -1   -1    0    0    0  501  0.00000000000E+00  0.00000000000E+00 -0.32709664641E+04  0.32709664641E+04  0.50400001928E-02 0. -1.
    10030    2    1    2    0    0  0.00000000000E+00  0.00000000000E+00 -0.23144921855E+04  0.42274407426E+04  0.35375671238E+04 0.  0.
        2    1    3    3  502    0  0.13674470743E+03  0.15588457318E+04 -0.21426042884E+04  0.26531966130E+04  0.25500000920E-02 0. -1.
       -2    1    3    3    0  502 -0.13674470743E+03 -0.15588457318E+04 -0.17188789714E+03  0.15742441296E+04  0.25500000920E-02 0.  1.
</event>
<event>
 5   0  0.3378848E-06  0.1923862E+04  0.7818609E-02  0.8643069E-01
       -2   -1    0    0    0  501  0.00000000000E+00  0.00000000000E+00  0.66866749845E+03  0.66866749846E+03  0.25500000920E-02 0.  1.
        2   -1    0    0  501    0  0.00000000000E+00  0.00000000000E+00 -0.13838139727E+04  0.13838139727E+04  0.25500000920E-02 0. -1.
    10030    2    1    2    0    0  0.00000000000E+00  0.00000000000E+00 -0.71514647421E+03  0.20524814711E+04  0.19238621857E+04 0.  0.
        1    1    3    3  502    0  0.91826451226E+02  0.46674731900E+03 -0.12495469086E+04  0.13370312763E+04  0.50400001928E-02 0. -1.
       -1    1    3    3    0  502 -0.91826451226E+02 -0.46674731900E+03  0.53440043442E+03  0.71545019482E+03  0.50400001928E-02 0.  1.
</event>
<event>
 5   0  0.1130707E-06  0.3556794E+04  0.7818609E-02  0.8100461E-01
       -1   -1    0    0    0  501  0.00000000000E+00  0.00000000000E+00  0.17814068121E+04  0.17814068121E+04  0.50400001928E-02 0.  1.
        1   -1    0    0  501    0  0.00000000000E+00  0.00000000000E+00 -0.17753919110E+04  0.17753919110E+04  0.50400001928E-02 0. -1.
    10030    2    1    2    0    0  0.00000000000E+00  0.00000000000E+00  0.60149010952E+01  0.35567987231E+04  0.35567936372E+04 0.  0.
        3    1    3    3  502    0  0.11744507647E+02 -0.29815458184E+03  0.17561959562E+04  0.17813641780E+04  0.10100000352E+00 0.  1.
       -3    1    3    3    0  502 -0.11744507647E+02  0.29815458184E+03 -0.17501810551E+04  0.17754345451E+04  0.10100000352E+00 0. -1.
</event>
<event>
 5   0  0.3378848E-06  0.3605951E+04  0.7818609E-02  0.8089130E-01
        2   -1    0    0  501    0  0.00000000000E+00  0.00000000000E+00  0.26102471239E+04  0.26102471239E+04  0.25500000920E-02 0.  1.
       -2   -1    0    0    0  501  0.00000000000E+00  0.00000000000E+00 -0.12453686000E+04  0.12453686000E+04  0.25500000920E-02 0. -1.
    10030    2    1    2    0    0  0.00000000000E+00  0.00000000000E+00  0.13648785239E+04  0.38556157240E+04  0.36059505301E+04 0.  0.
        1    1    3    3  502    0  0.13119284715E+04 -0.66787951134E+03  0.17954222507E+04  0.23218011143E+04  0.50400001928E-02 0.  1.
       -1    1    3    3    0  502 -0.13119284715E+04  0.66787951134E+03 -0.43054372674E+03  0.15338146097E+04  0.50400001928E-02 0. -1.
</event>
<event>
 5   0  0.2565004E-06  0.2753596E+04  0.7818609E-02  0.8317822E-01
       -2   -1    0    0    0  501  0.00000000000E+00  0.00000000000E+00  0.72235897063E+03  0.72235897063E+03  0.25500000920E-02 0.  1.
        2   -1    0    0  501    0  0.00000000000E+00  0.00000000000E+00 -0.26241421093E+04  0.26241421093E+04  0.25500000920E-02 0. -1.
    10030    2    1    2    0    0  0.00000000000E+00  0.00000000000E+00 -0.19017831387E+04  0.33465010799E+04  0.27535958984E+04 0.  0.
        3    1    3    3  502    0  0.14066644991E+03  0.79087780276E+03 -0.23098228724E+04  0.24455176264E+04  0.10100000352E+00 0. -1.
       -3    1    3    3    0  502 -0.14066644991E+03 -0.79087780276E+03  0.40803973372E+03  0.90098345353E+03  0.10100000352E+00 0.  1.
</event>
<event>
 5   0  0.1908726E-06  0.3366574E+04  0.7818609E-02  0.8146159E-01
        2   -1    0    0  501    0  0.00000000000E+00  0.00000000000E+00  0.27488018251E+04  0.27488018251E+04  0.25500000920E-02 0. -1.
       -2   -1    0    0    0  501  0.00000000000E+00  0.00000000000E+00 -0.10307965819E+04  0.10307965819E+04  0.25500000920E-02 0.  1.
    10030    2    1    2    0    0  0.00000000000E+00  0.00000000000E+00  0.17180052432E+04  0.37795984070E+04  0.33665742384E+04 0.  0.
        5    1    3    3  502    0 -0.63420778788E+03  0.10428780104E+04 -0.44235179399E+03  0.12982724146E+04  0.46999998093E+01 0.  1.
       -5    1    3    3    0  502  0.63420778788E+03 -0.10428780104E+04  0.21603570372E+04  0.24813259925E+04  0.46999998093E+01 0. -1.
</event>
<event>
 5   0  0.1089337E-06  0.3470607E+04  0.7818609E-02  0.8120791E-01
        1   -1    0    0  501    0  0.00000000000E+00  0.00000000000E+00  0.13290311419E+04  0.13290311419E+04  0.50400001928E-02 0.  1.
       -1   -1    0    0    0  501  0.00000000000E+00  0.00000000000E+00 -0.22657690046E+04  0.22657690046E+04  0.50400001928E-02 0. -1.
    10030    2    1    2    0    0  0.00000000000E+00  0.00000000000E+00 -0.93673786269E+03  0.35948001466E+04  0.34706066142E+04 0.  0.
        2    1    3    3  502    0 -0.18890508672E+03  0.16045880129E+04 -0.11241846683E+04  0.19682934211E+04  0.25500000920E-02 0. -1.
       -2    1    3    3    0  502  0.18890508672E+03 -0.16045880129E+04  0.18744680561E+03  0.16265067255E+04  0.25500000920E-02 0.  1.
</event>
<event>
 5   0  0.3041329E-06  0.3497312E+04  0.7818609E-02  0.8114427E-01
        2   -1    0    0  501    0  0.00000000000E+00  0.00000000000E+00  0.29168374385E+04  0.29168374385E+04  0.25500000920E-02 0.  1.
       -2   -1    0    0    0  501  0.00000000000E+00  0.00000000000E+00 -0.10483262557E+04  0.10483262557E+04  0.25500000920E-02 0. -1.
    10030    2    1    2    0    0  0.00000000000E+00  0.00000000000E+00  0.18685111829E+04  0.39651636942E+04  0.34973116935E+04 0.  0.
        2    1    3    3  502    0 -0.39751425937E+03 -0.66166831154E+03 -0.84471421260E+03  0.11442747231E+04  0.25500000920E-02 0. -1.
       -2    1    3    3    0  502  0.39751425937E+03  0.66166831154E+03  0.27132253954E+04  0.28208889711E+04  0.25500000920E-02 0.  1.
</event>
<event>
 5   0  0.3378848E-06  0.3486919E+04  0.7818609E-02  0.8116897E-01
       -2   -1    0    0    0  501  0.00000000000E+00  0.00000000000E+00  0.16769668685E+04  0.16769668685E+04  0.25500000920E-02 0.  1.
        2   -1    0    0  501    0  0.00000000000E+00  0.00000000000E+00 -0.18125891069E+04  0.18125891069E+04  0.25500000920E-02 0. -1.
    10030    2    1    2    0    0  0.00000000000E+00  0.00000000000E+00 -0.13562223837E+03  0.34895559754E+04  0.34869194877E+04 0.  0.
        1    1    3    3  502    0 -0.16894534079E+04  0.52338602553E+01 -0.49868476149E+03  0.17615239715E+04  0.50400001928E-02 0.  1.
       -1    1    3    3    0  502  0.16894534079E+04 -0.52338602553E+01  0.36306252311E+03  0.17280320039E+04  0.50400001928E-02 0. -1.
</event>
<event>
 5   0  0.1089337E-06  0.3471959E+04  0.7818609E-02  0.8120468E-01
       -1   -1    0    0    0  501  0.00000000000E+00  0.00000000000E+00  0.15321384884E+04  0.15321384884E+04  0.50400001928E-02 0. -1.
        1   -1    0    0  501    0  0.00000000000E+00  0.00000000000E+00 -0.19669401552E+04  0.19669401552E+04  0.50400001928E-02 0.  1.
    10030    2    1    2    0    0  0.00000000000E+00  0.00000000000E+00 -0.43480166675E+03  0.34990786436E+04  0.34719589376E+04 0.  0.
        2    1    3    3  502    0 -0.88398019816E+03  0.14286605815E+03 -0.17162273383E+04  0.19357861396E+04  0.25500000920E-02 0.  1.
       -2    1    3    3    0  502  0.88398019816E+03 -0.14286605815E+03  0.12814256716E+04  0.15632925040E+04  0.25500000920E-02 0. -1.
</event>
<event>
 5   0  0.2565004E-06  0.3543464E+04  0.7818609E-02  0.8103566E-01
        2   -1    0    0  501    0  0.00000000000E+00  0.00000000000E+00  0.19682922202E+04  0.19682922202E+04  0.25500000920E-02 0.  1.
       -2   -1    0    0    0  501  0.00000000000E+00  0.00000000000E+00 -0.15948004898E+04  0.15948004898E+04  0.25500000920E-02 0. -1.
    10030    2    1    2    0    0  0.00000000000E+00  0.00000000000E+00  0.37349173047E+03  0.35630927100E+04  0.35434635016E+04 0.  0.
        3    1    3    3  502    0 -0.14552154301E+04 -0.93880264157E+03 -0.18953428981E+03  0.17421037871E+04  0.10100000352E+00 0.  1.
       -3    1    3    3    0  502  0.14552154301E+04  0.93880264157E+03  0.56302602029E+03  0.18209889229E+04  0.10100000352E+00 0. -1.
</event>
<event>
 5   0  0.1102175E-06  0.3510602E+04  0.7818609E-02  0.8111282E-01
       -1   -1    0    0    0  501  0.00000000000E+00  0.00000000000E+00  0.13266175344E+04  0.13266175344E+04  0.50400001928E-02 0.  1.
        1   -1    0    0  501    0  0.00000000000E+00  0.00000000000E+00 -0.23225093752E+04  0.23225093752E+04  0.50400001928E-02 0. -1.
    10030    2    1    2    0    0  0.00000000000E+00  0.00000000000E+00 -0.99589184081E+03  0.36491269097E+04  0.35106020345E+04 0.  0.
        5    1    3    3  502    0  0.24449373181E+03  0.58543225325E+03 -0.21991537187E+04  0.22888440918E+04  0.46999998093E+01 0. -1.
       -5    1    3    3    0  502 -0.24449373181E+03 -0.58543225325E+03  0.12032618779E+04  0.13602828179E+04  0.46999998093E+01 0.  1.
</event>
<event>
 5   0  0.1089337E-06  0.3438602E+04  0.7818609E-02  0.8128497E-01
        1   -1    0    0  501    0  0.00000000000E+00  0.00000000000E+00  0.18345603026E+04  0.18345603026E+04  0.50400001928E-02 0. -1.
       -1   -1    0    0    0  501  0.00000000000E+00  0.00000000000E+00 -0.16112826458E+04  0.16112826458E+04  0.50400001928E-02 0.  1.
    10030    2    1    2    0    0  0.00000000000E+00  0.00000000000E+00  0.22327765674E+03  0.34458429484E+04  0.34386015636E+04 0.  0.
        2    1    3    3  502    0  0.12771435211E+04 -0.31905760418E+03 -0.99662953201E+03  0.16511098547E+04  0.25500000920E-02 0. -1.
       -2    1    3    3    0  502 -0.12771435211E+04  0.31905760418E+03  0.12199071887E+04  0.17947330937E+04  0.25500000920E-02 0.  1.
</event>
<event>
 5   0  0.1102175E-06  0.3514194E+04  0.7818609E-02  0.8110434E-01
        1   -1    0    0  501    0  0.00000000000E+00  0.00000000000E+00  0.24617493756E+04  0.24617493757E+04  0.50400001928E-02 0.  1.
       -1   -1    0    0    0  501  0.00000000000E+00  0.00000000000E+00 -0.12541445971E+04  0.12541445971E+04  0.50400001928E-02 0. -1.
    10030    2    1    2    0    0  0.00000000000E+00  0.00000000000E+00  0.12076047786E+04  0.37158939728E+04  0.35141938927E+04 0.  0.
        5    1    3    3  502    0 -0.13914953100E+04 -0.49191170928E+03  0.16120121318E+04  0.21855986664E+04  0.46999998093E+01 0.  1.
       -5    1    3    3    0  502  0.13914953100E+04  0.49191170928E+03 -0.40440735322E+03  0.15302953064E+04  0.46999998093E+01 0. -1.
</event>
<event>
 5   0  0.1110956E-06  0.3399929E+04  0.7818609E-02  0.8137924E-01
        1   -1    0    0  501    0  0.00000000000E+00  0.00000000000E+00  0.26127816510E+04  0.26127816510E+04  0.50400001928E-02 0. -1.
       -1   -1    0    0    0  501  0.00000000000E+00  0.00000000000E+00 -0.11060543870E+04  0.11060543871E+04  0.50400001928E-02 0.  1.
    10030    2    1    2    0    0  0.00000000000E+00  0.00000000000E+00  0.15067272639E+04  0.37188360380E+04  0.33999285919E+04 0.  0.
        1    1    3    3  502    0  0.15572179404E+04  0.37362361862E+03  0.12946097421E+03  0.16066370051E+04  0.50400001928E-02 0.  1.
       -1    1    3    3    0  502 -0.15572179404E+04 -0.37362361862E+03  0.13772662897E+04  0.21121990330E+04  0.50400001928E-02 0. -1.
</event>
<event>
 5   0  0.3041329E-06  0.3603514E+04  0.7818609E-02  0.8089687E-01
       -2   -1    0    0    0  501  0.00000000000E+00  0.00000000000E+00  0.10787029730E+04  0.10787029730E+04  0.25500000920E-02 0.  1.
        2   -1    0    0  501    0  0.00000000000E+00  0.00000000000E+00 -0.30094731377E+04  0.30094731377E+04  0.25500000920E-02 0. -1.
    10030    2    1    2    0    0  0.00000000000E+00  0.00000000000E+00 -0.19307701648E+04  0.40881761107E+04  0.36035136302E+04 0.  0.
        2    1    3    3  502    0  0.45449137278E+03 -0.73927507429E+03  0.82598476117E+03  0.11980571226E+04  0.25500000920E-02 0.  1.
       -2    1    3    3    0  502 -0.45449137278E+03  0.73927507429E+03 -0.27567549259E+04  0.28901189880E+04  0.25500000920E-02 0. -1.
</event>
<event>
 5   0  0.1102175E-06  0.3414690E+04  0.7818609E-02  0.8134310E-01
       -1   -1    0    0    0  501  0.00000000000E+00  0.00000000000E+00  0.16249497283E+04  0.16249497283E+04  0.50400001928E-02 0. -1.
        1   -1    0    0  501    0  0.00000000000E+00  0.00000000000E+00 -0.17939182942E+04  0.17939182942E+04  0.50400001928E-02 0.  1.
    10030    2    1    2    0    0  0.00000000000E+00  0.00000000000E+00 -0.16896856585E+03  0.34188680225E+04  0.34146900561E+04 0.  0.
        5    1    3    3  502    0  0.11685121355E+04  0.12297861239E+04  0.10865179617E+03  0.16998887682E+04  0.46999998093E+01 0.  1.
       -5    1    3    3    0  502 -0.11685121355E+04 -0.12297861239E+04 -0.27762036202E+03  0.17189792543E+04  0.46999998093E+01 0. -1.
</event>
<event>
 5   0  0.1089337E-06  0.3398301E+04  0.7818609E-02  0.8138323E-01
       -1   -1    0    0    0  501  0.00000000000E+00  0.00000000000E+00  0.17571293829E+04  0.17571293829E+04  0.50400001928E-02 0.  1.
        1   -1    0    0  501    0  0.00000000000E+00  0.00000000000E+00 -0.16430848242E+04  0.16430848242E+04  0.50400001928E-02 0. -1.
    10030    2    1    2    0    0  0.00000000000E+00  0.00000000000E+00  0.11404455868E+03  0.34002142070E+04  0.33983011186E+04 0.  0.
        2    1    3    3  502    0  0.86750012731E+02  0.11047432124E+04  0.13458194113E+04  0.17433338802E+04  0.25500000920E-02 0.  1.
       -2    1    3    3    0  502 -0.86750012731E+02 -0.11047432124E+04 -0.12317748526E+04  0.16568803269E+04  0.25500000920E-02 0. -1.
</event>
<event>
 5   0  0.1908726E-06  0.3587100E+04  0.7818609E-02  0.8093453E-01
        2   -1    0    0  501    0  0.00000000000E+00  0.00000000000E+00  0.22437130638E+04  0.22437130638E+04  0.25500000920E-02 0. -1.
       -2   -1    0    0    0  501  0.00000000000E+00  0.00000000000E+00 -0.14337044370E+04  0.14337044370E+04  0.25500000920E-02 0.  1.
    10030    2    1    2    0    0  0.00000000000E+00  0.00000000000E+00  0.81000862680E+03  0.36774175007E+04  0.35870998730E+04 0.  0.
        5    1    3    3  502    0  0.12001577026E+04  0.12692627443E+04 -0.11920600847E+02  0.17468745278E+04  0.46999998093E+01 0.  1.
       -5    1    3    3    0  502 -0.12001577026E+04 -0.12692627443E+04  0.82192922765E+03  0.19305429729E+04  0.46999998093E+01 0. -1.
</event>
<event>
 5   0  0.2565004E-06  0.3453738E+04  0.7818609E-02  0.8124842E-01
       -2   -1    0    0    0  501  0.00000000000E+00  0.00000000000E+00  0.11778496252E+04  0.11778496252E+04  0.25500000920E-02 0. -1.
        2   -1    0    0  501    0  0.00000000000E+00  0.00000000000E+00 -0.25317967046E+04  0.25317967046E+04  0.25500000920E-02 0.  1.
    10030    2    1    2    0    0  0.00000000000E+00  0.00000000000E+00 -0.13539470794E+04  0.37096463298E+04  0.34537375695E+04 0.  0.
        3    1    3    3  502    0  0.62045853848E+03 -0.66099417334E+03 -0.22556368622E+04  0.24310038584E+04  0.10100000352E+00 0.  1.
       -3    1    3    3    0  502 -0.62045853848E+03  0.66099417334E+03  0.90168978282E+03  0.12786424715E+04  0.10100000352E+00 0. -1.
</event>
<event>
 5   0  0.1782660E-06  0.3469312E+04  0.7818609E-02  0.8121101E-01
        2   -1    0    0  501    0  0.00000000000E+00  0.00000000000E+00  0.20367366291E+04  0.20367366291E+04  0.25500000920E-02 0. -1.
       -2   -1    0    0    0  501  0.00000000000E+00  0.00000000000E+00 -0.14773788636E+04  0.14773788636E+04  0.25500000920E-02 0.  1.
    10030    2    1    2    0    0  0.00000000000E+00  0.00000000000E+00  0.55935776552E+03  0.35141154927E+04  0.34693121201E+04 0.  0.
        4    1    3    3  502    0 -0.11503343552E+04 -0.22385691431E+01  0.15948128676E+04  0.19663936116E+04  0.12699999809E+01 0. -1.
       -4    1    3    3    0  502  0.11503343552E+04  0.22385691431E+01 -0.10354551021E+04  0.15477218812E+04  0.12699999809E+01 0.  1.
</event>
<event>
 5   0  0.1908726E-06  0.3106660E+04  0.7818609E-02  0.8213913E-01
        2   -1    0    0  501    0  0.00000000000E+00  0.00000000000E+00  0.14981290473E+04  0.14981290473E+04  0.25500000920E-02 0.  1.
       -2   -1    0    0    0  501  0.00000000000E+00  0.00000000000E+00 -0.16105645623E+04  0.16105645623E+04  0.25500000920E-02 0. -1.
    10030    2    1    2    0    0  0.00000000000E+00  0.00000000000E+00 -0.11243551500E+03  0.31086936096E+04  0.31066596552E+04 0.  0.
        5    1    3    3  502    0  0.10950582205E+04  0.11015636919E+04 -0.41497935755E+02  0.15538144169E+04  0.46999998093E+01 0. -1.
       -5    1    3    3    0  502 -0.10950582205E+04 -0.11015636919E+04 -0.70937579248E+02  0.15548791927E+04  0.46999998093E+01 0.  1.
</event>
<event>
 5   0  0.1287262E-06  0.2025559E+04  0.7818609E-02  0.8594763E-01
       -1   -1    0    0    0  501  0.00000000000E+00  0.00000000000E+00  0.99366401149E+03  0.99366401150E+03  0.50400001928E-02 0. -1.
        1   -1    0    0  501    0  0.00000000000E+00  0.00000000000E+00 -0.10322631078E+04  0.10322631079E+04  0.50400001928E-02 0.  1.
    10030    2    1    2    0    0  0.00000000000E+00  0.00000000000E+00 -0.38599096346E+02  0.20259271194E+04  0.20255593802E+04 0.  0.
        1    1    3    3  502    0  0.50091208670E+03  0.40844348216E+03  0.76057510981E+03  0.99810495160E+03  0.50400001928E-02 0. -1.
       -1    1    3    3    0  502 -0.50091208670E+03 -0.40844348216E+03 -0.79917420616E+03  0.10278221678E+04  0.50400001928E-02 0.  1.
</event>
<event>
 5   0  0.1908726E-06  0.3363821E+04  0.7818609E-02  0.8146843E-01
        2   -1    0    0  501    0  0.00000000000E+00  0.00000000000E+00  0.20569458463E+04  0.20569458463E+04  0.25500000920E-02 0. -1.
       -2   -1    0    0    0  501  0.00000000000E+00  0.00000000000E+00 -0.13752543587E+04  0.13752543587E+04  0.25500000920E-02 0.  1.
    10030    2    1    2    0    0  0.00000000000E+00  0.00000000000E+00  0.68169148765E+03  0.34322002051E+04  0.33638214821E+04 0.  0.
        5    1    3    3  502    0 -0.10381588189E+04  0.91220337453E+03  0.13189313152E+04  0.19103640057E+04  0.46999998093E+01 0. -1.
       -5    1    3    3    0  502  0.10381588189E+04 -0.91220337453E+03 -0.63723982760E+03  0.15218361994E+04  0.46999998093E+01 0.  1.
</event>
<event>
 5   0  0.3378848E-06  0.2469270E+04  0.7818609E-02  0.8414016E-01
       -2   -1    0    0    0  501  0.00000000000E+00  0.00000000000E+00  0.12281828986E+04  0.12281828986E+04  0.25500000920E-02 0. -1.
        2   -1    0    0  501    0  0.00000000000E+00  0.00000000000E+00 -0.12411211119E+04  0.12411211119E+04  0.25500000920E-02 0.  1.
    10030    2    1    2    0    0  0.00000000000E+00  0.00000000000E+00 -0.12938213262E+02  0.24693040105E+04  0.24692701146E+04 0.  0.
        1    1    3    3  502    0  0.13577555253E+03 -0.65366335313E+03  0.10321080727E+04  0.12292102561E+04  0.50400001928E-02 0. -1.
       -1    1    3    3    0  502 -0.13577555253E+03  0.65366335313E+03 -0.10450462860E+04  0.12400937544E+04  0.50400001928E-02 0.  1.
</event>
<event>
 5   0  0.1102175E-06  0.3544746E+04  0.7818609E-02  0.8103267E-01
        1   -1    0    0  501    0  0.00000000000E+00  0.00000000000E+00  0.20814939869E+04  0.20814939870E+04  0.50400001928E-02 0.  1.
       -1   -1    0    0    0  501  0.00000000000E+00  0.00000000000E+00 -0.15091590240E+04  0.15091590240E+04  0.50400001928E-02 0. -1.
    10030    2    1    2    0    0  0.00000000000E+00  0.00000000000E+00  0.57233496294E+03  0.35906530110E+04  0.35447456517E+04 0.  0.
        5    1    3    3  502    0  0.71602661316E+03 -0.14666785879E+04  0.98608875640E+03  0.19068910080E+04  0.46999998093E+01 0.  1.
       -5    1    3    3    0  502 -0.71602661316E+03  0.14666785879E+04 -0.41375379346E+03  0.16837620030E+04  0.46999998093E+01 0. -1.
</event>
<event>
 5   0  0.1130707E-06  0.3514820E+04  0.7818609E-02  0.8110287E-01
       -1   -1    0    0    0  501  0.00000000000E+00  0.00000000000E+00  0.14178048998E+04  0.14178048998E+04  0.50400001928E-02 0. -1.
        1   -1    0    0  501    0  0.00000000000E+00  0.00000000000E+00 -0.21783607129E+04  0.21783607129E+04  0.50400001928E-02 0.  1.
    10030    2    1    2    0    0  0.00000000000E+00  0.00000000000E+00 -0.76055581309E+03  0.35961656127E+04  0.35148203324E+04 0.  0.
        3    1    3    3  502    0  0.26099481387E+03 -0.15519849383E+04  0.41994521891E+03  0.16288430061E+04  0.10100000352E+00 0. -1.
       -3    1    3    3    0  502 -0.26099481387E+03  0.15519849383E+04 -0.11805010320E+04  0.19673226066E+04  0.10100000352E+00 0.  1.
</event>
<event>
 5   0  0.1089337E-06  0.3548086E+04  0.7818609E-02  0.8102488E-01
        1   -1    0    0  501    0  0.00000000000E+00  0.00000000000E+00  0.15491476626E+04  0.15491476626E+04  0.50400001928E-02 0.  1.
       -1   -1    0    0    0  501  0.00000000000E+00  0.00000000000E+00 -0.20315872376E+04  0.20315872376E+04  0.50400001928E-02 0. -1.
    10030    2    1    2    0    0  0.00000000000E+00  0.00000000000E+00 -0.48243957504E+03  0.35807349002E+04  0.35480860308E+04 0.  0.
        2    1    3    3  502    0 -0.58028928377E+03  0.52241525613E+03  0.13664153652E+04  0.15737675505E+04  0.25500000920E-02 0.  1.
       -2    1    3    3    0  502  0.58028928377E+03 -0.52241525613E+03 -0.18488549403E+04  0.20069673497E+04  0.25500000920E-02 0. -1.
</event>
<event>
 5   0  0.1125196E-06  0.3538704E+04  0.7818609E-02  0.8104678E-01
        1   -1    0    0  501    0  0.00000000000E+00  0.00000000000E+00  0.13442506122E+04  0.13442506122E+04  0.50400001928E-02 0. -1.
       -1   -1    0    0    0  501  0.00000000000E+00  0.00000000000E+00 -0.23288866295E+04  0.23288866295E+04  0.50400001928E-02 0.  1.
    10030    2    1    2    0    0  0.00000000000E+00  0.00000000000E+00 -0.98463601736E+03  0.36731372417E+04  0.35387044394E+04 0.  0.
        4    1    3    3  502    0  0.69272924528E+03  0.15975505094E+04 -0.81819412008E+03  0.19239242886E+04  0.12699999809E+01 0. -1.
       -4    1    3    3    0  502 -0.69272924528E+03 -0.15975505094E+04 -0.16644189728E+03  0.17492129531E+04  0.12699999809E+01 0.  1.
</event>
<event>
 5   0  0.1782660E-06  0.3475542E+04  0.7818609E-02  0.8119611E-01
       -2   -1    0    0    0  501  0.00000000000E+00  0.00000000000E+00  0.12939697423E+04  0.12939697423E+04  0.25500000920E-02 0.  1.
        2   -1    0    0  501    0  0.00000000000E+00  0.00000000000E+00 -0.23337859605E+04  0.23337859605E+04  0.25500000920E-02 0. -1.
    10030    2    1    2    0    0  0.00000000000E+00  0.00000000000E+00 -0.10398162181E+04  0.36277557028E+04  0.34755422126E+04 0.  0.
        4    1    3    3  502    0 -0.88528135959E+02 -0.16983636628E+04 -0.89272063677E+03  0.19207363458E+04  0.12699999809E+01 0. -1.
       -4    1    3    3    0  502  0.88528135959E+02  0.16983636628E+04 -0.14709558138E+03  0.17070193569E+04  0.12699999809E+01 0.  1.
</event>
<event>
 5   0  0.1125196E-06  0.3553982E+04  0.7818609E-02  0.8101115E-01
        1   -1    0    0  501    0  0.00000000000E+00  0.00000000000E+00  0.16936360947E+04  0.16936360948E+04  0.50400001928E-02 0.  1.
       -1   -1    0    0    0  501  0.00000000000E+00  0.00000000000E+00 -0.18644479966E+04  0.18644479967E+04  0.50400001928E-02 0. -1.
    10030    2    1    2    0    0  0.00000000000E+00  0.00000000000E+00 -0.17081190190E+03  0.35580840914E+04  0.35539816679E+04 0.  0.
        4    1    3    3  502    0 -0.14716892763E+04  0.97771127803E+03  0.10430193990E+03  0.17699347945E+04  0.12699999809E+01 0.  1.
       -4    1    3    3    0  502  0.14716892763E+04 -0.97771127803E+03 -0.27511384180E+03  0.17881492969E+04  0.12699999809E+01 0. -1.
</event>
<event>
 5   0  0.3378848E-06  0.2919916E+04  0.7818609E-02  0.8266976E-01
        2   -1    0    0  501    0  0.00000000000E+00  0.00000000000E+00  0.19457270077E+04  0.19457270077E+04  0.25500000920E-02 0. -1.
       -2   -1    0    0    0  501  0.00000000000E+00  0.00000000000E+00 -0.10954661237E+04  0.10954661237E+04  0.25500000920E-02 0.  1.
    10030    2    1    2    0    0  0.00000000000E+00  0.00000000000E+00  0.85026088403E+03  0.30411931314E+04  0.29199164529E+04 0.  0.
        1    1    3    3  502    0 -0.40000295651E+03  0.36290534166E+03  0.18378500598E+04  0.19155666249E+04  0.50400001928E-02 0. -1.
       -1    1    3    3    0  502  0.40000295651E+03 -0.36290534166E+03 -0.98758917572E+03  0.11256265065E+04  0.50400001928E-02 0.  1.
</event>
<event>
 5   0  0.2565004E-06  0.3440044E+04  0.7818609E-02  0.8128148E-01
        2   -1    0    0  501    0  0.00000000000E+00  0.00000000000E+00  0.23401224079E+04  0.23401224079E+04  0.25500000920E-02 0. -1.
       -2   -1    0    0    0  501  0.00000000000E+00  0.00000000000E+00 -0.12642396330E+04  0.12642396330E+04  0.25500000920E-02 0.  1.
    10030    2    1    2    0    0  0.00000000000E+00  0.00000000000E+00  0.10758827749E+04  0.36043620410E+04  0.34400438917E+04 0.  0.
        3    1    3    3  502    0  0.24565864449E+03 -0.13097183136E+04 -0.60155696690E+03  0.14620468615E+04  0.10100000352E+00 0.  1.
       -3    1    3    3    0  502 -0.24565864449E+03  0.13097183136E+04  0.16774397418E+04  0.21423151795E+04  0.10100000352E+00 0. -1.
</event>
<event>
 5   0  0.1782660E-06  0.3480767E+04  0.7818609E-02  0.8118363E-01
        2   -1    0    0  501    0  0.00000000000E+00  0.00000000000E+00  0.17140208745E+04  0.17140208745E+04  0.25500000920E-02 0. -1.
       -2   -1    0    0    0  501  0.00000000000E+00  0.00000000000E+00 -0.17671520751E+04  0.17671520751E+04  0.25500000920E-02 0.  1.
    10030    2    1    2    0    0  0.00000000000E+00  0.00000000000E+00 -0.53131200562E+02  0.34811729497E+04  0.34807674701E+04 0.  0.
        4    1    3    3  502    0 -0.15093667757E+04  0.78702724793E+03  0.33587691928E+03  0.17350547169E+04  0.12699999809E+01 0. -1.
       -4    1    3    3    0  502  0.15093667757E+04 -0.78702724793E+03 -0.38900811984E+03  0.17461182328E+04  0.12699999809E+01 0.  1.
</event>
<event>
 5   0  0.1110956E-06  0.1726333E+04  0.7818609E-02  0.8746487E-01
        1   -1    0    0  501    0  0.00000000000E+00  0.00000000000E+00  0.94238225764E+03  0.94238225765E+03  0.50400001928E-02 0. -1.
       -1   -1    0    0    0  501  0.00000000000E+00  0.00000000000E+00 -0.79060921228E+03  0.79060921230E+03  0.50400001928E-02 0.  1.
    10030    2    1    2    0    0  0.00000000000E+00  0.00000000000E+00  0.15177304536E+03  0.17329914699E+04  0.17263326382E+04 0.  0.
        1    1    3    3  502    0  0.24058186127E+03 -0.71704415840E+03 -0.34167963172E+03  0.82992585682E+03  0.50400001928E-02 0.  1.
       -1    1    3    3    0  502 -0.24058186127E+03  0.71704415840E+03  0.49345267708E+03  0.90306561313E+03  0.50400001928E-02 0. -1.
</event>
<event>
 5   0  0.1102175E-06  0.3197143E+04  0.7818609E-02  0.8189572E-01
       -1   -1    0    0    0  501  0.00000000000E+00  0.00000000000E+00  0.22712509547E+04  0.22712509547E+04  0.50400001928E-02 0.  1.
        1   -1    0    0  501    0  0.00000000000E+00  0.00000000000E+00 -0.11251202642E+04  0.11251202642E+04  0.50400001928E-02 0. -1.
    10030    2    1    2    0    0  0.00000000000E+00  0.00000000000E+00  0.11461306905E+04  0.33963712189E+04  0.31971427708E+04 0.  0.
        5    1    3    3  502    0 -0.33527286581E+03 -0.50252284227E+03  0.21453164316E+04  0.22287534146E+04  0.46999998093E+01 0.  1.
       -5    1    3    3    0  502  0.33527286581E+03  0.50252284227E+03 -0.99918574114E+03  0.11676178043E+04  0.46999998093E+01 0. -1.
</event>
<event>
 5   0  0.1782660E-06  0.2689066E+04  0.7818609E-02  0.8338561E-01
        2   -1    0    0  501    0  0.00000000000E+00  0.00000000000E+00  0.16301018730E+04  0.16301018730E+04  0.25500000920E-02 0.  1.
       -2   -1    0    0    0  501  0.00000000000E+00  0.00000000000E+00 -0.11089911558E+04  0.11089911558E+04  0.25500000920E-02 0. -1.
    10030    2    1    2    0    0  0.00000000000E+00  0.00000000000E+00  0.52111071718E+03  0.27390930288E+04  0.26890656817E+04 0.  0.
        4    1    3    3  502    0  0.12127142538E+04 -0.47551911467E+03  0.59987841125E+03  0.14341025106E+04  0.12699999809E+01 0.  1.
       -4    1    3    3    0  502 -0.12127142538E+04  0.47551911467E+03 -0.78767694065E+02  0.13049905181E+04  0.12699999809E+01 0. -1.
</event>
<event>
 5   0  0.1110956E-06  0.3291337E+04  0.7818609E-02  0.8165103E-01
       -1   -1    0    0    0  501  0.00000000000E+00  0.00000000000E+00  0.17258130325E+04  0.17258130325E+04  0.50400001928E-02 0. -1.
        1   -1    0    0  501    0  0.00000000000E+00  0.00000000000E+00 -0.15692456128E+04  0.15692456128E+04  0.50400001928E-02 0.  1.
    10030    2    1    2    0    0  0.00000000000E+00  0.00000000000E+00  0.15656741973E+03  0.32950586453E+04  0.32913368286E+04 0.  0.
        1    1    3    3  502    0  0.91256656181E+03  0.12329376033E+04 -0.51847058446E+03  0.16191740519E+04  0.50400001928E-02 0. -1.
       -1    1    3    3    0  502 -0.91256656181E+03 -0.12329376033E+04  0.67503800419E+03  0.16758845934E+04  0.50400001928E-02 0.  1.
</event>
<event>
 5   0  0.1782660E-06  0.3473976E+04  0.7818609E-02  0.8119985E-01
        2   -1    0    0  501    0  0.00000000000E+00  0.00000000000E+00  0.17721305239E+04  0.17721305239E+04  0.25500000920E-02 0. -1.
       -2   -1    0    0    0  501  0.00000000000E+00  0.00000000000E+00 -0.17025425408E+04  0.17025425408E+04  0.25500000920E-02 0.  1.
    10030    2    1    2    0    0  0.00000000000E+00  0.00000000000E+00  0.69587983039E+02  0.34746730647E+04  0.34739761685E+04 0.  0.
        4    1    3    3  502    0  0.53146213421E+03  0.61786071111E+03  0.15690254744E+04  0.17680628978E+04  0.12699999809E+01 0. -1.
       -4    1    3    3    0  502 -0.53146213421E+03 -0.61786071111E+03 -0.14994374914E+04  0.17066101669E+04  0.12699999809E+01 0.  1.
</event>
<event>
 5   0  0.1908726E-06  0.3529944E+04  0.7818609E-02  0.8106730E-01
        2   -1    0    0  501    0  0.00000000000E+00  0.00000000000E+00  0.13604814584E+04  0.13604814585E+04  0.25500000920E-02 0.  1.
       -2   -1    0    0    0  501  0.00000000000E+00  0.00000000000E+00 -0.22897227476E+04  0.22897227476E+04  0.25500000920E-02 0. -1.
    10030    2    1    2    0    0  0.00000000000E+00  0.00000000000E+00 -0.92924128915E+03  0.36502042060E+04  0.35299435367E+04 0.  0.
        5    1    3    3  502    0  0.23962110063E+03  0.23911066727E+03  0.13265914755E+04  0.13691089131E+04  0.46999998093E+01 0.  1.
       -5    1    3    3    0  502 -0.23962110063E+03 -0.23911066727E+03 -0.22558327647E+04  0.22810952929E+04  0.46999998093E+01 0. -1.
</event>
<event>
 5   0  0.2565004E-06  0.2754622E+04  0.7818609E-02  0.8317496E-01
       -2   -1    0    0    0  501  0.00000000000E+00  0.00000000000E+00  0.64516635295E+03  0.64516635296E+03  0.25500000920E-02 0.  1.
        2   -1    0    0  501    0  0.00000000000E+00  0.00000000000E+00 -0.29403050352E+04  0.29403050352E+04  0.25500000920E-02 0. -1.
    10030    2    1    2    0    0  0.00000000000E+00  0.00000000000E+00 -0.22951386822E+04  0.35854713881E+04  0.27546222072E+04 0.  0.
        3    1    3    3  502    0  0.76338835971E+03  0.28621382015E+03 -0.25924881695E+04  0.27176598496E+04  0.10100000352E+00 0. -1.
       -3    1    3    3    0  502 -0.76338835971E+03 -0.28621382015E+03  0.29734948734E+03  0.86781153854E+03  0.10100000352E+00 0.  1.
</event>
<event>
 5   0  0.1110956E-06  0.3279327E+04  0.7818609E-02  0.8168176E-01
        1   -1    0    0  501    0  0.00000000000E+00  0.00000000000E+00  0.14911169569E+04  0.14911169569E+04  0.50400001928E-02 0. -1.
       -1   -1    0    0    0  501  0.00000000000E+00  0.00000000000E+00 -0.18030079978E+04  0.18030079979E+04  0.50400001928E-02 0.  1.
    10030    2    1    2    0    0  0.00000000000E+00  0.00000000000E+00 -0.31189104095E+03  0.32941249548E+04  0.32793266376E+04 0.  0.
        1    1    3    3  502    0 -0.10202668791E+02  0.16177730837E+04 -0.42398659420E+03  0.16724408740E+04  0.50400001928E-02 0.  1.
       -1    1    3    3    0  502  0.10202668791E+02 -0.16177730837E+04  0.11209555325E+03  0.16216840808E+04  0.50400001928E-02 0. -1.
</event>
<event>
 5   0  0.1125196E-06  0.3652027E+04  0.7818609E-02  0.8078677E-01
       -1   -1    0    0    0  501  0.00000000000E+00  0.00000000000E+00  0.11899000976E+04  0.11899000976E+04  0.50400001928E-02 0.  1.
        1   -1    0    0  501    0  0.00000000000E+00  0.00000000000E+00 -0.28021892398E+04  0.28021892398E+04  0.50400001928E-02 0. -1.
    10030    2    1    2    0    0  0.00000000000E+00  0.00000000000E+00 -0.16122891421E+04  0.39920893374E+04  0.36520269714E+04 0.  0.
        4    1    3    3  502    0  0.65637165407E+03 -0.17012253835E+04 -0.70054659787E+03  0.19533967089E+04  0.12699999809E+01 0. -1.
       -4    1    3    3    0  502 -0.65637165407E+03  0.17012253835E+04 -0.91174254427E+03  0.20386926285E+04  0.12699999809E+01 0.  1.
</event>
<event>
 5   0  0.1130707E-06  0.3534650E+04  0.7818609E-02  0.8105627E-01
       -1   -1    0    0    0  501  0.00000000000E+00  0.00000000000E+00  0.17024303410E+04  0.17024303410E+04  0.50400001928E-02 0. -1.
        1   -1    0    0  501    0  0.00000000000E+00  0.00000000000E+00 -0.18346934104E+04  0.18346934104E+04  0.50400001928E-02 0.  1.
    10030    2    1    2    0    0  0.00000000000E+00  0.00000000000E+00 -0.13226306939E+03  0.35371237513E+04  0.35346500411E+04 0.  0.
        3    1    3    3  502    0 -0.66540206398E+02  0.84690666627E+03 -0.16169771481E+04  0.18265523830E+04  0.10100000352E+00 0.  1.
       -3    1    3    3    0  502  0.66540206398E+02 -0.84690666627E+03  0.14847140787E+04  0.17105713683E+04  0.10100000352E+00 0. -1.
</event>
<event>
 5   0  0.1102175E-06  0.1790343E+04  0.7818609E-02  0.8711452E-01
       -1   -1    0    0    0  501  0.00000000000E+00  0.00000000000E+00  0.10173577451E+04  0.10173577451E+04  0.50400001928E-02 0. -1.
        1   -1    0    0  501    0  0.00000000000E+00  0.00000000000E+00 -0.78765969003E+03  0.78765969004E+03  0.50400001928E-02 0.  1.
    10030    2    1    2    0    0  0.00000000000E+00  0.00000000000E+00  0.22969805504E+03  0.18050174351E+04  0.17903426333E+04 0.  0.
        5    1    3    3  502    0 -0.41919992343E+03  0.69549434304E+02  0.90917996302E+03  0.10035915478E+04  0.46999998093E+01 0. -1.
       -5    1    3    3    0  502  0.41919992343E+03 -0.69549434304E+02 -0.67948190799E+03  0.80142588734E+03  0.46999998093E+01 0.  1.
</event>
<event>
 5   0  0.1130707E-06  0.2206873E+04  0.7818609E-02  0.8515573E-01
       -1   -1    0    0    0  501  0.00000000000E+00  0.00000000000E+00  0.10306862671E+04  0.10306862671E+04  0.50400001928E-02 0.  1.
        1   -1    0    0  501    0  0.00000000000E+00  0.00000000000E+00 -0.11813214809E+04  0.11813214809E+04  0.50400001928E-02 0. -1.
    10030    2    1    2    0    0  0.00000000000E+00  0.00000000000E+00 -0.15063521373E+03  0.22120077480E+04  0.22068727443E+04 0.  0.
        3    1    3    3  502    0  0.20912090736E+03  0.92974497399E+00  0.10106420557E+04  0.10320512552E+04  0.10100000352E+00 0.  1.
       -3    1    3    3    0  502 -0.20912090736E+03 -0.92974497399E+00 -0.11612772694E+04  0.11799564929E+04  0.10100000352E+00 0. -1.
</event>
<event>
 5   0  0.1125196E-06  0.2250741E+04  0.7818609E-02  0.8497600E-01
       -1   -1    0    0    0  501  0.00000000000E+00  0.00000000000E+00  0.71314764376E+03  0.71314764377E+03  0.50400001928E-02 0. -1.
        1   -1    0    0  501    0  0.00000000000E+00  0.00000000000E+00 -0.17758722801E+04  0.17758722801E+04  0.50400001928E-02 0.  1.
    10030    2    1    2    0    0  0.00000000000E+00  0.00000000000E+00 -0.10627246364E+04  0.24890199239E+04  0.22507413287E+04 0.  0.
        4    1    3    3  502    0  0.74180241851E+01 -0.49894692090E+03 -0.16468384393E+04  0.17207793336E+04  0.12699999809E+01 0.  1.
       -4    1    3    3    0  502 -0.74180241851E+01  0.49894692090E+03  0.58411380290E+03  0.76824059031E+03  0.12699999809E+01 0. -1.
</event>
<event>
 5   0  0.1908726E-06  0.3537965E+04  0.7818609E-02  0.8104851E-01
        2   -1    0    0  501    0  0.00000000000E+00  0.00000000000E+00  0.19457511881E+04  0.19457511881E+04  0.25500000920E-02 0. -1.
       -2   -1    0    0    0  501  0.00000000000E+00  0.00000000000E+00 -0.16082733861E+04  0.16082733861E+04  0.25500000920E-02 0.  1.
    10030    2    1    2    0    0  0.00000000000E+00  0.00000000000E+00  0.33747780204E+03  0.35540245743E+04  0.35379654333E+04 0.  0.
        5    1    3    3  502    0 -0.78860469325E+03 -0.14356565815E+04 -0.50232823289E+03  0.17132900881E+04  0.46999998093E+01 0.  1.
       -5    1    3    3    0  502  0.78860469325E+03  0.14356565815E+04  0.83980603493E+03  0.18407344862E+04  0.46999998093E+01 0. -1.
</event>
<event>
 5   0  0.1110956E-06  0.1866708E+04  0.7818609E-02  0.8671608E-01
        1   -1    0    0  501    0  0.00000000000E+00  0.00000000000E+00  0.22150067430E+04  0.22150067430E+04  0.50400001928E-02 0. -1.
       -1   -1    0    0    0  501  0.00000000000E+00  0.00000000000E+00 -0.39329449897E+03  0.39329449901E+03  0.50400001928E-02 0.  1.
    10030    2    1    2    0    0  0.00000000000E+00  0.00000000000E+00  0.18217122440E+04  0.26083012420E+04  0.18667082978E+04 0.  0.
        1    1    3    3  502    0  0.17623918846E+03  0.71399024727E+03  0.10780979263E+03  0.74328007922E+03  0.50400001928E-02 0.  1.
       -1    1    3    3    0  502 -0.17623918846E+03 -0.71399024727E+03  0.17139024514E+04  0.18650211628E+04  0.50400001928E-02 0. -1.
</event>
<event>
 5   0  0.2565004E-06  0.3488639E+04  0.7818609E-02  0.8116488E-01
        2   -1    0    0  501    0  0.00000000000E+00  0.00000000000E+00  0.21469258028E+04  0.21469258028E+04  0.25500000920E-02 0.  1.
       -2   -1    0    0    0  501  0.00000000000E+00  0.00000000000E+00 -0.14172129656E+04  0.14172129656E+04  0.25500000920E-02 0. -1.
    10030    2    1    2    0    0  0.00000000000E+00  0.00000000000E+00  0.72971283721E+03  0.35641387685E+04  0.34886393245E+04 0.  0.
        3    1    3    3  502    0  0.96779972219E+03  0.49228782486E+03 -0.10298498252E+04  0.14965207240E+04  0.10100000352E+00 0. -1.
       -3    1    3    3    0  502 -0.96779972219E+03 -0.49228782486E+03  0.17595626624E+04  0.20676180445E+04  0.10100000352E+00 0.  1.
</event>
<event>
 5   0  0.1130707E-06  0.3414769E+04  0.7818609E-02  0.8134291E-01
       -1   -1    0    0    0  501  0.00000000000E+00  0.00000000000E+00  0.19359363413E+04  0.19359363413E+04  0.50400001928E-02 0. -1.
        1   -1    0    0  501    0  0.00000000000E+00  0.00000000000E+00 -0.15058147039E+04  0.15058147040E+04  0.50400001928E-02 0.  1.
    10030    2    1    2    0    0  0.00000000000E+00  0.00000000000E+00  0.43012163736E+03  0.34417510453E+04  0.34147687527E+04 0.  0.
        3    1    3    3  502    0  0.31103750308E+03 -0.16772269303E+04  0.14149853652E+03  0.17116823158E+04  0.10100000352E+00 0.  1.
       -3    1    3    3    0  502 -0.31103750308E+03  0.16772269303E+04  0.28862310083E+03  0.17300687295E+04  0.10100000352E+00 0. -1.
</event>
<event>
 5   0  0.3378848E-06  0.3434621E+04  0.7818609E-02  0.8129461E-01
       -2   -1    0    0    0  501  0.00000000000E+00  0.00000000000E+00  0.19024710487E+04  0.19024710487E+04  0.25500000920E-02 0. -1.
        2   -1    0    0  501    0  0.00000000000E+00  0.00000000000E+00 -0.15501709205E+04  0.15501709205E+04  0.25500000920E-02 0.  1.
    10030    2    1    2    0    0  0.00000000000E+00  0.00000000000E+00  0.35230012820E+03  0.34526419692E+04  0.34346209671E+04 0.  0.
        1    1    3    3  502    0 -0.40968482120E+03 -0.16649493189E+04  0.27287032697E+03  0.17361901113E+04  0.50400001928E-02 0.  1.
       -1    1    3    3    0  502  0.40968482120E+03  0.16649493189E+04  0.79429801225E+02  0.17164518579E+04  0.50400001928E-02 0. -1.
</event>
<event>
 5   0  0.1089337E-06  0.3492849E+04  0.7818609E-02  0.8115487E-01
        1   -1    0    0  501    0  0.00000000000E+00  0.00000000000E+00  0.21291013331E+04  0.21291013331E+04  0.50400001928E-02 0.  1.
       -1   -1    0    0    0  501  0.00000000000E+00  0.00000000000E+00 -0.14325289783E+04  0.14325289783E+04  0.50400001928E-02 0. -1.
    10030    2    1    2    0    0  0.00000000000E+00  0.00000000000E+00  0.69657235481E+03  0.35616303114E+04  0.34928494714E+04 0.  0.
        2    1    3    3  502    0 -0.11224201711E+04 -0.95074087161E+03  0.13082404610E+04  0.19685599684E+04  0.25500000920E-02 0.  1.
       -2    1    3    3    0  502  0.11224201711E+04  0.95074087161E+03 -0.61166810621E+03  0.15930703430E+04  0.25500000920E-02 0. -1.
</event>
<event>
 5   0  0.1782660E-06  0.3342378E+04  0.7818609E-02  0.8152195E-01
        2   -1    0    0  501    0  0.00000000000E+00  0.00000000000E+00  0.15459746663E+04  0.15459746663E+04  0.25500000920E-02 0. -1.
       -2   -1    0    0    0  501  0.00000000000E+00  0.00000000000E+00 -0.18065454338E+04  0.18065454338E+04  0.25500000920E-02 0.  1.
    10030    2    1    2    0    0  0.00000000000E+00  0.00000000000E+00 -0.26057076751E+03  0.33525201001E+04  0.33423784790E+04 0.  0.
        4    1    3    3  502    0  0.80481442020E+03 -0.89176722601E+03 -0.12956613357E+04  0.17668375551E+04  0.12699999809E+01 0.  1.
       -4    1    3    3    0  502 -0.80481442020E+03  0.89176722601E+03  0.10350905682E+04  0.15856825450E+04  0.12699999809E+01 0. -1.
</event>
<event>
 5   0  0.3378848E-06  0.3332984E+04  0.7818609E-02  0.8154553E-01
       -2   -1    0    0    0  501  0.00000000000E+00  0.00000000000E+00  0.13208174681E+04  0.13208174681E+04  0.25500000920E-02 0. -1.
        2   -1    0    0  501    0  0.00000000000E+00  0.00000000000E+00 -0.21026337126E+04  0.21026337126E+04  0.25500000920E-02 0.  1.
    10030    2    1    2    0    0  0.00000000000E+00  0.00000000000E+00 -0.78181624443E+03  0.34234511807E+04  0.33329838503E+04 0.  0.
        1    1    3    3  502    0  0.19317786783E+03  0.58731129144E+03 -0.19804739916E+04  0.20747360008E+04  0.50400001928E-02 0.  1.
       -1    1    3    3    0  502 -0.19317786783E+03 -0.58731129144E+03  0.11986577471E+04  0.13487151799E+04  0.50400001928E-02 0. -1.
</event>
<event>
 5   0  0.1125196E-06  0.3140960E+04  0.7818609E-02  0.8204586E-01
       -1   -1    0    0    0  501  0.00000000000E+00  0.00000000000E+00  0.19073427757E+04  0.19073427757E+04  0.50400001928E-02 0.  1.
        1   -1    0    0  501    0  0.00000000000E+00  0.00000000000E+00 -0.12931119244E+04  0.12931119244E+04  0.50400001928E-02 0. -1.
    10030    2    1    2    0    0  0.00000000000E+00  0.00000000000E+00  0.61423085121E+03  0.32004547001E+04  0.31409601635E+04 0.  0.
        4    1    3    3  502    0  0.11145305494E+04  0.57478502072E+02 -0.81876835509E+03  0.13841478808E+04  0.12699999809E+01 0. -1.
       -4    1    3    3    0  502 -0.11145305494E+04 -0.57478502072E+02  0.14329992063E+04  0.18163068193E+04  0.12699999809E+01 0.  1.
</event>
<event>
 5   0  0.1130707E-06  0.3517658E+04  0.7818609E-02  0.8109618E-01
        1   -1    0    0  501    0  0.00000000000E+00  0.00000000000E+00  0.22464010205E+04  0.22464010205E+04  0.50400001928E-02 0.  1.
       -1   -1    0    0    0  501  0.00000000000E+00  0.00000000000E+00 -0.13770822397E+04  0.13770822397E+04  0.50400001928E-02 0. -1.
    10030    2    1    2    0    0  0.00000000000E+00  0.00000000000E+00  0.86931878076E+03  0.36234832602E+04  0.35176577142E+04 0.  0.
        3    1    3    3  502    0  0.64372718347E+03 -0.16030194352E+04  0.77540233716E+03  0.18934901085E+04  0.10100000352E+00 0.  1.
       -3    1    3    3    0  502 -0.64372718347E+03  0.16030194352E+04  0.93916443597E+02  0.17299931517E+04  0.10100000352E+00 0. -1.
</event>
<event>
 5   0  0.1130707E-06  0.3608281E+04  0.7818609E-02  0.8088597E-01
        1   -1    0    0  501    0  0.00000000000E+00  0.00000000000E+00  0.21922046048E+04  0.21922046048E+04  0.50400001928E-02 0.  1.
       -1   -1    0    0    0  501  0.00000000000E+00  0.00000000000E+00 -0.14847716121E+04  0.14847716122E+04  0.50400001928E-02 0. -1.
    10030    2    1    2    0    0  0.00000000000E+00  0.00000000000E+00  0.70743299267E+03  0.36769762170E+04  0.36082811228E+04 0.  0.
        3    1    3    3  502    0  0.27776142029E+03  0.11447405005E+04 -0.10388061393E+04  0.15705732792E+04  0.10100000352E+00 0. -1.
       -3    1    3    3    0  502 -0.27776142029E+03 -0.11447405005E+04  0.17462391319E+04  0.21064029378E+04  0.10100000352E+00 0.  1.
</event>
<event>
 5   0  0.1102175E-06  0.2415675E+04  0.7818609E-02  0.8433658E-01
        1   -1    0    0  501    0  0.00000000000E+00  0.00000000000E+00  0.12391782981E+04  0.12391782982E+04  0.50400001928E-02 0.  1.
       -1   -1    0    0    0  501  0.00000000000E+00  0.00000000000E+00 -0.11772896377E+04  0.11772896377E+04  0.50400001928E-02 0. -1.
    10030    2    1    2    0    0  0.00000000000E+00  0.00000000000E+00  0.61888660475E+02  0.24164679358E+04  0.24156752842E+04 0.  0.
        5    1    3    3  502    0 -0.20695784693E+03 -0.24782924027E+03  0.11951985582E+04  0.12380519239E+04  0.46999998093E+01 0.  1.
       -5    1    3    3    0  502  0.20695784693E+03  0.24782924027E+03 -0.11333098978E+04  0.11784160119E+04  0.46999998093E+01 0. -1.
</event>
<event>
 5   0  0.1908726E-06  0.3316187E+04  0.7818609E-02  0.8158789E-01
        2   -1    0    0  501    0  0.00000000000E+00  0.00000000000E+00  0.20987878813E+04  0.20987878813E+04  0.25500000920E-02 0.  1.
       -2   -1    0    0    0  501  0.00000000000E+00  0.00000000000E+00 -0.13099341731E+04  0.13099341731E+04  0.25500000920E-02 0. -1.
    10030    2    1    2    0    0  0.00000000000E+00  0.00000000000E+00  0.78885370818E+03  0.34087220544E+04  0.33161869476E+04 0.  0.
        5    1    3    3  502    0  0.43458059489E+03  0.15944101117E+04  0.25557234530E+03  0.16722270215E+04  0.46999998093E+01 0. -1.
       -5    1    3    3    0  502 -0.43458059489E+03 -0.15944101117E+04  0.53328136287E+03  0.17364950330E+04  0.46999998093E+01 0.  1.
</event>
<event>
 5   0  0.2565004E-06  0.3481937E+04  0.7818609E-02  0.8118084E-01
        2   -1    0    0  501    0  0.00000000000E+00  0.00000000000E+00  0.27628905967E+04  0.27628905967E+04  0.25500000920E-02 0.  1.
       -2   -1    0    0    0  501  0.00000000000E+00  0.00000000000E+00 -0.10970289534E+04  0.10970289534E+04  0.25500000920E-02 0. -1.
    10030    2    1    2    0    0  0.00000000000E+00  0.00000000000E+00  0.16658616433E+04  0.38599195502E+04  0.34819368057E+04 0.  0.
        3    1    3    3  502    0  0.83576890410E+03 -0.14222960967E+04  0.21617630986E+03  0.16637812521E+04  0.10100000352E+00 0. -1.
       -3    1    3    3    0  502 -0.83576890410E+03  0.14222960967E+04  0.14496853335E+04  0.21961382980E+04  0.10100000352E+00 0.  1.
</event>
<event>
 5   0  0.3041329E-06  0.3490297E+04  0.7818609E-02  0.8116093E-01
       -2   -1    0    0    0  501  0.00000000000E+00  0.00000000000E+00  0.12501247227E+04  0.12501247227E+04  0.25500000920E-02 0. -1.
        2   -1    0    0  501    0  0.00000000000E+00  0.00000000000E+00 -0.24361920147E+04  0.24361920147E+04  0.25500000920E-02 0.  1.
    10030    2    1    2    0    0  0.00000000000E+00  0.00000000000E+00 -0.11860672920E+04  0.36863167374E+04  0.34902973323E+04 0.  0.
        2    1    3    3  502    0 -0.10308121999E+04 -0.14022286556E+04 -0.45644593243E+03  0.17992114615E+04  0.25500000920E-02 0. -1.
       -2    1    3    3    0  502  0.10308121999E+04  0.14022286556E+04 -0.72962135959E+03  0.18871052759E+04  0.25500000920E-02 0.  1.
</event>
<event>
 5   0  0.3378848E-06  0.3486619E+04  0.7818609E-02  0.8116968E-01
        2   -1    0    0  501    0  0.00000000000E+00  0.00000000000E+00  0.23687147774E+04  0.23687147774E+04  0.25500000920E-02 0. -1.
       -2   -1    0    0    0  501  0.00000000000E+00  0.00000000000E+00 -0.12830281063E+04  0.12830281063E+04  0.25500000920E-02 0.  1.
    10030    2    1    2    0    0  0.00000000000E+00  0.00000000000E+00  0.10856866711E+04  0.36517428837E+04  0.34866187834E+04 0.  0.
        1    1    3    3  502    0 -0.12557167721E+04  0.68262013540E+03 -0.50259382787E+03  0.15150562421E+04  0.50400001928E-02 0.  1.
       -1    1    3    3    0  502  0.12557167721E+04 -0.68262013540E+03  0.15882804990E+04  0.21366866416E+04  0.50400001928E-02 0. -1.
</event>
<event>
 5   0  0.3041329E-06  0.3560061E+04  0.7818609E-02  0.8099702E-01
        2   -1    0    0  501    0  0.00000000000E+00  0.00000000000E+00  0.14273678327E+04  0.14273678327E+04  0.25500000920E-02 0.  1.
       -2   -1    0    0    0  501  0.00000000000E+00  0.00000000000E+00 -0.22198268456E+04  0.22198268456E+04  0.25500000920E-02 0. -1.
    10030    2    1    2    0    0  0.00000000000E+00  0.00000000000E+00 -0.79245901297E+03  0.36471946783E+04  0.35600614790E+04 0.  0.
        2    1    3    3  502    0 -0.11487602587E+04  0.39642244454E+03 -0.17287203070E+04  0.21131196811E+04  0.25500000920E-02 0. -1.
       -2    1    3    3    0  502  0.11487602587E+04 -0.39642244454E+03  0.93626129408E+03  0.15340749973E+04  0.25500000920E-02 0.  1.
</event>
<event>
 5   0  0.3378848E-06  0.3239825E+04  0.7818609E-02  0.8178378E-01
        2   -1    0    0  501    0  0.00000000000E+00  0.00000000000E+00  0.22175801743E+04  0.22175801743E+04  0.25500000920E-02 0. -1.
       -2   -1    0    0    0  501  0.00000000000E+00  0.00000000000E+00 -0.11833242893E+04  0.11833242893E+04  0.25500000920E-02 0.  1.
    10030    2    1    2    0    0  0.00000000000E+00  0.00000000000E+00  0.10342558850E+04  0.34009044636E+04  0.32398249852E+04 0.  0.
        1    1    3    3  502    0  0.50165677739E+03 -0.63351382877E+03  0.19908958818E+04  0.21486427590E+04  0.50400001928E-02 0. -1.
       -1    1    3    3    0  502 -0.50165677739E+03  0.63351382877E+03 -0.95663999675E+03  0.12522617047E+04  0.50400001928E-02 0.  1.
</event>
<event>
 5   0  0.2565004E-06  0.3467546E+04  0.7818609E-02  0.8121525E-01
       -2   -1    0    0    0  501  0.00000000000E+00  0.00000000000E+00  0.23144164913E+04  0.23144164913E+04  0.25500000920E-02 0. -1.
        2   -1    0    0  501    0  0.00000000000E+00  0.00000000000E+00 -0.12988017163E+04  0.12988017163E+04  0.25500000920E-02 0.  1.
    10030    2    1    2    0    0  0.00000000000E+00  0.00000000000E+00  0.10156147750E+04  0.36132182077E+04  0.34675455938E+04 0.  0.
        3    1    3    3  502    0 -0.31133873547E+01 -0.90753720976E+02  0.23119368537E+04  0.23137195070E+04  0.10100000352E+00 0. -1.
       -3    1    3    3    0  502  0.31133873547E+01  0.90753720976E+02 -0.12963220788E+04  0.12994987007E+04  0.10100000352E+00 0.  1.
</event>
<event>
 5   0  0.1782660E-06  0.2298480E+04  0.7818609E-02  0.8478521E-01
       -2   -1    0    0    0  501  0.00000000000E+00  0.00000000000E+00  0.69267705601E+03  0.69267705602E+03  0.25500000920E-02 0. -1.
        2   -1    0    0  501    0  0.00000000000E+00  0.00000000000E+00 -0.19067362985E+04  0.19067362985E+04  0.25500000920E-02 0.  1.
    10030    2    1    2    0    0  0.00000000000E+00  0.00000000000E+00 -0.12140592425E+04  0.25994133546E+04  0.22984799202E+04 0.  0.
        4    1    3    3  502    0  0.15604895039E+03 -0.79236715276E+03 -0.15317338483E+04  0.17315909374E+04  0.12699999809E+01 0.  1.
       -4    1    3    3    0  502 -0.15604895039E+03  0.79236715276E+03  0.31767460574E+03  0.86782241715E+03  0.12699999809E+01 0. -1.
</event>
<event>
 5   0  0.1782660E-06  0.3410281E+04  0.7818609E-02  0.8135388E-01
        2   -1    0    0  501    0  0.00000000000E+00  0.00000000000E+00  0.23627996382E+04  0.23627996382E+04  0.25500000920E-02 0. -1.
       -2   -1    0    0    0  501  0.00000000000E+00  0.00000000000E+00 -0.12305338466E+04  0.12305338466E+04  0.25500000920E-02 0.  1.
    10030    2    1    2    0    0  0.00000000000E+00  0.00000000000E+00  0.11322657916E+04  0.35933334848E+04  0.34102814708E+04 0.  0.
        4    1    3    3  502    0 -0.82481840243E+03 -0.13649289434E+04 -0.69703825375E+02  0.15963134572E+04  0.12699999809E+01 0.  1.
       -4    1    3    3    0  502  0.82481840243E+03  0.13649289434E+04  0.12019696170E+04  0.19970200276E+04  0.12699999809E+01 0. -1.
</event>
<event>
 5   0  0.1089337E-06  0.3522007E+04  0.7818609E-02  0.8108594E-01
       -1   -1    0    0    0  501  0.00000000000E+00  0.00000000000E+00  0.13042977986E+04  0.13042977987E+04  0.50400001928E-02 0. -1.
        1   -1    0    0  501    0  0.00000000000E+00  0.00000000000E+00 -0.23776260989E+04  0.23776260989E+04  0.50400001928E-02 0.  1.
    10030    2    1    2    0    0  0.00000000000E+00  0.00000000000E+00 -0.10733283003E+04  0.36819238976E+04  0.35220065229E+04 0.  0.
        2    1    3    3  502    0 -0.12922417311E+04 -0.65903868497E+03  0.50712558496E+03  0.15366837797E+04  0.25500000920E-02 0. -1.
       -2    1    3    3    0  502  0.12922417311E+04  0.65903868497E+03 -0.15804538852E+04  0.21452401179E+04  0.25500000920E-02 0.  1.
</event>
<event>
 5   0  0.3041329E-06  0.3480972E+04  0.7818609E-02  0.8118314E-01
        2   -1    0    0  501    0  0.00000000000E+00  0.00000000000E+00  0.22442640106E+04  0.22442640106E+04  0.25500000920E-02 0. -1.
       -2   -1    0    0    0  501  0.00000000000E+00  0.00000000000E+00 -0.13497931938E+04  0.13497931938E+04  0.25500000920E-02 0.  1.
    10030    2    1    2    0    0  0.00000000000E+00  0.00000000000E+00  0.89447081686E+03  0.35940572044E+04  0.34809724426E+04 0.  0.
        2    1    3    3  502    0  0.14033367527E+04 -0.90982787432E+02  0.15060554567E+04  0.20605423917E+04  0.25500000920E-02 0. -1.
       -2    1    3    3    0  502 -0.14033367527E+04  0.90982787432E+02 -0.61158463985E+03  0.15335148127E+04  0.25500000920E-02 0.  1.
</event>
<event>
 5   0  0.1130707E-06  0.3289139E+04  0.7818609E-02  0.8165664E-01
       -1   -1    0    0    0  501  0.00000000000E+00  0.00000000000E+00  0.12059549846E+04  0.12059549846E+04  0.50400001928E-02 0. -1.
        1   -1    0    0  501    0  0.00000000000E+00  0.00000000000E+00 -0.22427117831E+04  0.22427117831E+04  0.50400001928E-02 0.  1.
    10030    2    1    2    0    0  0.00000000000E+00  0.00000000000E+00 -0.10367567986E+04  0.34486667677E+04  0.32891393730E+04 0.  0.
        3    1    3    3  502    0  0.31731112246E+03  0.16072388508E+04 -0.66925467594E+03  0.17696906237E+04  0.10100000352E+00 0.  1.
       -3    1    3    3    0  502 -0.31731112246E+03 -0.16072388508E+04 -0.36750212261E+03  0.16789761441E+04  0.10100000352E+00 0. -1.
</event>
<event>
 5   0  0.1089337E-06  0.3484096E+04  0.7818609E-02  0.8117569E-01
       -1   -1    0    0    0  501  0.00000000000E+00  0.00000000000E+00  0.11158127719E+04  0.11158127719E+04  0.50400001928E-02 0. -1.
        1   -1    0    0  501    0  0.00000000000E+00  0.00000000000E+00 -0.27197492033E+04  0.27197492033E+04  0.50400001928E-02 0.  1.
    10030    2    1    2    0    0  0.00000000000E+00  0.00000000000E+00 -0.16039364313E+04  0.38355619752E+04  0.34840958066E+04 0.  0.
        2    1    3    3  502    0  0.12984341475E+04 -0.20738916846E+03 -0.20599532780E+04  0.24438389902E+04  0.25500000920E-02 0.  1.
       -2    1    3    3    0  502 -0.12984341475E+04  0.20738916846E+03  0.45601684667E+03  0.13917229850E+04  0.25500000920E-02 0. -1.
</event>
<event>
 5   0  0.1110956E-06  0.3209754E+04  0.7818609E-02  0.8186246E-01
       -1   -1    0    0    0  501  0.00000000000E+00  0.00000000000E+00  0.11276106478E+04  0.11276106478E+04  0.50400001928E-02 0.  1.
        1   -1    0    0  501    0  0.00000000000E+00  0.00000000000E+00 -0.22841478446E+04  0.22841478446E+04  0.50400001928E-02 0. -1.
    10030    2    1    2    0    0  0.00000000000E+00  0.00000000000E+00 -0.11565371969E+04  0.34117584924E+04  0.32097535300E+04 0.  0.
        1    1    3    3  502    0 -0.15449234791E+04  0.21385685640E+02 -0.11692121920E+03  0.15494891014E+04  0.50400001928E-02 0. -1.
       -1    1    3    3    0  502  0.15449234791E+04 -0.21385685640E+02 -0.10396159777E+04  0.18622693910E+04  0.50400001928E-02 0.  1.
</event>
<event>
 5   0  0.1782660E-06  0.2729897E+04  0.7818609E-02  0.8325369E-01
       -2   -1    0    0    0  501  0.00000000000E+00  0.00000000000E+00  0.13333220591E+04  0.13333220591E+04  0.25500000920E-02 0.  1.
        2   -1    0    0  501    0  0.00000000000E+00  0.00000000000E+00 -0.13973250975E+04  0.13973250975E+04  0.25500000920E-02 0. -1.
    10030    2    1    2    0    0  0.00000000000E+00  0.00000000000E+00 -0.64003038451E+02  0.27306471566E+04  0.27298969770E+04 0.  0.
        4    1    3    3  502    0  0.20112947176E+02  0.62536138867E+03  0.11814276191E+04  0.13368822795E+04  0.12699999809E+01 0.  1.
       -4    1    3    3    0  502 -0.20112947176E+02 -0.62536138867E+03 -0.12454306575E+04  0.13937648771E+04  0.12699999809E+01 0. -1.
</event>
<event>
 5   0  0.2978224E-06  0.1831505E+04  0.7818609E-02  0.8689722E-01
       -2   -1    0    0    0  501  0.00000000000E+00  0.00000000000E+00  0.62800960094E+03  0.62800960095E+03  0.25500000920E-02 0.  1.
        2   -1    0    0  501    0  0.00000000000E+00  0.00000000000E+00 -0.13353346953E+04  0.13353346953E+04  0.25500000920E-02 0. -1.
    10030    2    1    2    0    0  0.00000000000E+00  0.00000000000E+00 -0.70732509433E+03  0.19633442962E+04  0.18315054017E+04 0.  0.
        3    1    3    3  502    0  0.60893865590E+03 -0.39273586752E+03 -0.95393069655E+03  0.11979280163E+04  0.10100000352E+00 0. -1.
       -3    1    3    3    0  502 -0.60893865590E+03  0.39273586752E+03  0.24660560221E+03  0.76541627990E+03  0.10100000352E+00 0.  1.
</event>
<event>
 5   0  0.2565004E-06  0.3580255E+04  0.7818609E-02  0.8095029E-01
       -2   -1    0    0    0  501  0.00000000000E+00  0.00000000000E+00  0.12238890543E+04  0.12238890543E+04  0.25500000920E-02 0.  1.
        2   -1    0    0  501    0  0.00000000000E+00  0.00000000000E+00 -0.26183394995E+04  0.26183394995E+04  0.25500000920E-02 0. -1.
    10030    2    1    2    0    0  0.00000000000E+00  0.00000000000E+00 -0.13944504452E+04  0.38422285538E+04  0.35802553283E+04 0.  0.
        3    1    3    3  502    0 -0.58207289058E+03  0.18444794337E+03 -0.25031302117E+04  0.25765268795E+04  0.10100000352E+00 0. -1.
       -3    1    3    3    0  502  0.58207289058E+03 -0.18444794337E+03  0.11086797664E+04  0.12657016744E+04  0.10100000352E+00 0.  1.
</event>
<event>
 5   0  0.1102175E-06  0.1856772E+04  0.7818609E-02  0.8676678E-01
        1   -1    0    0  501    0  0.00000000000E+00  0.00000000000E+00  0.30325110402E+03  0.30325110406E+03  0.50400001928E-02 0. -1.
       -1   -1    0    0    0  501  0.00000000000E+00  0.00000000000E+00 -0.28422016197E+04  0.28422016197E+04  0.50400001928E-02 0.  1.
    10030    2    1    2    0    0  0.00000000000E+00  0.00000000000E+00 -0.25389505157E+04  0.31454527237E+04  0.18567722306E+04 0.  0.
        5    1    3    3  502    0 -0.71463441016E+03  0.24913680514E+03 -0.21803401947E+04  0.23079594759E+04  0.46999998093E+01 0.  1.
       -5    1    3    3    0  502  0.71463441016E+03 -0.24913680514E+03 -0.35861032095E+03  0.83749324782E+03  0.46999998093E+01 0. -1.
</event>
<event>
 5   0  0.1130707E-06  0.3488469E+04  0.7818609E-02  0.8116528E-01
       -1   -1    0    0    0  501  0.00000000000E+00  0.00000000000E+00  0.14395781343E+04  0.14395781343E+04  0.50400001928E-02 0. -1.
        1   -1    0    0  501    0  0.00000000000E+00  0.00000000000E+00 -0.21133647127E+04  0.21133647127E+04  0.50400001928E-02 0.  1.
    10030    2    1    2    0    0  0.00000000000E+00  0.00000000000E+00 -0.67378657844E+03  0.35529428470E+04  0.34884687931E+04 0.  0.
        3    1    3    3  502    0  0.14576042537E+04 -0.78228853322E+03  0.22628962910E+03  0.16696683850E+04  0.10100000352E+00 0. -1.
       -3    1    3    3    0  502 -0.14576042537E+04  0.78228853322E+03 -0.90007620754E+03  0.18832744620E+04  0.10100000352E+00 0.  1.
</event>
<event>
 5   0  0.3378848E-06  0.3461107E+04  0.7818609E-02  0.8123069E-01
        2   -1    0    0  501    0  0.00000000000E+00  0.00000000000E+00  0.19473231575E+04  0.19473231575E+04  0.25500000920E-02 0.  1.
       -2   -1    0    0    0  501  0.00000000000E+00  0.00000000000E+00 -0.15379139136E+04  0.15379139136E+04  0.25500000920E-02 0. -1.
    10030    2    1    2    0    0  0.00000000000E+00  0.00000000000E+00  0.40940924394E+03  0.34852370711E+04  0.34611069779E+04 0.  0.
        1    1    3    3  502    0 -0.47644802171E+02  0.29496585117E+03  0.19211530861E+04  0.19442489709E+04  0.50400001928E-02 0.  1.
       -1    1    3    3    0  502  0.47644802171E+02 -0.29496585117E+03 -0.15117438422E+04  0.15409881002E+04  0.50400001928E-02 0. -1.
</event>
<event>
 5   0  0.1782660E-06  0.3103754E+04  0.7818609E-02  0.8214709E-01
       -2   -1    0    0    0  501  0.00000000000E+00  0.00000000000E+00  0.97985913608E+03  0.97985913609E+03  0.25500000920E-02 0. -1.
        2   -1    0    0  501    0  0.00000000000E+00  0.00000000000E+00 -0.24578242703E+04  0.24578242703E+04  0.25500000920E-02 0.  1.
    10030    2    1    2    0    0  0.00000000000E+00  0.00000000000E+00 -0.14779651342E+04  0.34376834064E+04  0.31037535767E+04 0.  0.
        4    1    3    3  502    0 -0.10786484383E+03  0.74282074618E+03  0.76542445076E+03  0.10720511593E+04  0.12699999809E+01 0. -1.
       -4    1    3    3    0  502  0.10786484383E+03 -0.74282074618E+03 -0.22433895850E+04  0.23656322471E+04  0.12699999809E+01 0.  1.
</event>
<event>
 5   0  0.2866918E-06  0.1735174E+04  0.7818609E-02  0.8741554E-01
        2   -1    0    0  501    0  0.00000000000E+00  0.00000000000E+00  0.73124651916E+03  0.73124651916E+03  0.25500000920E-02 0.  1.
       -2   -1    0    0    0  501  0.00000000000E+00  0.00000000000E+00 -0.10293484511E+04  0.10293484511E+04  0.25500000920E-02 0. -1.
    10030    2    1    2    0    0  0.00000000000E+00  0.00000000000E+00 -0.29810193196E+03  0.17605949703E+04  0.17351743104E+04 0.  0.
        3    1    3    3  502    0 -0.31203092336E+03  0.75070345637E+03  0.15835369547E+03  0.82824807854E+03  0.10100000352E+00 0.  1.
       -3    1    3    3    0  502  0.31203092336E+03 -0.75070345637E+03 -0.45645562743E+03  0.93234689175E+03  0.10100000352E+00 0. -1.
</event>
<event>
 5   0  0.1110956E-06  0.3732408E+04  0.7818609E-02  0.8060818E-01
        1   -1    0    0  501    0  0.00000000000E+00  0.00000000000E+00  0.13296638048E+04  0.13296638048E+04  0.50400001928E-02 0.  1.
       -1   -1    0    0    0  501  0.00000000000E+00  0.00000000000E+00 -0.26192459819E+04  0.26192459819E+04  0.50400001928E-02 0. -1.
    10030    2    1    2    0    0  0.00000000000E+00  0.00000000000E+00 -0.12895821771E+04  0.39489097867E+04  0.37324075758E+04 0.  0.
        1    1    3    3  502    0  0.10065921816E+04  0.12296465822E+04 -0.16800477304E+04  0.23125351702E+04  0.50400001928E-02 0. -1.
       -1    1    3    3    0  502 -0.10065921816E+04 -0.12296465822E+04  0.39046555325E+03  0.16363746165E+04  0.50400001928E-02 0.  1.
</event>
<event>
 5   0  0.2565004E-06  0.3113022E+04  0.7818609E-02  0.8212173E-01
       -2   -1    0    0    0  501  0.00000000000E+00  0.00000000000E+00  0.21712900896E+04  0.21712900896E+04  0.25500000920E-02 0. -1.
        2   -1    0    0  501    0  0.00000000000E+00  0.00000000000E+00 -0.11158002705E+04  0.11158002705E+04  0.25500000920E-02 0.  1.
    10030    2    1    2    0    0  0.00000000000E+00  0.00000000000E+00  0.10554898191E+04  0.32870903601E+04  0.31130217277E+04 0.  0.
        3    1    3    3  502    0  0.11346813904E+04  0.28414633407E+03  0.16120455313E+04  0.19917157935E+04  0.10100000352E+00 0. -1.
       -3    1    3    3    0  502 -0.11346813904E+04 -0.28414633407E+03 -0.55655571221E+03  0.12953745666E+04  0.10100000352E+00 0.  1.
</event>
<event>
 5   0  0.1782660E-06  0.3030461E+04  0.7818609E-02  0.8235086E-01
       -2   -1    0    0    0  501  0.00000000000E+00  0.00000000000E+00  0.10564988970E+04  0.10564988970E+04  0.25500000920E-02 0.  1.
        2   -1    0    0  501    0  0.00000000000E+00  0.00000000000E+00 -0.21731436843E+04  0.21731436843E+04  0.25500000920E-02 0. -1.
    10030    2    1    2    0    0  0.00000000000E+00  0.00000000000E+00 -0.11166447873E+04  0.32296425813E+04  0.30304612887E+04 0.  0.
        4    1    3    3  502    0  0.12689243669E+04  0.82674336603E+03 -0.50778571306E+03  0.15973482981E+04  0.12699999809E+01 0.  1.
       -4    1    3    3    0  502 -0.12689243669E+04 -0.82674336603E+03 -0.60885907419E+03  0.16322942833E+04  0.12699999809E+01 0. -1.
</event>
<event>
 5   0  0.1102175E-06  0.3502870E+04  0.7818609E-02  0.8113110E-01
       -1   -1    0    0    0  501  0.00000000000E+00  0.00000000000E+00  0.10578854450E+04  0.10578854451E+04  0.50400001928E-02 0. -1.
        1   -1    0    0  501    0  0.00000000000E+00  0.00000000000E+00 -0.28996761727E+04  0.28996761727E+04  0.50400001928E-02 0.  1.
    10030    2    1    2    0    0  0.00000000000E+00  0.00000000000E+00 -0.18417907277E+04  0.39575616178E+04  0.35028703764E+04 0.  0.
        5    1    3    3  502    0  0.86269904654E+03  0.20119118395E+03  0.78611134865E+03  0.11843650957E+04  0.46999998093E+01 0. -1.
       -5    1    3    3    0  502 -0.86269904654E+03 -0.20119118395E+03 -0.26279020763E+04  0.27731965221E+04  0.46999998093E+01 0.  1.
</event>
<event>
 5   0  0.1782660E-06  0.3491225E+04  0.7818609E-02  0.8115873E-01
        2   -1    0    0  501    0  0.00000000000E+00  0.00000000000E+00  0.22937512757E+04  0.22937512757E+04  0.25500000920E-02 0. -1.
       -2   -1    0    0    0  501  0.00000000000E+00  0.00000000000E+00 -0.13284624296E+04  0.13284624296E+04  0.25500000920E-02 0.  1.
    10030    2    1    2    0    0  0.00000000000E+00  0.00000000000E+00  0.96528884607E+03  0.36222137053E+04  0.34912246519E+04 0.  0.
        4    1    3    3  502    0 -0.77949289339E+03  0.11087290615E+04  0.16240439101E+04  0.21152800140E+04  0.12699999809E+01 0. -1.
       -4    1    3    3    0  502  0.77949289339E+03 -0.11087290615E+04 -0.65875506407E+03  0.15069336913E+04  0.12699999809E+01 0.  1.
</event>
<event>
 5   0  0.2337792E-06  0.1744578E+04  0.7818609E-02  0.8736341E-01
        2   -1    0    0  501    0  0.00000000000E+00  0.00000000000E+00  0.11509969159E+04  0.11509969159E+04  0.25500000920E-02 0.  1.
       -2   -1    0    0    0  501  0.00000000000E+00  0.00000000000E+00 -0.66106862209E+03  0.66106862210E+03  0.25500000920E-02 0. -1.
    10030    2    1    2    0    0  0.00000000000E+00  0.00000000000E+00  0.48992829382E+03  0.18120655380E+04  0.17445778231E+04 0.  0.
        4    1    3    3  502    0  0.61207906758E+03  0.31346336665E+03 -0.31243903214E+03  0.75532763017E+03  0.12699999809E+01 0. -1.
       -4    1    3    3    0  502 -0.61207906758E+03 -0.31346336665E+03  0.80236732596E+03  0.10567379078E+04  0.12699999809E+01 0.  1.
</event>
<event>
 5   0  0.2565004E-06  0.3492487E+04  0.7818609E-02  0.8115573E-01
       -2   -1    0    0    0  501  0.00000000000E+00  0.00000000000E+00  0.92215921223E+03  0.92215921224E+03  0.25500000920E-02 0. -1.
        2   -1    0    0  501    0  0.00000000000E+00  0.00000000000E+00 -0.33067683809E+04  0.33067683809E+04  0.25500000920E-02 0.  1.
    10030    2    1    2    0    0  0.00000000000E+00  0.00000000000E+00 -0.23846091687E+04  0.42289275932E+04  0.34924873229E+04 0.  0.
        3    1    3    3  502    0  0.10852721964E+04 -0.81960121731E+03  0.13402283567E+03  0.13665738276E+04  0.10100000352E+00 0. -1.
       -3    1    3    3    0  502 -0.10852721964E+04  0.81960121731E+03 -0.25186320044E+04  0.28623537656E+04  0.10100000352E+00 0.  1.
</event>
<event>
 5   0  0.3041329E-06  0.2972643E+04  0.7818609E-02  0.8251586E-01
        2   -1    0    0  501    0  0.00000000000E+00  0.00000000000E+00  0.15032524167E+04  0.15032524167E+04  0.25500000920E-02 0. -1.
       -2   -1    0    0    0  501  0.00000000000E+00  0.00000000000E+00 -0.14695808186E+04  0.14695808186E+04  0.25500000920E-02 0.  1.
    10030    2    1    2    0    0  0.00000000000E+00  0.00000000000E+00  0.33671598110E+02  0.29728332353E+04  0.29726425396E+04 0.  0.
        2    1    3    3  502    0 -0.28458655296E+03 -0.94119729344E+03 -0.10978248936E+04  0.14737914874E+04  0.25500000920E-02 0.  1.
       -2    1    3    3    0  502  0.28458655296E+03  0.94119729344E+03  0.11314964917E+04  0.14990417479E+04  0.25500000920E-02 0. -1.
</event>
<event>
 5   0  0.1782660E-06  0.3729382E+04  0.7818609E-02  0.8061481E-01
       -2   -1    0    0    0  501  0.00000000000E+00  0.00000000000E+00  0.11827149297E+04  0.11827149297E+04  0.25500000920E-02 0. -1.
        2   -1    0    0  501    0  0.00000000000E+00  0.00000000000E+00 -0.29399072184E+04  0.29399072184E+04  0.25500000920E-02 0.  1.
    10030    2    1    2    0    0  0.00000000000E+00  0.00000000000E+00 -0.17571922887E+04  0.41226221482E+04  0.37293818036E+04 0.  0.
        4    1    3    3  502    0 -0.50829407140E+03 -0.17877710267E+04 -0.71247607133E+03  0.19905054313E+04  0.12699999809E+01 0. -1.
       -4    1    3    3    0  502  0.50829407140E+03  0.17877710267E+04 -0.10447162174E+04  0.21321167169E+04  0.12699999809E+01 0.  1.
</event>
<event>
 5   0  0.3041329E-06  0.3482324E+04  0.7818609E-02  0.8117992E-01
       -2   -1    0    0    0  501  0.00000000000E+00  0.00000000000E+00  0.14740633524E+04  0.14740633524E+04  0.25500000920E-02 0. -1.
        2   -1    0    0  501    0  0.00000000000E+00  0.00000000000E+00 -0.20566589617E+04  0.20566589617E+04  0.25500000920E-02 0.  1.
    10030    2    1    2    0    0  0.00000000000E+00  0.00000000000E+00 -0.58259560925E+03  0.35307223141E+04  0.34823242835E+04 0.  0.
        2    1    3    3  502    0 -0.97405609314E+03  0.26187048459E+03  0.11476820765E+04  0.15279187059E+04  0.25500000920E-02 0. -1.
       -2    1    3    3    0  502  0.97405609314E+03 -0.26187048459E+03 -0.17302776857E+04  0.20028036082E+04  0.25500000920E-02 0.  1.
</event>
<event>
 5   0  0.1089337E-06  0.3050591E+04  0.7818609E-02  0.8229430E-01
       -1   -1    0    0    0  501  0.00000000000E+00  0.00000000000E+00  0.20980294685E+04  0.20980294685E+04  0.50400001928E-02 0.  1.
        1   -1    0    0  501    0  0.00000000000E+00  0.00000000000E+00 -0.11089102809E+04  0.11089102809E+04  0.50400001928E-02 0. -1.
    10030    2    1    2    0    0  0.00000000000E+00  0.00000000000E+00  0.98911918764E+03  0.32069397494E+04  0.30505910557E+04 0.  0.
        2    1    3    3  502    0 -0.13036103694E+04 -0.78391690352E+03  0.61256579748E+03  0.16398666297E+04  0.25500000920E-02 0.  1.
       -2    1    3    3    0  502  0.13036103694E+04  0.78391690352E+03  0.37655339016E+03  0.15670731197E+04  0.25500000920E-02 0. -1.
</event>
<event>
 5   0  0.1908726E-06  0.1734953E+04  0.7818609E-02  0.8741677E-01
        2   -1    0    0  501    0  0.00000000000E+00  0.00000000000E+00  0.19134250996E+04  0.19134250996E+04  0.25500000920E-02 0. -1.
       -2   -1    0    0    0  501  0.00000000000E+00  0.00000000000E+00 -0.39328175102E+03  0.39328175103E+03  0.25500000920E-02 0.  1.
    10030    2    1    2    0    0  0.00000000000E+00  0.00000000000E+00  0.15201433486E+04  0.23067068507E+04  0.17349526491E+04 0.  0.
        5    1    3    3  502    0  0.57628699944E+02 -0.86353124881E+03  0.68157415277E+03  0.11016227578E+04  0.46999998093E+01 0. -1.
       -5    1    3    3    0  502 -0.57628699944E+02  0.86353124881E+03  0.83856919585E+03  0.12050840929E+04  0.46999998093E+01 0.  1.
</event>
<event>
 5   0  0.1908726E-06  0.2484149E+04  0.7818609E-02  0.8408654E-01
       -2   -1    0    0    0  501  0.00000000000E+00  0.00000000000E+00  0.80135548180E+03  0.80135548181E+03  0.25500000920E-02 0. -1.
        2   -1    0    0  501    0  0.00000000000E+00  0.00000000000E+00 -0.19251743572E+04  0.19251743572E+04  0.25500000920E-02 0.  1.
    10030    2    1    2    0    0  0.00000000000E+00  0.00000000000E+00 -0.11238188754E+04  0.27265298390E+04  0.24841489686E+04 0.  0.
        5    1    3    3  502    0  0.97259766883E+03  0.77248685531E+03 -0.55456574816E+03  0.13602380035E+04  0.46999998093E+01 0.  1.
       -5    1    3    3    0  502 -0.97259766883E+03 -0.77248685531E+03 -0.56925312727E+03  0.13662918356E+04  0.46999998093E+01 0. -1.
</event>
<event>
 5   0  0.1102175E-06  0.3256060E+04  0.7818609E-02  0.8174167E-01
       -1   -1    0    0    0  501  0.00000000000E+00  0.00000000000E+00  0.27901258732E+04  0.27901258732E+04  0.50400001928E-02 0. -1.
        1   -1    0    0  501    0  0.00000000000E+00  0.00000000000E+00 -0.94995039070E+03  0.94995039072E+03  0.50400001928E-02 0.  1.
    10030    2    1    2    0    0  0.00000000000E+00  0.00000000000E+00  0.18401754825E+04  0.37400762639E+04  0.32560596821E+04 0.  0.
        5    1    3    3  502    0 -0.91763269787E+03  0.85790690257E+03 -0.26942069595E+03  0.12847815468E+04  0.46999998093E+01 0.  1.
       -5    1    3    3    0  502  0.91763269787E+03 -0.85790690257E+03  0.21095961784E+04  0.24552947171E+04  0.46999998093E+01 0. -1.
</event>
<event>
 5   0  0.1102175E-06  0.2872369E+04  0.7818609E-02  0.8281146E-01
       -1   -1    0    0    0  501  0.00000000000E+00  0.00000000000E+00  0.29510448965E+04  0.29510448965E+04  0.50400001928E-02 0.  1.
        1   -1    0    0  501    0  0.00000000000E+00  0.00000000000E+00 -0.69894754619E+03  0.69894754620E+03  0.50400001928E-02 0. -1.
    10030    2    1    2    0    0  0.00000000000E+00  0.00000000000E+00  0.22520973503E+04  0.36499924427E+04  0.28723687710E+04 0.  0.
        5    1    3    3  502    0  0.85939154856E+03  0.55776126390E+03 -0.15287966215E+03  0.10358792122E+04  0.46999998093E+01 0. -1.
       -5    1    3    3    0  502 -0.85939154856E+03 -0.55776126390E+03  0.24049770125E+04  0.26141132305E+04  0.46999998093E+01 0.  1.
</event>
<event>
 5   0  0.1130707E-06  0.1961890E+04  0.7818609E-02  0.8624649E-01
       -1   -1    0    0    0  501  0.00000000000E+00  0.00000000000E+00  0.49893970976E+03  0.49893970978E+03  0.50400001928E-02 0. -1.
        1   -1    0    0  501    0  0.00000000000E+00  0.00000000000E+00 -0.19285957973E+04  0.19285957973E+04  0.50400001928E-02 0.  1.
    10030    2    1    2    0    0  0.00000000000E+00  0.00000000000E+00 -0.14296560876E+04  0.24275355071E+04  0.19618899331E+04 0.  0.
        3    1    3    3  502    0  0.71036334227E+03  0.15346163612E+02  0.12200672000E+03  0.72092803573E+03  0.10100000352E+00 0. -1.
       -3    1    3    3    0  502 -0.71036334227E+03 -0.15346163612E+02 -0.15516628076E+04  0.17066074714E+04  0.10100000352E+00 0.  1.
</event>
<event>
 5   0  0.3378848E-06  0.3497631E+04  0.7818609E-02  0.8114352E-01
       -2   -1    0    0    0  501  0.00000000000E+00  0.00000000000E+00  0.15731425873E+04  0.15731425873E+04  0.25500000920E-02 0. -1.
        2   -1    0    0  501    0  0.00000000000E+00  0.00000000000E+00 -0.19441058333E+04  0.19441058333E+04  0.25500000920E-02 0.  1.
    10030    2    1    2    0    0  0.00000000000E+00  0.00000000000E+00 -0.37096324602E+03  0.35172484206E+04  0.34976310157E+04 0.  0.
        1    1    3    3  502    0 -0.95086024077E+02  0.22122319738E+03  0.15563926059E+04  0.15749092033E+04  0.50400001928E-02 0. -1.
       -1    1    3    3    0  502  0.95086024077E+02 -0.22122319738E+03 -0.19273558519E+04  0.19423392173E+04  0.50400001928E-02 0.  1.
</event>
<event>
 5   0  0.1130707E-06  0.3495829E+04  0.7818609E-02  0.8114779E-01
       -1   -1    0    0    0  501  0.00000000000E+00  0.00000000000E+00  0.16542024490E+04  0.16542024490E+04  0.50400001928E-02 0. -1.
        1   -1    0    0  501    0  0.00000000000E+00  0.00000000000E+00 -0.18469359445E+04  0.18469359445E+04  0.50400001928E-02 0.  1.
    10030    2    1    2    0    0  0.00000000000E+00  0.00000000000E+00 -0.19273349545E+03  0.35011383935E+04  0.34958294939E+04 0.  0.
        3    1    3    3  502    0 -0.68170944045E+03  0.16083887057E+04 -0.15615634184E+03  0.17538605426E+04  0.10100000352E+00 0.  1.
       -3    1    3    3    0  502  0.68170944045E+03 -0.16083887057E+04 -0.36577153618E+02  0.17472778509E+04  0.10100000352E+00 0. -1.
</event>
<event>
 5   0  0.1102175E-06  0.1723356E+04  0.7818609E-02  0.8748154E-01
       -1   -1    0    0    0  501  0.00000000000E+00  0.00000000000E+00  0.16629275721E+04  0.16629275721E+04  0.50400001928E-02 0. -1.
        1   -1    0    0  501    0  0.00000000000E+00  0.00000000000E+00 -0.44649521192E+03  0.44649521195E+03  0.50400001928E-02 0.  1.
    10030    2    1    2    0    0  0.00000000000E+00  0.00000000000E+00  0.12164323601E+04  0.21094227840E+04  0.17233562589E+04 0.  0.
        5    1    3    3  502    0  0.49393871268E+03 -0.51234286969E+03  0.13593741957E+02  0.71181286011E+03  0.46999998093E+01 0.  1.
       -5    1    3    3    0  502 -0.49393871268E+03  0.51234286969E+03  0.12028386182E+04  0.13976099239E+04  0.46999998093E+01 0. -1.
</event>
<event>
 5   0  0.3378848E-06  0.3335840E+04  0.7818609E-02  0.8153835E-01
        2   -1    0    0  501    0  0.00000000000E+00  0.00000000000E+00  0.20801535004E+04  0.20801535004E+04  0.25500000920E-02 0. -1.
       -2   -1    0    0    0  501  0.00000000000E+00  0.00000000000E+00 -0.13373810101E+04  0.13373810101E+04  0.25500000920E-02 0.  1.
    10030    2    1    2    0    0  0.00000000000E+00  0.00000000000E+00  0.74277249028E+03  0.34175345106E+04  0.33358403977E+04 0.  0.
        1    1    3    3  502    0  0.61088095086E+03 -0.14553209744E+04 -0.18110080875E+03  0.15886888234E+04  0.50400001928E-02 0.  1.
       -1    1    3    3    0  502 -0.61088095086E+03  0.14553209744E+04  0.92387329903E+03  0.18288456871E+04  0.50400001928E-02 0. -1.
</event>
<event>
 5   0  0.1125196E-06  0.2299992E+04  0.7818609E-02  0.8477924E-01
       -1   -1    0    0    0  501  0.00000000000E+00  0.00000000000E+00  0.66325893204E+03  0.66325893206E+03  0.50400001928E-02 0. -1.
        1   -1    0    0  501    0  0.00000000000E+00  0.00000000000E+00 -0.19939275518E+04  0.19939275518E+04  0.50400001928E-02 0.  1.
    10030    2    1    2    0    0  0.00000000000E+00  0.00000000000E+00 -0.13306686198E+04  0.26571864839E+04  0.22999915292E+04 0.  0.
        4    1    3    3  502    0  0.59495781718E+03  0.97943836235E+03 -0.55443526217E+03  0.12730571011E+04  0.12699999809E+01 0. -1.
       -4    1    3    3    0  502 -0.59495781718E+03 -0.97943836235E+03 -0.77623335762E+03  0.13841293828E+04  0.12699999809E+01 0.  1.
</event>
<event>
 5   0  0.1908726E-06  0.2472457E+04  0.7818609E-02  0.8412864E-01
       -2   -1    0    0    0  501  0.00000000000E+00  0.00000000000E+00  0.10547840981E+04  0.10547840982E+04  0.25500000920E-02 0.  1.
        2   -1    0    0  501    0  0.00000000000E+00  0.00000000000E+00 -0.14488849250E+04  0.14488849250E+04  0.25500000920E-02 0. -1.
    10030    2    1    2    0    0  0.00000000000E+00  0.00000000000E+00 -0.39410082688E+03  0.25036690232E+04  0.24724568987E+04 0.  0.
        5    1    3    3  502    0 -0.10504353072E+04 -0.54964658817E+03 -0.55177675709E+03  0.13076717425E+04  0.46999998093E+01 0. -1.
       -5    1    3    3    0  502  0.10504353072E+04  0.54964658817E+03  0.15767593021E+03  0.11959972807E+04  0.46999998093E+01 0.  1.
</event>
<event>
 5   0  0.1130707E-06  0.2090019E+04  0.7818609E-02  0.8565653E-01
       -1   -1    0    0    0  501  0.00000000000E+00  0.00000000000E+00  0.10648139547E+04  0.10648139547E+04  0.50400001928E-02 0. -1.
        1   -1    0    0  501    0  0.00000000000E+00  0.00000000000E+00 -0.10255735771E+04  0.10255735771E+04  0.50400001928E-02 0.  1.
    10030    2    1    2    0    0  0.00000000000E+00  0.00000000000E+00  0.39240377619E+02  0.20903875318E+04  0.20900191927E+04 0.  0.
        3    1    3    3  502    0  0.83818816886E+03  0.29359644667E+03 -0.53119164525E+03  0.10348540255E+04  0.10100000352E+00 0.  1.
       -3    1    3    3    0  502 -0.83818816886E+03 -0.29359644667E+03  0.57043202287E+03  0.10555335063E+04  0.10100000352E+00 0. -1.
</event>
<event>
 5   0  0.1782660E-06  0.2621856E+04  0.7818609E-02  0.8360815E-01
        2   -1    0    0  501    0  0.00000000000E+00  0.00000000000E+00  0.25321245861E+04  0.25321245861E+04  0.25500000920E-02 0.  1.
       -2   -1    0    0    0  501  0.00000000000E+00  0.00000000000E+00 -0.67869179954E+03  0.67869179955E+03  0.25500000920E-02 0. -1.
    10030    2    1    2    0    0  0.00000000000E+00  0.00000000000E+00  0.18534327866E+04  0.32108163857E+04  0.26218559778E+04 0.  0.
        4    1    3    3  502    0 -0.56517179946E+03 -0.15006817444E+03 -0.51012587555E+03  0.77599590314E+03  0.12699999809E+01 0. -1.
       -4    1    3    3    0  502  0.56517179946E+03  0.15006817444E+03  0.23635586622E+04  0.24348204825E+04  0.12699999809E+01 0.  1.
</event>
<event>
 5   0  0.1782660E-06  0.3049421E+04  0.7818609E-02  0.8229758E-01
       -2   -1    0    0    0  501  0.00000000000E+00  0.00000000000E+00  0.17672324733E+04  0.17672324733E+04  0.25500000920E-02 0.  1.
        2   -1    0    0  501    0  0.00000000000E+00  0.00000000000E+00 -0.13154703960E+04  0.13154703960E+04  0.25500000920E-02 0. -1.
    10030    2    1    2    0    0  0.00000000000E+00  0.00000000000E+00  0.45176207731E+03  0.30827028694E+04  0.30494209297E+04 0.  0.
        4    1    3    3  502    0  0.13509730728E+04 -0.47923853290E+03  0.75111159259E+03  0.16183226045E+04  0.12699999809E+01 0.  1.
       -4    1    3    3    0  502 -0.13509730728E+04  0.47923853290E+03 -0.29934951528E+03  0.14643802649E+04  0.12699999809E+01 0. -1.
</event>
<event>
 5   0  0.3378848E-06  0.2659733E+04  0.7818609E-02  0.8348190E-01
       -2   -1    0    0    0  501  0.00000000000E+00  0.00000000000E+00  0.89557710293E+03  0.89557710293E+03  0.25500000920E-02 0. -1.
        2   -1    0    0  501    0  0.00000000000E+00  0.00000000000E+00 -0.19747542290E+04  0.19747542290E+04  0.25500000920E-02 0.  1.
    10030    2    1    2    0    0  0.00000000000E+00  0.00000000000E+00 -0.10791771260E+04  0.28703313319E+04  0.26597328222E+04 0.  0.
        1    1    3    3  502    0 -0.20439323320E+03 -0.21199238047E+03  0.85994951468E+03  0.90897223884E+03  0.50400001928E-02 0. -1.
       -1    1    3    3    0  502  0.20439323320E+03  0.21199238047E+03 -0.19391266407E+04  0.19613590930E+04  0.50400001928E-02 0.  1.
</event>
<event>
 5   0  0.1102175E-06  0.3456041E+04  0.7818609E-02  0.8124287E-01
       -1   -1    0    0    0  501  0.00000000000E+00  0.00000000000E+00  0.11045908960E+04  0.11045908960E+04  0.50400001928E-02 0. -1.
        1   -1    0    0  501    0  0.00000000000E+00  0.00000000000E+00 -0.27033123877E+04  0.27033123877E+04  0.50400001928E-02 0.  1.
    10030    2    1    2    0    0  0.00000000000E+00  0.00000000000E+00 -0.15987214917E+04  0.38079032837E+04  0.34560406552E+04 0.  0.
        5    1    3    3  502    0 -0.36560177918E+03 -0.90776564469E+03 -0.23685534147E+04  0.25627661803E+04  0.46999998093E+01 0.  1.
       -5    1    3    3    0  502  0.36560177918E+03  0.90776564469E+03  0.76983192303E+03  0.12451371034E+04  0.46999998093E+01 0. -1.
</event>
<event>
 5   0  0.1089337E-06  0.3518909E+04  0.7818609E-02  0.8109323E-01
       -1   -1    0    0    0  501  0.00000000000E+00  0.00000000000E+00  0.28008838756E+04  0.28008838756E+04  0.50400001928E-02 0.  1.
        1   -1    0    0  501    0  0.00000000000E+00  0.00000000000E+00 -0.11052510952E+04  0.11052510952E+04  0.50400001928E-02 0. -1.
    10030    2    1    2    0    0  0.00000000000E+00  0.00000000000E+00  0.16956327804E+04  0.39061349708E+04  0.35189089054E+04 0.  0.
        2    1    3    3  502    0  0.82675041185E+02  0.13734032855E+04  0.20651267162E+04  0.24814955372E+04  0.25500000920E-02 0.  1.
       -2    1    3    3    0  502 -0.82675041185E+02 -0.13734032855E+04 -0.36949393587E+03  0.14246394336E+04  0.25500000920E-02 0. -1.
</event>
<event>
 5   0  0.1782660E-06  0.2389150E+04  0.7818609E-02  0.8443577E-01
       -2   -1    0    0    0  501  0.00000000000E+00  0.00000000000E+00  0.10659729117E+04  0.10659729117E+04  0.25500000920E-02 0.  1.
        2   -1    0    0  501    0  0.00000000000E+00  0.00000000000E+00 -0.13386917055E+04  0.13386917055E+04  0.25500000920E-02 0. -1.
    10030    2    1    2    0    0  0.00000000000E+00  0.00000000000E+00 -0.27271879377E+03  0.24046646172E+04  0.23891497192E+04 0.  0.
        4    1    3    3  502    0 -0.57353724772E+03 -0.87794604396E+03  0.43943363200E+03  0.11370302373E+04  0.12699999809E+01 0.  1.
       -4    1    3    3    0  502  0.57353724772E+03  0.87794604396E+03 -0.71215242577E+03  0.12676343799E+04  0.12699999809E+01 0. -1.
</event>
<event>
 5   0  0.1908726E-06  0.1813276E+04  0.7818609E-02  0.8699271E-01
        2   -1    0    0  501    0  0.00000000000E+00  0.00000000000E+00  0.17501476612E+04  0.17501476612E+04  0.25500000920E-02 0.  1.
       -2   -1    0    0    0  501  0.00000000000E+00  0.00000000000E+00 -0.46967033280E+03  0.46967033280E+03  0.25500000920E-02 0. -1.
    10030    2    1    2    0    0  0.00000000000E+00  0.00000000000E+00  0.12804773285E+04  0.22198179941E+04  0.18132759685E+04 0.  0.
        5    1    3    3  502    0 -0.73825532173E+03 -0.41780252523E+03  0.10319654230E+04  0.13358722224E+04  0.46999998093E+01 0.  1.
       -5    1    3    3    0  502  0.73825532173E+03  0.41780252523E+03  0.24851190542E+03  0.88394577169E+03  0.46999998093E+01 0. -1.
</event>
<event>
 5   0  0.1782660E-06  0.3530516E+04  0.7818609E-02  0.8106596E-01
       -2   -1    0    0    0  501  0.00000000000E+00  0.00000000000E+00  0.13018072300E+04  0.13018072300E+04  0.25500000920E-02 0.  1.
        2   -1    0    0  501    0  0.00000000000E+00  0.00000000000E+00 -0.23936994562E+04  0.23936994562E+04  0.25500000920E-02 0. -1.
    10030    2    1    2    0    0  0.00000000000E+00  0.00000000000E+00 -0.10918922262E+04  0.36955066862E+04  0.35305156896E+04 0.  0.
        4    1    3    3  502    0  0.62128988524E+03  0.10699275075E+04  0.77201799188E+03  0.14583413131E+04  0.12699999809E+01 0.  1.
       -4    1    3    3    0  502 -0.62128988524E+03 -0.10699275075E+04 -0.18639102181E+04  0.22371653731E+04  0.12699999809E+01 0. -1.
</event>
<event>
 5   0  0.2565004E-06  0.3612355E+04  0.7818609E-02  0.8087668E-01
       -2   -1    0    0    0  501  0.00000000000E+00  0.00000000000E+00  0.22173909136E+04  0.22173909136E+04  0.25500000920E-02 0.  1.
        2   -1    0    0  501    0  0.00000000000E+00  0.00000000000E+00 -0.14712229867E+04  0.14712229867E+04  0.25500000920E-02 0. -1.
    10030    2    1    2    0    0  0.00000000000E+00  0.00000000000E+00  0.74616792695E+03  0.36886139003E+04  0.36123546241E+04 0.  0.
        3    1    3    3  502    0 -0.73362622834E+03 -0.11767557024E+04  0.15548028977E+04  0.20833563034E+04  0.10100000352E+00 0.  1.
       -3    1    3    3    0  502  0.73362622834E+03  0.11767557024E+04 -0.80863497078E+03  0.16052575968E+04  0.10100000352E+00 0. -1.
</event>
<event>
 5   0  0.1089337E-06  0.3543538E+04  0.7818609E-02  0.8103549E-01
       -1   -1    0    0    0  501  0.00000000000E+00  0.00000000000E+00  0.27368234533E+04  0.27368234533E+04  0.50400001928E-02 0.  1.
        1   -1    0    0  501    0  0.00000000000E+00  0.00000000000E+00 -0.11470103802E+04  0.11470103802E+04  0.50400001928E-02 0. -1.
    10030    2    1    2    0    0  0.00000000000E+00  0.00000000000E+00  0.15898130731E+04  0.38838338335E+04  0.35435377293E+04 0.  0.
        2    1    3    3  502    0  0.12887476468E+04  0.12158393803E+04  0.80081027654E+03  0.19443335606E+04  0.25500000920E-02 0. -1.
       -2    1    3    3    0  502 -0.12887476468E+04 -0.12158393803E+04  0.78900279655E+03  0.19395002730E+04  0.25500000920E-02 0.  1.
</event>
<event>
 5   0  0.1089337E-06  0.1798731E+04  0.7818609E-02  0.8706975E-01
        1   -1    0    0  501    0  0.00000000000E+00  0.00000000000E+00  0.19799228886E+04  0.19799228886E+04  0.50400001928E-02 0. -1.
       -1   -1    0    0    0  501  0.00000000000E+00  0.00000000000E+00 -0.40853006548E+03  0.40853006551E+03  0.50400001928E-02 0.  1.
    10030    2    1    2    0    0  0.00000000000E+00  0.00000000000E+00  0.15713928231E+04  0.23884529541E+04  0.17987306940E+04 0.  0.
        2    1    3    3  502    0  0.38406758835E+03 -0.77246507466E+03  0.11233158936E+04  0.14163505219E+04  0.25500000920E-02 0. -1.
       -2    1    3    3    0  502 -0.38406758835E+03  0.77246507466E+03  0.44807692953E+03  0.97210243224E+03  0.25500000920E-02 0.  1.
</event>
<event>
 5   0  0.1089337E-06  0.2734909E+04  0.7818609E-02  0.8323766E-01
       -1   -1    0    0    0  501  0.00000000000E+00  0.00000000000E+00  0.80303512481E+03  0.80303512482E+03  0.50400001928E-02 0. -1.
        1   -1    0    0  501    0  0.00000000000E+00  0.00000000000E+00 -0.23285795676E+04  0.23285795676E+04  0.50400001928E-02 0.  1.
    10030    2    1    2    0    0  0.00000000000E+00  0.00000000000E+00 -0.15255444428E+04  0.31316146924E+04  0.27349085423E+04 0.  0.
        2    1    3    3  502    0 -0.92093879208E+03  0.41406880239E+03 -0.18186760387E+04  0.20801835894E+04  0.25500000920E-02 0.  1.
       -2    1    3    3    0  502  0.92093879208E+03 -0.41406880239E+03  0.29313159591E+03  0.10514311030E+04  0.25500000920E-02 0. -1.
</event>
<event>
 5   0  0.1782660E-06  0.1871043E+04  0.7818609E-02  0.8669406E-01
       -2   -1    0    0    0  501  0.00000000000E+00  0.00000000000E+00  0.84661326775E+03  0.84661326775E+03  0.25500000920E-02 0. -1.
        2   -1    0    0  501    0  0.00000000000E+00  0.00000000000E+00 -0.10337665070E+04  0.10337665070E+04  0.25500000920E-02 0.  1.
    10030    2    1    2    0    0  0.00000000000E+00  0.00000000000E+00 -0.18715323927E+03  0.18803797748E+04  0.18710429611E+04 0.  0.
        4    1    3    3  502    0 -0.31779525057E+03 -0.64291751026E+03 -0.69729227322E+03  0.10002773983E+04  0.12699999809E+01 0.  1.
       -4    1    3    3    0  502  0.31779525057E+03  0.64291751026E+03  0.51013903394E+03  0.88010237651E+03  0.12699999809E+01 0. -1.
</event>
<event>
 5   0  0.1089337E-06  0.3543539E+04  0.7818609E-02  0.8103549E-01
       -1   -1    0    0    0  501  0.00000000000E+00  0.00000000000E+00  0.20712513934E+04  0.20712513934E+04  0.50400001928E-02 0. -1.
        1   -1    0    0  501    0  0.00000000000E+00  0.00000000000E+00 -0.15155898506E+04  0.15155898506E+04  0.50400001928E-02 0.  1.
    10030    2    1    2    0    0  0.00000000000E+00  0.00000000000E+00  0.55566154280E+03  0.35868412440E+04  0.35435392419E+04 0.  0.
        2    1    3    3  502    0 -0.12703115367E+04  0.70813381587E+03  0.13021367270E+04  0.19521027015E+04  0.25500000920E-02 0. -1.
       -2    1    3    3    0  502  0.12703115367E+04 -0.70813381587E+03 -0.74647518420E+03  0.16347385424E+04  0.25500000920E-02 0.  1.
</event>
<event>
 5   0  0.1782660E-06  0.2120458E+04  0.7818609E-02  0.8552285E-01
        2   -1    0    0  501    0  0.00000000000E+00  0.00000000000E+00  0.21945189449E+04  0.21945189449E+04  0.25500000920E-02 0. -1.
       -2   -1    0    0    0  501  0.00000000000E+00  0.00000000000E+00 -0.51222412633E+03  0.51222412634E+03  0.25500000920E-02 0.  1.
    10030    2    1    2    0    0  0.00000000000E+00  0.00000000000E+00  0.16822948186E+04  0.27067430713E+04  0.21204580159E+04 0.  0.
        4    1    3    3  502    0 -0.67478125525E+03  0.68026503153E+03  0.26179301594E+03  0.99329122198E+03  0.12699999809E+01 0.  1.
       -4    1    3    3    0  502  0.67478125525E+03 -0.68026503153E+03  0.14205018027E+04  0.17134518493E+04  0.12699999809E+01 0. -1.
</event>
<event>
 5   0  0.1130707E-06  0.1784976E+04  0.7818609E-02  0.8714330E-01
        1   -1    0    0  501    0  0.00000000000E+00  0.00000000000E+00  0.51036414478E+03  0.51036414480E+03  0.50400001928E-02 0.  1.
       -1   -1    0    0    0  501  0.00000000000E+00  0.00000000000E+00 -0.15607186146E+04  0.15607186147E+04  0.50400001928E-02 0. -1.
    10030    2    1    2    0    0  0.00000000000E+00  0.00000000000E+00 -0.10503544699E+04  0.20710827595E+04  0.17849759898E+04 0.  0.
        3    1    3    3  502    0  0.61385073660E+03  0.59282172092E+03 -0.22197938749E+03  0.88177388161E+03  0.10100000352E+00 0.  1.
       -3    1    3    3    0  502 -0.61385073660E+03 -0.59282172092E+03 -0.82837508238E+03  0.11893088778E+04  0.10100000352E+00 0. -1.
</event>
<event>
 5   0  0.1130707E-06  0.3481601E+04  0.7818609E-02  0.8118164E-01
       -1   -1    0    0    0  501  0.00000000000E+00  0.00000000000E+00  0.13196229043E+04  0.13196229043E+04  0.50400001928E-02 0. -1.
        1   -1    0    0  501    0  0.00000000000E+00  0.00000000000E+00 -0.22964031795E+04  0.22964031795E+04  0.50400001928E-02 0.  1.
    10030    2    1    2    0    0  0.00000000000E+00  0.00000000000E+00 -0.97678027520E+03  0.36160260837E+04  0.34816009151E+04 0.  0.
        3    1    3    3  502    0  0.12571309865E+04  0.11037180407E+04  0.11670608529E+02  0.16729339628E+04  0.10100000352E+00 0. -1.
       -3    1    3    3    0  502 -0.12571309865E+04 -0.11037180407E+04 -0.98845088373E+03  0.19430921209E+04  0.10100000352E+00 0.  1.
</event>
<event>
 5   0  0.3378848E-06  0.3476065E+04  0.7818609E-02  0.8119486E-01
        2   -1    0    0  501    0  0.00000000000E+00  0.00000000000E+00  0.20157925264E+04  0.20157925264E+04  0.25500000920E-02 0.  1.
       -2   -1    0    0    0  501  0.00000000000E+00  0.00000000000E+00 -0.14985459092E+04  0.14985459092E+04  0.25500000920E-02 0. -1.
    10030    2    1    2    0    0  0.00000000000E+00  0.00000000000E+00  0.51724661722E+03  0.35143384356E+04  0.34760653873E+04 0.  0.
        1    1    3    3  502    0 -0.85308890116E+03 -0.13882253551E+04 -0.35287283336E+03  0.16671681218E+04  0.50400001928E-02 0. -1.
       -1    1    3    3    0  502  0.85308890116E+03  0.13882253551E+04  0.87011945058E+03  0.18471703138E+04  0.50400001928E-02 0.  1.
</event>
<event>
 5   0  0.1089337E-06  0.1721553E+04  0.7818609E-02  0.8749167E-01
       -1   -1    0    0    0  501  0.00000000000E+00  0.00000000000E+00  0.23790783438E+03  0.23790783443E+03  0.50400001928E-02 0. -1.
        1   -1    0    0  501    0  0.00000000000E+00  0.00000000000E+00 -0.31143827235E+04  0.31143827235E+04  0.50400001928E-02 0.  1.
    10030    2    1    2    0    0  0.00000000000E+00  0.00000000000E+00 -0.28764748891E+04  0.33522905579E+04  0.17215528447E+04 0.  0.
        2    1    3    3  502    0 -0.20590034667E+03 -0.62256590352E+03 -0.25240841700E+04  0.26078696582E+04  0.25500000920E-02 0.  1.
       -2    1    3    3    0  502  0.20590034667E+03  0.62256590352E+03 -0.35239071908E+03  0.74442089969E+03  0.25500000920E-02 0. -1.
</event>
<event>
 5   0  0.1130707E-06  0.3536549E+04  0.7818609E-02  0.8105183E-01
        1   -1    0    0  501    0  0.00000000000E+00  0.00000000000E+00  0.21693754344E+04  0.21693754344E+04  0.50400001928E-02 0. -1.
       -1   -1    0    0    0  501  0.00000000000E+00  0.00000000000E+00 -0.14413337344E+04  0.14413337345E+04  0.50400001928E-02 0.  1.
    10030    2    1    2    0    0  0.00000000000E+00  0.00000000000E+00  0.72804169994E+03  0.36107091689E+04  0.35365485979E+04 0.  0.
        3    1    3    3  502    0 -0.73150716733E+03  0.15759395168E+04  0.28331505543E+02  0.17376682022E+04  0.10100000352E+00 0. -1.
       -3    1    3    3    0  502  0.73150716733E+03 -0.15759395168E+04  0.69971019440E+03  0.18730409667E+04  0.10100000352E+00 0.  1.
</event>
<event>
 5   0  0.1130707E-06  0.3380402E+04  0.7818609E-02  0.8142733E-01
       -1   -1    0    0    0  501  0.00000000000E+00  0.00000000000E+00  0.14017128752E+04  0.14017128752E+04  0.50400001928E-02 0. -1.
        1   -1    0    0  501    0  0.00000000000E+00  0.00000000000E+00 -0.20380630300E+04  0.20380630300E+04  0.50400001928E-02 0.  1.
    10030    2    1    2    0    0  0.00000000000E+00  0.00000000000E+00 -0.63635015483E+03  0.34397759052E+04  0.33804018635E+04 0.  0.
        3    1    3    3  502    0  0.13877519854E+04 -0.93300909618E+03 -0.56829234203E+03  0.17661590367E+04  0.10100000352E+00 0.  1.
       -3    1    3    3    0  502 -0.13877519854E+04  0.93300909618E+03 -0.68057812796E+02  0.16736168686E+04  0.10100000352E+00 0. -1.
</event>
<event>
 5   0  0.1102175E-06  0.3214380E+04  0.7818609E-02  0.8185030E-01
       -1   -1    0    0    0  501  0.00000000000E+00  0.00000000000E+00  0.13895211097E+04  0.13895211097E+04  0.50400001928E-02 0.  1.
        1   -1    0    0  501    0  0.00000000000E+00  0.00000000000E+00 -0.18589567245E+04  0.18589567245E+04  0.50400001928E-02 0. -1.
    10030    2    1    2    0    0  0.00000000000E+00  0.00000000000E+00 -0.46943561478E+03  0.32484778341E+04  0.32143799468E+04 0.  0.
        5    1    3    3  502    0 -0.88551532871E+03 -0.48256224633E+03  0.10299698018E+04  0.14414796570E+04  0.46999998093E+01 0.  1.
       -5    1    3    3    0  502  0.88551532871E+03  0.48256224633E+03 -0.14994054166E+04  0.18069981771E+04  0.46999998093E+01 0. -1.
</event>
<event>
 5   0  0.2603635E-06  0.1841136E+04  0.7818609E-02  0.8684725E-01
        2   -1    0    0  501    0  0.00000000000E+00  0.00000000000E+00  0.10960124733E+04  0.10960124733E+04  0.25500000920E-02 0. -1.
       -2   -1    0    0    0  501  0.00000000000E+00  0.00000000000E+00 -0.77320775457E+03  0.77320775457E+03  0.25500000920E-02 0.  1.
    10030    2    1    2    0    0  0.00000000000E+00  0.00000000000E+00  0.32280471876E+03  0.18692202279E+04  0.18411358923E+04 0.  0.
        3    1    3    3  502    0 -0.89349768440E+03 -0.95892857517E+02  0.36422908629E+03  0.96963724642E+03  0.10100000352E+00 0. -1.
       -3    1    3    3    0  502  0.89349768440E+03  0.95892857517E+02 -0.41424367530E+02  0.89958298148E+03  0.10100000352E+00 0.  1.
</event>
<event>
 5   0  0.1102175E-06  0.2893271E+04  0.7818609E-02  0.8274882E-01
       -1   -1    0    0    0  501  0.00000000000E+00  0.00000000000E+00  0.16312770644E+04  0.16312770645E+04  0.50400001928E-02 0.  1.
        1   -1    0    0  501    0  0.00000000000E+00  0.00000000000E+00 -0.12828931602E+04  0.12828931602E+04  0.50400001928E-02 0. -1.
    10030    2    1    2    0    0  0.00000000000E+00  0.00000000000E+00  0.34838390426E+03  0.29141702246E+04  0.28932709437E+04 0.  0.
        5    1    3    3  502    0  0.14220253423E+04 -0.23067728593E+03  0.30691638332E+03  0.14729520837E+04  0.46999998093E+01 0.  1.
       -5    1    3    3    0  502 -0.14220253423E+04  0.23067728593E+03  0.41467520940E+02  0.14412181409E+04  0.46999998093E+01 0. -1.
</event>
<event>
 5   0  0.1125196E-06  0.2014331E+04  0.7818609E-02  0.8599950E-01
       -1   -1    0    0    0  501  0.00000000000E+00  0.00000000000E+00  0.52437057375E+03  0.52437057377E+03  0.50400001928E-02 0. -1.
        1   -1    0    0  501    0  0.00000000000E+00  0.00000000000E+00 -0.19344751773E+04  0.19344751773E+04  0.50400001928E-02 0.  1.
    10030    2    1    2    0    0  0.00000000000E+00  0.00000000000E+00 -0.14101046036E+04  0.24588457511E+04  0.20143305177E+04 0.  0.
        4    1    3    3  502    0 -0.82899903945E+03 -0.46039598731E+01 -0.14032105350E+04  0.16298042896E+04  0.12699999809E+01 0.  1.
       -4    1    3    3    0  502  0.82899903945E+03  0.46039598731E+01 -0.68940685593E+01  0.82904146153E+03  0.12699999809E+01 0. -1.
</event>
<event>
 5   0  0.1130707E-06  0.3373693E+04  0.7818609E-02  0.8144393E-01
       -1   -1    0    0    0  501  0.00000000000E+00  0.00000000000E+00  0.11690978186E+04  0.11690978187E+04  0.50400001928E-02 0. -1.
        1   -1    0    0  501    0  0.00000000000E+00  0.00000000000E+00 -0.24338869199E+04  0.24338869199E+04  0.50400001928E-02 0.  1.
    10030    2    1    2    0    0  0.00000000000E+00  0.00000000000E+00 -0.12647891012E+04  0.36029847385E+04  0.33736934590E+04 0.  0.
        3    1    3    3  502    0 -0.82817160146E+03 -0.95583514558E+03  0.55969628820E+03  0.13830216818E+04  0.10100000352E+00 0. -1.
       -3    1    3    3    0  502  0.82817160146E+03  0.95583514558E+03 -0.18244853894E+04  0.22199630568E+04  0.10100000352E+00 0.  1.
</event>
<event>
 5   0  0.1125196E-06  0.2064708E+04  0.7818609E-02  0.8576951E-01
        1   -1    0    0  501    0  0.00000000000E+00  0.00000000000E+00  0.69590594370E+03  0.69590594372E+03  0.50400001928E-02 0.  1.
       -1   -1    0    0    0  501  0.00000000000E+00  0.00000000000E+00 -0.15314633352E+04  0.15314633352E+04  0.50400001928E-02 0. -1.
    10030    2    1    2    0    0  0.00000000000E+00  0.00000000000E+00 -0.83555739149E+03  0.22273692789E+04  0.20647076670E+04 0.  0.
        4    1    3    3  502    0 -0.33348180351E+03 -0.70572366041E+03  0.31109543458E+03  0.84026066220E+03  0.12699999809E+01 0.  1.
       -4    1    3    3    0  502  0.33348180351E+03  0.70572366041E+03 -0.11466528261E+04  0.13871086167E+04  0.12699999809E+01 0. -1.
</event>
<event>
 5   0  0.1782660E-06  0.3506696E+04  0.7818609E-02  0.8112205E-01
        2   -1    0    0  501    0  0.00000000000E+00  0.00000000000E+00  0.21111183485E+04  0.21111183485E+04  0.25500000920E-02 0. -1.
       -2   -1    0    0    0  501  0.00000000000E+00  0.00000000000E+00 -0.14562085277E+04  0.14562085277E+04  0.25500000920E-02 0.  1.
    10030    2    1    2    0    0  0.00000000000E+00  0.00000000000E+00  0.65490982083E+03  0.35673268762E+04  0.35066956195E+04 0.  0.
        4    1    3    3  502    0 -0.14392865073E+04 -0.41538220004E+03  0.12543278851E+04  0.19538239630E+04  0.12699999809E+01 0. -1.
       -4    1    3    3    0  502  0.14392865073E+04  0.41538220004E+03 -0.59941806427E+03  0.16135029132E+04  0.12699999809E+01 0.  1.
</event>
<event>
 5   0  0.1908726E-06  0.3443895E+04  0.7818609E-02  0.8127216E-01
       -2   -1    0    0    0  501  0.00000000000E+00  0.00000000000E+00  0.19961442214E+04  0.19961442214E+04  0.25500000920E-02 0.  1.
        2   -1    0    0  501    0  0.00000000000E+00  0.00000000000E+00 -0.14854155417E+04  0.14854155417E+04  0.25500000920E-02 0. -1.
    10030    2    1    2    0    0  0.00000000000E+00  0.00000000000E+00  0.51072867965E+03  0.34815597631E+04  0.34438952655E+04 0.  0.
        5    1    3    3  502    0 -0.14238582141E+02  0.52265213219E+03 -0.14032229816E+04  0.14974728093E+04  0.46999998093E+01 0. -1.
       -5    1    3    3    0  502  0.14238582141E+02 -0.52265213219E+03  0.19139516613E+04  0.19840869538E+04  0.46999998093E+01 0.  1.
</event>
<event>
 5   0  0.1130707E-06  0.3368984E+04  0.7818609E-02  0.8145561E-01
       -1   -1    0    0    0  501  0.00000000000E+00  0.00000000000E+00  0.14011804138E+04  0.14011804138E+04  0.50400001928E-02 0. -1.
        1   -1    0    0  501    0  0.00000000000E+00  0.00000000000E+00 -0.20250872175E+04  0.20250872175E+04  0.50400001928E-02 0.  1.
    10030    2    1    2    0    0  0.00000000000E+00  0.00000000000E+00 -0.62390680372E+03  0.34262676313E+04  0.33689835532E+04 0.  0.
        3    1    3    3  502    0  0.14344839187E+04  0.83676882331E+03 -0.25046028484E+02  0.16608893673E+04  0.10100000352E+00 0.  1.
       -3    1    3    3    0  502 -0.14344839187E+04 -0.83676882331E+03 -0.59886077523E+03  0.17653782640E+04  0.10100000352E+00 0. -1.
</event>
<event>
 5   0  0.1782660E-06  0.3471120E+04  0.7818609E-02  0.8120668E-01
       -2   -1    0    0    0  501  0.00000000000E+00  0.00000000000E+00  0.17795763473E+04  0.17795763473E+04  0.25500000920E-02 0. -1.
        2   -1    0    0  501    0  0.00000000000E+00  0.00000000000E+00 -0.16926326540E+04  0.16926326540E+04  0.25500000920E-02 0.  1.
    10030    2    1    2    0    0  0.00000000000E+00  0.00000000000E+00  0.86943693286E+02  0.34722090013E+04  0.34711203009E+04 0.  0.
        4    1    3    3  502    0 -0.79256911443E+03 -0.10231668959E+04  0.12001783894E+04  0.17650682925E+04  0.12699999809E+01 0. -1.
       -4    1    3    3    0  502  0.79256911443E+03  0.10231668959E+04 -0.11132346962E+04  0.17071407088E+04  0.12699999809E+01 0.  1.
</event>
<event>
 5   0  0.1782660E-06  0.2728906E+04  0.7818609E-02  0.8325686E-01
        2   -1    0    0  501    0  0.00000000000E+00  0.00000000000E+00  0.18178014141E+04  0.18178014141E+04  0.25500000920E-02 0. -1.
       -2   -1    0    0    0  501  0.00000000000E+00  0.00000000000E+00 -0.10241668923E+04  0.10241668923E+04  0.25500000920E-02 0.  1.
    10030    2    1    2    0    0  0.00000000000E+00  0.00000000000E+00  0.79363452186E+03  0.28419683064E+04  0.27289060263E+04 0.  0.
        4    1    3    3  502    0  0.99615114179E+03  0.69299512701E+03 -0.25286487237E+03  0.12395570176E+04  0.12699999809E+01 0.  1.
       -4    1    3    3    0  502 -0.99615114179E+03 -0.69299512701E+03  0.10464993942E+04  0.16024112888E+04  0.12699999809E+01 0. -1.
</event>
<event>
 5   0  0.1102175E-06  0.3415449E+04  0.7818609E-02  0.8134125E-01
       -1   -1    0    0    0  501  0.00000000000E+00  0.00000000000E+00  0.12604544290E+04  0.12604544290E+04  0.50400001928E-02 0. -1.
        1   -1    0    0  501    0  0.00000000000E+00  0.00000000000E+00 -0.23137075509E+04  0.23137075509E+04  0.50400001928E-02 0.  1.
    10030    2    1    2    0    0  0.00000000000E+00  0.00000000000E+00 -0.10532531220E+04  0.35741619799E+04  0.34154489778E+04 0.  0.
        5    1    3    3  502    0 -0.12799672865E+04 -0.81047994243E+03  0.29809925196E+03  0.15440463871E+04  0.46999998093E+01 0. -1.
       -5    1    3    3    0  502  0.12799672865E+04  0.81047994243E+03 -0.13513523739E+04  0.20301155928E+04  0.46999998093E+01 0.  1.
</event>
<event>
 5   0  0.1782660E-06  0.2095869E+04  0.7818609E-02  0.8563065E-01
       -2   -1    0    0    0  501  0.00000000000E+00  0.00000000000E+00  0.62280450242E+03  0.62280450243E+03  0.25500000920E-02 0. -1.
        2   -1    0    0  501    0  0.00000000000E+00  0.00000000000E+00 -0.17632604682E+04  0.17632604682E+04  0.25500000920E-02 0.  1.
    10030    2    1    2    0    0  0.00000000000E+00  0.00000000000E+00 -0.11404559658E+04  0.23860649707E+04  0.20958688495E+04 0.  0.
        4    1    3    3  502    0  0.94033681298E+03  0.30231052849E+03 -0.96875433484E+03  0.13835142036E+04  0.12699999809E+01 0.  1.
       -4    1    3    3    0  502 -0.94033681298E+03 -0.30231052849E+03 -0.17170163097E+03  0.10025507670E+04  0.12699999809E+01 0. -1.
</event>
<event>
 5   0  0.3041329E-06  0.3553835E+04  0.7818609E-02  0.8101149E-01
       -2   -1    0    0    0  501  0.00000000000E+00  0.00000000000E+00  0.20118623639E+04  0.20118623639E+04  0.25500000920E-02 0. -1.
        2   -1    0    0  501    0  0.00000000000E+00  0.00000000000E+00 -0.15694093480E+04  0.15694093480E+04  0.25500000920E-02 0.  1.
    10030    2    1    2    0    0  0.00000000000E+00  0.00000000000E+00  0.44245301591E+03  0.35812717119E+04  0.35538348869E+04 0.  0.
        2    1    3    3  502    0  0.64657537392E+03  0.15018755452E+04 -0.47966145208E+03  0.17040437131E+04  0.25500000920E-02 0. -1.
       -2    1    3    3    0  502 -0.64657537392E+03 -0.15018755452E+04  0.92211446799E+03  0.18772279988E+04  0.25500000920E-02 0.  1.
</event>
<event>
 5   0  0.3378848E-06  0.3549612E+04  0.7818609E-02  0.8102132E-01
       -2   -1    0    0    0  501  0.00000000000E+00  0.00000000000E+00  0.17492563098E+04  0.17492563098E+04  0.25500000920E-02 0.  1.
        2   -1    0    0  501    0  0.00000000000E+00  0.00000000000E+00 -0.18007291869E+04  0.18007291869E+04  0.25500000920E-02 0. -1.
    10030    2    1    2    0    0  0.00000000000E+00  0.00000000000E+00 -0.51472877161E+02  0.35499854967E+04  0.35496123126E+04 0.  0.
        1    1    3    3  502    0  0.34541858371E+03  0.56334389509E+03  0.16216363462E+04  0.17511067305E+04  0.50400001928E-02 0.  1.
       -1    1    3    3    0  502 -0.34541858371E+03 -0.56334389509E+03 -0.16731092234E+04  0.17988787662E+04  0.50400001928E-02 0. -1.
</event>
<event>
 5   0  0.1125196E-06  0.1977055E+04  0.7818609E-02  0.8617424E-01
        1   -1    0    0  501    0  0.00000000000E+00  0.00000000000E+00  0.14842497276E+04  0.14842497276E+04  0.50400001928E-02 0.  1.
       -1   -1    0    0    0  501  0.00000000000E+00  0.00000000000E+00 -0.65837044195E+03  0.65837044197E+03  0.50400001928E-02 0. -1.
    10030    2    1    2    0    0  0.00000000000E+00  0.00000000000E+00  0.82587928562E+03  0.21426201696E+04  0.19770545254E+04 0.  0.
        4    1    3    3  502    0  0.86167021413E+03 -0.36342333465E+03  0.65748284196E+02  0.93748414806E+03  0.12699999809E+01 0. -1.
       -4    1    3    3    0  502 -0.86167021413E+03  0.36342333465E+03  0.76013100143E+03  0.12051360215E+04  0.12699999809E+01 0.  1.
</event>
<event>
 5   0  0.1089337E-06  0.3515047E+04  0.7818609E-02  0.8110233E-01
       -1   -1    0    0    0  501  0.00000000000E+00  0.00000000000E+00  0.13709390844E+04  0.13709390844E+04  0.50400001928E-02 0. -1.
        1   -1    0    0  501    0  0.00000000000E+00  0.00000000000E+00 -0.22531190560E+04  0.22531190560E+04  0.50400001928E-02 0.  1.
    10030    2    1    2    0    0  0.00000000000E+00  0.00000000000E+00 -0.88217997167E+03  0.36240581404E+04  0.35150470698E+04 0.  0.
        2    1    3    3  502    0 -0.29138638320E+03  0.15860689153E+04 -0.11615962575E+04  0.19874170407E+04  0.25500000920E-02 0.  1.
       -2    1    3    3    0  502  0.29138638320E+03 -0.15860689153E+04  0.27941628579E+03  0.16366410997E+04  0.25500000920E-02 0. -1.
</event>
<event>
 5   0  0.3378848E-06  0.3509050E+04  0.7818609E-02  0.8111649E-01
        2   -1    0    0  501    0  0.00000000000E+00  0.00000000000E+00  0.22034662130E+04  0.22034662130E+04  0.25500000920E-02 0.  1.
       -2   -1    0    0    0  501  0.00000000000E+00  0.00000000000E+00 -0.13970524856E+04  0.13970524856E+04  0.25500000920E-02 0. -1.
    10030    2    1    2    0    0  0.00000000000E+00  0.00000000000E+00  0.80641372738E+03  0.36005186986E+04  0.35090499853E+04 0.  0.
        1    1    3    3  502    0 -0.22640784446E+03 -0.15300890357E+03  0.21814975769E+04  0.21985458637E+04  0.50400001928E-02 0.  1.
       -1    1    3    3    0  502  0.22640784446E+03  0.15300890357E+03 -0.13750838495E+04  0.14019728349E+04  0.50400001928E-02 0. -1.
</event>
<event>
 5   0  0.3041329E-06  0.2754085E+04  0.7818609E-02  0.8317667E-01
        2   -1    0    0  501    0  0.00000000000E+00  0.00000000000E+00  0.14474467242E+04  0.14474467242E+04  0.25500000920E-02 0.  1.
       -2   -1    0    0    0  501  0.00000000000E+00  0.00000000000E+00 -0.13100629343E+04  0.13100629343E+04  0.25500000920E-02 0. -1.
    10030    2    1    2    0    0  0.00000000000E+00  0.00000000000E+00  0.13738378989E+03  0.27575096585E+04  0.27540851859E+04 0.  0.
        2    1    3    3  502    0 -0.47865543507E+03  0.33656110008E+03 -0.11793980449E+04  0.13165728799E+04  0.25500000920E-02 0. -1.
       -2    1    3    3    0  502  0.47865543507E+03 -0.33656110008E+03  0.13167818348E+04  0.14409367787E+04  0.25500000920E-02 0.  1.
</event>
<event>
 5   0  0.1089337E-06  0.3621944E+04  0.7818609E-02  0.8085484E-01
       -1   -1    0    0    0  501  0.00000000000E+00  0.00000000000E+00  0.15335265201E+04  0.15335265201E+04  0.50400001928E-02 0.  1.
        1   -1    0    0  501    0  0.00000000000E+00  0.00000000000E+00 -0.21386126079E+04  0.21386126079E+04  0.50400001928E-02 0. -1.
    10030    2    1    2    0    0  0.00000000000E+00  0.00000000000E+00 -0.60508608784E+03  0.36721391280E+04  0.36219437601E+04 0.  0.
        2    1    3    3  502    0 -0.13004126867E+04 -0.10877855540E+04 -0.94797266620E+03  0.19424218757E+04  0.25500000920E-02 0.  1.
       -2    1    3    3    0  502  0.13004126867E+04  0.10877855540E+04  0.34288657836E+03  0.17297172523E+04  0.25500000920E-02 0. -1.
</event>
<event>
 5   0  0.1782660E-06  0.3066836E+04  0.7818609E-02  0.8224899E-01
       -2   -1    0    0    0  501  0.00000000000E+00  0.00000000000E+00  0.12272019538E+04  0.12272019538E+04  0.25500000920E-02 0. -1.
        2   -1    0    0  501    0  0.00000000000E+00  0.00000000000E+00 -0.19160424287E+04  0.19160424287E+04  0.25500000920E-02 0.  1.
    10030    2    1    2    0    0  0.00000000000E+00  0.00000000000E+00 -0.68884047484E+03  0.31432443825E+04  0.30668361627E+04 0.  0.
        4    1    3    3  502    0 -0.12416868328E+04 -0.85656017034E+03 -0.62079339314E+02  0.15097473210E+04  0.12699999809E+01 0. -1.
       -4    1    3    3    0  502  0.12416868328E+04  0.85656017034E+03 -0.62676113553E+03  0.16334970615E+04  0.12699999809E+01 0.  1.
</event>
<event>
 5   0  0.1908726E-06  0.3128047E+04  0.7818609E-02  0.8208083E-01
        2   -1    0    0  501    0  0.00000000000E+00  0.00000000000E+00  0.22142928102E+04  0.22142928102E+04  0.25500000920E-02 0. -1.
       -2   -1    0    0    0  501  0.00000000000E+00  0.00000000000E+00 -0.11047180349E+04  0.11047180349E+04  0.25500000920E-02 0.  1.
    10030    2    1    2    0    0  0.00000000000E+00  0.00000000000E+00  0.11095747753E+04  0.33190108452E+04  0.31280468041E+04 0.  0.
        5    1    3    3  502    0 -0.67692411422E+03 -0.12852345360E+04 -0.60340179220E+02  0.14538628189E+04  0.46999998093E+01 0.  1.
       -5    1    3    3    0  502  0.67692411422E+03  0.12852345360E+04  0.11699149545E+04  0.18651480263E+04  0.46999998093E+01 0. -1.
</event>
<event>
 5   0  0.4053240E-06  0.1766810E+04  0.7818609E-02  0.8724151E-01
       -2   -1    0    0    0  501  0.00000000000E+00  0.00000000000E+00  0.68430983213E+03  0.68430983213E+03  0.25500000920E-02 0. -1.
        2   -1    0    0  501    0  0.00000000000E+00  0.00000000000E+00 -0.11404260752E+04  0.11404260752E+04  0.25500000920E-02 0.  1.
    10030    2    1    2    0    0  0.00000000000E+00  0.00000000000E+00 -0.45611624310E+03  0.18247359074E+04  0.17668104325E+04 0.  0.
        3    1    3    3  502    0 -0.84461542169E+03  0.12471031143E+02 -0.49513654686E+03  0.97912764612E+03  0.10100000352E+00 0. -1.
       -3    1    3    3    0  502  0.84461542169E+03 -0.12471031143E+02  0.39020303757E+02  0.84560826124E+03  0.10100000352E+00 0.  1.
</event>
<event>
 5   0  0.1908726E-06  0.3026129E+04  0.7818609E-02  0.8236309E-01
       -2   -1    0    0    0  501  0.00000000000E+00  0.00000000000E+00  0.15235005683E+04  0.15235005683E+04  0.25500000920E-02 0.  1.
        2   -1    0    0  501    0  0.00000000000E+00  0.00000000000E+00 -0.15027003736E+04  0.15027003736E+04  0.25500000920E-02 0. -1.
    10030    2    1    2    0    0  0.00000000000E+00  0.00000000000E+00  0.20800194684E+02  0.30262009420E+04  0.30261294574E+04 0.  0.
        5    1    3    3  502    0 -0.90808087886E+03  0.11118153091E+04  0.48853127124E+03  0.15163868428E+04  0.46999998093E+01 0.  1.
       -5    1    3    3    0  502  0.90808087886E+03 -0.11118153091E+04 -0.46773107656E+03  0.15098140992E+04  0.46999998093E+01 0. -1.
</event>
<event>
 5   0  0.1125196E-06  0.3447486E+04  0.7818609E-02  0.8126349E-01
       -1   -1    0    0    0  501  0.00000000000E+00  0.00000000000E+00  0.14257262312E+04  0.14257262312E+04  0.50400001928E-02 0. -1.
        1   -1    0    0  501    0  0.00000000000E+00  0.00000000000E+00 -0.20840532827E+04  0.20840532828E+04  0.50400001928E-02 0.  1.
    10030    2    1    2    0    0  0.00000000000E+00  0.00000000000E+00 -0.65832705155E+03  0.35097795140E+04  0.34474857113E+04 0.  0.
        4    1    3    3  502    0  0.11269657570E+04  0.90593627003E+03  0.62614984623E+03  0.15757022516E+04  0.12699999809E+01 0. -1.
       -4    1    3    3    0  502 -0.11269657570E+04 -0.90593627003E+03 -0.12844768978E+04  0.19340772623E+04  0.12699999809E+01 0.  1.
</event>
<event>
 5   0  0.1130707E-06  0.3131241E+04  0.7818609E-02  0.8207216E-01
        1   -1    0    0  501    0  0.00000000000E+00  0.00000000000E+00  0.10750391897E+04  0.10750391897E+04  0.50400001928E-02 0.  1.
       -1   -1    0    0    0  501  0.00000000000E+00  0.00000000000E+00 -0.22800721877E+04  0.22800721877E+04  0.50400001928E-02 0. -1.
    10030    2    1    2    0    0  0.00000000000E+00  0.00000000000E+00 -0.12050329980E+04  0.33551113774E+04  0.31312406213E+04 0.  0.
        3    1    3    3  502    0 -0.62599572641E+03  0.13243015505E+04 -0.10257687400E+02  0.14648380376E+04  0.10100000352E+00 0.  1.
       -3    1    3    3    0  502  0.62599572641E+03 -0.13243015505E+04 -0.11947753106E+04  0.18902733398E+04  0.10100000352E+00 0. -1.
</event>
<event>
 5   0  0.1782660E-06  0.3464387E+04  0.7818609E-02  0.8122282E-01
        2   -1    0    0  501    0  0.00000000000E+00  0.00000000000E+00  0.16947157747E+04  0.16947157747E+04  0.25500000920E-02 0.  1.
       -2   -1    0    0    0  501  0.00000000000E+00  0.00000000000E+00 -0.17704996454E+04  0.17704996454E+04  0.25500000920E-02 0. -1.
    10030    2    1    2    0    0  0.00000000000E+00  0.00000000000E+00 -0.75783870706E+02  0.34652154201E+04  0.34643866286E+04 0.  0.
        4    1    3    3  502    0  0.16126859833E+04  0.42833080570E+03  0.42726631118E+03  0.17224347516E+04  0.12699999809E+01 0.  1.
       -4    1    3    3    0  502 -0.16126859833E+04 -0.42833080570E+03 -0.50305018188E+03  0.17427806685E+04  0.12699999809E+01 0. -1.
</event>
<event>
 5   0  0.1125196E-06  0.3567764E+04  0.7818609E-02  0.8097916E-01
        1   -1    0    0  501    0  0.00000000000E+00  0.00000000000E+00  0.18743359093E+04  0.18743359093E+04  0.50400001928E-02 0.  1.
       -1   -1    0    0    0  501  0.00000000000E+00  0.00000000000E+00 -0.16977932524E+04  0.16977932524E+04  0.50400001928E-02 0. -1.
    10030    2    1    2    0    0  0.00000000000E+00  0.00000000000E+00  0.17654265688E+03  0.35721291616E+04  0.35677639269E+04 0.  0.
        4    1    3    3  502    0 -0.71338080759E+03  0.99263830124E+03 -0.12125451012E+04  0.17217753073E+04  0.12699999809E+01 0. -1.
       -4    1    3    3    0  502  0.71338080759E+03 -0.99263830124E+03  0.13890877580E+04  0.18503538543E+04  0.12699999809E+01 0.  1.
</event>
<event>
 5   0  0.3041329E-06  0.2996543E+04  0.7818609E-02  0.8244719E-01
        2   -1    0    0  501    0  0.00000000000E+00  0.00000000000E+00  0.93780790283E+03  0.93780790284E+03  0.25500000920E-02 0.  1.
       -2   -1    0    0    0  501  0.00000000000E+00  0.00000000000E+00 -0.23936864557E+04  0.23936864557E+04  0.25500000920E-02 0. -1.
    10030    2    1    2    0    0  0.00000000000E+00  0.00000000000E+00 -0.14558785529E+04  0.33314943585E+04  0.29965433920E+04 0.  0.
        2    1    3    3  502    0 -0.13709488871E+04 -0.59588515986E+03 -0.84043297597E+03  0.17149074500E+04  0.25500000920E-02 0.  1.
       -2    1    3    3    0  502  0.13709488871E+04  0.59588515986E+03 -0.61544557691E+03  0.16165869086E+04  0.25500000920E-02 0. -1.
</event>
<event>
 5   0  0.1089337E-06  0.2513639E+04  0.7818609E-02  0.8398143E-01
        1   -1    0    0  501    0  0.00000000000E+00  0.00000000000E+00  0.19981032099E+04  0.19981032099E+04  0.50400001928E-02 0. -1.
       -1   -1    0    0    0  501  0.00000000000E+00  0.00000000000E+00 -0.79054730462E+03  0.79054730463E+03  0.50400001928E-02 0.  1.
    10030    2    1    2    0    0  0.00000000000E+00  0.00000000000E+00  0.12075559053E+04  0.27886505146E+04  0.25136388818E+04 0.  0.
        2    1    3    3  502    0  0.55610249444E+03 -0.10731404975E+04  0.98602422849E+03  0.15598475216E+04  0.25500000920E-02 0. -1.
       -2    1    3    3    0  502 -0.55610249444E+03  0.10731404975E+04  0.22153167683E+03  0.12288029929E+04  0.25500000920E-02 0.  1.
</event>
<event>
 5   0  0.1110956E-06  0.2435651E+04  0.7818609E-02  0.8426276E-01
       -1   -1    0    0    0  501  0.00000000000E+00  0.00000000000E+00  0.64928627555E+03  0.64928627557E+03  0.50400001928E-02 0. -1.
        1   -1    0    0  501    0  0.00000000000E+00  0.00000000000E+00 -0.22841992292E+04  0.22841992292E+04  0.50400001928E-02 0.  1.
    10030    2    1    2    0    0  0.00000000000E+00  0.00000000000E+00 -0.16349129536E+04  0.29334855048E+04  0.24356512149E+04 0.  0.
        1    1    3    3  502    0 -0.21735275896E+03 -0.22070172461E+03  0.60104635773E+03  0.67617172171E+03  0.50400001928E-02 0. -1.
       -1    1    3    3    0  502  0.21735275896E+03  0.22070172461E+03 -0.22359593114E+04  0.22573137831E+04  0.50400001928E-02 0.  1.
</event>
<event>
 5   0  0.2565004E-06  0.3457340E+04  0.7818609E-02  0.8123975E-01
        2   -1    0    0  501    0  0.00000000000E+00  0.00000000000E+00  0.21926283109E+04  0.21926283109E+04  0.25500000920E-02 0.  1.
       -2   -1    0    0    0  501  0.00000000000E+00  0.00000000000E+00 -0.13628852659E+04  0.13628852659E+04  0.25500000920E-02 0. -1.
    10030    2    1    2    0    0  0.00000000000E+00  0.00000000000E+00  0.82974304503E+03  0.35555135769E+04  0.34573404916E+04 0.  0.
        3    1    3    3  502    0 -0.16457198230E+04 -0.51964469071E+03  0.31266914080E+03  0.17539060244E+04  0.10100000352E+00 0.  1.
       -3    1    3    3    0  502  0.16457198230E+04  0.51964469071E+03  0.51707390423E+03  0.18016075525E+04  0.10100000352E+00 0. -1.
</event>
<event>
 5   0  0.1130707E-06  0.2648347E+04  0.7818609E-02  0.8351962E-01
        1   -1    0    0  501    0  0.00000000000E+00  0.00000000000E+00  0.25587435506E+04  0.25587435507E+04  0.50400001928E-02 0. -1.
       -1   -1    0    0    0  501  0.00000000000E+00  0.00000000000E+00 -0.68527198235E+03  0.68527198237E+03  0.50400001928E-02 0.  1.
    10030    2    1    2    0    0  0.00000000000E+00  0.00000000000E+00  0.18734715683E+04  0.32440155330E+04  0.26483468544E+04 0.  0.
        3    1    3    3  502    0 -0.77624751600E+03  0.22207721934E+03  0.22223524701E+04  0.23644722474E+04  0.10100000352E+00 0. -1.
       -3    1    3    3    0  502  0.77624751600E+03 -0.22207721934E+03 -0.34888090176E+03  0.87954328561E+03  0.10100000352E+00 0.  1.
</event>
<event>
 5   0  0.1908726E-06  0.1741362E+04  0.7818609E-02  0.8738120E-01
       -2   -1    0    0    0  501  0.00000000000E+00  0.00000000000E+00  0.65857989162E+03  0.65857989162E+03  0.25500000920E-02 0.  1.
        2   -1    0    0  501    0  0.00000000000E+00  0.00000000000E+00 -0.11510908802E+04  0.11510908802E+04  0.25500000920E-02 0. -1.
    10030    2    1    2    0    0  0.00000000000E+00  0.00000000000E+00 -0.49251098856E+03  0.18096707718E+04  0.17413618890E+04 0.  0.
        5    1    3    3  502    0 -0.78911255177E+03 -0.35671322789E+03 -0.15260807936E+03  0.87934877164E+03  0.46999998093E+01 0.  1.
       -5    1    3    3    0  502  0.78911255177E+03  0.35671322789E+03 -0.33990290919E+03  0.93032200016E+03  0.46999998093E+01 0. -1.
</event>
<event>
 5   0  0.1782660E-06  0.3578688E+04  0.7818609E-02  0.8095391E-01
       -2   -1    0    0    0  501  0.00000000000E+00  0.00000000000E+00  0.13431139215E+04  0.13431139215E+04  0.25500000920E-02 0. -1.
        2   -1    0    0  501    0  0.00000000000E+00  0.00000000000E+00 -0.23838274831E+04  0.23838274831E+04  0.25500000920E-02 0.  1.
    10030    2    1    2    0    0  0.00000000000E+00  0.00000000000E+00 -0.10407135616E+04  0.37269414046E+04  0.35786879601E+04 0.  0.
        4    1    3    3  502    0 -0.74377134996E+03 -0.13204436097E+04 -0.15110723125E+04  0.21401187570E+04  0.12699999809E+01 0.  1.
       -4    1    3    3    0  502  0.74377134996E+03  0.13204436097E+04  0.47035875088E+03  0.15868226476E+04  0.12699999809E+01 0. -1.
</event>
<event>
 5   0  0.1089337E-06  0.2620427E+04  0.7818609E-02  0.8361295E-01
       -1   -1    0    0    0  501  0.00000000000E+00  0.00000000000E+00  0.10077801082E+04  0.10077801083E+04  0.50400001928E-02 0. -1.
        1   -1    0    0  501    0  0.00000000000E+00  0.00000000000E+00 -0.17034071123E+04  0.17034071123E+04  0.50400001928E-02 0.  1.
    10030    2    1    2    0    0  0.00000000000E+00  0.00000000000E+00 -0.69562700408E+03  0.27111872206E+04  0.26204272965E+04 0.  0.
        2    1    3    3  502    0 -0.58183169449E+03  0.88002766347E+01 -0.15623779082E+04  0.16672223288E+04  0.25500000920E-02 0.  1.
       -2    1    3    3    0  502  0.58183169449E+03 -0.88002766347E+01  0.86675090409E+03  0.10439648918E+04  0.25500000920E-02 0. -1.
</event>
<event>
 5   0  0.2275986E-06  0.1747878E+04  0.7818609E-02  0.8734519E-01
        2   -1    0    0  501    0  0.00000000000E+00  0.00000000000E+00  0.12483617023E+04  0.12483617023E+04  0.25500000920E-02 0. -1.
       -2   -1    0    0    0  501  0.00000000000E+00  0.00000000000E+00 -0.61181729411E+03  0.61181729412E+03  0.25500000920E-02 0.  1.
    10030    2    1    2    0    0  0.00000000000E+00  0.00000000000E+00  0.63654440815E+03  0.18601789964E+04  0.17478778891E+04 0.  0.
        4    1    3    3  502    0  0.18250476090E+03 -0.75498631211E+03  0.74457751624E+03  0.10759691491E+04  0.12699999809E+01 0. -1.
       -4    1    3    3    0  502 -0.18250476090E+03  0.75498631211E+03 -0.10803310809E+03  0.78420984728E+03  0.12699999809E+01 0.  1.
</event>
<event>
 5   0  0.1782660E-06  0.3472274E+04  0.7818609E-02  0.8120392E-01
       -2   -1    0    0    0  501  0.00000000000E+00  0.00000000000E+00  0.17964513792E+04  0.17964513792E+04  0.25500000920E-02 0. -1.
        2   -1    0    0  501    0  0.00000000000E+00  0.00000000000E+00 -0.16778478245E+04  0.16778478245E+04  0.25500000920E-02 0.  1.
    10030    2    1    2    0    0  0.00000000000E+00  0.00000000000E+00  0.11860355468E+03  0.34742992037E+04  0.34722742049E+04 0.  0.
        4    1    3    3  502    0  0.50843961154E+03 -0.12729871746E+04 -0.10067599752E+04  0.17007570214E+04  0.12699999809E+01 0.  1.
       -4    1    3    3    0  502 -0.50843961154E+03  0.12729871746E+04  0.11253635299E+04  0.17735421823E+04  0.12699999809E+01 0. -1.
</event>
<event>
 5   0  0.1908726E-06  0.3521291E+04  0.7818609E-02  0.8108763E-01
       -2   -1    0    0    0  501  0.00000000000E+00  0.00000000000E+00  0.23520697053E+04  0.23520697053E+04  0.25500000920E-02 0.  1.
        2   -1    0    0  501    0  0.00000000000E+00  0.00000000000E+00 -0.13179340328E+04  0.13179340328E+04  0.25500000920E-02 0. -1.
    10030    2    1    2    0    0  0.00000000000E+00  0.00000000000E+00  0.10341356725E+04  0.36700037381E+04  0.35212910769E+04 0.  0.
        5    1    3    3  502    0  0.85300098802E+03  0.91811824606E+03  0.18059427105E+04  0.21981817402E+04  0.46999998093E+01 0.  1.
       -5    1    3    3    0  502 -0.85300098802E+03 -0.91811824606E+03 -0.77180703809E+03  0.14718219979E+04  0.46999998093E+01 0. -1.
</event>
<event>
 5   0  0.1465524E-06  0.1806781E+04  0.7818609E-02  0.8702702E-01
       -1   -1    0    0    0  501  0.00000000000E+00  0.00000000000E+00  0.56049848918E+03  0.56049848920E+03  0.50400001928E-02 0.  1.
        1   -1    0    0  501    0  0.00000000000E+00  0.00000000000E+00 -0.14560511819E+04  0.14560511819E+04  0.50400001928E-02 0. -1.
    10030    2    1    2    0    0  0.00000000000E+00  0.00000000000E+00 -0.89555269274E+03  0.20165496711E+04  0.18067811020E+04 0.  0.
        1    1    3    3  502    0  0.60262704656E+03  0.82175018366E+02  0.29776088037E+03  0.67718065004E+03  0.50400001928E-02 0.  1.
       -1    1    3    3    0  502 -0.60262704656E+03 -0.82175018366E+02 -0.11933135731E+04  0.13393690211E+04  0.50400001928E-02 0. -1.
</event>
<event>
 5   0  0.1130707E-06  0.3601022E+04  0.7818609E-02  0.8090258E-01
        1   -1    0    0  501    0  0.00000000000E+00  0.00000000000E+00  0.14485653555E+04  0.14485653555E+04  0.50400001928E-02 0.  1.
       -1   -1    0    0    0  501  0.00000000000E+00  0.00000000000E+00 -0.22379653375E+04  0.22379653376E+04  0.50400001928E-02 0. -1.
    10030    2    1    2    0    0  0.00000000000E+00  0.00000000000E+00 -0.78939998209E+03  0.36865306930E+04  0.36010215521E+04 0.  0.
        3    1    3    3  502    0  0.17577765088E+04  0.89224907103E+02 -0.78331867831E+03  0.19264805996E+04  0.10100000352E+00 0. -1.
       -3    1    3    3    0  502 -0.17577765088E+04 -0.89224907103E+02 -0.60813037825E+01  0.17600500934E+04  0.10100000352E+00 0.  1.
</event>
<event>
 5   0  0.1782660E-06  0.2630508E+04  0.7818609E-02  0.8357912E-01
       -2   -1    0    0    0  501  0.00000000000E+00  0.00000000000E+00  0.99221819528E+03  0.99221819528E+03  0.25500000920E-02 0. -1.
        2   -1    0    0  501    0  0.00000000000E+00  0.00000000000E+00 -0.17434606648E+04  0.17434606648E+04  0.25500000920E-02 0.  1.
    10030    2    1    2    0    0  0.00000000000E+00  0.00000000000E+00 -0.75124246949E+03  0.27356788600E+04  0.26305082356E+04 0.  0.
        4    1    3    3  502    0  0.37811320499E+03  0.82084066704E+03 -0.13694116289E+04  0.16407433738E+04  0.12699999809E+01 0.  1.
       -4    1    3    3    0  502 -0.37811320499E+03 -0.82084066704E+03  0.61816915942E+03  0.10949354862E+04  0.12699999809E+01 0. -1.
</event>
<event>
 5   0  0.1089337E-06  0.3475819E+04  0.7818609E-02  0.8119545E-01
       -1   -1    0    0    0  501  0.00000000000E+00  0.00000000000E+00  0.15173839647E+04  0.15173839647E+04  0.50400001928E-02 0. -1.
        1   -1    0    0  501    0  0.00000000000E+00  0.00000000000E+00 -0.19904845106E+04  0.19904845106E+04  0.50400001928E-02 0.  1.
    10030    2    1    2    0    0  0.00000000000E+00  0.00000000000E+00 -0.47310054590E+03  0.35078684754E+04  0.34758189127E+04 0.  0.
        2    1    3    3  502    0  0.15334966033E+04  0.81771592424E+03 -0.22885677485E+03  0.17528966280E+04  0.25500000920E-02 0.  1.
       -2    1    3    3    0  502 -0.15334966033E+04 -0.81771592424E+03 -0.24424377105E+03  0.17549718473E+04  0.25500000920E-02 0. -1.
</event>
<event>
 5   0  0.1089337E-06  0.3495464E+04  0.7818609E-02  0.8114866E-01
       -1   -1    0    0    0  501  0.00000000000E+00  0.00000000000E+00  0.15668568120E+04  0.15668568120E+04  0.50400001928E-02 0. -1.
        1   -1    0    0  501    0  0.00000000000E+00  0.00000000000E+00 -0.19494871662E+04  0.19494871662E+04  0.50400001928E-02 0.  1.
    10030    2    1    2    0    0  0.00000000000E+00  0.00000000000E+00 -0.38263035427E+03  0.35163439782E+04  0.34954640586E+04 0.  0.
        2    1    3    3  502    0 -0.62858998769E+03 -0.16004339601E+04  0.12368948597E+03  0.17238948118E+04  0.25500000920E-02 0.  1.
       -2    1    3    3    0  502  0.62858998769E+03  0.16004339601E+04 -0.50631984024E+03  0.17924491664E+04  0.25500000920E-02 0. -1.
</event>
<event>
 5   0  0.1130707E-06  0.3088219E+04  0.7818609E-02  0.8218979E-01
       -1   -1    0    0    0  501  0.00000000000E+00  0.00000000000E+00  0.10165896928E+04  0.10165896928E+04  0.50400001928E-02 0. -1.
        1   -1    0    0  501    0  0.00000000000E+00  0.00000000000E+00 -0.23453654232E+04  0.23453654232E+04  0.50400001928E-02 0.  1.
    10030    2    1    2    0    0  0.00000000000E+00  0.00000000000E+00 -0.13287757304E+04  0.33619551161E+04  0.30882191082E+04 0.  0.
        3    1    3    3  502    0  0.62926834889E+03 -0.10518464702E+04  0.35795621008E+03  0.12769073225E+04  0.10100000352E+00 0. -1.
       -3    1    3    3    0  502 -0.62926834889E+03  0.10518464702E+04 -0.16867319405E+04  0.20850477935E+04  0.10100000352E+00 0.  1.
</event>
<event>
 5   0  0.1782660E-06  0.3469352E+04  0.7818609E-02  0.8121092E-01
       -2   -1    0    0    0  501  0.00000000000E+00  0.00000000000E+00  0.19478777352E+04  0.19478777352E+04  0.25500000920E-02 0. -1.
        2   -1    0    0  501    0  0.00000000000E+00  0.00000000000E+00 -0.15448099732E+04  0.15448099732E+04  0.25500000920E-02 0.  1.
    10030    2    1    2    0    0  0.00000000000E+00  0.00000000000E+00  0.40306776203E+03  0.34926877084E+04  0.34693520732E+04 0.  0.
        4    1    3    3  502    0 -0.13019021143E+04  0.39454754400E+03 -0.88203397280E+03  0.16212965249E+04  0.12699999809E+01 0.  1.
       -4    1    3    3    0  502  0.13019021143E+04 -0.39454754400E+03  0.12851017348E+04  0.18713911834E+04  0.12699999809E+01 0. -1.
</event>
<event>
 5   0  0.1102175E-06  0.1991800E+04  0.7818609E-02  0.8610464E-01
        1   -1    0    0  501    0  0.00000000000E+00  0.00000000000E+00  0.84876465514E+03  0.84876465516E+03  0.50400001928E-02 0. -1.
       -1   -1    0    0    0  501  0.00000000000E+00  0.00000000000E+00 -0.11685413474E+04  0.11685413475E+04  0.50400001928E-02 0.  1.
    10030    2    1    2    0    0  0.00000000000E+00  0.00000000000E+00 -0.31977669231E+03  0.20173060026E+04  0.19917997829E+04 0.  0.
        5    1    3    3  502    0  0.84941734985E+03  0.40765284340E+03  0.16689465086E+03  0.95685243870E+03  0.46999998093E+01 0. -1.
       -5    1    3    3    0  502 -0.84941734985E+03 -0.40765284340E+03 -0.48667134317E+03  0.10604535639E+04  0.46999998093E+01 0.  1.
</event>
<event>
 5   0  0.3041329E-06  0.3518022E+04  0.7818609E-02  0.8109532E-01
        2   -1    0    0  501    0  0.00000000000E+00  0.00000000000E+00  0.19811332062E+04  0.19811332063E+04  0.25500000920E-02 0. -1.
       -2   -1    0    0    0  501  0.00000000000E+00  0.00000000000E+00 -0.15617928514E+04  0.15617928514E+04  0.25500000920E-02 0.  1.
    10030    2    1    2    0    0  0.00000000000E+00  0.00000000000E+00  0.41934035488E+03  0.35429260576E+04  0.35180219892E+04 0.  0.
        2    1    3    3  502    0 -0.38672020344E+02 -0.16455925523E+04 -0.41492124437E+03  0.16975364539E+04  0.25500000920E-02 0. -1.
       -2    1    3    3    0  502  0.38672020344E+02  0.16455925523E+04  0.83426159925E+03  0.18453896037E+04  0.25500000920E-02 0.  1.
</event>
<event>
 5   0  0.1110956E-06  0.1997620E+04  0.7818609E-02  0.8607734E-01
        1   -1    0    0  501    0  0.00000000000E+00  0.00000000000E+00  0.75025774600E+03  0.75025774601E+03  0.50400001928E-02 0.  1.
       -1   -1    0    0    0  501  0.00000000000E+00  0.00000000000E+00 -0.13297052901E+04  0.13297052901E+04  0.50400001928E-02 0. -1.
    10030    2    1    2    0    0  0.00000000000E+00  0.00000000000E+00 -0.57944754406E+03  0.20799630361E+04  0.19976202780E+04 0.  0.
        1    1    3    3  502    0 -0.80585420699E+03  0.13950621744E+03  0.30728582198E+03  0.87366330131E+03  0.50400001928E-02 0.  1.
       -1    1    3    3    0  502  0.80585420699E+03 -0.13950621744E+03 -0.88673336605E+03  0.12062997348E+04  0.50400001928E-02 0. -1.
</event>
<event>
 5   0  0.1089337E-06  0.3455554E+04  0.7818609E-02  0.8124405E-01
        1   -1    0    0  501    0  0.00000000000E+00  0.00000000000E+00  0.29100717366E+04  0.29100717366E+04  0.50400001928E-02 0.  1.
       -1   -1    0    0    0  501  0.00000000000E+00  0.00000000000E+00 -0.10258213122E+04  0.10258213122E+04  0.50400001928E-02 0. -1.
    10030    2    1    2    0    0  0.00000000000E+00  0.00000000000E+00  0.18842504244E+04  0.39358930488E+04  0.34555541423E+04 0.  0.
        2    1    3    3  502    0 -0.11831329882E+04 -0.35922585423E+03 -0.43242611224E+03  0.13099004637E+04  0.25500000920E-02 0. -1.
       -2    1    3    3    0  502  0.11831329882E+04  0.35922585423E+03  0.23166765366E+04  0.26259925852E+04  0.25500000920E-02 0.  1.
</event>
<event>
 5   0  0.3378848E-06  0.1719415E+04  0.7818609E-02  0.8750368E-01
        2   -1    0    0  501    0  0.00000000000E+00  0.00000000000E+00  0.87571797646E+03  0.87571797647E+03  0.25500000920E-02 0. -1.
       -2   -1    0    0    0  501  0.00000000000E+00  0.00000000000E+00 -0.84398972609E+03  0.84398972609E+03  0.25500000920E-02 0.  1.
    10030    2    1    2    0    0  0.00000000000E+00  0.00000000000E+00  0.31728250375E+02  0.17197077026E+04  0.17194149878E+04 0.  0.
        1    1    3    3  502    0 -0.85445212019E+03  0.84496745762E+02 -0.27373424371E+02  0.85905612746E+03  0.50400001928E-02 0. -1.
       -1    1    3    3    0  502  0.85445212019E+03 -0.84496745762E+02  0.59101674746E+02  0.86065157510E+03  0.50400001928E-02 0.  1.
</event>
<event>
 5   0  0.1782660E-06  0.3523882E+04  0.7818609E-02  0.8108154E-01
        2   -1    0    0  501    0  0.00000000000E+00  0.00000000000E+00  0.23980289519E+04  0.23980289519E+04  0.25500000920E-02 0. -1.
       -2   -1    0    0    0  501  0.00000000000E+00  0.00000000000E+00 -0.12945778694E+04  0.12945778694E+04  0.25500000920E-02 0.  1.
    10030    2    1    2    0    0  0.00000000000E+00  0.00000000000E+00  0.11034510825E+04  0.36926068213E+04  0.35238815027E+04 0.  0.
        4    1    3    3  502    0  0.81452519565E+02 -0.83258969803E+03  0.21766478614E+04  0.23318742770E+04  0.12699999809E+01 0. -1.
       -4    1    3    3    0  502 -0.81452519565E+02  0.83258969803E+03 -0.10731967788E+04  0.13607325443E+04  0.12699999809E+01 0.  1.
</event>
<event>
 5   0  0.1782660E-06  0.3601273E+04  0.7818609E-02  0.8090200E-01
       -2   -1    0    0    0  501  0.00000000000E+00  0.00000000000E+00  0.13227081851E+04  0.13227081851E+04  0.25500000920E-02 0.  1.
        2   -1    0    0  501    0  0.00000000000E+00  0.00000000000E+00 -0.24512518837E+04  0.24512518837E+04  0.25500000920E-02 0. -1.
    10030    2    1    2    0    0  0.00000000000E+00  0.00000000000E+00 -0.11285436987E+04  0.37739600688E+04  0.36012725141E+04 0.  0.
        4    1    3    3  502    0 -0.10689676394E+02  0.10413148999E+04  0.97512561089E+03  0.14266473144E+04  0.12699999809E+01 0.  1.
       -4    1    3    3    0  502  0.10689676394E+02 -0.10413148999E+04 -0.21036693095E+04  0.23473127543E+04  0.12699999809E+01 0. -1.
</event>
<event>
 5   0  0.1125196E-06  0.3427058E+04  0.7818609E-02  0.8131297E-01
        1   -1    0    0  501    0  0.00000000000E+00  0.00000000000E+00  0.92723443995E+03  0.92723443996E+03  0.50400001928E-02 0. -1.
       -1   -1    0    0    0  501  0.00000000000E+00  0.00000000000E+00 -0.31666005923E+04  0.31666005923E+04  0.50400001928E-02 0.  1.
    10030    2    1    2    0    0  0.00000000000E+00  0.00000000000E+00 -0.22393661524E+04  0.40938350323E+04  0.34270577041E+04 0.  0.
        4    1    3    3  502    0  0.12372594861E+04  0.62732223102E+03 -0.23212939051E+04  0.27042099076E+04  0.12699999809E+01 0.  1.
       -4    1    3    3    0  502 -0.12372594861E+04 -0.62732223102E+03  0.81927752777E+02  0.13896251247E+04  0.12699999809E+01 0. -1.
</event>
<event>
 5   0  0.1110956E-06  0.1887142E+04  0.7818609E-02  0.8661283E-01
        1   -1    0    0  501    0  0.00000000000E+00  0.00000000000E+00  0.24479383139E+04  0.24479383139E+04  0.50400001928E-02 0.  1.
       -1   -1    0    0    0  501  0.00000000000E+00  0.00000000000E+00 -0.36370448534E+03  0.36370448537E+03  0.50400001928E-02 0. -1.
    10030    2    1    2    0    0  0.00000000000E+00  0.00000000000E+00  0.20842338286E+04  0.28116427993E+04  0.18871419074E+04 0.  0.
        1    1    3    3  502    0  0.26684001300E+03  0.51916381187E+03  0.21466420045E+04  0.22245913224E+04  0.50400001928E-02 0.  1.
       -1    1    3    3    0  502 -0.26684001300E+03 -0.51916381187E+03 -0.62408175920E+02  0.58705147691E+03  0.50400001928E-02 0. -1.
</event>
<event>
 5   0  0.1125196E-06  0.1720858E+04  0.7818609E-02  0.8749557E-01
       -1   -1    0    0    0  501  0.00000000000E+00  0.00000000000E+00  0.66966740463E+03  0.66966740465E+03  0.50400001928E-02 0. -1.
        1   -1    0    0  501    0  0.00000000000E+00  0.00000000000E+00 -0.11055310740E+04  0.11055310740E+04  0.50400001928E-02 0.  1.
    10030    2    1    2    0    0  0.00000000000E+00  0.00000000000E+00 -0.43586366932E+03  0.17751984786E+04  0.17208580709E+04 0.  0.
        4    1    3    3  502    0  0.81923889793E+03  0.14090139585E+03  0.11187397902E+02  0.83134369909E+03  0.12699999809E+01 0. -1.
       -4    1    3    3    0  502 -0.81923889793E+03 -0.14090139585E+03 -0.44705106722E+03  0.94385477953E+03  0.12699999809E+01 0.  1.
</event>
<event>
 5   0  0.1908726E-06  0.2413996E+04  0.7818609E-02  0.8434282E-01
       -2   -1    0    0    0  501  0.00000000000E+00  0.00000000000E+00  0.11002392271E+04  0.11002392271E+04  0.25500000920E-02 0. -1.
        2   -1    0    0  501    0  0.00000000000E+00  0.00000000000E+00 -0.13241153424E+04  0.13241153424E+04  0.25500000920E-02 0.  1.
    10030    2    1    2    0    0  0.00000000000E+00  0.00000000000E+00 -0.22387611534E+03  0.24243545695E+04  0.24139955600E+04 0.  0.
        5    1    3    3  502    0 -0.61044818328E+03  0.10226422995E+04  0.84803834309E+02  0.11940092284E+04  0.46999998093E+01 0.  1.
       -5    1    3    3    0  502  0.61044818328E+03 -0.10226422995E+04 -0.30867994965E+03  0.12303453411E+04  0.46999998093E+01 0. -1.
</event>
<event>
 5   0  0.3378848E-06  0.3458431E+04  0.7818609E-02  0.8123712E-01
        2   -1    0    0  501    0  0.00000000000E+00  0.00000000000E+00  0.11947033178E+04  0.11947033178E+04  0.25500000920E-02 0. -1.
       -2   -1    0    0    0  501  0.00000000000E+00  0.00000000000E+00 -0.25028698452E+04  0.25028698452E+04  0.25500000920E-02 0.  1.
    10030    2    1    2    0    0  0.00000000000E+00  0.00000000000E+00 -0.13081665274E+04  0.36975731630E+04  0.34584313832E+04 0.  0.
        1    1    3    3  502    0  0.11561579339E+04 -0.10652785164E+04  0.11590144040E+03  0.15763732520E+04  0.50400001928E-02 0. -1.
       -1    1    3    3    0  502 -0.11561579339E+04  0.10652785164E+04 -0.14240679678E+04  0.21211999110E+04  0.50400001928E-02 0.  1.
</event>
<event>
 5   0  0.3378848E-06  0.1795315E+04  0.7818609E-02  0.8708795E-01
       -2   -1    0    0    0  501  0.00000000000E+00  0.00000000000E+00  0.27331261383E+03  0.27331261384E+03  0.25500000920E-02 0. -1.
        2   -1    0    0  501    0  0.00000000000E+00  0.00000000000E+00 -0.29482320656E+04  0.29482320656E+04  0.25500000920E-02 0.  1.
    10030    2    1    2    0    0  0.00000000000E+00  0.00000000000E+00 -0.26749194518E+04  0.32215446795E+04  0.17953150276E+04 0.  0.
        1    1    3    3  502    0  0.74015605745E+03 -0.14645592401E+03 -0.46479576793E+03  0.88618024858E+03  0.50400001928E-02 0. -1.
       -1    1    3    3    0  502 -0.74015605745E+03  0.14645592401E+03 -0.22101236838E+04  0.23353644309E+04  0.50400001928E-02 0.  1.
</event>
<event>
 5   0  0.1130707E-06  0.2316649E+04  0.7818609E-02  0.8471385E-01
       -1   -1    0    0    0  501  0.00000000000E+00  0.00000000000E+00  0.57147025179E+03  0.57147025182E+03  0.50400001928E-02 0. -1.
        1   -1    0    0  501    0  0.00000000000E+00  0.00000000000E+00 -0.23478315203E+04  0.23478315203E+04  0.50400001928E-02 0.  1.
    10030    2    1    2    0    0  0.00000000000E+00  0.00000000000E+00 -0.17763612685E+04  0.29193017721E+04  0.23166491924E+04 0.  0.
        3    1    3    3  502    0  0.33480475135E+03  0.50045324008E+02 -0.22841044656E+04  0.23090543466E+04  0.10100000352E+00 0.  1.
       -3    1    3    3    0  502 -0.33480475135E+03 -0.50045324008E+02  0.50774319703E+03  0.61024742549E+03  0.10100000352E+00 0. -1.
</event>
<event>
 5   0  0.1110956E-06  0.3515132E+04  0.7818609E-02  0.8110213E-01
        1   -1    0    0  501    0  0.00000000000E+00  0.00000000000E+00  0.33328734586E+04  0.33328734586E+04  0.50400001928E-02 0.  1.
       -1   -1    0    0    0  501  0.00000000000E+00  0.00000000000E+00 -0.92683918854E+03  0.92683918855E+03  0.50400001928E-02 0. -1.
    10030    2    1    2    0    0  0.00000000000E+00  0.00000000000E+00  0.24060342701E+04  0.42597126471E+04  0.35151317084E+04 0.  0.
        1    1    3    3  502    0  0.17004696817E+04 -0.42152961465E+03  0.10326995918E+04  0.20336550350E+04  0.50400001928E-02 0. -1.
       -1    1    3    3    0  502 -0.17004696817E+04  0.42152961465E+03  0.13733346782E+04  0.22260576122E+04  0.50400001928E-02 0.  1.
</event>
<event>
 5   0  0.1042825E-06  0.3659179E+04  0.7818609E-02  0.8077069E-01
       -3   -1    0    0    0  501  0.00000000000E+00  0.00000000000E+00  0.26531596897E+04  0.26531596916E+04  0.10100000352E+00 0. -1.
        3   -1    0    0  501    0  0.00000000000E+00  0.00000000000E+00 -0.12616649403E+04  0.12616649443E+04  0.10100000352E+00 0.  1.
    10030    2    1    2    0    0  0.00000000000E+00  0.00000000000E+00  0.13914947494E+04  0.39148246360E+04  0.36591794562E+04 0.  0.
        3    1    3    3  502    0 -0.13582882727E+04  0.36686904563E+03  0.19470121298E+04  0.24021648928E+04  0.10100000352E+00 0. -1.
       -3    1    3    3    0  502  0.13582882727E+04 -0.36686904563E+03 -0.55551738035E+03  0.15126597432E+04  0.10100000352E+00 0.  1.
</event>
<event>
 5   0  0.3041329E-06  0.3524973E+04  0.7818609E-02  0.8107897E-01
        2   -1    0    0  501    0  0.00000000000E+00  0.00000000000E+00  0.17105030899E+04  0.17105030899E+04  0.25500000920E-02 0.  1.
       -2   -1    0    0    0  501  0.00000000000E+00  0.00000000000E+00 -0.18160492694E+04  0.18160492694E+04  0.25500000920E-02 0. -1.
    10030    2    1    2    0    0  0.00000000000E+00  0.00000000000E+00 -0.10554617952E+03  0.35265523593E+04  0.35249725598E+04 0.  0.
        2    1    3    3  502    0  0.87936533888E+03 -0.16989649129E+03 -0.15714157417E+04  0.18087276330E+04  0.25500000920E-02 0. -1.
       -2    1    3    3    0  502 -0.87936533888E+03  0.16989649129E+03  0.14658695622E+04  0.17178247263E+04  0.25500000920E-02 0.  1.
</event>
<event>
 5   0  0.1782660E-06  0.2760242E+04  0.7818609E-02  0.8315719E-01
       -2   -1    0    0    0  501  0.00000000000E+00  0.00000000000E+00  0.10451690060E+04  0.10451690060E+04  0.25500000920E-02 0.  1.
        2   -1    0    0  501    0  0.00000000000E+00  0.00000000000E+00 -0.18224175031E+04  0.18224175031E+04  0.25500000920E-02 0. -1.
    10030    2    1    2    0    0  0.00000000000E+00  0.00000000000E+00 -0.77724849714E+03  0.28675865092E+04  0.27602422287E+04 0.  0.
        4    1    3    3  502    0 -0.44338686950E+03 -0.44449935426E+03  0.88822162968E+03  0.10877089998E+04  0.12699999809E+01 0.  1.
       -4    1    3    3    0  502  0.44338686950E+03  0.44449935426E+03 -0.16654701268E+04  0.17798775093E+04  0.12699999809E+01 0. -1.
</event>
<event>
 5   0  0.1782660E-06  0.3238700E+04  0.7818609E-02  0.8178671E-01
        2   -1    0    0  501    0  0.00000000000E+00  0.00000000000E+00  0.21497321563E+04  0.21497321563E+04  0.25500000920E-02 0.  1.
       -2   -1    0    0    0  501  0.00000000000E+00  0.00000000000E+00 -0.12198238037E+04  0.12198238037E+04  0.25500000920E-02 0. -1.
    10030    2    1    2    0    0  0.00000000000E+00  0.00000000000E+00  0.92990835262E+03  0.33695559600E+04  0.32387000206E+04 0.  0.
        4    1    3    3  502    0 -0.22750902244E+03  0.78681218961E+02 -0.12011029983E+04  0.12249902510E+04  0.12699999809E+01 0. -1.
       -4    1    3    3    0  502  0.22750902244E+03 -0.78681218961E+02  0.21310113510E+04  0.21445657090E+04  0.12699999809E+01 0.  1.
</event>
<event>
 5   0  0.1130707E-06  0.3486016E+04  0.7818609E-02  0.8117112E-01
        1   -1    0    0  501    0  0.00000000000E+00  0.00000000000E+00  0.23805054258E+04  0.23805054258E+04  0.50400001928E-02 0.  1.
       -1   -1    0    0    0  501  0.00000000000E+00  0.00000000000E+00 -0.12762320563E+04  0.12762320563E+04  0.50400001928E-02 0. -1.
    10030    2    1    2    0    0  0.00000000000E+00  0.00000000000E+00  0.11042733695E+04  0.36567374821E+04  0.34860162562E+04 0.  0.
        3    1    3    3  502    0  0.30181589993E+03 -0.15705423448E+03 -0.12410609018E+04  0.12868531549E+04  0.10100000352E+00 0. -1.
       -3    1    3    3    0  502 -0.30181589993E+03  0.15705423448E+03  0.23453342713E+04  0.23698843272E+04  0.10100000352E+00 0.  1.
</event>
<event>
 5   0  0.1110956E-06  0.3574961E+04  0.7818609E-02  0.8096251E-01
        1   -1    0    0  501    0  0.00000000000E+00  0.00000000000E+00  0.18576983116E+04  0.18576983116E+04  0.50400001928E-02 0. -1.
       -1   -1    0    0    0  501  0.00000000000E+00  0.00000000000E+00 -0.17199165327E+04  0.17199165327E+04  0.50400001928E-02 0.  1.
    10030    2    1    2    0    0  0.00000000000E+00  0.00000000000E+00  0.13778177896E+03  0.35776148443E+04  0.35749607208E+04 0.  0.
        1    1    3    3  502    0 -0.10512285273E+04  0.52128768348E+03  0.14183221058E+04  0.18407769722E+04  0.50400001928E-02 0. -1.
       -1    1    3    3    0  502  0.10512285273E+04 -0.52128768348E+03 -0.12805403268E+04  0.17368378721E+04  0.50400001928E-02 0.  1.
</event>
<event>
 5   0  0.1782660E-06  0.3492501E+04  0.7818609E-02  0.8115569E-01
       -2   -1    0    0    0  501  0.00000000000E+00  0.00000000000E+00  0.18153962797E+04  0.18153962797E+04  0.25500000920E-02 0.  1.
        2   -1    0    0  501    0  0.00000000000E+00  0.00000000000E+00 -0.16797383995E+04  0.16797383995E+04  0.25500000920E-02 0. -1.
    10030    2    1    2    0    0  0.00000000000E+00  0.00000000000E+00  0.13565788019E+03  0.34951346793E+04  0.34925010187E+04 0.  0.
        4    1    3    3  502    0 -0.14029352504E+03 -0.11063623665E+04  0.14125941876E+04  0.17997621818E+04  0.12699999809E+01 0.  1.
       -4    1    3    3    0  502  0.14029352504E+03  0.11063623665E+04 -0.12769363074E+04  0.16953724975E+04  0.12699999809E+01 0. -1.
</event>
<event>
 5   0  0.2565004E-06  0.3260987E+04  0.7818609E-02  0.8172894E-01
        2   -1    0    0  501    0  0.00000000000E+00  0.00000000000E+00  0.13509672103E+04  0.13509672103E+04  0.25500000920E-02 0. -1.
       -2   -1    0    0    0  501  0.00000000000E+00  0.00000000000E+00 -0.19678562226E+04  0.19678562226E+04  0.25500000920E-02 0.  1.
    10030    2    1    2    0    0  0.00000000000E+00  0.00000000000E+00 -0.61688901226E+03  0.33188234329E+04  0.32609871091E+04 0.  0.
        3    1    3    3  502    0  0.52659253964E+03  0.17323462917E+03  0.12521130326E+04  0.13693418113E+04  0.10100000352E+00 0. -1.
       -3    1    3    3    0  502 -0.52659253964E+03 -0.17323462917E+03 -0.18690020448E+04  0.19494816217E+04  0.10100000352E+00 0.  1.
</event>
<event>
 5   0  0.1908726E-06  0.1722629E+04  0.7818609E-02  0.8748563E-01
        2   -1    0    0  501    0  0.00000000000E+00  0.00000000000E+00  0.12406529579E+04  0.12406529579E+04  0.25500000920E-02 0.  1.
       -2   -1    0    0    0  501  0.00000000000E+00  0.00000000000E+00 -0.59796132471E+03  0.59796132472E+03  0.25500000920E-02 0. -1.
    10030    2    1    2    0    0  0.00000000000E+00  0.00000000000E+00  0.64269163316E+03  0.18386142826E+04  0.17226287890E+04 0.  0.
        5    1    3    3  502    0  0.18337817680E+03 -0.13001201104E+03 -0.56608653968E+03  0.60910322536E+03  0.46999998093E+01 0. -1.
       -5    1    3    3    0  502 -0.18337817680E+03  0.13001201104E+03  0.12087781728E+04  0.12295110572E+04  0.46999998093E+01 0.  1.
</event>
<event>
 5   0  0.1102175E-06  0.3453415E+04  0.7818609E-02  0.8124919E-01
       -1   -1    0    0    0  501  0.00000000000E+00  0.00000000000E+00  0.11096149479E+04  0.11096149479E+04  0.50400001928E-02 0. -1.
        1   -1    0    0  501    0  0.00000000000E+00  0.00000000000E+00 -0.26869856807E+04  0.26869856807E+04  0.50400001928E-02 0.  1.
    10030    2    1    2    0    0  0.00000000000E+00  0.00000000000E+00 -0.15773707329E+04  0.37966006286E+04  0.34534153970E+04 0.  0.
        5    1    3    3  502    0 -0.35330377368E+03 -0.12249123200E+04 -0.20690042573E+04  0.24302334157E+04  0.46999998093E+01 0.  1.
       -5    1    3    3    0  502  0.35330377368E+03  0.12249123200E+04  0.49163352442E+03  0.13663672129E+04  0.46999998093E+01 0. -1.
</event>
<event>
 5   0  0.2565004E-06  0.1994952E+04  0.7818609E-02  0.8608985E-01
       -2   -1    0    0    0  501  0.00000000000E+00  0.00000000000E+00  0.44610966601E+03  0.44610966602E+03  0.25500000920E-02 0.  1.
        2   -1    0    0  501    0  0.00000000000E+00  0.00000000000E+00 -0.22302992285E+04  0.22302992285E+04  0.25500000920E-02 0. -1.
    10030    2    1    2    0    0  0.00000000000E+00  0.00000000000E+00 -0.17841895625E+04  0.26764088945E+04  0.19949516725E+04 0.  0.
        3    1    3    3  502    0  0.38109197428E+03 -0.90764589413E+03 -0.67616169567E+03  0.11942557561E+04  0.10100000352E+00 0. -1.
       -3    1    3    3    0  502 -0.38109197428E+03  0.90764589413E+03 -0.11080278668E+04  0.14821531384E+04  0.10100000352E+00 0.  1.
</event>
<event>
 5   0  0.3041329E-06  0.3475467E+04  0.7818609E-02  0.8119629E-01
        2   -1    0    0  501    0  0.00000000000E+00  0.00000000000E+00  0.31607463716E+04  0.31607463716E+04  0.25500000920E-02 0.  1.
       -2   -1    0    0    0  501  0.00000000000E+00  0.00000000000E+00 -0.95538095023E+03  0.95538095024E+03  0.25500000920E-02 0. -1.
    10030    2    1    2    0    0  0.00000000000E+00  0.00000000000E+00  0.22053654213E+04  0.41161273218E+04  0.34754665137E+04 0.  0.
        2    1    3    3  502    0  0.96743747899E+03 -0.13284151824E+03 -0.59969141689E+03  0.11459545978E+04  0.25500000920E-02 0. -1.
       -2    1    3    3    0  502 -0.96743747899E+03  0.13284151824E+03  0.28050568382E+04  0.29701727240E+04  0.25500000920E-02 0.  1.
</event>
<event>
 5   0  0.3041329E-06  0.3364143E+04  0.7818609E-02  0.8146763E-01
        2   -1    0    0  501    0  0.00000000000E+00  0.00000000000E+00  0.21573537062E+04  0.21573537062E+04  0.25500000920E-02 0. -1.
       -2   -1    0    0    0  501  0.00000000000E+00  0.00000000000E+00 -0.13114979695E+04  0.13114979695E+04  0.25500000920E-02 0.  1.
    10030    2    1    2    0    0  0.00000000000E+00  0.00000000000E+00  0.84585573676E+03  0.34688516757E+04  0.33641432818E+04 0.  0.
        2    1    3    3  502    0 -0.75395429897E+02  0.15538658998E+04  0.10825103837E+04  0.18952605194E+04  0.25500000920E-02 0. -1.
       -2    1    3    3    0  502  0.75395429897E+02 -0.15538658998E+04 -0.23665464695E+03  0.15735911563E+04  0.25500000920E-02 0.  1.
</event>
<event>
 5   0  0.1102175E-06  0.1766541E+04  0.7818609E-02  0.8724298E-01
        1   -1    0    0  501    0  0.00000000000E+00  0.00000000000E+00  0.11698185669E+04  0.11698185669E+04  0.50400001928E-02 0.  1.
       -1   -1    0    0    0  501  0.00000000000E+00  0.00000000000E+00 -0.66691247023E+03  0.66691247025E+03  0.50400001928E-02 0. -1.
    10030    2    1    2    0    0  0.00000000000E+00  0.00000000000E+00  0.50290609669E+03  0.18367310372E+04  0.17665407895E+04 0.  0.
        5    1    3    3  502    0 -0.30117675526E+03 -0.73987167254E+03  0.64329173013E+03  0.10256528993E+04  0.46999998093E+01 0.  1.
       -5    1    3    3    0  502  0.30117675526E+03  0.73987167254E+03 -0.14038563344E+03  0.81107813792E+03  0.46999998093E+01 0. -1.
</event>
<event>
 5   0  0.1125196E-06  0.3636073E+04  0.7818609E-02  0.8082278E-01
        1   -1    0    0  501    0  0.00000000000E+00  0.00000000000E+00  0.27767408366E+04  0.27767408367E+04  0.50400001928E-02 0. -1.
       -1   -1    0    0    0  501  0.00000000000E+00  0.00000000000E+00 -0.11903365187E+04  0.11903365187E+04  0.50400001928E-02 0.  1.
    10030    2    1    2    0    0  0.00000000000E+00  0.00000000000E+00  0.15864043180E+04  0.39670773554E+04  0.36360726180E+04 0.  0.
        4    1    3    3  502    0  0.12984916706E+04  0.40959724392E+03 -0.52121210009E+03  0.14579143277E+04  0.12699999809E+01 0.  1.
       -4    1    3    3    0  502 -0.12984916706E+04 -0.40959724392E+03  0.21076164181E+04  0.25091630276E+04  0.12699999809E+01 0. -1.
</event>
<event>
 5   0  0.1908726E-06  0.3487042E+04  0.7818609E-02  0.8116868E-01
       -2   -1    0    0    0  501  0.00000000000E+00  0.00000000000E+00  0.18715492780E+04  0.18715492780E+04  0.25500000920E-02 0.  1.
        2   -1    0    0  501    0  0.00000000000E+00  0.00000000000E+00 -0.16242510778E+04  0.16242510778E+04  0.25500000920E-02 0. -1.
    10030    2    1    2    0    0  0.00000000000E+00  0.00000000000E+00  0.24729820018E+03  0.34958003558E+04  0.34870422607E+04 0.  0.
        5    1    3    3  502    0  0.60247794766E+03  0.11234743143E+04 -0.10687370599E+04  0.16635489790E+04  0.46999998093E+01 0. -1.
       -5    1    3    3    0  502 -0.60247794766E+03 -0.11234743143E+04  0.13160352601E+04  0.18322513769E+04  0.46999998093E+01 0.  1.
</event>
<event>
 5   0  0.1782660E-06  0.3337395E+04  0.7818609E-02  0.8153445E-01
        2   -1    0    0  501    0  0.00000000000E+00  0.00000000000E+00  0.15335387183E+04  0.15335387183E+04  0.25500000920E-02 0. -1.
       -2   -1    0    0    0  501  0.00000000000E+00  0.00000000000E+00 -0.18157688953E+04  0.18157688953E+04  0.25500000920E-02 0.  1.
    10030    2    1    2    0    0  0.00000000000E+00  0.00000000000E+00 -0.28223017701E+03  0.33493076136E+04  0.33373953343E+04 0.  0.
        4    1    3    3  502    0  0.31958408785E+03  0.31643462301E+02  0.15022323756E+04  0.15361767545E+04  0.12699999809E+01 0. -1.
       -4    1    3    3    0  502 -0.31958408785E+03 -0.31643462301E+02 -0.17844625526E+04  0.18131308591E+04  0.12699999809E+01 0.  1.
</event>
<event>
 5   0  0.1908726E-06  0.3440385E+04  0.7818609E-02  0.8128065E-01
        2   -1    0    0  501    0  0.00000000000E+00  0.00000000000E+00  0.24479379668E+04  0.24479379668E+04  0.25500000920E-02 0.  1.
       -2   -1    0    0    0  501  0.00000000000E+00  0.00000000000E+00 -0.12087981423E+04  0.12087981423E+04  0.25500000920E-02 0. -1.
    10030    2    1    2    0    0  0.00000000000E+00  0.00000000000E+00  0.12391398245E+04  0.36567361092E+04  0.34403853661E+04 0.  0.
        5    1    3    3  502    0  0.74445705865E+03  0.84360043831E+03 -0.76347372566E+03  0.13597029938E+04  0.46999998093E+01 0. -1.
       -5    1    3    3    0  502 -0.74445705865E+03 -0.84360043831E+03  0.20026135502E+04  0.22970331153E+04  0.46999998093E+01 0.  1.
</event>
<event>
 5   0  0.1042825E-06  0.3440150E+04  0.7818609E-02  0.8128122E-01
        3   -1    0    0  501    0  0.00000000000E+00  0.00000000000E+00  0.12710456885E+04  0.12710456926E+04  0.10100000352E+00 0.  1.
       -3   -1    0    0    0  501  0.00000000000E+00  0.00000000000E+00 -0.23277349682E+04  0.23277349704E+04  0.10100000352E+00 0. -1.
    10030    2    1    2    0    0  0.00000000000E+00  0.00000000000E+00 -0.10566892797E+04  0.35987806630E+04  0.34401497099E+04 0.  0.
        3    1    3    3  502    0  0.34208666594E+03  0.45887717245E+03 -0.22251963972E+04  0.22976271592E+04  0.10100000352E+00 0. -1.
       -3    1    3    3    0  502 -0.34208666594E+03 -0.45887717245E+03  0.11685071175E+04  0.13011535038E+04  0.10100000352E+00 0.  1.
</event>
<event>
 5   0  0.1102175E-06  0.3502107E+04  0.7818609E-02  0.8113291E-01
       -1   -1    0    0    0  501  0.00000000000E+00  0.00000000000E+00  0.21856088362E+04  0.21856088362E+04  0.50400001928E-02 0.  1.
        1   -1    0    0  501    0  0.00000000000E+00  0.00000000000E+00 -0.14028990385E+04  0.14028990385E+04  0.50400001928E-02 0. -1.
    10030    2    1    2    0    0  0.00000000000E+00  0.00000000000E+00  0.78270979773E+03  0.35885078747E+04  0.35021071000E+04 0.  0.
        5    1    3    3  502    0 -0.93315050466E+03  0.12153576307E+04 -0.47708174841E+03  0.16048342966E+04  0.46999998093E+01 0. -1.
       -5    1    3    3    0  502  0.93315050466E+03 -0.12153576307E+04  0.12597915461E+04  0.19836735781E+04  0.46999998093E+01 0.  1.
</event>
<event>
 5   0  0.1110956E-06  0.3508256E+04  0.7818609E-02  0.8111836E-01
        1   -1    0    0  501    0  0.00000000000E+00  0.00000000000E+00  0.34690690275E+04  0.34690690275E+04  0.50400001928E-02 0. -1.
       -1   -1    0    0    0  501  0.00000000000E+00  0.00000000000E+00 -0.88697156101E+03  0.88697156102E+03  0.50400001928E-02 0.  1.
    10030    2    1    2    0    0  0.00000000000E+00  0.00000000000E+00  0.25820974664E+04  0.43560405885E+04  0.35082563022E+04 0.  0.
        1    1    3    3  502    0  0.96030804658E+03  0.18657493822E+03 -0.51681140126E+03  0.11063886191E+04  0.50400001928E-02 0.  1.
       -1    1    3    3    0  502 -0.96030804658E+03 -0.18657493822E+03  0.30989088677E+04  0.32496519694E+04  0.50400001928E-02 0. -1.
</event>
<event>
 5   0  0.2565004E-06  0.3486040E+04  0.7818609E-02  0.8117106E-01
       -2   -1    0    0    0  501  0.00000000000E+00  0.00000000000E+00  0.15054994806E+04  0.15054994807E+04  0.25500000920E-02 0. -1.
        2   -1    0    0  501    0  0.00000000000E+00  0.00000000000E+00 -0.20180138987E+04  0.20180138987E+04  0.25500000920E-02 0.  1.
    10030    2    1    2    0    0  0.00000000000E+00  0.00000000000E+00 -0.51251441808E+03  0.35235133794E+04  0.34860400895E+04 0.  0.
        3    1    3    3  502    0 -0.69622749320E+03 -0.11055576633E+03  0.13549813916E+04  0.15273931653E+04  0.10100000352E+00 0. -1.
       -3    1    3    3    0  502  0.69622749320E+03  0.11055576633E+03 -0.18674958096E+04  0.19961202141E+04  0.10100000352E+00 0.  1.
</event>
<event>
 5   0  0.1908726E-06  0.3474081E+04  0.7818609E-02  0.8119960E-01
        2   -1    0    0  501    0  0.00000000000E+00  0.00000000000E+00  0.14244627333E+04  0.14244627333E+04  0.25500000920E-02 0.  1.
       -2   -1    0    0    0  501  0.00000000000E+00  0.00000000000E+00 -0.21182087222E+04  0.21182087222E+04  0.25500000920E-02 0. -1.
    10030    2    1    2    0    0  0.00000000000E+00  0.00000000000E+00 -0.69374598885E+03  0.35426714555E+04  0.34740808201E+04 0.  0.
        5    1    3    3  502    0 -0.38787402682E+03 -0.13734169187E+04  0.66291359318E+03  0.15735935991E+04  0.46999998093E+01 0.  1.
       -5    1    3    3    0  502  0.38787402682E+03  0.13734169187E+04 -0.13566595820E+04  0.19690778564E+04  0.46999998093E+01 0. -1.
</event>
<event>
 5   0  0.1125196E-06  0.3492788E+04  0.7818609E-02  0.8115501E-01
        1   -1    0    0  501    0  0.00000000000E+00  0.00000000000E+00  0.19244924661E+04  0.19244924661E+04  0.50400001928E-02 0. -1.
       -1   -1    0    0    0  501  0.00000000000E+00  0.00000000000E+00 -0.15847775604E+04  0.15847775604E+04  0.50400001928E-02 0.  1.
    10030    2    1    2    0    0  0.00000000000E+00  0.00000000000E+00  0.33971490572E+03  0.35092700266E+04  0.34927882705E+04 0.  0.
        4    1    3    3  502    0 -0.66064854123E+03  0.12488084378E+04  0.12013038700E+04  0.18544841898E+04  0.12699999809E+01 0. -1.
       -4    1    3    3    0  502  0.66064854123E+03 -0.12488084378E+04 -0.86158896429E+03  0.16547858368E+04  0.12699999809E+01 0.  1.
</event>
<event>
 5   0  0.1110956E-06  0.2122594E+04  0.7818609E-02  0.8551355E-01
       -1   -1    0    0    0  501  0.00000000000E+00  0.00000000000E+00  0.66995548618E+03  0.66995548620E+03  0.50400001928E-02 0. -1.
        1   -1    0    0  501    0  0.00000000000E+00  0.00000000000E+00 -0.16812329772E+04  0.16812329772E+04  0.50400001928E-02 0.  1.
    10030    2    1    2    0    0  0.00000000000E+00  0.00000000000E+00 -0.10112774911E+04  0.23511884634E+04  0.21225939383E+04 0.  0.
        1    1    3    3  502    0 -0.88621033524E+03  0.11552985653E+02 -0.11523367960E+04  0.14537476814E+04  0.50400001928E-02 0.  1.
       -1    1    3    3    0  502  0.88621033524E+03 -0.11552985653E+02  0.14105930491E+03  0.89744078206E+03  0.50400001928E-02 0. -1.
</event>
<event>
 5   0  0.3041329E-06  0.3454466E+04  0.7818609E-02  0.8124666E-01
       -2   -1    0    0    0  501  0.00000000000E+00  0.00000000000E+00  0.11571083834E+04  0.11571083834E+04  0.25500000920E-02 0.  1.
        2   -1    0    0  501    0  0.00000000000E+00  0.00000000000E+00 -0.25782667645E+04  0.25782667645E+04  0.25500000920E-02 0. -1.
    10030    2    1    2    0    0  0.00000000000E+00  0.00000000000E+00 -0.14211583811E+04  0.37353751479E+04  0.34544661457E+04 0.  0.
        2    1    3    3  502    0 -0.17459155846E+02 -0.65775774607E+02  0.11556581379E+04  0.11576601429E+04  0.25500000920E-02 0.  1.
       -2    1    3    3    0  502  0.17459155846E+02  0.65775774607E+02 -0.25768165190E+04  0.25777150051E+04  0.25500000920E-02 0. -1.
</event>
<event>
 5   0  0.3378848E-06  0.2775787E+04  0.7818609E-02  0.8310825E-01
        2   -1    0    0  501    0  0.00000000000E+00  0.00000000000E+00  0.20967041855E+04  0.20967041855E+04  0.25500000920E-02 0. -1.
       -2   -1    0    0    0  501  0.00000000000E+00  0.00000000000E+00 -0.91870278049E+03  0.91870278049E+03  0.25500000920E-02 0.  1.
    10030    2    1    2    0    0  0.00000000000E+00  0.00000000000E+00  0.11780014050E+04  0.30154069660E+04  0.27757867102E+04 0.  0.
        1    1    3    3  502    0  0.62465196516E+03  0.53155578102E+03  0.18052514185E+04  0.19828450040E+04  0.50400001928E-02 0. -1.
       -1    1    3    3    0  502 -0.62465196516E+03 -0.53155578102E+03 -0.62725001347E+03  0.10325619620E+04  0.50400001928E-02 0.  1.
</event>
<event>
 5   0  0.1125196E-06  0.3654885E+04  0.7818609E-02  0.8078034E-01
       -1   -1    0    0    0  501  0.00000000000E+00  0.00000000000E+00  0.13742534279E+04  0.13742534279E+04  0.50400001928E-02 0. -1.
        1   -1    0    0  501    0  0.00000000000E+00  0.00000000000E+00 -0.24300807330E+04  0.24300807331E+04  0.50400001928E-02 0.  1.
    10030    2    1    2    0    0  0.00000000000E+00  0.00000000000E+00 -0.10558273052E+04  0.38043341609E+04  0.36548853757E+04 0.  0.
        4    1    3    3  502    0  0.10428835897E+04 -0.13517978717E+04  0.15032951535E+03  0.17139323918E+04  0.12699999809E+01 0. -1.
       -4    1    3    3    0  502 -0.10428835897E+04  0.13517978717E+04 -0.12061568205E+04  0.20904017691E+04  0.12699999809E+01 0.  1.
</event>
<event>
 5   0  0.1782660E-06  0.3424147E+04  0.7818609E-02  0.8132005E-01
       -2   -1    0    0    0  501  0.00000000000E+00  0.00000000000E+00  0.12223242581E+04  0.12223242581E+04  0.25500000920E-02 0. -1.
        2   -1    0    0  501    0  0.00000000000E+00  0.00000000000E+00 -0.23980505351E+04  0.23980505351E+04  0.25500000920E-02 0.  1.
    10030    2    1    2    0    0  0.00000000000E+00  0.00000000000E+00 -0.11757262770E+04  0.36203747932E+04  0.34241468083E+04 0.  0.
        4    1    3    3  502    0  0.14013760397E+04 -0.91694023239E+03 -0.21172394502E+03  0.16880352000E+04  0.12699999809E+01 0. -1.
       -4    1    3    3    0  502 -0.14013760397E+04  0.91694023239E+03 -0.96400233198E+03  0.19323395932E+04  0.12699999809E+01 0.  1.
</event>
<event>
 5   0  0.1782660E-06  0.3419636E+04  0.7818609E-02  0.8133104E-01
       -2   -1    0    0    0  501  0.00000000000E+00  0.00000000000E+00  0.15826029401E+04  0.15826029401E+04  0.25500000920E-02 0.  1.
        2   -1    0    0  501    0  0.00000000000E+00  0.00000000000E+00 -0.18472591737E+04  0.18472591737E+04  0.25500000920E-02 0. -1.
    10030    2    1    2    0    0  0.00000000000E+00  0.00000000000E+00 -0.26465623360E+03  0.34298621137E+04  0.34196361206E+04 0.  0.
        4    1    3    3  502    0 -0.22724455875E+03 -0.11190258457E+04 -0.14087756329E+04  0.18134247516E+04  0.12699999809E+01 0. -1.
       -4    1    3    3    0  502  0.22724455875E+03  0.11190258457E+04  0.11441193993E+04  0.16164373621E+04  0.12699999809E+01 0.  1.
</event>
<event>
 5   0  0.2565004E-06  0.2616279E+04  0.7818609E-02  0.8362692E-01
        2   -1    0    0  501    0  0.00000000000E+00  0.00000000000E+00  0.16916262881E+04  0.16916262881E+04  0.25500000920E-02 0. -1.
       -2   -1    0    0    0  501  0.00000000000E+00  0.00000000000E+00 -0.10115882513E+04  0.10115882513E+04  0.25500000920E-02 0.  1.
    10030    2    1    2    0    0  0.00000000000E+00  0.00000000000E+00  0.68003803681E+03  0.27032145395E+04  0.26162792502E+04 0.  0.
        3    1    3    3  502    0 -0.10793261962E+04 -0.55390107385E+03  0.84564464369E+03  0.14788057042E+04  0.10100000352E+00 0. -1.
       -3    1    3    3    0  502  0.10793261962E+04  0.55390107385E+03 -0.16560660688E+03  0.12244088352E+04  0.10100000352E+00 0.  1.
</event>
<event>
 5   0  0.3378848E-06  0.3431589E+04  0.7818609E-02  0.8130196E-01
        2   -1    0    0  501    0  0.00000000000E+00  0.00000000000E+00  0.11310507956E+04  0.11310507956E+04  0.25500000920E-02 0. -1.
       -2   -1    0    0    0  501  0.00000000000E+00  0.00000000000E+00 -0.26028464468E+04  0.26028464468E+04  0.25500000920E-02 0.  1.
    10030    2    1    2    0    0  0.00000000000E+00  0.00000000000E+00 -0.14717956512E+04  0.37338972424E+04  0.34315894536E+04 0.  0.
        1    1    3    3  502    0 -0.72427279123E+03  0.47438877179E+02  0.95577761242E+03  0.12001384785E+04  0.50400001928E-02 0. -1.
       -1    1    3    3    0  502  0.72427279123E+03 -0.47438877179E+02 -0.24275732637E+04  0.25337587639E+04  0.50400001928E-02 0.  1.
</event>
<event>
 5   0  0.1089337E-06  0.1865872E+04  0.7818609E-02  0.8672033E-01
        1   -1    0    0  501    0  0.00000000000E+00  0.00000000000E+00  0.86602466402E+03  0.86602466403E+03  0.50400001928E-02 0. -1.
       -1   -1    0    0    0  501  0.00000000000E+00  0.00000000000E+00 -0.10050167112E+04  0.10050167112E+04  0.50400001928E-02 0.  1.
    10030    2    1    2    0    0  0.00000000000E+00  0.00000000000E+00 -0.13899204720E+03  0.18710413753E+04  0.18658716566E+04 0.  0.
        2    1    3    3  502    0 -0.45655948647E+03 -0.55610596977E+03 -0.66500069377E+03  0.97975830542E+03  0.25500000920E-02 0.  1.
       -2    1    3    3    0  502  0.45655948647E+03  0.55610596977E+03  0.52600864657E+03  0.89128306984E+03  0.25500000920E-02 0. -1.
</event>
<event>
 5   0  0.1102175E-06  0.1816430E+04  0.7818609E-02  0.8697611E-01
       -1   -1    0    0    0  501  0.00000000000E+00  0.00000000000E+00  0.60750029171E+03  0.60750029173E+03  0.50400001928E-02 0.  1.
        1   -1    0    0  501    0  0.00000000000E+00  0.00000000000E+00 -0.13577840391E+04  0.13577840391E+04  0.50400001928E-02 0. -1.
    10030    2    1    2    0    0  0.00000000000E+00  0.00000000000E+00 -0.75028374735E+03  0.19652843308E+04  0.18164296847E+04 0.  0.
        5    1    3    3  502    0  0.80264001805E+03 -0.69487447514E+02  0.78467892778E+02  0.80946822305E+03  0.46999998093E+01 0.  1.
       -5    1    3    3    0  502 -0.80264001805E+03  0.69487447514E+02 -0.82875164013E+03  0.11558161078E+04  0.46999998093E+01 0. -1.
</event>
<event>
 5   0  0.1125196E-06  0.3521001E+04  0.7818609E-02  0.8108831E-01
        1   -1    0    0  501    0  0.00000000000E+00  0.00000000000E+00  0.19819400077E+04  0.19819400077E+04  0.50400001928E-02 0.  1.
       -1   -1    0    0    0  501  0.00000000000E+00  0.00000000000E+00 -0.15638024356E+04  0.15638024356E+04  0.50400001928E-02 0. -1.
    10030    2    1    2    0    0  0.00000000000E+00  0.00000000000E+00  0.41813757210E+03  0.35457424433E+04  0.35210013412E+04 0.  0.
        4    1    3    3  502    0  0.16592079776E+04  0.24321406807E+03 -0.33064192508E+03  0.17092249388E+04  0.12699999809E+01 0.  1.
       -4    1    3    3    0  502 -0.16592079776E+04 -0.24321406807E+03  0.74877949718E+03  0.18365175045E+04  0.12699999809E+01 0. -1.
</event>
<event>
 5   0  0.1125196E-06  0.1765365E+04  0.7818609E-02  0.8724938E-01
        1   -1    0    0  501    0  0.00000000000E+00  0.00000000000E+00  0.13817364431E+04  0.13817364431E+04  0.50400001928E-02 0. -1.
       -1   -1    0    0    0  501  0.00000000000E+00  0.00000000000E+00 -0.56387619148E+03  0.56387619150E+03  0.50400001928E-02 0.  1.
    10030    2    1    2    0    0  0.00000000000E+00  0.00000000000E+00  0.81786025164E+03  0.19456126346E+04  0.17653648724E+04 0.  0.
        4    1    3    3  502    0  0.11001145913E+03 -0.50106319391E+03  0.12005739727E+04  0.13055827520E+04  0.12699999809E+01 0. -1.
       -4    1    3    3    0  502 -0.11001145913E+03  0.50106319391E+03 -0.38271372110E+03  0.64002988262E+03  0.12699999809E+01 0.  1.
</event>
<event>
 5   0  0.2565004E-06  0.3517026E+04  0.7818609E-02  0.8109767E-01
        2   -1    0    0  501    0  0.00000000000E+00  0.00000000000E+00  0.25078970488E+04  0.25078970488E+04  0.25500000920E-02 0. -1.
       -2   -1    0    0    0  501  0.00000000000E+00  0.00000000000E+00 -0.12330523693E+04  0.12330523693E+04  0.25500000920E-02 0.  1.
    10030    2    1    2    0    0  0.00000000000E+00  0.00000000000E+00  0.12748446795E+04  0.37409494182E+04  0.35170262428E+04 0.  0.
        3    1    3    3  502    0 -0.53361881957E+03  0.16820809182E+03  0.24106966563E+04  0.24747729968E+04  0.10100000352E+00 0. -1.
       -3    1    3    3    0  502  0.53361881957E+03 -0.16820809182E+03 -0.11358519768E+04  0.12661764214E+04  0.10100000352E+00 0.  1.
</event>
<event>
 5   0  0.1782660E-06  0.3567877E+04  0.7818609E-02  0.8097890E-01
       -2   -1    0    0    0  501  0.00000000000E+00  0.00000000000E+00  0.15413167710E+04  0.15413167711E+04  0.25500000920E-02 0. -1.
        2   -1    0    0  501    0  0.00000000000E+00  0.00000000000E+00 -0.20647516509E+04  0.20647516509E+04  0.25500000920E-02 0.  1.
    10030    2    1    2    0    0  0.00000000000E+00  0.00000000000E+00 -0.52343487985E+03  0.36060684220E+04  0.35678768743E+04 0.  0.
        4    1    3    3  502    0  0.13392249801E+04  0.52702944385E+03 -0.13271124901E+04  0.19576804530E+04  0.12699999809E+01 0.  1.
       -4    1    3    3    0  502 -0.13392249801E+04 -0.52702944385E+03  0.80367761024E+03  0.16483879689E+04  0.12699999809E+01 0. -1.
</event>
<event>
 5   0  0.1102175E-06  0.3507866E+04  0.7818609E-02  0.8111928E-01
        1   -1    0    0  501    0  0.00000000000E+00  0.00000000000E+00  0.20849310254E+04  0.20849310254E+04  0.50400001928E-02 0. -1.
       -1   -1    0    0    0  501  0.00000000000E+00  0.00000000000E+00 -0.14754836150E+04  0.14754836150E+04  0.50400001928E-02 0.  1.
    10030    2    1    2    0    0  0.00000000000E+00  0.00000000000E+00  0.60944741044E+03  0.35604146404E+04  0.35078663409E+04 0.  0.
        5    1    3    3  502    0 -0.79006100304E+03 -0.14291828230E+04 -0.34478391894E+03  0.16690290504E+04  0.46999998093E+01 0.  1.
       -5    1    3    3    0  502  0.79006100304E+03  0.14291828230E+04  0.95423132937E+03  0.18913855900E+04  0.46999998093E+01 0. -1.
</event>
<event>
 5   0  0.1110956E-06  0.3462679E+04  0.7818609E-02  0.8122692E-01
       -1   -1    0    0    0  501  0.00000000000E+00  0.00000000000E+00  0.17992567991E+04  0.17992567991E+04  0.50400001928E-02 0. -1.
        1   -1    0    0  501    0  0.00000000000E+00  0.00000000000E+00 -0.16659854651E+04  0.16659854651E+04  0.50400001928E-02 0.  1.
    10030    2    1    2    0    0  0.00000000000E+00  0.00000000000E+00  0.13327133404E+03  0.34652422642E+04  0.34626785443E+04 0.  0.
        1    1    3    3  502    0  0.28433114684E+03  0.99266103941E+03 -0.13241110507E+04  0.16791337692E+04  0.50400001928E-02 0.  1.
       -1    1    3    3    0  502 -0.28433114684E+03 -0.99266103941E+03  0.14573823848E+04  0.17861084949E+04  0.50400001928E-02 0. -1.
</event>
<event>
 5   0  0.1110956E-06  0.3660229E+04  0.7818609E-02  0.8076833E-01
       -1   -1    0    0    0  501  0.00000000000E+00  0.00000000000E+00  0.15843627899E+04  0.15843627899E+04  0.50400001928E-02 0. -1.
        1   -1    0    0  501    0  0.00000000000E+00  0.00000000000E+00 -0.21139852864E+04  0.21139852864E+04  0.50400001928E-02 0.  1.
    10030    2    1    2    0    0  0.00000000000E+00  0.00000000000E+00 -0.52962249649E+03  0.36983480763E+04  0.36602292967E+04 0.  0.
        1    1    3    3  502    0 -0.43129599495E+03  0.14192484749E+04  0.81828369154E+03  0.16940692632E+04  0.50400001928E-02 0. -1.
       -1    1    3    3    0  502  0.43129599495E+03 -0.14192484749E+04 -0.13479061880E+04  0.20042788131E+04  0.50400001928E-02 0.  1.
</event>
<event>
 5   0  0.1782660E-06  0.3483044E+04  0.7818609E-02  0.8117820E-01
        2   -1    0    0  501    0  0.00000000000E+00  0.00000000000E+00  0.16564379828E+04  0.16564379828E+04  0.25500000920E-02 0.  1.
       -2   -1    0    0    0  501  0.00000000000E+00  0.00000000000E+00 -0.18309768065E+04  0.18309768065E+04  0.25500000920E-02 0. -1.
    10030    2    1    2    0    0  0.00000000000E+00  0.00000000000E+00 -0.17453882379E+03  0.34874147893E+04  0.34830443741E+04 0.  0.
        4    1    3    3  502    0  0.99830466811E+03  0.14081444464E+04  0.14413727229E+03  0.17321259072E+04  0.12699999809E+01 0.  1.
       -4    1    3    3    0  502 -0.99830466811E+03 -0.14081444464E+04 -0.31867609608E+03  0.17552888821E+04  0.12699999809E+01 0. -1.
</event>
<event>
 5   0  0.1102175E-06  0.3205612E+04  0.7818609E-02  0.8187337E-01
       -1   -1    0    0    0  501  0.00000000000E+00  0.00000000000E+00  0.14778759029E+04  0.14778759029E+04  0.50400001928E-02 0.  1.
        1   -1    0    0  501    0  0.00000000000E+00  0.00000000000E+00 -0.17382966850E+04  0.17382966850E+04  0.50400001928E-02 0. -1.
    10030    2    1    2    0    0  0.00000000000E+00  0.00000000000E+00 -0.26042078203E+03  0.32161725879E+04  0.32056118186E+04 0.  0.
        5    1    3    3  502    0 -0.11113866732E+04 -0.55900603340E+03 -0.11441319572E+04  0.16901858206E+04  0.46999998093E+01 0. -1.
       -5    1    3    3    0  502  0.11113866732E+04  0.55900603340E+03  0.88371117515E+03  0.15259867673E+04  0.46999998093E+01 0.  1.
</event>
<event>
 5   0  0.1125196E-06  0.3536565E+04  0.7818609E-02  0.8105179E-01
       -1   -1    0    0    0  501  0.00000000000E+00  0.00000000000E+00  0.18948932788E+04  0.18948932788E+04  0.50400001928E-02 0. -1.
        1   -1    0    0  501    0  0.00000000000E+00  0.00000000000E+00 -0.16501315245E+04  0.16501315245E+04  0.50400001928E-02 0.  1.
    10030    2    1    2    0    0  0.00000000000E+00  0.00000000000E+00  0.24476175432E+03  0.35450248034E+04  0.35365650765E+04 0.  0.
        4    1    3    3  502    0  0.62415252704E+03  0.25305986701E+03  0.17612891136E+04  0.18856687482E+04  0.12699999809E+01 0. -1.
       -4    1    3    3    0  502 -0.62415252704E+03 -0.25305986701E+03 -0.15165273593E+04  0.16593560551E+04  0.12699999809E+01 0.  1.
</event>
<event>
 5   0  0.1102175E-06  0.1977615E+04  0.7818609E-02  0.8617159E-01
        1   -1    0    0  501    0  0.00000000000E+00  0.00000000000E+00  0.71313756769E+03  0.71313756771E+03  0.50400001928E-02 0. -1.
       -1   -1    0    0    0  501  0.00000000000E+00  0.00000000000E+00 -0.13710397626E+04  0.13710397626E+04  0.50400001928E-02 0.  1.
    10030    2    1    2    0    0  0.00000000000E+00  0.00000000000E+00 -0.65790219493E+03  0.20841773303E+04  0.19776146860E+04 0.  0.
        5    1    3    3  502    0 -0.75016476190E+03 -0.63614856006E+03 -0.43583447028E+03  0.10758280234E+04  0.46999998093E+01 0. -1.
       -5    1    3    3    0  502  0.75016476190E+03  0.63614856006E+03 -0.22206772464E+03  0.10083493069E+04  0.46999998093E+01 0.  1.
</event>
<event>
 5   0  0.1908726E-06  0.3493740E+04  0.7818609E-02  0.8115275E-01
       -2   -1    0    0    0  501  0.00000000000E+00  0.00000000000E+00  0.12780846338E+04  0.12780846339E+04  0.25500000920E-02 0.  1.
        2   -1    0    0  501    0  0.00000000000E+00  0.00000000000E+00 -0.23875995739E+04  0.23875995739E+04  0.25500000920E-02 0. -1.
    10030    2    1    2    0    0  0.00000000000E+00  0.00000000000E+00 -0.11095149401E+04  0.36656842078E+04  0.34937397311E+04 0.  0.
        5    1    3    3  502    0  0.11826602945E+04 -0.94725176557E+03 -0.14667667427E+04  0.21088854988E+04  0.46999998093E+01 0.  1.
       -5    1    3    3    0  502 -0.11826602945E+04  0.94725176557E+03  0.35725180265E+03  0.15567987089E+04  0.46999998093E+01 0. -1.
</event>
<event>
 5   0  0.1042825E-06  0.3726397E+04  0.7818609E-02  0.8062137E-01
       -4   -1    0    0    0  501  0.00000000000E+00  0.00000000000E+00  0.16592903021E+04  0.16592907881E+04  0.12699999809E+01 0. -1.
        4   -1    0    0  501    0  0.00000000000E+00  0.00000000000E+00 -0.20921634152E+04  0.20921638007E+04  0.12699999809E+01 0.  1.
    10030    2    1    2    0    0  0.00000000000E+00  0.00000000000E+00 -0.43287311314E+03  0.37514545888E+04  0.37263967046E+04 0.  0.
        3    1    3    3  502    0 -0.89041564463E+03  0.42485000816E+03  0.13747520040E+04  0.16921231138E+04  0.10100000352E+00 0. -1.
       -3    1    3    3    0  502  0.89041564463E+03 -0.42485000816E+03 -0.18076251171E+04  0.20593314750E+04  0.10100000352E+00 0.  1.
</event>
<event>
 5   0  0.1908726E-06  0.2662776E+04  0.7818609E-02  0.8347185E-01
        2   -1    0    0  501    0  0.00000000000E+00  0.00000000000E+00  0.18958405607E+04  0.18958405607E+04  0.25500000920E-02 0.  1.
       -2   -1    0    0    0  501  0.00000000000E+00  0.00000000000E+00 -0.93499139535E+03  0.93499139535E+03  0.25500000920E-02 0. -1.
    10030    2    1    2    0    0  0.00000000000E+00  0.00000000000E+00  0.96084916532E+03  0.28308319560E+04  0.26627764541E+04 0.  0.
        5    1    3    3  502    0 -0.54361981879E+03  0.10173808544E+04  0.11872037528E+04  0.16553130070E+04  0.46999998093E+01 0.  1.
       -5    1    3    3    0  502  0.54361981879E+03 -0.10173808544E+04 -0.22635458749E+03  0.11755189491E+04  0.46999998093E+01 0. -1.
</event>
<event>
 5   0  0.1102175E-06  0.3322893E+04  0.7818609E-02  0.8157095E-01
        1   -1    0    0  501    0  0.00000000000E+00  0.00000000000E+00  0.17588114773E+04  0.17588114773E+04  0.50400001928E-02 0.  1.
       -1   -1    0    0    0  501  0.00000000000E+00  0.00000000000E+00 -0.15694710745E+04  0.15694710745E+04  0.50400001928E-02 0. -1.
    10030    2    1    2    0    0  0.00000000000E+00  0.00000000000E+00  0.18934040281E+03  0.33282825518E+04  0.33228925587E+04 0.  0.
        5    1    3    3  502    0  0.14860501033E+04  0.29576074057E+03 -0.58802347767E+03  0.16253039794E+04  0.46999998093E+01 0. -1.
       -5    1    3    3    0  502 -0.14860501033E+04 -0.29576074057E+03  0.77736388048E+03  0.17029785724E+04  0.46999998093E+01 0.  1.
</event>
<event>
 5   0  0.1145066E-06  0.2092970E+04  0.7818609E-02  0.8564347E-01
        1   -1    0    0  501    0  0.00000000000E+00  0.00000000000E+00  0.10953842399E+04  0.10953842399E+04  0.50400001928E-02 0.  1.
       -1   -1    0    0    0  501  0.00000000000E+00  0.00000000000E+00 -0.99976850223E+03  0.99976850224E+03  0.50400001928E-02 0. -1.
    10030    2    1    2    0    0  0.00000000000E+00  0.00000000000E+00  0.95615737671E+02  0.20951527422E+04  0.20929698143E+04 0.  0.
        2    1    3    3  502    0 -0.76668985331E+02 -0.32209469668E+03 -0.94595484799E+03  0.10022243768E+04  0.25500000920E-02 0. -1.
       -2    1    3    3    0  502  0.76668985331E+02  0.32209469668E+03  0.10415705857E+04  0.10929283654E+04  0.25500000920E-02 0.  1.
</event>
<event>
 5   0  0.1110956E-06  0.3467507E+04  0.7818609E-02  0.8121534E-01
        1   -1    0    0  501    0  0.00000000000E+00  0.00000000000E+00  0.29247555647E+04  0.29247555647E+04  0.50400001928E-02 0. -1.
       -1   -1    0    0    0  501  0.00000000000E+00  0.00000000000E+00 -0.10277443982E+04  0.10277443982E+04  0.50400001928E-02 0.  1.
    10030    2    1    2    0    0  0.00000000000E+00  0.00000000000E+00  0.18970111665E+04  0.39524999629E+04  0.34675069706E+04 0.  0.
        1    1    3    3  502    0  0.60023501466E+03  0.61226374248E+02  0.28012277035E+04  0.28654680924E+04  0.50400001928E-02 0. -1.
       -1    1    3    3    0  502 -0.60023501466E+03 -0.61226374248E+02 -0.90421653699E+03  0.10870318705E+04  0.50400001928E-02 0.  1.
</event>
<event>
 5   0  0.1102175E-06  0.3565817E+04  0.7818609E-02  0.8098367E-01
       -1   -1    0    0    0  501  0.00000000000E+00  0.00000000000E+00  0.29249884592E+04  0.29249884592E+04  0.50400001928E-02 0.  1.
        1   -1    0    0  501    0  0.00000000000E+00  0.00000000000E+00 -0.10867606622E+04  0.10867606622E+04  0.50400001928E-02 0. -1.
    10030    2    1    2    0    0  0.00000000000E+00  0.00000000000E+00  0.18382277970E+04  0.40117491215E+04  0.35658168181E+04 0.  0.
        5    1    3    3  502    0  0.14895814203E+04 -0.14736347997E+03 -0.17060844460E+03  0.15065517363E+04  0.46999998093E+01 0. -1.
       -5    1    3    3    0  502 -0.14895814203E+04  0.14736347997E+03  0.20088362416E+04  0.25051973851E+04  0.46999998093E+01 0.  1.
</event>
<event>
 5   0  0.1042825E-06  0.3473043E+04  0.7818609E-02  0.8120208E-01
        4   -1    0    0  501    0  0.00000000000E+00  0.00000000000E+00  0.19326676730E+04  0.19326680903E+04  0.12699999809E+01 0. -1.
       -4   -1    0    0    0  501  0.00000000000E+00  0.00000000000E+00 -0.15602810378E+04  0.15602815547E+04  0.12699999809E+01 0.  1.
    10030    2    1    2    0    0  0.00000000000E+00  0.00000000000E+00  0.37238663515E+03  0.34929496450E+04  0.34730426741E+04 0.  0.
        1    1    3    3  502    0  0.75688205745E+03  0.66503761120E+03  0.16086412607E+04  0.18981233308E+04  0.50400001928E-02 0. -1.
       -1    1    3    3    0  502 -0.75688205745E+03 -0.66503761120E+03 -0.12362546256E+04  0.15948263142E+04  0.50400001928E-02 0.  1.
</event>
<event>
 5   0  0.2565004E-06  0.3493366E+04  0.7818609E-02  0.8115364E-01
       -2   -1    0    0    0  501  0.00000000000E+00  0.00000000000E+00  0.13611053988E+04  0.13611053988E+04  0.25500000920E-02 0. -1.
        2   -1    0    0  501    0  0.00000000000E+00  0.00000000000E+00 -0.22414884224E+04  0.22414884224E+04  0.25500000920E-02 0.  1.
    10030    2    1    2    0    0  0.00000000000E+00  0.00000000000E+00 -0.88038302363E+03  0.36025938212E+04  0.34933662808E+04 0.  0.
        3    1    3    3  502    0 -0.52768654143E+03 -0.67067662606E+03  0.11314818447E+04  0.14172196012E+04  0.10100000352E+00 0. -1.
       -3    1    3    3    0  502  0.52768654143E+03  0.67067662606E+03 -0.20118648684E+04  0.21853742200E+04  0.10100000352E+00 0.  1.
</event>
<event>
 5   0  0.1908726E-06  0.3563457E+04  0.7818609E-02  0.8098914E-01
        2   -1    0    0  501    0  0.00000000000E+00  0.00000000000E+00  0.12584102387E+04  0.12584102387E+04  0.25500000920E-02 0.  1.
       -2   -1    0    0    0  501  0.00000000000E+00  0.00000000000E+00 -0.25226719235E+04  0.25226719235E+04  0.25500000920E-02 0. -1.
    10030    2    1    2    0    0  0.00000000000E+00  0.00000000000E+00 -0.12642616848E+04  0.37810821622E+04  0.35634568483E+04 0.  0.
        5    1    3    3  502    0  0.61190202849E+03  0.14757721829E+04 -0.14691046516E+04  0.21703958615E+04  0.46999998093E+01 0. -1.
       -5    1    3    3    0  502 -0.61190202849E+03 -0.14757721829E+04  0.20484296681E+03  0.16106863007E+04  0.46999998093E+01 0.  1.
</event>
<event>
 5   0  0.1125196E-06  0.2120407E+04  0.7818609E-02  0.8552307E-01
       -1   -1    0    0    0  501  0.00000000000E+00  0.00000000000E+00  0.47992697822E+03  0.47992697825E+03  0.50400001928E-02 0. -1.
        1   -1    0    0  501    0  0.00000000000E+00  0.00000000000E+00 -0.23420884119E+04  0.23420884119E+04  0.50400001928E-02 0.  1.
    10030    2    1    2    0    0  0.00000000000E+00  0.00000000000E+00 -0.18621614337E+04  0.28220153902E+04  0.21204069556E+04 0.  0.
        4    1    3    3  502    0 -0.70648473377E+03  0.78313358493E+03 -0.10744886897E+04  0.15056382195E+04  0.12699999809E+01 0. -1.
       -4    1    3    3    0  502  0.70648473377E+03 -0.78313358493E+03 -0.78767274402E+03  0.13163771707E+04  0.12699999809E+01 0.  1.
</event>
<event>
 5   0  0.1042825E-06  0.2596600E+04  0.7818609E-02  0.8369357E-01
       -3   -1    0    0    0  501  0.00000000000E+00  0.00000000000E+00  0.21419994429E+04  0.21419994453E+04  0.10100000352E+00 0. -1.
        3   -1    0    0  501    0  0.00000000000E+00  0.00000000000E+00 -0.78692044392E+03  0.78692045040E+03  0.10100000352E+00 0.  1.
    10030    2    1    2    0    0  0.00000000000E+00  0.00000000000E+00  0.13550789990E+04  0.29289198957E+04  0.25966002122E+04 0.  0.
        3    1    3    3  502    0  0.10675400936E+04 -0.15874349712E+03  0.14915193012E+04  0.18410516520E+04  0.10100000352E+00 0. -1.
       -3    1    3    3    0  502 -0.10675400936E+04  0.15874349712E+03 -0.13644030224E+03  0.10878682437E+04  0.10100000352E+00 0.  1.
</event>
<event>
 5   0  0.1908726E-06  0.3382455E+04  0.7818609E-02  0.8142226E-01
        2   -1    0    0  501    0  0.00000000000E+00  0.00000000000E+00  0.24671157503E+04  0.24671157503E+04  0.25500000920E-02 0.  1.
       -2   -1    0    0    0  501  0.00000000000E+00  0.00000000000E+00 -0.11593501124E+04  0.11593501124E+04  0.25500000920E-02 0. -1.
    10030    2    1    2    0    0  0.00000000000E+00  0.00000000000E+00  0.13077656378E+04  0.36264658627E+04  0.33824552754E+04 0.  0.
        5    1    3    3  502    0  0.51566754232E+03 -0.40171390928E+03  0.23261951289E+04  0.24162973631E+04  0.46999998093E+01 0.  1.
       -5    1    3    3    0  502 -0.51566754232E+03  0.40171390928E+03 -0.10184294911E+04  0.12101684996E+04  0.46999998093E+01 0. -1.
</event>
<event>
 5   0  0.1782660E-06  0.3505468E+04  0.7818609E-02  0.8112495E-01
       -2   -1    0    0    0  501  0.00000000000E+00  0.00000000000E+00  0.13790212030E+04  0.13790212030E+04  0.25500000920E-02 0. -1.
        2   -1    0    0  501    0  0.00000000000E+00  0.00000000000E+00 -0.22277219118E+04  0.22277219118E+04  0.25500000920E-02 0.  1.
    10030    2    1    2    0    0  0.00000000000E+00  0.00000000000E+00 -0.84870070882E+03  0.36067431147E+04  0.35054675869E+04 0.  0.
        4    1    3    3  502    0 -0.21837504023E+03  0.10348900790E+04  0.10136653367E+04  0.14649928879E+04  0.12699999809E+01 0. -1.
       -4    1    3    3    0  502  0.21837504023E+03 -0.10348900790E+04 -0.18623660455E+04  0.21417502269E+04  0.12699999809E+01 0.  1.
</event>
<event>
 5   0  0.1130707E-06  0.3476950E+04  0.7818609E-02  0.8119274E-01
       -1   -1    0    0    0  501  0.00000000000E+00  0.00000000000E+00  0.14160495249E+04  0.14160495249E+04  0.50400001928E-02 0.  1.
        1   -1    0    0  501    0  0.00000000000E+00  0.00000000000E+00 -0.21343148009E+04  0.21343148009E+04  0.50400001928E-02 0. -1.
    10030    2    1    2    0    0  0.00000000000E+00  0.00000000000E+00 -0.71826527598E+03  0.35503643258E+04  0.34769500772E+04 0.  0.
        3    1    3    3  502    0  0.64794641436E+03 -0.27615233724E+03 -0.19820948143E+04  0.21035195583E+04  0.10100000352E+00 0. -1.
       -3    1    3    3    0  502 -0.64794641436E+03  0.27615233724E+03  0.12638295383E+04  0.14468447675E+04  0.10100000352E+00 0.  1.
</event>
<event>
 5   0  0.1125196E-06  0.3575579E+04  0.7818609E-02  0.8096109E-01
       -1   -1    0    0    0  501  0.00000000000E+00  0.00000000000E+00  0.19180929149E+04  0.19180929149E+04  0.50400001928E-02 0. -1.
        1   -1    0    0  501    0  0.00000000000E+00  0.00000000000E+00 -0.16663378631E+04  0.16663378631E+04  0.50400001928E-02 0.  1.
    10030    2    1    2    0    0  0.00000000000E+00  0.00000000000E+00  0.25175505181E+03  0.35844307780E+04  0.35755787498E+04 0.  0.
        4    1    3    3  502    0  0.68606561092E+03  0.93433527502E+03  0.14903205258E+04  0.18880480161E+04  0.12699999809E+01 0. -1.
       -4    1    3    3    0  502 -0.68606561092E+03 -0.93433527502E+03 -0.12385654740E+04  0.16963827619E+04  0.12699999809E+01 0.  1.
</event>
<event>
 5   0  0.3041329E-06  0.3346048E+04  0.7818609E-02  0.8151276E-01
        2   -1    0    0  501    0  0.00000000000E+00  0.00000000000E+00  0.20832803615E+04  0.20832803615E+04  0.25500000920E-02 0.  1.
       -2   -1    0    0    0  501  0.00000000000E+00  0.00000000000E+00 -0.13435589488E+04  0.13435589488E+04  0.25500000920E-02 0. -1.
    10030    2    1    2    0    0  0.00000000000E+00  0.00000000000E+00  0.73972141268E+03  0.34268393104E+04  0.33460483993E+04 0.  0.
        2    1    3    3  502    0  0.73171423143E+03 -0.46384655685E+03 -0.10959377908E+04  0.13970107323E+04  0.25500000920E-02 0. -1.
       -2    1    3    3    0  502 -0.73171423143E+03  0.46384655685E+03  0.18356592035E+04  0.20298285780E+04  0.25500000920E-02 0.  1.
</event>
<event>
 5   0  0.1130707E-06  0.3391213E+04  0.7818609E-02  0.8140066E-01
       -1   -1    0    0    0  501  0.00000000000E+00  0.00000000000E+00  0.21206217250E+04  0.21206217250E+04  0.50400001928E-02 0.  1.
        1   -1    0    0  501    0  0.00000000000E+00  0.00000000000E+00 -0.13557727646E+04  0.13557727646E+04  0.50400001928E-02 0. -1.
    10030    2    1    2    0    0  0.00000000000E+00  0.00000000000E+00  0.76484896040E+03  0.34763944895E+04  0.33912128678E+04 0.  0.
        3    1    3    3  502    0  0.10027601489E+04  0.97237805437E+03 -0.60298790734E+03  0.15213945653E+04  0.10100000352E+00 0. -1.
       -3    1    3    3    0  502 -0.10027601489E+04 -0.97237805437E+03  0.13678368677E+04  0.19549999242E+04  0.10100000352E+00 0.  1.
</event>
<event>
 5   0  0.1089337E-06  0.3049229E+04  0.7818609E-02  0.8229811E-01
        1   -1    0    0  501    0  0.00000000000E+00  0.00000000000E+00  0.17299960463E+04  0.17299960463E+04  0.50400001928E-02 0. -1.
       -1   -1    0    0    0  501  0.00000000000E+00  0.00000000000E+00 -0.13436156169E+04  0.13436156169E+04  0.50400001928E-02 0.  1.
    10030    2    1    2    0    0  0.00000000000E+00  0.00000000000E+00  0.38638042940E+03  0.30736116633E+04  0.30492292174E+04 0.  0.
        2    1    3    3  502    0 -0.70450564020E+03  0.47947016535E+03  0.14675103472E+04  0.16969992503E+04  0.25500000920E-02 0. -1.
       -2    1    3    3    0  502  0.70450564020E+03 -0.47947016535E+03 -0.10811299177E+04  0.13766124130E+04  0.25500000920E-02 0.  1.
</event>
<event>
 5   0  0.1125196E-06  0.3472002E+04  0.7818609E-02  0.8120457E-01
       -1   -1    0    0    0  501  0.00000000000E+00  0.00000000000E+00  0.14125768608E+04  0.14125768608E+04  0.50400001928E-02 0. -1.
        1   -1    0    0  501    0  0.00000000000E+00  0.00000000000E+00 -0.21334761767E+04  0.21334761767E+04  0.50400001928E-02 0.  1.
    10030    2    1    2    0    0  0.00000000000E+00  0.00000000000E+00 -0.72089931592E+03  0.35460530375E+04  0.34720017744E+04 0.  0.
        4    1    3    3  502    0 -0.10207604661E+04 -0.84110242809E+03  0.78793934582E+03  0.15395633307E+04  0.12699999809E+01 0. -1.
       -4    1    3    3    0  502  0.10207604661E+04  0.84110242809E+03 -0.15088386617E+04  0.20064897068E+04  0.12699999809E+01 0.  1.
</event>
<event>
 5   0  0.1130707E-06  0.3488700E+04  0.7818609E-02  0.8116473E-01
       -1   -1    0    0    0  501  0.00000000000E+00  0.00000000000E+00  0.22190242459E+04  0.22190242459E+04  0.50400001928E-02 0.  1.
        1   -1    0    0  501    0  0.00000000000E+00  0.00000000000E+00 -0.13712141173E+04  0.13712141174E+04  0.50400001928E-02 0. -1.
    10030    2    1    2    0    0  0.00000000000E+00  0.00000000000E+00  0.84781012854E+03  0.35902383632E+04  0.34887002581E+04 0.  0.
        3    1    3    3  502    0 -0.73980161393E+03 -0.10475467969E+04 -0.79292021163E+03  0.15077742510E+04  0.10100000352E+00 0. -1.
       -3    1    3    3    0  502  0.73980161393E+03  0.10475467969E+04  0.16407303402E+04  0.20824641123E+04  0.10100000352E+00 0.  1.
</event>
<event>
 5   0  0.1102175E-06  0.2007060E+04  0.7818609E-02  0.8603327E-01
       -1   -1    0    0    0  501  0.00000000000E+00  0.00000000000E+00  0.50443236422E+03  0.50443236425E+03  0.50400001928E-02 0. -1.
        1   -1    0    0  501    0  0.00000000000E+00  0.00000000000E+00 -0.19964466995E+04  0.19964466995E+04  0.50400001928E-02 0.  1.
    10030    2    1    2    0    0  0.00000000000E+00  0.00000000000E+00 -0.14920143353E+04  0.25008790638E+04  0.20070598683E+04 0.  0.
        5    1    3    3  502    0 -0.58396502177E+03  0.37726735139E+03  0.15572069793E+03  0.71247233408E+03  0.46999998093E+01 0.  1.
       -5    1    3    3    0  502  0.58396502177E+03 -0.37726735139E+03 -0.16477350333E+04  0.17884067297E+04  0.46999998093E+01 0. -1.
</event>
<event>
 5   0  0.2565004E-06  0.3451146E+04  0.7818609E-02  0.8125466E-01
       -2   -1    0    0    0  501  0.00000000000E+00  0.00000000000E+00  0.12477255020E+04  0.12477255020E+04  0.25500000920E-02 0.  1.
        2   -1    0    0  501    0  0.00000000000E+00  0.00000000000E+00 -0.23864243656E+04  0.23864243656E+04  0.25500000920E-02 0. -1.
    10030    2    1    2    0    0  0.00000000000E+00  0.00000000000E+00 -0.11386988635E+04  0.36341498676E+04  0.34511462094E+04 0.  0.
        3    1    3    3  502    0 -0.12472769143E+04  0.99843681012E+03  0.11716174777E+03  0.16019683674E+04  0.10100000352E+00 0.  1.
       -3    1    3    3    0  502  0.12472769143E+04 -0.99843681012E+03 -0.12558606113E+04  0.20321815002E+04  0.10100000352E+00 0. -1.
</event>
<event>
 5   0  0.1782660E-06  0.3133838E+04  0.7818609E-02  0.8206512E-01
        2   -1    0    0  501    0  0.00000000000E+00  0.00000000000E+00  0.18089004962E+04  0.18089004962E+04  0.25500000920E-02 0.  1.
       -2   -1    0    0    0  501  0.00000000000E+00  0.00000000000E+00 -0.13573078836E+04  0.13573078836E+04  0.25500000920E-02 0. -1.
    10030    2    1    2    0    0  0.00000000000E+00  0.00000000000E+00  0.45159261261E+03  0.31662083799E+04  0.31338378415E+04 0.  0.
        4    1    3    3  502    0 -0.15131501821E+04 -0.27954952208E+03  0.52459065829E+03  0.16257208803E+04  0.12699999809E+01 0.  1.
       -4    1    3    3    0  502  0.15131501821E+04  0.27954952208E+03 -0.72998045681E+02  0.15404874996E+04  0.12699999809E+01 0. -1.
</event>
<event>
 5   0  0.1089337E-06  0.3361930E+04  0.7818609E-02  0.8147314E-01
        1   -1    0    0  501    0  0.00000000000E+00  0.00000000000E+00  0.15072555380E+04  0.15072555380E+04  0.50400001928E-02 0.  1.
       -1   -1    0    0    0  501  0.00000000000E+00  0.00000000000E+00 -0.18746941295E+04  0.18746941295E+04  0.50400001928E-02 0. -1.
    10030    2    1    2    0    0  0.00000000000E+00  0.00000000000E+00 -0.36743859155E+03  0.33819496675E+04  0.33619298677E+04 0.  0.
        2    1    3    3  502    0  0.56477672061E+03  0.15121141267E+04  0.28830965884E+03  0.16396903170E+04  0.25500000920E-02 0.  1.
       -2    1    3    3    0  502 -0.56477672061E+03 -0.15121141267E+04 -0.65574825039E+03  0.17422593505E+04  0.25500000920E-02 0. -1.
</event>
<event>
 5   0  0.1110956E-06  0.3460770E+04  0.7818609E-02  0.8123150E-01
        1   -1    0    0  501    0  0.00000000000E+00  0.00000000000E+00  0.18882974536E+04  0.18882974536E+04  0.50400001928E-02 0. -1.
       -1   -1    0    0    0  501  0.00000000000E+00  0.00000000000E+00 -0.15856784742E+04  0.15856784742E+04  0.50400001928E-02 0.  1.
    10030    2    1    2    0    0  0.00000000000E+00  0.00000000000E+00  0.30261897940E+03  0.34739759278E+04  0.34607702178E+04 0.  0.
        1    1    3    3  502    0  0.84032547042E+03 -0.51712890013E+02  0.16688358536E+04  0.18691800945E+04  0.50400001928E-02 0. -1.
       -1    1    3    3    0  502 -0.84032547042E+03  0.51712890013E+02 -0.13662168742E+04  0.16047958333E+04  0.50400001928E-02 0.  1.
</event>
<event>
 5   0  0.3378848E-06  0.3470404E+04  0.7818609E-02  0.8120840E-01
        2   -1    0    0  501    0  0.00000000000E+00  0.00000000000E+00  0.11238017094E+04  0.11238017094E+04  0.25500000920E-02 0. -1.
       -2   -1    0    0    0  501  0.00000000000E+00  0.00000000000E+00 -0.26792330545E+04  0.26792330545E+04  0.25500000920E-02 0.  1.
    10030    2    1    2    0    0  0.00000000000E+00  0.00000000000E+00 -0.15554313451E+04  0.38030347640E+04  0.34704044068E+04 0.  0.
        1    1    3    3  502    0  0.43286413245E+03  0.10738492857E+04 -0.21940339027E+04  0.24807878611E+04  0.50400001928E-02 0.  1.
       -1    1    3    3    0  502 -0.43286413245E+03 -0.10738492857E+04  0.63860255762E+03  0.13222469029E+04  0.50400001928E-02 0. -1.
</event>
<event>
 5   0  0.1908726E-06  0.3603448E+04  0.7818609E-02  0.8089702E-01
       -2   -1    0    0    0  501  0.00000000000E+00  0.00000000000E+00  0.14391117620E+04  0.14391117620E+04  0.25500000920E-02 0.  1.
        2   -1    0    0  501    0  0.00000000000E+00  0.00000000000E+00 -0.22557038620E+04  0.22557038620E+04  0.25500000920E-02 0. -1.
    10030    2    1    2    0    0  0.00000000000E+00  0.00000000000E+00 -0.81659209997E+03  0.36948156240E+04  0.36034483259E+04 0.  0.
        5    1    3    3  502    0 -0.15242228793E+03  0.12690744354E+03 -0.22444698387E+04  0.22532210277E+04  0.46999998093E+01 0. -1.
       -5    1    3    3    0  502  0.15242228793E+03 -0.12690744354E+03  0.14278777387E+04  0.14415945962E+04  0.46999998093E+01 0.  1.
</event>
<event>
 5   0  0.1102175E-06  0.3482738E+04  0.7818609E-02  0.8117893E-01
       -1   -1    0    0    0  501  0.00000000000E+00  0.00000000000E+00  0.16209960795E+04  0.16209960795E+04  0.50400001928E-02 0. -1.
        1   -1    0    0  501    0  0.00000000000E+00  0.00000000000E+00 -0.18706809146E+04  0.18706809146E+04  0.50400001928E-02 0.  1.
    10030    2    1    2    0    0  0.00000000000E+00  0.00000000000E+00 -0.24968483505E+03  0.34916769941E+04  0.34827382495E+04 0.  0.
        5    1    3    3  502    0 -0.12824262778E+03  0.79374144256E+03 -0.16734338734E+04  0.18565760604E+04  0.46999998093E+01 0.  1.
       -5    1    3    3    0  502  0.12824262778E+03 -0.79374144256E+03  0.14237490384E+04  0.16351009337E+04  0.46999998093E+01 0. -1.
</event>
<event>
 5   0  0.3378848E-06  0.3152951E+04  0.7818609E-02  0.8201354E-01
       -2   -1    0    0    0  501  0.00000000000E+00  0.00000000000E+00  0.83405659242E+03  0.83405659242E+03  0.25500000920E-02 0.  1.
        2   -1    0    0  501    0  0.00000000000E+00  0.00000000000E+00 -0.29797441416E+04  0.29797441416E+04  0.25500000920E-02 0. -1.
    10030    2    1    2    0    0  0.00000000000E+00  0.00000000000E+00 -0.21456875492E+04  0.38138007340E+04  0.31529511541E+04 0.  0.
        1    1    3    3  502    0 -0.12590319182E+04 -0.91363339744E+03 -0.76353701322E+03  0.17328808749E+04  0.50400001928E-02 0.  1.
       -1    1    3    3    0  502  0.12590319182E+04  0.91363339744E+03 -0.13821505359E+04  0.20809198591E+04  0.50400001928E-02 0. -1.
</event>
<event>
 5   0  0.1130707E-06  0.2853151E+04  0.7818609E-02  0.8286954E-01
       -1   -1    0    0    0  501  0.00000000000E+00  0.00000000000E+00  0.10166088166E+04  0.10166088166E+04  0.50400001928E-02 0.  1.
        1   -1    0    0  501    0  0.00000000000E+00  0.00000000000E+00 -0.20018695752E+04  0.20018695752E+04  0.50400001928E-02 0. -1.
    10030    2    1    2    0    0  0.00000000000E+00  0.00000000000E+00 -0.98526075865E+03  0.30184783918E+04  0.28531514224E+04 0.  0.
        3    1    3    3  502    0  0.86961285531E+03 -0.23779971519E+03  0.67703005594E+03  0.11274506329E+04  0.10100000352E+00 0.  1.
       -3    1    3    3    0  502 -0.86961285531E+03  0.23779971519E+03 -0.16622908146E+04  0.18910277590E+04  0.10100000352E+00 0. -1.
</event>
<event>
 5   0  0.1908726E-06  0.3501381E+04  0.7818609E-02  0.8113463E-01
       -2   -1    0    0    0  501  0.00000000000E+00  0.00000000000E+00  0.26570259674E+04  0.26570259674E+04  0.25500000920E-02 0. -1.
        2   -1    0    0  501    0  0.00000000000E+00  0.00000000000E+00 -0.11535143932E+04  0.11535143932E+04  0.25500000920E-02 0.  1.
    10030    2    1    2    0    0  0.00000000000E+00  0.00000000000E+00  0.15035115742E+04  0.38105403607E+04  0.35013812684E+04 0.  0.
        5    1    3    3  502    0 -0.56715156550E+03  0.84441740634E+03  0.23024134398E+04  0.25171077435E+04  0.46999998093E+01 0. -1.
       -5    1    3    3    0  502  0.56715156550E+03 -0.84441740634E+03 -0.79890186560E+03  0.12934326172E+04  0.46999998093E+01 0.  1.
</event>
<event>
 5   0  0.2565004E-06  0.3498006E+04  0.7818609E-02  0.8114263E-01
        2   -1    0    0  501    0  0.00000000000E+00  0.00000000000E+00  0.25792388101E+04  0.25792388101E+04  0.25500000920E-02 0. -1.
       -2   -1    0    0    0  501  0.00000000000E+00  0.00000000000E+00 -0.11860133031E+04  0.11860133031E+04  0.25500000920E-02 0.  1.
    10030    2    1    2    0    0  0.00000000000E+00  0.00000000000E+00  0.13932255069E+04  0.37652521132E+04  0.34980060267E+04 0.  0.
        3    1    3    3  502    0 -0.86649173721E+03  0.12425147725E+04 -0.24445884200E+03  0.15344090153E+04  0.10100000352E+00 0.  1.
       -3    1    3    3    0  502  0.86649173721E+03 -0.12425147725E+04  0.16376843489E+04  0.22308430979E+04  0.10100000352E+00 0. -1.
</event>
<event>
 5   0  0.1089337E-06  0.3420320E+04  0.7818609E-02  0.8132937E-01
       -1   -1    0    0    0  501  0.00000000000E+00  0.00000000000E+00  0.10434245475E+04  0.10434245476E+04  0.50400001928E-02 0.  1.
        1   -1    0    0  501    0  0.00000000000E+00  0.00000000000E+00 -0.28029312918E+04  0.28029312918E+04  0.50400001928E-02 0. -1.
    10030    2    1    2    0    0  0.00000000000E+00  0.00000000000E+00 -0.17595067443E+04  0.38463558394E+04  0.34203200523E+04 0.  0.
        2    1    3    3  502    0  0.16403800990E+04 -0.38060197662E+03 -0.54437304991E+03  0.17697589529E+04  0.25500000920E-02 0.  1.
       -2    1    3    3    0  502 -0.16403800990E+04  0.38060197662E+03 -0.12151336944E+04  0.20765968865E+04  0.25500000920E-02 0. -1.
</event>
<event>
 5   0  0.1089337E-06  0.3470381E+04  0.7818609E-02  0.8120845E-01
       -1   -1    0    0    0  501  0.00000000000E+00  0.00000000000E+00  0.20769559612E+04  0.20769559613E+04  0.50400001928E-02 0.  1.
        1   -1    0    0  501    0  0.00000000000E+00  0.00000000000E+00 -0.14496626670E+04  0.14496626670E+04  0.50400001928E-02 0. -1.
    10030    2    1    2    0    0  0.00000000000E+00  0.00000000000E+00  0.62729329427E+03  0.35266186282E+04  0.34703806811E+04 0.  0.
        2    1    3    3  502    0 -0.12424127099E+04 -0.35456232493E+03  0.14906831956E+04  0.19726733571E+04  0.25500000920E-02 0.  1.
       -2    1    3    3    0  502  0.12424127099E+04  0.35456232493E+03 -0.86338990132E+03  0.15539452712E+04  0.25500000920E-02 0. -1.
</event>
<event>
 5   0  0.2565004E-06  0.3343623E+04  0.7818609E-02  0.8151883E-01
       -2   -1    0    0    0  501  0.00000000000E+00  0.00000000000E+00  0.13878652891E+04  0.13878652891E+04  0.25500000920E-02 0. -1.
        2   -1    0    0  501    0  0.00000000000E+00  0.00000000000E+00 -0.20138512879E+04  0.20138512879E+04  0.25500000920E-02 0.  1.
    10030    2    1    2    0    0  0.00000000000E+00  0.00000000000E+00 -0.62598599884E+03  0.34017165770E+04  0.33436233639E+04 0.  0.
        3    1    3    3  502    0 -0.99546389185E+03  0.57761715572E+03 -0.15466466764E+04  0.19278760049E+04  0.10100000352E+00 0.  1.
       -3    1    3    3    0  502  0.99546389185E+03 -0.57761715572E+03  0.92066067754E+03  0.14738405721E+04  0.10100000352E+00 0. -1.
</event>
<event>
 5   0  0.1908726E-06  0.3474228E+04  0.7818609E-02  0.8119925E-01
       -2   -1    0    0    0  501  0.00000000000E+00  0.00000000000E+00  0.16236033887E+04  0.16236033887E+04  0.25500000920E-02 0. -1.
        2   -1    0    0  501    0  0.00000000000E+00  0.00000000000E+00 -0.18585606301E+04  0.18585606301E+04  0.25500000920E-02 0.  1.
    10030    2    1    2    0    0  0.00000000000E+00  0.00000000000E+00 -0.23495724141E+03  0.34821640188E+04  0.34742281658E+04 0.  0.
        5    1    3    3  502    0 -0.82729734079E+03  0.15015099821E+04  0.16350104538E+03  0.17221230497E+04  0.46999998093E+01 0. -1.
       -5    1    3    3    0  502  0.82729734079E+03 -0.15015099821E+04 -0.39845828679E+03  0.17600409691E+04  0.46999998093E+01 0.  1.
</event>
<event>
 5   0  0.1089337E-06  0.3186106E+04  0.7818609E-02  0.8192496E-01
       -1   -1    0    0    0  501  0.00000000000E+00  0.00000000000E+00  0.10301696792E+04  0.10301696792E+04  0.50400001928E-02 0.  1.
        1   -1    0    0  501    0  0.00000000000E+00  0.00000000000E+00 -0.24634954528E+04  0.24634954528E+04  0.50400001928E-02 0. -1.
    10030    2    1    2    0    0  0.00000000000E+00  0.00000000000E+00 -0.14333257736E+04  0.34936651320E+04  0.31861062884E+04 0.  0.
        2    1    3    3  502    0 -0.15146557862E+04 -0.38491054696E+03 -0.37783643132E+03  0.16078241971E+04  0.25500000920E-02 0.  1.
       -2    1    3    3    0  502  0.15146557862E+04  0.38491054696E+03 -0.10554893423E+04  0.18858409349E+04  0.25500000920E-02 0. -1.
</event>
<event>
 5   0  0.2565004E-06  0.3092614E+04  0.7818609E-02  0.8217768E-01
        2   -1    0    0  501    0  0.00000000000E+00  0.00000000000E+00  0.17284189733E+04  0.17284189733E+04  0.25500000920E-02 0. -1.
       -2   -1    0    0    0  501  0.00000000000E+00  0.00000000000E+00 -0.13833825376E+04  0.13833825376E+04  0.25500000920E-02 0.  1.
    10030    2    1    2    0    0  0.00000000000E+00  0.00000000000E+00  0.34503643576E+03  0.31118015109E+04  0.30926135390E+04 0.  0.
        3    1    3    3  502    0 -0.16095447417E+03 -0.11553308093E+04  0.11938871069E+04  0.16691500999E+04  0.10100000352E+00 0. -1.
       -3    1    3    3    0  502  0.16095447417E+03  0.11553308093E+04 -0.84885067117E+03  0.14426514110E+04  0.10100000352E+00 0.  1.
</event>
<event>
 5   0  0.1110956E-06  0.3041664E+04  0.7818609E-02  0.8231933E-01
       -1   -1    0    0    0  501  0.00000000000E+00  0.00000000000E+00  0.83521313445E+03  0.83521313446E+03  0.50400001928E-02 0. -1.
        1   -1    0    0  501    0  0.00000000000E+00  0.00000000000E+00 -0.27692686497E+04  0.27692686497E+04  0.50400001928E-02 0.  1.
    10030    2    1    2    0    0  0.00000000000E+00  0.00000000000E+00 -0.19340555152E+04  0.36044817842E+04  0.30416637218E+04 0.  0.
        1    1    3    3  502    0 -0.52195556593E+03  0.36065707239E+03 -0.26049598217E+04  0.26811055200E+04  0.50400001928E-02 0.  1.
       -1    1    3    3    0  502  0.52195556593E+03 -0.36065707239E+03  0.67090430649E+03  0.92337626413E+03  0.50400001928E-02 0. -1.
</event>
<event>
 5   0  0.3378848E-06  0.3503441E+04  0.7818609E-02  0.8112975E-01
        2   -1    0    0  501    0  0.00000000000E+00  0.00000000000E+00  0.16783243927E+04  0.16783243927E+04  0.25500000920E-02 0.  1.
       -2   -1    0    0    0  501  0.00000000000E+00  0.00000000000E+00 -0.18283259536E+04  0.18283259536E+04  0.25500000920E-02 0. -1.
    10030    2    1    2    0    0  0.00000000000E+00  0.00000000000E+00 -0.15000156082E+03  0.35066503463E+04  0.35034406207E+04 0.  0.
        1    1    3    3  502    0  0.20070770356E+03 -0.17394405387E+04 -0.24090875875E+02  0.17511474353E+04  0.50400001928E-02 0.  1.
       -1    1    3    3    0  502 -0.20070770356E+03  0.17394405387E+04 -0.12591068495E+03  0.17555029110E+04  0.50400001928E-02 0. -1.
</event>
<event>
 5   0  0.1908726E-06  0.3516756E+04  0.7818609E-02  0.8109831E-01
       -2   -1    0    0    0  501  0.00000000000E+00  0.00000000000E+00  0.18145053735E+04  0.18145053735E+04  0.25500000920E-02 0.  1.
        2   -1    0    0  501    0  0.00000000000E+00  0.00000000000E+00 -0.17039865239E+04  0.17039865239E+04  0.25500000920E-02 0. -1.
    10030    2    1    2    0    0  0.00000000000E+00  0.00000000000E+00  0.11051884964E+03  0.35184918974E+04  0.35167557231E+04 0.  0.
        5    1    3    3  502    0 -0.57674881351E+03 -0.88076330894E+03 -0.13537992462E+04  0.17149862067E+04  0.46999998093E+01 0. -1.
       -5    1    3    3    0  502  0.57674881351E+03  0.88076330894E+03  0.14643180959E+04  0.18035056906E+04  0.46999998093E+01 0.  1.
</event>
<event>
 5   0  0.1908726E-06  0.2064565E+04  0.7818609E-02  0.8577015E-01
       -2   -1    0    0    0  501  0.00000000000E+00  0.00000000000E+00  0.65815367778E+03  0.65815367779E+03  0.25500000920E-02 0. -1.
        2   -1    0    0  501    0  0.00000000000E+00  0.00000000000E+00 -0.16190858975E+04  0.16190858975E+04  0.25500000920E-02 0.  1.
    10030    2    1    2    0    0  0.00000000000E+00  0.00000000000E+00 -0.96093221970E+03  0.22772395753E+04  0.20645651727E+04 0.  0.
        5    1    3    3  502    0 -0.57295574107E+03 -0.23001445000E+03 -0.13929710568E+04  0.15236716784E+04  0.46999998093E+01 0.  1.
       -5    1    3    3    0  502  0.57295574107E+03  0.23001445000E+03  0.43203883711E+03  0.75356789688E+03  0.46999998093E+01 0. -1.
</event>
<event>
 5   0  0.1089337E-06  0.2007151E+04  0.7818609E-02  0.8603285E-01
        1   -1    0    0  501    0  0.00000000000E+00  0.00000000000E+00  0.87352722370E+03  0.87352722372E+03  0.50400001928E-02 0.  1.
       -1   -1    0    0    0  501  0.00000000000E+00  0.00000000000E+00 -0.11529846389E+04  0.11529846390E+04  0.50400001928E-02 0. -1.
    10030    2    1    2    0    0  0.00000000000E+00  0.00000000000E+00 -0.27945741524E+03  0.20265118627E+04  0.20071506876E+04 0.  0.
        2    1    3    3  502    0 -0.21803407210E+03  0.92985642959E+03  0.17145141806E+03  0.97034397252E+03  0.25500000920E-02 0.  1.
       -2    1    3    3    0  502  0.21803407210E+03 -0.92985642959E+03 -0.45090883330E+03  0.10561678902E+04  0.25500000920E-02 0. -1.
</event>
<event>
 5   0  0.1908726E-06  0.3566166E+04  0.7818609E-02  0.8098286E-01
       -2   -1    0    0    0  501  0.00000000000E+00  0.00000000000E+00  0.15860485114E+04  0.15860485114E+04  0.25500000920E-02 0. -1.
        2   -1    0    0  501    0  0.00000000000E+00  0.00000000000E+00 -0.20045948361E+04  0.20045948361E+04  0.25500000920E-02 0.  1.
    10030    2    1    2    0    0  0.00000000000E+00  0.00000000000E+00 -0.41854632465E+03  0.35906433475E+04  0.35661658154E+04 0.  0.
        5    1    3    3  502    0 -0.13364198755E+04 -0.10280955144E+04  0.37467668953E+03  0.17272530741E+04  0.46999998093E+01 0.  1.
       -5    1    3    3    0  502  0.13364198755E+04  0.10280955144E+04 -0.79322301418E+03  0.18633902733E+04  0.46999998093E+01 0. -1.
</event>
<event>
 5   0  0.3041329E-06  0.3502458E+04  0.7818609E-02  0.8113208E-01
        2   -1    0    0  501    0  0.00000000000E+00  0.00000000000E+00  0.20681825333E+04  0.20681825333E+04  0.25500000920E-02 0.  1.
       -2   -1    0    0    0  501  0.00000000000E+00  0.00000000000E+00 -0.14828490506E+04  0.14828490506E+04  0.25500000920E-02 0. -1.
    10030    2    1    2    0    0  0.00000000000E+00  0.00000000000E+00  0.58533348279E+03  0.35510315839E+04  0.35024577119E+04 0.  0.
        2    1    3    3  502    0 -0.12706267398E+04  0.48028587176E+03  0.14132715666E+04  0.19602304332E+04  0.25500000920E-02 0.  1.
       -2    1    3    3    0  502  0.12706267398E+04 -0.48028587176E+03 -0.82793808378E+03  0.15908011507E+04  0.25500000920E-02 0. -1.
</event>
<event>
 5   0  0.1782660E-06  0.2807564E+04  0.7818609E-02  0.8300924E-01
        2   -1    0    0  501    0  0.00000000000E+00  0.00000000000E+00  0.23928137620E+04  0.23928137620E+04  0.25500000920E-02 0. -1.
       -2   -1    0    0    0  501  0.00000000000E+00  0.00000000000E+00 -0.82355076953E+03  0.82355076953E+03  0.25500000920E-02 0.  1.
    10030    2    1    2    0    0  0.00000000000E+00  0.00000000000E+00  0.15692629924E+04  0.32163645315E+04  0.28075637945E+04 0.  0.
        4    1    3    3  502    0 -0.33978406572E+03  0.12359853292E+03 -0.76929137541E+03  0.85002390663E+03  0.12699999809E+01 0.  1.
       -4    1    3    3    0  502  0.33978406572E+03 -0.12359853292E+03  0.23385543678E+04  0.23663406249E+04  0.12699999809E+01 0. -1.
</event>
<event>
 5   0  0.3378848E-06  0.3448862E+04  0.7818609E-02  0.8126017E-01
       -2   -1    0    0    0  501  0.00000000000E+00  0.00000000000E+00  0.17102065709E+04  0.17102065709E+04  0.25500000920E-02 0.  1.
        2   -1    0    0  501    0  0.00000000000E+00  0.00000000000E+00 -0.17387740951E+04  0.17387740951E+04  0.25500000920E-02 0. -1.
    10030    2    1    2    0    0  0.00000000000E+00  0.00000000000E+00 -0.28567524238E+02  0.34489806660E+04  0.34488623532E+04 0.  0.
        1    1    3    3  502    0 -0.37181319141E+03 -0.80091629136E+03  0.14669662022E+04  0.17122213039E+04  0.50400001928E-02 0.  1.
       -1    1    3    3    0  502  0.37181319141E+03  0.80091629136E+03 -0.14955337264E+04  0.17367593621E+04  0.50400001928E-02 0. -1.
</event>
<event>
 5   0  0.1782660E-06  0.3487818E+04  0.7818609E-02  0.8116683E-01
        2   -1    0    0  501    0  0.00000000000E+00  0.00000000000E+00  0.12219410479E+04  0.12219410479E+04  0.25500000920E-02 0. -1.
       -2   -1    0    0    0  501  0.00000000000E+00  0.00000000000E+00 -0.24888423488E+04  0.24888423488E+04  0.25500000920E-02 0.  1.
    10030    2    1    2    0    0  0.00000000000E+00  0.00000000000E+00 -0.12669013009E+04  0.37107833967E+04  0.34878180158E+04 0.  0.
        4    1    3    3  502    0 -0.91252922153E+03 -0.10000760484E+03 -0.22109733137E+04  0.23939748763E+04  0.12699999809E+01 0.  1.
       -4    1    3    3    0  502  0.91252922153E+03  0.10000760484E+03  0.94407201285E+03  0.13168085204E+04  0.12699999809E+01 0. -1.
</event>
<event>
 5   0  0.1782660E-06  0.2912134E+04  0.7818609E-02  0.8269276E-01
       -2   -1    0    0    0  501  0.00000000000E+00  0.00000000000E+00  0.10311484433E+04  0.10311484433E+04  0.25500000920E-02 0.  1.
        2   -1    0    0  501    0  0.00000000000E+00  0.00000000000E+00 -0.20560877049E+04  0.20560877049E+04  0.25500000920E-02 0. -1.
    10030    2    1    2    0    0  0.00000000000E+00  0.00000000000E+00 -0.10249392616E+04  0.30872361482E+04  0.29121343624E+04 0.  0.
        4    1    3    3  502    0  0.50231041558E+03 -0.13339757009E+04 -0.82753131567E+03  0.16482161920E+04  0.12699999809E+01 0.  1.
       -4    1    3    3    0  502 -0.50231041558E+03  0.13339757009E+04 -0.19740794595E+03  0.14390199562E+04  0.12699999809E+01 0. -1.
</event>
<event>
 5   0  0.1125196E-06  0.3489155E+04  0.7818609E-02  0.8116365E-01
        1   -1    0    0  501    0  0.00000000000E+00  0.00000000000E+00  0.12448052260E+04  0.12448052260E+04  0.50400001928E-02 0.  1.
       -1   -1    0    0    0  501  0.00000000000E+00  0.00000000000E+00 -0.24450011972E+04  0.24450011972E+04  0.50400001928E-02 0. -1.
    10030    2    1    2    0    0  0.00000000000E+00  0.00000000000E+00 -0.12001959712E+04  0.36898064233E+04  0.34891547790E+04 0.  0.
        4    1    3    3  502    0 -0.10464575134E+02  0.16389268737E+04  0.32073657162E+02  0.16392745765E+04  0.12699999809E+01 0.  1.
       -4    1    3    3    0  502  0.10464575134E+02 -0.16389268737E+04 -0.12322696283E+04  0.20505318468E+04  0.12699999809E+01 0. -1.
</event>
<event>
 5   0  0.1089337E-06  0.2041549E+04  0.7818609E-02  0.8587438E-01
       -1   -1    0    0    0  501  0.00000000000E+00  0.00000000000E+00  0.49949275742E+03  0.49949275744E+03  0.50400001928E-02 0.  1.
        1   -1    0    0  501    0  0.00000000000E+00  0.00000000000E+00 -0.20860776945E+04  0.20860776945E+04  0.50400001928E-02 0. -1.
    10030    2    1    2    0    0  0.00000000000E+00  0.00000000000E+00 -0.15865849371E+04  0.25855704519E+04  0.20415491176E+04 0.  0.
        2    1    3    3  502    0 -0.27266096220E+03  0.41805731165E+03 -0.19209990295E+04  0.19847803877E+04  0.25500000920E-02 0. -1.
       -2    1    3    3    0  502  0.27266096220E+03 -0.41805731165E+03  0.33441409238E+03  0.60079006427E+03  0.25500000920E-02 0.  1.
</event>
<event>
 5   0  0.1130707E-06  0.3096136E+04  0.7818609E-02  0.8216799E-01
       -1   -1    0    0    0  501  0.00000000000E+00  0.00000000000E+00  0.12157692352E+04  0.12157692353E+04  0.50400001928E-02 0. -1.
        1   -1    0    0  501    0  0.00000000000E+00  0.00000000000E+00 -0.19711919752E+04  0.19711919752E+04  0.50400001928E-02 0.  1.
    10030    2    1    2    0    0  0.00000000000E+00  0.00000000000E+00 -0.75542273995E+03  0.31869612105E+04  0.30961360178E+04 0.  0.
        3    1    3    3  502    0 -0.60664931342E+03 -0.17141683652E+03  0.10776633015E+04  0.12485052355E+04  0.10100000352E+00 0. -1.
       -3    1    3    3    0  502  0.60664931342E+03  0.17141683652E+03 -0.18330860415E+04  0.19384559750E+04  0.10100000352E+00 0.  1.
</event>
<event>
 5   0  0.1089337E-06  0.3191133E+04  0.7818609E-02  0.8191163E-01
        1   -1    0    0  501    0  0.00000000000E+00  0.00000000000E+00  0.17829179363E+04  0.17829179363E+04  0.50400001928E-02 0.  1.
       -1   -1    0    0    0  501  0.00000000000E+00  0.00000000000E+00 -0.14279019622E+04  0.14279019622E+04  0.50400001928E-02 0. -1.
    10030    2    1    2    0    0  0.00000000000E+00  0.00000000000E+00  0.35501597412E+03  0.32108198985E+04  0.31911327266E+04 0.  0.
        2    1    3    3  502    0 -0.15070706684E+04  0.10643671155E+03  0.69374370198E+03  0.16624894277E+04  0.25500000920E-02 0. -1.
       -2    1    3    3    0  502  0.15070706684E+04 -0.10643671155E+03 -0.33872772786E+03  0.15483304708E+04  0.25500000920E-02 0.  1.
</event>
<event>
 5   0  0.1042825E-06  0.3164138E+04  0.7818609E-02  0.8198353E-01
        4   -1    0    0  501    0  0.00000000000E+00  0.00000000000E+00  0.24251355122E+04  0.24251358448E+04  0.12699999809E+01 0. -1.
       -4   -1    0    0    0  501  0.00000000000E+00  0.00000000000E+00 -0.10320828683E+04  0.10320836497E+04  0.12699999809E+01 0.  1.
    10030    2    1    2    0    0  0.00000000000E+00  0.00000000000E+00  0.13930526439E+04  0.34572194945E+04  0.31641382657E+04 0.  0.
        5    1    3    3  502    0  0.12373724466E+04 -0.61805706719E+03 -0.14261859693E+03  0.13904845430E+04  0.46999998093E+01 0.  1.
       -5    1    3    3    0  502 -0.12373724466E+04  0.61805706719E+03  0.15356712408E+04  0.20667349515E+04  0.46999998093E+01 0. -1.
</event>
<event>
 5   0  0.1042825E-06  0.1983680E+04  0.7818609E-02  0.8614289E-01
       -3   -1    0    0    0  501  0.00000000000E+00  0.00000000000E+00  0.16650373808E+04  0.16650373839E+04  0.10100000352E+00 0.  1.
        3   -1    0    0  501    0  0.00000000000E+00  0.00000000000E+00 -0.59082559026E+03  0.59082559889E+03  0.10100000352E+00 0. -1.
    10030    2    1    2    0    0  0.00000000000E+00  0.00000000000E+00  0.10742117906E+04  0.22558629828E+04  0.19836801219E+04 0.  0.
        5    1    3    3  502    0 -0.27307166617E+03 -0.12825177222E+03 -0.53736778370E+03  0.61628149161E+03  0.46999998093E+01 0. -1.
       -5    1    3    3    0  502  0.27307166617E+03  0.12825177222E+03  0.16115795743E+04  0.16395814912E+04  0.46999998093E+01 0.  1.
</event>
<event>
 5   0  0.1125196E-06  0.3493259E+04  0.7818609E-02  0.8115389E-01
       -1   -1    0    0    0  501  0.00000000000E+00  0.00000000000E+00  0.13569844694E+04  0.13569844694E+04  0.50400001928E-02 0.  1.
        1   -1    0    0  501    0  0.00000000000E+00  0.00000000000E+00 -0.22481571045E+04  0.22481571045E+04  0.50400001928E-02 0. -1.
    10030    2    1    2    0    0  0.00000000000E+00  0.00000000000E+00 -0.89117263506E+03  0.36051415739E+04  0.34932588084E+04 0.  0.
        4    1    3    3  502    0  0.60679231601E+03  0.13146786772E+04 -0.14536701267E+04  0.20517639701E+04  0.12699999809E+01 0. -1.
       -4    1    3    3    0  502 -0.60679231601E+03 -0.13146786772E+04  0.56249749161E+03  0.15533776038E+04  0.12699999809E+01 0.  1.
</event>
<event>
 5   0  0.1782660E-06  0.3548078E+04  0.7818609E-02  0.8102490E-01
       -2   -1    0    0    0  501  0.00000000000E+00  0.00000000000E+00  0.20222022702E+04  0.20222022702E+04  0.25500000920E-02 0.  1.
        2   -1    0    0  501    0  0.00000000000E+00  0.00000000000E+00 -0.15563297943E+04  0.15563297943E+04  0.25500000920E-02 0. -1.
    10030    2    1    2    0    0  0.00000000000E+00  0.00000000000E+00  0.46587247586E+03  0.35785320645E+04  0.35480775884E+04 0.  0.
        4    1    3    3  502    0  0.51166055452E+03  0.98317910284E+03  0.16300242232E+04  0.19711464310E+04  0.12699999809E+01 0.  1.
       -4    1    3    3    0  502 -0.51166055452E+03 -0.98317910284E+03 -0.11641517473E+04  0.16073856336E+04  0.12699999809E+01 0. -1.
</event>
<event>
 5   0  0.1908726E-06  0.3470601E+04  0.7818609E-02  0.8120793E-01
        2   -1    0    0  501    0  0.00000000000E+00  0.00000000000E+00  0.21174690468E+04  0.21174690468E+04  0.25500000920E-02 0.  1.
       -2   -1    0    0    0  501  0.00000000000E+00  0.00000000000E+00 -0.14221073585E+04  0.14221073585E+04  0.25500000920E-02 0. -1.
    10030    2    1    2    0    0  0.00000000000E+00  0.00000000000E+00  0.69536168837E+03  0.35395764053E+04  0.34706012810E+04 0.  0.
        5    1    3    3  502    0  0.81716999610E+03  0.13923687487E+04 -0.30119372336E+03  0.16423146117E+04  0.46999998093E+01 0. -1.
       -5    1    3    3    0  502 -0.81716999610E+03 -0.13923687487E+04  0.99655541173E+03  0.18972617936E+04  0.46999998093E+01 0.  1.
</event>
<event>
 5   0  0.1125196E-06  0.3440258E+04  0.7818609E-02  0.8128096E-01
       -1   -1    0    0    0  501  0.00000000000E+00  0.00000000000E+00  0.12620396791E+04  0.12620396791E+04  0.50400001928E-02 0.  1.
        1   -1    0    0  501    0  0.00000000000E+00  0.00000000000E+00 -0.23444940516E+04  0.23444940516E+04  0.50400001928E-02 0. -1.
    10030    2    1    2    0    0  0.00000000000E+00  0.00000000000E+00 -0.10824543725E+04  0.36065337307E+04  0.34402584324E+04 0.  0.
        4    1    3    3  502    0 -0.44963485859E+03  0.16393890699E+04 -0.26570346403E+03  0.17205719898E+04  0.12699999809E+01 0.  1.
       -4    1    3    3    0  502  0.44963485859E+03 -0.16393890699E+04 -0.81675090848E+03  0.18859617408E+04  0.12699999809E+01 0. -1.
</event>
<event>
 5   0  0.2565004E-06  0.3443665E+04  0.7818609E-02  0.8127272E-01
        2   -1    0    0  501    0  0.00000000000E+00  0.00000000000E+00  0.16683903247E+04  0.16683903247E+04  0.25500000920E-02 0.  1.
       -2   -1    0    0    0  501  0.00000000000E+00  0.00000000000E+00 -0.17769867812E+04  0.17769867812E+04  0.25500000920E-02 0. -1.
    10030    2    1    2    0    0  0.00000000000E+00  0.00000000000E+00 -0.10859645650E+03  0.34453771060E+04  0.34436652294E+04 0.  0.
        3    1    3    3  502    0  0.11271558541E+04 -0.76042603871E+03 -0.11112226653E+04  0.17560022499E+04  0.10100000352E+00 0. -1.
       -3    1    3    3    0  502 -0.11271558541E+04  0.76042603871E+03  0.10026262088E+04  0.16893748561E+04  0.10100000352E+00 0.  1.
</event>
<event>
 5   0  0.1908726E-06  0.3629588E+04  0.7818609E-02  0.8083748E-01
       -2   -1    0    0    0  501  0.00000000000E+00  0.00000000000E+00  0.11666250973E+04  0.11666250973E+04  0.25500000920E-02 0.  1.
        2   -1    0    0  501    0  0.00000000000E+00  0.00000000000E+00 -0.28230806050E+04  0.28230806050E+04  0.25500000920E-02 0. -1.
    10030    2    1    2    0    0  0.00000000000E+00  0.00000000000E+00 -0.16564555077E+04  0.39897057022E+04  0.36295876820E+04 0.  0.
        5    1    3    3  502    0 -0.57504988696E+03  0.78742071446E+02 -0.27182973333E+04  0.27795764369E+04  0.46999998093E+01 0. -1.
       -5    1    3    3    0  502  0.57504988696E+03 -0.78742071446E+02  0.10618418256E+04  0.12101292654E+04  0.46999998093E+01 0.  1.
</event>
<event>
 5   0  0.1110956E-06  0.3501858E+04  0.7818609E-02  0.8113350E-01
       -1   -1    0    0    0  501  0.00000000000E+00  0.00000000000E+00  0.29233962623E+04  0.29233962623E+04  0.50400001928E-02 0. -1.
        1   -1    0    0  501    0  0.00000000000E+00  0.00000000000E+00 -0.10486956743E+04  0.10486956743E+04  0.50400001928E-02 0.  1.
    10030    2    1    2    0    0  0.00000000000E+00  0.00000000000E+00  0.18747005881E+04  0.39720919366E+04  0.35018583721E+04 0.  0.
        1    1    3    3  502    0  0.15776886657E+03  0.77342588571E+03 -0.83542424078E+03  0.11493529824E+04  0.50400001928E-02 0.  1.
       -1    1    3    3    0  502 -0.15776886657E+03 -0.77342588571E+03  0.27101248289E+04  0.28227389543E+04  0.50400001928E-02 0. -1.
</event>
<event>
 5   0  0.1110956E-06  0.3512736E+04  0.7818609E-02  0.8110778E-01
       -1   -1    0    0    0  501  0.00000000000E+00  0.00000000000E+00  0.19977058800E+04  0.19977058800E+04  0.50400001928E-02 0.  1.
        1   -1    0    0  501    0  0.00000000000E+00  0.00000000000E+00 -0.15441851440E+04  0.15441851440E+04  0.50400001928E-02 0. -1.
    10030    2    1    2    0    0  0.00000000000E+00  0.00000000000E+00  0.45352073600E+03  0.35418910239E+04  0.35127355391E+04 0.  0.
        1    1    3    3  502    0 -0.16955975131E+04 -0.36093353230E+03  0.51106483622E+03  0.18073492214E+04  0.50400001928E-02 0.  1.
       -1    1    3    3    0  502  0.16955975131E+04  0.36093353230E+03 -0.57544100217E+02  0.17345418025E+04  0.50400001928E-02 0. -1.
</event>
<event>
 5   0  0.1102175E-06  0.1992096E+04  0.7818609E-02  0.8610325E-01
       -1   -1    0    0    0  501  0.00000000000E+00  0.00000000000E+00  0.35058848003E+03  0.35058848007E+03  0.50400001928E-02 0. -1.
        1   -1    0    0  501    0  0.00000000000E+00  0.00000000000E+00 -0.28298473145E+04  0.28298473145E+04  0.50400001928E-02 0.  1.
    10030    2    1    2    0    0  0.00000000000E+00  0.00000000000E+00 -0.24792588345E+04  0.31804357946E+04  0.19920962515E+04 0.  0.
        5    1    3    3  502    0 -0.91528948493E+03 -0.11077394959E+03 -0.63787617331E+03  0.11211305953E+04  0.46999998093E+01 0. -1.
       -5    1    3    3    0  502  0.91528948493E+03  0.11077394959E+03 -0.18413826611E+04  0.20593051993E+04  0.46999998093E+01 0.  1.
</event>
<event>
 5   0  0.3041329E-06  0.3483609E+04  0.7818609E-02  0.8117685E-01
        2   -1    0    0  501    0  0.00000000000E+00  0.00000000000E+00  0.17525545007E+04  0.17525545007E+04  0.25500000920E-02 0. -1.
       -2   -1    0    0    0  501  0.00000000000E+00  0.00000000000E+00 -0.17311201749E+04  0.17311201749E+04  0.25500000920E-02 0.  1.
    10030    2    1    2    0    0  0.00000000000E+00  0.00000000000E+00  0.21434325796E+02  0.34836746756E+04  0.34836087345E+04 0.  0.
        2    1    3    3  502    0 -0.55076203400E+03 -0.15023834891E+03  0.16563400217E+04  0.17519625130E+04  0.25500000920E-02 0. -1.
       -2    1    3    3    0  502  0.55076203400E+03  0.15023834891E+03 -0.16349056959E+04  0.17317121626E+04  0.25500000920E-02 0.  1.
</event>
<event>
 5   0  0.3041329E-06  0.2021729E+04  0.7818609E-02  0.8596529E-01
       -2   -1    0    0    0  501  0.00000000000E+00  0.00000000000E+00  0.12237006842E+04  0.12237006842E+04  0.25500000920E-02 0. -1.
        2   -1    0    0  501    0  0.00000000000E+00  0.00000000000E+00 -0.83504646219E+03  0.83504646219E+03  0.25500000920E-02 0.  1.
    10030    2    1    2    0    0  0.00000000000E+00  0.00000000000E+00  0.38865422199E+03  0.20587471464E+04  0.20217288909E+04 0.  0.
        2    1    3    3  502    0  0.77159411345E+03 -0.49584065035E+03 -0.23846251077E+03  0.94767072103E+03  0.25500000920E-02 0.  1.
       -2    1    3    3    0  502 -0.77159411345E+03  0.49584065035E+03  0.62711673277E+03  0.11110764253E+04  0.25500000920E-02 0. -1.
</event>
<event>
 5   0  0.2565004E-06  0.2567954E+04  0.7818609E-02  0.8379169E-01
       -2   -1    0    0    0  501  0.00000000000E+00  0.00000000000E+00  0.17551286199E+04  0.17551286199E+04  0.25500000920E-02 0.  1.
        2   -1    0    0  501    0  0.00000000000E+00  0.00000000000E+00 -0.93930240303E+03  0.93930240303E+03  0.25500000920E-02 0. -1.
    10030    2    1    2    0    0  0.00000000000E+00  0.00000000000E+00  0.81582621683E+03  0.26944310229E+04  0.25679536836E+04 0.  0.
        3    1    3    3  502    0  0.29049404303E+03  0.12131174950E+04  0.72712672510E+03  0.14438677675E+04  0.10100000352E+00 0. -1.
       -3    1    3    3    0  502 -0.29049404303E+03 -0.12131174950E+04  0.88699491726E+02  0.12505632553E+04  0.10100000352E+00 0.  1.
</event>
<event>
 5   0  0.1782660E-06  0.2282682E+04  0.7818609E-02  0.8484781E-01
       -2   -1    0    0    0  501  0.00000000000E+00  0.00000000000E+00  0.70405734980E+03  0.70405734980E+03  0.25500000920E-02 0. -1.
        2   -1    0    0  501    0  0.00000000000E+00  0.00000000000E+00 -0.18502176630E+04  0.18502176630E+04  0.25500000920E-02 0.  1.
    10030    2    1    2    0    0  0.00000000000E+00  0.00000000000E+00 -0.11461603132E+04  0.25542750128E+04  0.22826820579E+04 0.  0.
        4    1    3    3  502    0  0.36439790190E+03  0.16166265572E+02 -0.17832403649E+04  0.18201634517E+04  0.12699999809E+01 0.  1.
       -4    1    3    3    0  502 -0.36439790190E+03 -0.16166265572E+02  0.63708005166E+03  0.73411156113E+03  0.12699999809E+01 0. -1.
</event>
<event>
 5   0  0.1125196E-06  0.3466666E+04  0.7818609E-02  0.8121735E-01
        1   -1    0    0  501    0  0.00000000000E+00  0.00000000000E+00  0.18399782282E+04  0.18399782282E+04  0.50400001928E-02 0. -1.
       -1   -1    0    0    0  501  0.00000000000E+00  0.00000000000E+00 -0.16328686262E+04  0.16328686262E+04  0.50400001928E-02 0.  1.
    10030    2    1    2    0    0  0.00000000000E+00  0.00000000000E+00  0.20710960194E+03  0.34728468544E+04  0.34666656728E+04 0.  0.
        4    1    3    3  502    0  0.10318199572E+04  0.35035078675E+03  0.14539356678E+04  0.18169558709E+04  0.12699999809E+01 0. -1.
       -4    1    3    3    0  502 -0.10318199572E+04 -0.35035078675E+03 -0.12468260659E+04  0.16558909835E+04  0.12699999809E+01 0.  1.
</event>
<event>
 5   0  0.1782660E-06  0.3608211E+04  0.7818609E-02  0.8088613E-01
       -2   -1    0    0    0  501  0.00000000000E+00  0.00000000000E+00  0.22064407702E+04  0.22064407702E+04  0.25500000920E-02 0.  1.
        2   -1    0    0  501    0  0.00000000000E+00  0.00000000000E+00 -0.14751344743E+04  0.14751344743E+04  0.25500000920E-02 0. -1.
    10030    2    1    2    0    0  0.00000000000E+00  0.00000000000E+00  0.73130629595E+03  0.36815752445E+04  0.36082111056E+04 0.  0.
        4    1    3    3  502    0  0.17109523351E+04 -0.52489375951E+03  0.59815441020E+03  0.18869715586E+04  0.12699999809E+01 0.  1.
       -4    1    3    3    0  502 -0.17109523351E+04  0.52489375951E+03  0.13315188575E+03  0.17946036859E+04  0.12699999809E+01 0. -1.
</event>
<event>
 5   0  0.1908726E-06  0.2422194E+04  0.7818609E-02  0.8431241E-01
        2   -1    0    0  501    0  0.00000000000E+00  0.00000000000E+00  0.16736573396E+04  0.16736573396E+04  0.25500000920E-02 0.  1.
       -2   -1    0    0    0  501  0.00000000000E+00  0.00000000000E+00 -0.87637763295E+03  0.87637763296E+03  0.25500000920E-02 0. -1.
    10030    2    1    2    0    0  0.00000000000E+00  0.00000000000E+00  0.79727970667E+03  0.25500349726E+04  0.24221939292E+04 0.  0.
        5    1    3    3  502    0 -0.30020862889E+03  0.27457420185E+03  0.15995546120E+04  0.16504887943E+04  0.46999998093E+01 0.  1.
       -5    1    3    3    0  502  0.30020862889E+03 -0.27457420185E+03 -0.80227490535E+03  0.89954617832E+03  0.46999998093E+01 0. -1.
</event>
<event>
 5   0  0.1782660E-06  0.3519237E+04  0.7818609E-02  0.8109246E-01
       -2   -1    0    0    0  501  0.00000000000E+00  0.00000000000E+00  0.16046853480E+04  0.16046853480E+04  0.25500000920E-02 0.  1.
        2   -1    0    0  501    0  0.00000000000E+00  0.00000000000E+00 -0.19295109185E+04  0.19295109185E+04  0.25500000920E-02 0. -1.
    10030    2    1    2    0    0  0.00000000000E+00  0.00000000000E+00 -0.32482557053E+03  0.35341962665E+04  0.35192373604E+04 0.  0.
        4    1    3    3  502    0  0.77920067203E+03 -0.10614141601E+04 -0.13346372228E+04  0.18748364825E+04  0.12699999809E+01 0. -1.
       -4    1    3    3    0  502 -0.77920067203E+03  0.10614141601E+04  0.10098116523E+04  0.16593597840E+04  0.12699999809E+01 0.  1.
</event>
<event>
 5   0  0.1110956E-06  0.3211088E+04  0.7818609E-02  0.8185895E-01
        1   -1    0    0  501    0  0.00000000000E+00  0.00000000000E+00  0.18185068848E+04  0.18185068848E+04  0.50400001928E-02 0. -1.
       -1   -1    0    0    0  501  0.00000000000E+00  0.00000000000E+00 -0.14175208255E+04  0.14175208256E+04  0.50400001928E-02 0.  1.
    10030    2    1    2    0    0  0.00000000000E+00  0.00000000000E+00  0.40098605928E+03  0.32360277104E+04  0.32110879033E+04 0.  0.
        1    1    3    3  502    0 -0.10772470762E+04 -0.11895041596E+04  0.24976006204E+03  0.16241186834E+04  0.50400001928E-02 0.  1.
       -1    1    3    3    0  502  0.10772470762E+04  0.11895041596E+04  0.15122599724E+03  0.16119090270E+04  0.50400001928E-02 0. -1.
</event>
<event>
 5   0  0.3378848E-06  0.3418627E+04  0.7818609E-02  0.8133350E-01
       -2   -1    0    0    0  501  0.00000000000E+00  0.00000000000E+00  0.13746429999E+04  0.13746429999E+04  0.25500000920E-02 0.  1.
        2   -1    0    0  501    0  0.00000000000E+00  0.00000000000E+00 -0.21254627673E+04  0.21254627673E+04  0.25500000920E-02 0. -1.
    10030    2    1    2    0    0  0.00000000000E+00  0.00000000000E+00 -0.75081976745E+03  0.35001057672E+04  0.34186269259E+04 0.  0.
        1    1    3    3  502    0  0.72784703279E+03 -0.14634786085E+04  0.13673381668E+03  0.16401911709E+04  0.50400001928E-02 0.  1.
       -1    1    3    3    0  502 -0.72784703279E+03  0.14634786085E+04 -0.88755358413E+03  0.18599145962E+04  0.50400001928E-02 0. -1.
</event>
<event>
 5   0  0.1110956E-06  0.3628185E+04  0.7818609E-02  0.8084066E-01
       -1   -1    0    0    0  501  0.00000000000E+00  0.00000000000E+00  0.20257182746E+04  0.20257182746E+04  0.50400001928E-02 0. -1.
        1   -1    0    0  501    0  0.00000000000E+00  0.00000000000E+00 -0.16245749850E+04  0.16245749850E+04  0.50400001928E-02 0.  1.
    10030    2    1    2    0    0  0.00000000000E+00  0.00000000000E+00  0.40114328960E+03  0.36502932596E+04  0.36281847999E+04 0.  0.
        1    1    3    3  502    0 -0.65782132869E+03  0.62452615500E+03  0.17811857029E+04  0.19988457487E+04  0.50400001928E-02 0. -1.
       -1    1    3    3    0  502  0.65782132869E+03 -0.62452615500E+03 -0.13800424133E+04  0.16514475109E+04  0.50400001928E-02 0.  1.
</event>
<event>
 5   0  0.1782660E-06  0.3413678E+04  0.7818609E-02  0.8134557E-01
        2   -1    0    0  501    0  0.00000000000E+00  0.00000000000E+00  0.24521849075E+04  0.24521849075E+04  0.25500000920E-02 0. -1.
       -2   -1    0    0    0  501  0.00000000000E+00  0.00000000000E+00 -0.11880421034E+04  0.11880421034E+04  0.25500000920E-02 0.  1.
    10030    2    1    2    0    0  0.00000000000E+00  0.00000000000E+00  0.12641428040E+04  0.36402270109E+04  0.34136777326E+04 0.  0.
        4    1    3    3  502    0  0.33397105805E+03  0.35118852561E+02  0.24166096228E+04  0.24398306669E+04  0.12699999809E+01 0. -1.
       -4    1    3    3    0  502 -0.33397105805E+03 -0.35118852561E+02 -0.11524668188E+04  0.12003963440E+04  0.12699999809E+01 0.  1.
</event>
<event>
 5   0  0.3378848E-06  0.2180892E+04  0.7818609E-02  0.8526423E-01
       -2   -1    0    0    0  501  0.00000000000E+00  0.00000000000E+00  0.15400763974E+04  0.15400763974E+04  0.25500000920E-02 0. -1.
        2   -1    0    0  501    0  0.00000000000E+00  0.00000000000E+00 -0.77208685244E+03  0.77208685244E+03  0.25500000920E-02 0.  1.
    10030    2    1    2    0    0  0.00000000000E+00  0.00000000000E+00  0.76798954493E+03  0.23121632498E+04  0.21808922377E+04 0.  0.
        1    1    3    3  502    0  0.86901701700E+02 -0.10099241074E+04 -0.42162790172E+02  0.10145325571E+04  0.50400001928E-02 0.  1.
       -1    1    3    3    0  502 -0.86901701700E+02  0.10099241074E+04  0.81015233510E+03  0.12976306927E+04  0.50400001928E-02 0. -1.
</event>
<event>
 5   0  0.1130707E-06  0.1859914E+04  0.7818609E-02  0.8675071E-01
       -1   -1    0    0    0  501  0.00000000000E+00  0.00000000000E+00  0.47553041343E+03  0.47553041345E+03  0.50400001928E-02 0.  1.
        1   -1    0    0  501    0  0.00000000000E+00  0.00000000000E+00 -0.18186437551E+04  0.18186437551E+04  0.50400001928E-02 0. -1.
    10030    2    1    2    0    0  0.00000000000E+00  0.00000000000E+00 -0.13431133417E+04  0.22941741686E+04  0.18599144247E+04 0.  0.
        3    1    3    3  502    0 -0.79456887985E+03 -0.45627672496E+03 -0.86772422316E+03  0.12619324436E+04  0.10100000352E+00 0. -1.
       -3    1    3    3    0  502  0.79456887985E+03  0.45627672496E+03 -0.47538911855E+03  0.10322417250E+04  0.10100000352E+00 0.  1.
</event>
<event>
 5   0  0.1908726E-06  0.3649314E+04  0.7818609E-02  0.8079288E-01
       -2   -1    0    0    0  501  0.00000000000E+00  0.00000000000E+00  0.13509937183E+04  0.13509937183E+04  0.25500000920E-02 0.  1.
        2   -1    0    0  501    0  0.00000000000E+00  0.00000000000E+00 -0.24643889419E+04  0.24643889419E+04  0.25500000920E-02 0. -1.
    10030    2    1    2    0    0  0.00000000000E+00  0.00000000000E+00 -0.11133952236E+04  0.38153826603E+04  0.36493144453E+04 0.  0.
        5    1    3    3  502    0  0.81239491210E+03  0.84405174834E+03  0.90586985323E+03  0.14808886278E+04  0.46999998093E+01 0.  1.
       -5    1    3    3    0  502 -0.81239491210E+03 -0.84405174834E+03 -0.20192650768E+04  0.23344940325E+04  0.46999998093E+01 0. -1.
</event>
<event>
 5   0  0.1908726E-06  0.3490577E+04  0.7818609E-02  0.8116027E-01
       -2   -1    0    0    0  501  0.00000000000E+00  0.00000000000E+00  0.26541063800E+04  0.26541063800E+04  0.25500000920E-02 0. -1.
        2   -1    0    0  501    0  0.00000000000E+00  0.00000000000E+00 -0.11476675491E+04  0.11476675491E+04  0.25500000920E-02 0.  1.
    10030    2    1    2    0    0  0.00000000000E+00  0.00000000000E+00  0.15064388309E+04  0.38017739292E+04  0.34905768946E+04 0.  0.
        5    1    3    3  502    0  0.10676830805E+04  0.45143607557E+03  0.21742487526E+04  0.24639645734E+04  0.46999998093E+01 0. -1.
       -5    1    3    3    0  502 -0.10676830805E+04 -0.45143607557E+03 -0.66780992171E+03  0.13378093558E+04  0.46999998093E+01 0.  1.
</event>
<event>
 5   0  0.1782660E-06  0.3282651E+04  0.7818609E-02  0.8167324E-01
        2   -1    0    0  501    0  0.00000000000E+00  0.00000000000E+00  0.21600407106E+04  0.21600407106E+04  0.25500000920E-02 0. -1.
       -2   -1    0    0    0  501  0.00000000000E+00  0.00000000000E+00 -0.12471754441E+04  0.12471754441E+04  0.25500000920E-02 0.  1.
    10030    2    1    2    0    0  0.00000000000E+00  0.00000000000E+00  0.91286526644E+03  0.34072161547E+04  0.32826512044E+04 0.  0.
        4    1    3    3  502    0 -0.78203729336E+03  0.33676532798E+03 -0.10000081498E+04  0.13133967896E+04  0.12699999809E+01 0.  1.
       -4    1    3    3    0  502  0.78203729336E+03 -0.33676532798E+03  0.19128734162E+04  0.20938193651E+04  0.12699999809E+01 0. -1.
</event>
<event>
 5   0  0.1782660E-06  0.3016432E+04  0.7818609E-02  0.8239054E-01
        2   -1    0    0  501    0  0.00000000000E+00  0.00000000000E+00  0.27404517112E+04  0.27404517112E+04  0.25500000920E-02 0.  1.
       -2   -1    0    0    0  501  0.00000000000E+00  0.00000000000E+00 -0.83005144302E+03  0.83005144303E+03  0.25500000920E-02 0. -1.
    10030    2    1    2    0    0  0.00000000000E+00  0.00000000000E+00  0.19104002682E+04  0.35705031542E+04  0.30164322617E+04 0.  0.
        4    1    3    3  502    0 -0.71132645492E+03 -0.56304678179E+03 -0.47098324709E+03  0.10221711383E+04  0.12699999809E+01 0. -1.
       -4    1    3    3    0  502  0.71132645492E+03  0.56304678179E+03  0.23813835153E+04  0.25483320160E+04  0.12699999809E+01 0.  1.
</event>
<event>
 5   0  0.1089337E-06  0.2018921E+04  0.7818609E-02  0.8597825E-01
        1   -1    0    0  501    0  0.00000000000E+00  0.00000000000E+00  0.15559072705E+04  0.15559072705E+04  0.50400001928E-02 0.  1.
       -1   -1    0    0    0  501  0.00000000000E+00  0.00000000000E+00 -0.65493029595E+03  0.65493029597E+03  0.50400001928E-02 0. -1.
    10030    2    1    2    0    0  0.00000000000E+00  0.00000000000E+00  0.90097697458E+03  0.22108375665E+04  0.20189213052E+04 0.  0.
        2    1    3    3  502    0 -0.31333520810E+03  0.85632914409E+03  0.92470364401E+03  0.12986744723E+04  0.25500000920E-02 0.  1.
       -2    1    3    3    0  502  0.31333520810E+03 -0.85632914409E+03 -0.23726669422E+02  0.91216309425E+03  0.25500000920E-02 0. -1.
</event>
<event>
 5   0  0.2565004E-06  0.3510863E+04  0.7818609E-02  0.8111220E-01
       -2   -1    0    0    0  501  0.00000000000E+00  0.00000000000E+00  0.16085536538E+04  0.16085536538E+04  0.25500000920E-02 0. -1.
        2   -1    0    0  501    0  0.00000000000E+00  0.00000000000E+00 -0.19157205080E+04  0.19157205080E+04  0.25500000920E-02 0.  1.
    10030    2    1    2    0    0  0.00000000000E+00  0.00000000000E+00 -0.30716685419E+03  0.35242741617E+04  0.35108626989E+04 0.  0.
        3    1    3    3  502    0  0.10804099392E+02 -0.17422108989E+04 -0.36916803843E+03  0.17809268923E+04  0.10100000352E+00 0.  1.
       -3    1    3    3    0  502 -0.10804099392E+02  0.17422108989E+04  0.62001184247E+02  0.17433472695E+04  0.10100000352E+00 0. -1.
</event>
<event>
 5   0  0.1908726E-06  0.3552483E+04  0.7818609E-02  0.8101463E-01
        2   -1    0    0  501    0  0.00000000000E+00  0.00000000000E+00  0.17267838961E+04  0.17267838961E+04  0.25500000920E-02 0. -1.
       -2   -1    0    0    0  501  0.00000000000E+00  0.00000000000E+00 -0.18271159785E+04  0.18271159785E+04  0.25500000920E-02 0.  1.
    10030    2    1    2    0    0  0.00000000000E+00  0.00000000000E+00 -0.10033208243E+03  0.35538998746E+04  0.35524833275E+04 0.  0.
        5    1    3    3  502    0 -0.11234597259E+04 -0.21822034985E+03 -0.14091003075E+04  0.18153147505E+04  0.46999998093E+01 0.  1.
       -5    1    3    3    0  502  0.11234597259E+04  0.21822034985E+03  0.13087682251E+04  0.17385851241E+04  0.46999998093E+01 0. -1.
</event>
<event>
 5   0  0.1110956E-06  0.1725199E+04  0.7818609E-02  0.8747122E-01
       -1   -1    0    0    0  501  0.00000000000E+00  0.00000000000E+00  0.84707478657E+03  0.84707478659E+03  0.50400001928E-02 0. -1.
        1   -1    0    0  501    0  0.00000000000E+00  0.00000000000E+00 -0.87840858360E+03  0.87840858362E+03  0.50400001928E-02 0.  1.
    10030    2    1    2    0    0  0.00000000000E+00  0.00000000000E+00 -0.31333797033E+02  0.17254833702E+04  0.17251988448E+04 0.  0.
        1    1    3    3  502    0 -0.96311132209E+02 -0.23819953219E+03  0.80791466229E+03  0.84778591218E+03  0.50400001928E-02 0. -1.
       -1    1    3    3    0  502  0.96311132209E+02  0.23819953219E+03 -0.83924845932E+03  0.87769745802E+03  0.50400001928E-02 0.  1.
</event>
<event>
 5   0  0.1130707E-06  0.3415238E+04  0.7818609E-02  0.8134177E-01
        1   -1    0    0  501    0  0.00000000000E+00  0.00000000000E+00  0.22103268501E+04  0.22103268501E+04  0.50400001928E-02 0.  1.
       -1   -1    0    0    0  501  0.00000000000E+00  0.00000000000E+00 -0.13192448541E+04  0.13192448541E+04  0.50400001928E-02 0. -1.
    10030    2    1    2    0    0  0.00000000000E+00  0.00000000000E+00  0.89108199597E+03  0.35295717042E+04  0.34152378090E+04 0.  0.
        3    1    3    3  502    0  0.16774047091E+04  0.31734697970E+03  0.48644698749E+03  0.17751130515E+04  0.10100000352E+00 0. -1.
       -3    1    3    3    0  502 -0.16774047091E+04 -0.31734697970E+03  0.40463500848E+03  0.17544586527E+04  0.10100000352E+00 0.  1.
</event>
<event>
 5   0  0.1908726E-06  0.3554653E+04  0.7818609E-02  0.8100959E-01
        2   -1    0    0  501    0  0.00000000000E+00  0.00000000000E+00  0.19213340549E+04  0.19213340549E+04  0.25500000920E-02 0.  1.
       -2   -1    0    0    0  501  0.00000000000E+00  0.00000000000E+00 -0.16441127160E+04  0.16441127160E+04  0.25500000920E-02 0. -1.
    10030    2    1    2    0    0  0.00000000000E+00  0.00000000000E+00  0.27722133892E+03  0.35654467709E+04  0.35546531483E+04 0.  0.
        5    1    3    3  502    0  0.17634076665E+04  0.13553251068E+02  0.36081748601E+03  0.18000004548E+04  0.46999998093E+01 0.  1.
       -5    1    3    3    0  502 -0.17634076665E+04 -0.13553251068E+02 -0.83596147093E+02  0.17654463161E+04  0.46999998093E+01 0. -1.
</event>
<event>
 5   0  0.1130707E-06  0.3465489E+04  0.7818609E-02  0.8122018E-01
        1   -1    0    0  501    0  0.00000000000E+00  0.00000000000E+00  0.90467385668E+03  0.90467385670E+03  0.50400001928E-02 0. -1.
       -1   -1    0    0    0  501  0.00000000000E+00  0.00000000000E+00 -0.33187680831E+04  0.33187680831E+04  0.50400001928E-02 0.  1.
    10030    2    1    2    0    0  0.00000000000E+00  0.00000000000E+00 -0.24140942264E+04  0.42234419398E+04  0.34654885493E+04 0.  0.
        3    1    3    3  502    0  0.45212095241E+03 -0.72375077630E+03  0.63081921583E+03  0.10612075363E+04  0.10100000352E+00 0. -1.
       -3    1    3    3    0  502 -0.45212095241E+03  0.72375077630E+03 -0.30449134423E+04  0.31622344036E+04  0.10100000352E+00 0.  1.
</event>
<event>
 5   0  0.1782660E-06  0.3481781E+04  0.7818609E-02  0.8118121E-01
       -2   -1    0    0    0  501  0.00000000000E+00  0.00000000000E+00  0.11177725401E+04  0.11177725401E+04  0.25500000920E-02 0. -1.
        2   -1    0    0  501    0  0.00000000000E+00  0.00000000000E+00 -0.27113746833E+04  0.27113746833E+04  0.25500000920E-02 0.  1.
    10030    2    1    2    0    0  0.00000000000E+00  0.00000000000E+00 -0.15936021432E+04  0.38291472234E+04  0.34817812492E+04 0.  0.
        4    1    3    3  502    0 -0.29163631000E+03 -0.18628025138E+03 -0.26731676685E+04  0.26954738111E+04  0.12699999809E+01 0.  1.
       -4    1    3    3    0  502  0.29163631000E+03  0.18628025138E+03  0.10795655253E+04  0.11336734123E+04  0.12699999809E+01 0. -1.
</event>
<event>
 5   0  0.1102175E-06  0.2232343E+04  0.7818609E-02  0.8505085E-01
       -1   -1    0    0    0  501  0.00000000000E+00  0.00000000000E+00  0.99265402830E+03  0.99265402831E+03  0.50400001928E-02 0.  1.
        1   -1    0    0  501    0  0.00000000000E+00  0.00000000000E+00 -0.12550587329E+04  0.12550587329E+04  0.50400001928E-02 0. -1.
    10030    2    1    2    0    0  0.00000000000E+00  0.00000000000E+00 -0.26240470458E+03  0.22477127612E+04  0.22323432594E+04 0.  0.
        5    1    3    3  502    0 -0.10334283490E+04 -0.39810143768E+03  0.88889946552E+01  0.11075016981E+04  0.46999998093E+01 0.  1.
       -5    1    3    3    0  502  0.10334283490E+04  0.39810143768E+03 -0.27129369924E+03  0.11402110631E+04  0.46999998093E+01 0. -1.
</event>
<event>
 5   0  0.1089337E-06  0.1845234E+04  0.7818609E-02  0.8682608E-01
        1   -1    0    0  501    0  0.00000000000E+00  0.00000000000E+00  0.13983064504E+04  0.13983064504E+04  0.50400001928E-02 0. -1.
       -1   -1    0    0    0  501  0.00000000000E+00  0.00000000000E+00 -0.60875213033E+03  0.60875213036E+03  0.50400001928E-02 0.  1.
    10030    2    1    2    0    0  0.00000000000E+00  0.00000000000E+00  0.78955432006E+03  0.20070585808E+04  0.18452338936E+04 0.  0.
        2    1    3    3  502    0  0.40577808066E+03  0.22931846897E+03 -0.47127916305E+03  0.66283245280E+03  0.25500000920E-02 0.  1.
       -2    1    3    3    0  502 -0.40577808066E+03 -0.22931846897E+03  0.12608334831E+04  0.13442261280E+04  0.25500000920E-02 0. -1.
</event>
<event>
 5   0  0.1110956E-06  0.2912059E+04  0.7818609E-02  0.8269299E-01
       -1   -1    0    0    0  501  0.00000000000E+00  0.00000000000E+00  0.93690873275E+03  0.93690873276E+03  0.50400001928E-02 0.  1.
        1   -1    0    0  501    0  0.00000000000E+00  0.00000000000E+00 -0.22627838982E+04  0.22627838982E+04  0.50400001928E-02 0. -1.
    10030    2    1    2    0    0  0.00000000000E+00  0.00000000000E+00 -0.13258751655E+04  0.31996926310E+04  0.29120590616E+04 0.  0.
        1    1    3    3  502    0  0.13720906114E+04  0.48674835128E+03 -0.68664133671E+03  0.16096685773E+04  0.50400001928E-02 0.  1.
       -1    1    3    3    0  502 -0.13720906114E+04 -0.48674835128E+03 -0.63923382876E+03  0.15900240537E+04  0.50400001928E-02 0. -1.
</event>
<event>
 5   0  0.3041329E-06  0.2605360E+04  0.7818609E-02  0.8366383E-01
       -2   -1    0    0    0  501  0.00000000000E+00  0.00000000000E+00  0.11904840978E+04  0.11904840978E+04  0.25500000920E-02 0.  1.
        2   -1    0    0  501    0  0.00000000000E+00  0.00000000000E+00 -0.14254495649E+04  0.14254495649E+04  0.25500000920E-02 0. -1.
    10030    2    1    2    0    0  0.00000000000E+00  0.00000000000E+00 -0.23496546711E+03  0.26159336627E+04  0.26053598901E+04 0.  0.
        2    1    3    3  502    0 -0.45027931535E+03 -0.15256778292E+02  0.11097670564E+04  0.11977341736E+04  0.25500000920E-02 0.  1.
       -2    1    3    3    0  502  0.45027931535E+03  0.15256778292E+02 -0.13447325235E+04  0.14181994891E+04  0.25500000920E-02 0. -1.
</event>
<event>
 5   0  0.1782660E-06  0.2139504E+04  0.7818609E-02  0.8544038E-01
        2   -1    0    0  501    0  0.00000000000E+00  0.00000000000E+00  0.14476265193E+04  0.14476265193E+04  0.25500000920E-02 0.  1.
       -2   -1    0    0    0  501  0.00000000000E+00  0.00000000000E+00 -0.79051433931E+03  0.79051433931E+03  0.25500000920E-02 0. -1.
    10030    2    1    2    0    0  0.00000000000E+00  0.00000000000E+00  0.65711217997E+03  0.22381408586E+04  0.21395041682E+04 0.  0.
        4    1    3    3  502    0 -0.13908511065E+03 -0.97127812711E+03 -0.11728743579E+03  0.98817196059E+03  0.12699999809E+01 0. -1.
       -4    1    3    3    0  502  0.13908511065E+03  0.97127812711E+03  0.77439961577E+03  0.12499688980E+04  0.12699999809E+01 0.  1.
</event>
<event>
 5   0  0.1110956E-06  0.3528561E+04  0.7818609E-02  0.8107055E-01
        1   -1    0    0  501    0  0.00000000000E+00  0.00000000000E+00  0.18006732096E+04  0.18006732096E+04  0.50400001928E-02 0.  1.
       -1   -1    0    0    0  501  0.00000000000E+00  0.00000000000E+00 -0.17286228733E+04  0.17286228733E+04  0.50400001928E-02 0. -1.
    10030    2    1    2    0    0  0.00000000000E+00  0.00000000000E+00  0.72050336368E+02  0.35292960829E+04  0.35285605550E+04 0.  0.
        1    1    3    3  502    0  0.12071288276E+04  0.23148593993E+03 -0.12299160106E+04  0.17388039395E+04  0.50400001928E-02 0. -1.
       -1    1    3    3    0  502 -0.12071288276E+04 -0.23148593993E+03  0.13019663470E+04  0.17904921434E+04  0.50400001928E-02 0.  1.
</event>
<event>
 5   0  0.1782660E-06  0.3556569E+04  0.7818609E-02  0.8100513E-01
       -2   -1    0    0    0  501  0.00000000000E+00  0.00000000000E+00  0.16440632598E+04  0.16440632598E+04  0.25500000920E-02 0. -1.
        2   -1    0    0  501    0  0.00000000000E+00  0.00000000000E+00 -0.19234630642E+04  0.19234630642E+04  0.25500000920E-02 0.  1.
    10030    2    1    2    0    0  0.00000000000E+00  0.00000000000E+00 -0.27939980434E+03  0.35675263240E+04  0.35565685459E+04 0.  0.
        4    1    3    3  502    0 -0.15004237728E+04  0.73259549230E+03  0.47400673407E+03  0.17356991819E+04  0.12699999809E+01 0. -1.
       -4    1    3    3    0  502  0.15004237728E+04 -0.73259549230E+03 -0.75340653841E+03  0.18318271421E+04  0.12699999809E+01 0.  1.
</event>
<event>
 5   0  0.1908726E-06  0.3416229E+04  0.7818609E-02  0.8133935E-01
       -2   -1    0    0    0  501  0.00000000000E+00  0.00000000000E+00  0.20768465874E+04  0.20768465874E+04  0.25500000920E-02 0. -1.
        2   -1    0    0  501    0  0.00000000000E+00  0.00000000000E+00 -0.14048488182E+04  0.14048488182E+04  0.25500000920E-02 0.  1.
    10030    2    1    2    0    0  0.00000000000E+00  0.00000000000E+00  0.67199776922E+03  0.34816954056E+04  0.34162291924E+04 0.  0.
        5    1    3    3  502    0  0.79127540088E+03 -0.60414329836E+03  0.17505914821E+04  0.20138764888E+04  0.46999998093E+01 0. -1.
       -5    1    3    3    0  502 -0.79127540088E+03  0.60414329836E+03 -0.10785937129E+04  0.14678189168E+04  0.46999998093E+01 0.  1.
</event>
<event>
 5   0  0.1102175E-06  0.3645830E+04  0.7818609E-02  0.8080074E-01
        1   -1    0    0  501    0  0.00000000000E+00  0.00000000000E+00  0.11781100950E+04  0.11781100950E+04  0.50400001928E-02 0. -1.
       -1   -1    0    0    0  501  0.00000000000E+00  0.00000000000E+00 -0.28206353816E+04  0.28206353816E+04  0.50400001928E-02 0.  1.
    10030    2    1    2    0    0  0.00000000000E+00  0.00000000000E+00 -0.16425252867E+04  0.39987454766E+04  0.36458299562E+04 0.  0.
        5    1    3    3  502    0 -0.20421380919E+03 -0.51971570273E+03  0.10819897186E+04  0.12175925151E+04  0.46999998093E+01 0. -1.
       -5    1    3    3    0  502  0.20421380919E+03  0.51971570273E+03 -0.27245150053E+04  0.27811529616E+04  0.46999998093E+01 0.  1.
</event>
<event>
 5   0  0.2565004E-06  0.3545122E+04  0.7818609E-02  0.8103179E-01
       -2   -1    0    0    0  501  0.00000000000E+00  0.00000000000E+00  0.12508962622E+04  0.12508962622E+04  0.25500000920E-02 0. -1.
        2   -1    0    0  501    0  0.00000000000E+00  0.00000000000E+00 -0.25117774489E+04  0.25117774489E+04  0.25500000920E-02 0.  1.
    10030    2    1    2    0    0  0.00000000000E+00  0.00000000000E+00 -0.12608811866E+04  0.37626737111E+04  0.35451222954E+04 0.  0.
        3    1    3    3  502    0 -0.10066460974E+04 -0.14141196359E+04 -0.24937856543E+03  0.17536420357E+04  0.10100000352E+00 0. -1.
       -3    1    3    3    0  502  0.10066460974E+04  0.14141196359E+04 -0.10115026212E+04  0.20090316755E+04  0.10100000352E+00 0.  1.
</event>
<event>
 5   0  0.1908726E-06  0.3499295E+04  0.7818609E-02  0.8113957E-01
       -2   -1    0    0    0  501  0.00000000000E+00  0.00000000000E+00  0.13606040351E+04  0.13606040351E+04  0.25500000920E-02 0. -1.
        2   -1    0    0  501    0  0.00000000000E+00  0.00000000000E+00 -0.22499321350E+04  0.22499321350E+04  0.25500000920E-02 0.  1.
    10030    2    1    2    0    0  0.00000000000E+00  0.00000000000E+00 -0.88932809995E+03  0.36105361701E+04  0.34992952099E+04 0.  0.
        5    1    3    3  502    0 -0.11255270502E+03 -0.12714163222E+03 -0.22414038520E+04  0.22478314936E+04  0.46999998093E+01 0.  1.
       -5    1    3    3    0  502  0.11255270502E+03  0.12714163222E+03  0.13520757520E+04  0.13627046765E+04  0.46999998093E+01 0. -1.
</event>
<event>
 5   0  0.1102175E-06  0.3486251E+04  0.7818609E-02  0.8117056E-01
        1   -1    0    0  501    0  0.00000000000E+00  0.00000000000E+00  0.25107957925E+04  0.25107957925E+04  0.50400001928E-02 0. -1.
       -1   -1    0    0    0  501  0.00000000000E+00  0.00000000000E+00 -0.12101687220E+04  0.12101687220E+04  0.50400001928E-02 0.  1.
    10030    2    1    2    0    0  0.00000000000E+00  0.00000000000E+00  0.13006270704E+04  0.37209645145E+04  0.34862510153E+04 0.  0.
        5    1    3    3  502    0 -0.40293640111E+03 -0.86734369235E+03  0.22057629558E+04  0.24041745218E+04  0.46999998093E+01 0. -1.
       -5    1    3    3    0  502  0.40293640111E+03  0.86734369235E+03 -0.90513588536E+03  0.13167899927E+04  0.46999998093E+01 0.  1.
</event>
<event>
 5   0  0.3378848E-06  0.1787421E+04  0.7818609E-02  0.8713018E-01
        2   -1    0    0  501    0  0.00000000000E+00  0.00000000000E+00  0.10947206624E+04  0.10947206624E+04  0.25500000920E-02 0. -1.
       -2   -1    0    0    0  501  0.00000000000E+00  0.00000000000E+00 -0.72960921636E+03  0.72960921636E+03  0.25500000920E-02 0.  1.
    10030    2    1    2    0    0  0.00000000000E+00  0.00000000000E+00  0.36511144603E+03  0.18243298788E+04  0.17874208062E+04 0.  0.
        1    1    3    3  502    0  0.81001128187E+03 -0.41484693089E+01  0.56795431937E+03  0.98929651544E+03  0.50400001928E-02 0. -1.
       -1    1    3    3    0  502 -0.81001128187E+03  0.41484693089E+01 -0.20284287334E+03  0.83503336331E+03  0.50400001928E-02 0.  1.
</event>
<event>
 5   0  0.1042825E-06  0.3504034E+04  0.7818609E-02  0.8112835E-01
        3   -1    0    0  501    0  0.00000000000E+00  0.00000000000E+00  0.18177854025E+04  0.18177854053E+04  0.10100000352E+00 0. -1.
       -3   -1    0    0    0  501  0.00000000000E+00  0.00000000000E+00 -0.16886283016E+04  0.16886283046E+04  0.10100000352E+00 0.  1.
    10030    2    1    2    0    0  0.00000000000E+00  0.00000000000E+00  0.12915710086E+03  0.35064137099E+04  0.35040341819E+04 0.  0.
        1    1    3    3  502    0  0.44458008650E+03  0.16591103391E+04  0.41016117901E+03  0.17659362286E+04  0.50400001928E-02 0.  1.
       -1    1    3    3    0  502 -0.44458008650E+03 -0.16591103391E+04 -0.28100407814E+03  0.17404774812E+04  0.50400001928E-02 0. -1.
</event>
<event>
 5   0  0.1908726E-06  0.1822577E+04  0.7818609E-02  0.8694385E-01
       -2   -1    0    0    0  501  0.00000000000E+00  0.00000000000E+00  0.10401189415E+04  0.10401189415E+04  0.25500000920E-02 0. -1.
        2   -1    0    0  501    0  0.00000000000E+00  0.00000000000E+00 -0.79841500207E+03  0.79841500208E+03  0.25500000920E-02 0.  1.
    10030    2    1    2    0    0  0.00000000000E+00  0.00000000000E+00  0.24170393941E+03  0.18385339436E+04  0.18225768207E+04 0.  0.
        5    1    3    3  502    0 -0.73657207071E+03  0.15403462846E+03  0.63931624897E+03  0.98742718127E+03  0.46999998093E+01 0.  1.
       -5    1    3    3    0  502  0.73657207071E+03 -0.15403462846E+03 -0.39761230956E+03  0.85110676230E+03  0.46999998093E+01 0. -1.
</event>
<event>
 5   0  0.1102175E-06  0.3522114E+04  0.7818609E-02  0.8108569E-01
        1   -1    0    0  501    0  0.00000000000E+00  0.00000000000E+00  0.19588523332E+04  0.19588523332E+04  0.50400001928E-02 0. -1.
       -1   -1    0    0    0  501  0.00000000000E+00  0.00000000000E+00 -0.15832337098E+04  0.15832337098E+04  0.50400001928E-02 0.  1.
    10030    2    1    2    0    0  0.00000000000E+00  0.00000000000E+00  0.37561862339E+03  0.35420860430E+04  0.35221135964E+04 0.  0.
        5    1    3    3  502    0 -0.13854169595E+04  0.10736107115E+04  0.35989023077E+03  0.17892912507E+04  0.46999998093E+01 0. -1.
       -5    1    3    3    0  502  0.13854169595E+04 -0.10736107115E+04  0.15728392622E+02  0.17527947923E+04  0.46999998093E+01 0.  1.
</event>
<event>
 5   0  0.3041329E-06  0.3365683E+04  0.7818609E-02  0.8146381E-01
       -2   -1    0    0    0  501  0.00000000000E+00  0.00000000000E+00  0.13998944749E+04  0.13998944749E+04  0.25500000920E-02 0.  1.
        2   -1    0    0  501    0  0.00000000000E+00  0.00000000000E+00 -0.20229780605E+04  0.20229780605E+04  0.25500000920E-02 0. -1.
    10030    2    1    2    0    0  0.00000000000E+00  0.00000000000E+00 -0.62308358557E+03  0.34228725354E+04  0.33656831757E+04 0.  0.
        2    1    3    3  502    0  0.61388175168E+03 -0.82626209732E+03  0.10423933769E+04  0.14649722901E+04  0.25500000920E-02 0.  1.
       -2    1    3    3    0  502 -0.61388175168E+03  0.82626209732E+03 -0.16654769624E+04  0.19579002454E+04  0.25500000920E-02 0. -1.
</event>
<event>
 5   0  0.1130707E-06  0.3395284E+04  0.7818609E-02  0.8139065E-01
        1   -1    0    0  501    0  0.00000000000E+00  0.00000000000E+00  0.31428806797E+04  0.31428806797E+04  0.50400001928E-02 0. -1.
       -1   -1    0    0    0  501  0.00000000000E+00  0.00000000000E+00 -0.91698929199E+03  0.91698929200E+03  0.50400001928E-02 0.  1.
    10030    2    1    2    0    0  0.00000000000E+00  0.00000000000E+00  0.22258913877E+04  0.40598699717E+04  0.33952837462E+04 0.  0.
        3    1    3    3  502    0  0.13768456040E+04  0.47323320035E+03  0.68925689776E+02  0.14575336154E+04  0.10100000352E+00 0.  1.
       -3    1    3    3    0  502 -0.13768456040E+04 -0.47323320035E+03  0.21569656979E+04  0.26023363563E+04  0.10100000352E+00 0. -1.
</event>
<event>
 5   0  0.1102175E-06  0.3309213E+04  0.7818609E-02  0.8160555E-01
        1   -1    0    0  501    0  0.00000000000E+00  0.00000000000E+00  0.19622925506E+04  0.19622925506E+04  0.50400001928E-02 0.  1.
       -1   -1    0    0    0  501  0.00000000000E+00  0.00000000000E+00 -0.13951651208E+04  0.13951651208E+04  0.50400001928E-02 0. -1.
    10030    2    1    2    0    0  0.00000000000E+00  0.00000000000E+00  0.56712742977E+03  0.33574576714E+04  0.33092126698E+04 0.  0.
        5    1    3    3  502    0  0.11257464707E+04 -0.11690207244E+04 -0.43290531573E+02  0.16235180105E+04  0.46999998093E+01 0. -1.
       -5    1    3    3    0  502 -0.11257464707E+04  0.11690207244E+04  0.61041796135E+03  0.17339396609E+04  0.46999998093E+01 0.  1.
</event>
<event>
 5   0  0.1782660E-06  0.3577978E+04  0.7818609E-02  0.8095555E-01
       -2   -1    0    0    0  501  0.00000000000E+00  0.00000000000E+00  0.15608101358E+04  0.15608101358E+04  0.25500000920E-02 0. -1.
        2   -1    0    0  501    0  0.00000000000E+00  0.00000000000E+00 -0.20505258903E+04  0.20505258903E+04  0.25500000920E-02 0.  1.
    10030    2    1    2    0    0  0.00000000000E+00  0.00000000000E+00 -0.48971575445E+03  0.36113360261E+04  0.35779779727E+04 0.  0.
        4    1    3    3  502    0  0.17268110551E+04 -0.40102739442E+03 -0.22408816223E+01  0.17727678996E+04  0.12699999809E+01 0. -1.
       -4    1    3    3    0  502 -0.17268110551E+04  0.40102739442E+03 -0.48747487283E+03  0.18385681265E+04  0.12699999809E+01 0.  1.
</event>
<event>
 5   0  0.2565004E-06  0.3522980E+04  0.7818609E-02  0.8108366E-01
       -2   -1    0    0    0  501  0.00000000000E+00  0.00000000000E+00  0.22254852863E+04  0.22254852863E+04  0.25500000920E-02 0. -1.
        2   -1    0    0  501    0  0.00000000000E+00  0.00000000000E+00 -0.13942335139E+04  0.13942335139E+04  0.25500000920E-02 0.  1.
    10030    2    1    2    0    0  0.00000000000E+00  0.00000000000E+00  0.83125177243E+03  0.36197188002E+04  0.35229795179E+04 0.  0.
        3    1    3    3  502    0  0.17579698804E+04 -0.11129100442E+03  0.41720850539E+03  0.18102228413E+04  0.10100000352E+00 0.  1.
       -3    1    3    3    0  502 -0.17579698804E+04  0.11129100442E+03  0.41404326704E+03  0.18094959589E+04  0.10100000352E+00 0. -1.
</event>
<event>
 5   0  0.1089337E-06  0.3218336E+04  0.7818609E-02  0.8183991E-01
       -1   -1    0    0    0  501  0.00000000000E+00  0.00000000000E+00  0.20228257518E+04  0.20228257518E+04  0.50400001928E-02 0. -1.
        1   -1    0    0  501    0  0.00000000000E+00  0.00000000000E+00 -0.12801012152E+04  0.12801012152E+04  0.50400001928E-02 0.  1.
    10030    2    1    2    0    0  0.00000000000E+00  0.00000000000E+00  0.74272453655E+03  0.33029269670E+04  0.32183360316E+04 0.  0.
        2    1    3    3  502    0  0.35997422317E+03  0.44702124639E+03  0.19142096988E+04  0.19984014129E+04  0.25500000920E-02 0. -1.
       -2    1    3    3    0  502 -0.35997422317E+03 -0.44702124639E+03 -0.11714851622E+04  0.13045255542E+04  0.25500000920E-02 0.  1.
</event>
<event>
 5   0  0.1908726E-06  0.3324883E+04  0.7818609E-02  0.8156593E-01
        2   -1    0    0  501    0  0.00000000000E+00  0.00000000000E+00  0.23825945841E+04  0.23825945841E+04  0.25500000920E-02 0.  1.
       -2   -1    0    0    0  501  0.00000000000E+00  0.00000000000E+00 -0.11599589755E+04  0.11599589755E+04  0.25500000920E-02 0. -1.
    10030    2    1    2    0    0  0.00000000000E+00  0.00000000000E+00  0.12226356087E+04  0.35425535596E+04  0.33248831395E+04 0.  0.
        5    1    3    3  502    0  0.60094123010E+03  0.65572276636E+03  0.21077537850E+04  0.22877392370E+04  0.46999998093E+01 0.  1.
       -5    1    3    3    0  502 -0.60094123010E+03 -0.65572276636E+03 -0.88511817629E+03  0.12548143227E+04  0.46999998093E+01 0. -1.
</event>
<event>
 5   0  0.1102175E-06  0.2081910E+04  0.7818609E-02  0.8569255E-01
        1   -1    0    0  501    0  0.00000000000E+00  0.00000000000E+00  0.85032995718E+03  0.85032995720E+03  0.50400001928E-02 0. -1.
       -1   -1    0    0    0  501  0.00000000000E+00  0.00000000000E+00 -0.12743133258E+04  0.12743133259E+04  0.50400001928E-02 0.  1.
    10030    2    1    2    0    0  0.00000000000E+00  0.00000000000E+00 -0.42398336866E+03  0.21246432830E+04  0.20819095041E+04 0.  0.
        5    1    3    3  502    0  0.52647321554E+03  0.81776706291E+03 -0.59061612130E+03  0.11378780728E+04  0.46999998093E+01 0.  1.
       -5    1    3    3    0  502 -0.52647321554E+03 -0.81776706291E+03  0.16663275264E+03  0.98676521023E+03  0.46999998093E+01 0. -1.
</event>
<event>
 5   0  0.2565004E-06  0.2738958E+04  0.7818609E-02  0.8322474E-01
        2   -1    0    0  501    0  0.00000000000E+00  0.00000000000E+00  0.12125185907E+04  0.12125185907E+04  0.25500000920E-02 0.  1.
       -2   -1    0    0    0  501  0.00000000000E+00  0.00000000000E+00 -0.15467584483E+04  0.15467584483E+04  0.25500000920E-02 0. -1.
    10030    2    1    2    0    0  0.00000000000E+00  0.00000000000E+00 -0.33423985767E+03  0.27592770390E+04  0.27389584691E+04 0.  0.
        3    1    3    3  502    0 -0.45644986498E+03 -0.12761774397E+04 -0.36478461892E+03  0.14035822616E+04  0.10100000352E+00 0.  1.
       -3    1    3    3    0  502  0.45644986498E+03  0.12761774397E+04  0.30544761250E+02  0.13556947774E+04  0.10100000352E+00 0. -1.
</event>
<event>
 5   0  0.1125196E-06  0.3276898E+04  0.7818609E-02  0.8168799E-01
        1   -1    0    0  501    0  0.00000000000E+00  0.00000000000E+00  0.20503705154E+04  0.20503705154E+04  0.50400001928E-02 0.  1.
       -1   -1    0    0    0  501  0.00000000000E+00  0.00000000000E+00 -0.13092831157E+04  0.13092831157E+04  0.50400001928E-02 0. -1.
    10030    2    1    2    0    0  0.00000000000E+00  0.00000000000E+00  0.74108739976E+03  0.33596536311E+04  0.32768982265E+04 0.  0.
        4    1    3    3  502    0  0.16367177275E+04 -0.72651362408E+02  0.39081014569E+03  0.16842972787E+04  0.12699999809E+01 0.  1.
       -4    1    3    3    0  502 -0.16367177275E+04  0.72651362408E+02  0.35027725408E+03  0.16753563525E+04  0.12699999809E+01 0. -1.
</event>
<event>
 5   0  0.1102175E-06  0.2461172E+04  0.7818609E-02  0.8416950E-01
        1   -1    0    0  501    0  0.00000000000E+00  0.00000000000E+00  0.21928676236E+04  0.21928676236E+04  0.50400001928E-02 0.  1.
       -1   -1    0    0    0  501  0.00000000000E+00  0.00000000000E+00 -0.69057605768E+03  0.69057605770E+03  0.50400001928E-02 0. -1.
    10030    2    1    2    0    0  0.00000000000E+00  0.00000000000E+00  0.15022915659E+04  0.28834436813E+04  0.24611719798E+04 0.  0.
        5    1    3    3  502    0  0.28285653256E+03  0.64407145743E+03  0.19340775728E+04  0.20580364448E+04  0.46999998093E+01 0.  1.
       -5    1    3    3    0  502 -0.28285653256E+03 -0.64407145743E+03 -0.43178600695E+03  0.82540723650E+03  0.46999998093E+01 0. -1.
</event>
<event>
 5   0  0.1782660E-06  0.3487112E+04  0.7818609E-02  0.8116851E-01
       -2   -1    0    0    0  501  0.00000000000E+00  0.00000000000E+00  0.13010941082E+04  0.13010941082E+04  0.25500000920E-02 0. -1.
        2   -1    0    0  501    0  0.00000000000E+00  0.00000000000E+00 -0.23364857692E+04  0.23364857692E+04  0.25500000920E-02 0.  1.
    10030    2    1    2    0    0  0.00000000000E+00  0.00000000000E+00 -0.10353916610E+04  0.36375798774E+04  0.34871121968E+04 0.  0.
        4    1    3    3  502    0 -0.13001563842E+04  0.89616437916E+03 -0.12888290243E+04  0.20382833671E+04  0.12699999809E+01 0.  1.
       -4    1    3    3    0  502  0.13001563842E+04 -0.89616437916E+03  0.25343736327E+03  0.15992965103E+04  0.12699999809E+01 0. -1.
</event>
<event>
 5   0  0.1089337E-06  0.3341794E+04  0.7818609E-02  0.8152342E-01
       -1   -1    0    0    0  501  0.00000000000E+00  0.00000000000E+00  0.15641425460E+04  0.15641425460E+04  0.50400001928E-02 0. -1.
        1   -1    0    0  501    0  0.00000000000E+00  0.00000000000E+00 -0.17849373940E+04  0.17849373940E+04  0.50400001928E-02 0.  1.
    10030    2    1    2    0    0  0.00000000000E+00  0.00000000000E+00 -0.22079484802E+03  0.33490799400E+04  0.33417938416E+04 0.  0.
        2    1    3    3  502    0  0.73235923268E+03  0.12648189309E+04 -0.92196519691E+03  0.17280442118E+04  0.25500000920E-02 0. -1.
       -2    1    3    3    0  502 -0.73235923268E+03 -0.12648189309E+04  0.70117034890E+03  0.16210357282E+04  0.25500000920E-02 0.  1.
</event>
<event>
 5   0  0.1782660E-06  0.2455048E+04  0.7818609E-02  0.8419177E-01
        2   -1    0    0  501    0  0.00000000000E+00  0.00000000000E+00  0.15115180340E+04  0.15115180341E+04  0.25500000920E-02 0. -1.
       -2   -1    0    0    0  501  0.00000000000E+00  0.00000000000E+00 -0.99688879420E+03  0.99688879420E+03  0.25500000920E-02 0.  1.
    10030    2    1    2    0    0  0.00000000000E+00  0.00000000000E+00  0.51462923985E+03  0.25084068282E+04  0.24550481791E+04 0.  0.
        4    1    3    3  502    0 -0.58907781521E+02 -0.12258096997E+04  0.22962899751E+03  0.12485233822E+04  0.12699999809E+01 0.  1.
       -4    1    3    3    0  502  0.58907781521E+02  0.12258096997E+04  0.28500024234E+03  0.12598834460E+04  0.12699999809E+01 0. -1.
</event>
<event>
 5   0  0.3378848E-06  0.3442181E+04  0.7818609E-02  0.8127631E-01
        2   -1    0    0  501    0  0.00000000000E+00  0.00000000000E+00  0.22278903292E+04  0.22278903292E+04  0.25500000920E-02 0.  1.
       -2   -1    0    0    0  501  0.00000000000E+00  0.00000000000E+00 -0.13295774358E+04  0.13295774358E+04  0.25500000920E-02 0. -1.
    10030    2    1    2    0    0  0.00000000000E+00  0.00000000000E+00  0.89831289338E+03  0.35574677650E+04  0.34421811173E+04 0.  0.
        1    1    3    3  502    0 -0.10953208760E+04  0.12298088824E+04 -0.67584550638E+02  0.16482491863E+04  0.50400001928E-02 0. -1.
       -1    1    3    3    0  502  0.10953208760E+04 -0.12298088824E+04  0.96589744402E+03  0.19092185787E+04  0.50400001928E-02 0.  1.
</event>
<event>
 5   0  0.2565004E-06  0.2593755E+04  0.7818609E-02  0.8370326E-01
        2   -1    0    0  501    0  0.00000000000E+00  0.00000000000E+00  0.15406433166E+04  0.15406433166E+04  0.25500000920E-02 0. -1.
       -2   -1    0    0    0  501  0.00000000000E+00  0.00000000000E+00 -0.10916811142E+04  0.10916811142E+04  0.25500000920E-02 0.  1.
    10030    2    1    2    0    0  0.00000000000E+00  0.00000000000E+00  0.44896220244E+03  0.26323244309E+04  0.25937549711E+04 0.  0.
        3    1    3    3  502    0 -0.11176974826E+04  0.45959365276E+03  0.70202814296E+03  0.13976113594E+04  0.10100000352E+00 0. -1.
       -3    1    3    3    0  502  0.11176974826E+04 -0.45959365276E+03 -0.25306594052E+03  0.12347130714E+04  0.10100000352E+00 0.  1.
</event>
<event>
 5   0  0.3378848E-06  0.3435630E+04  0.7818609E-02  0.8129217E-01
        2   -1    0    0  501    0  0.00000000000E+00  0.00000000000E+00  0.20325250489E+04  0.20325250489E+04  0.25500000920E-02 0. -1.
       -2   -1    0    0    0  501  0.00000000000E+00  0.00000000000E+00 -0.14518334866E+04  0.14518334866E+04  0.25500000920E-02 0.  1.
    10030    2    1    2    0    0  0.00000000000E+00  0.00000000000E+00  0.58069156237E+03  0.34843585355E+04  0.34356297404E+04 0.  0.
        1    1    3    3  502    0  0.17006426177E+04  0.17682780385E+03  0.45832878671E+03  0.17701747547E+04  0.50400001928E-02 0.  1.
       -1    1    3    3    0  502 -0.17006426177E+04 -0.17682780385E+03  0.12236277566E+03  0.17141837808E+04  0.50400001928E-02 0. -1.
</event>
<event>
 5   0  0.1908726E-06  0.3595297E+04  0.7818609E-02  0.8091570E-01
       -2   -1    0    0    0  501  0.00000000000E+00  0.00000000000E+00  0.14497316020E+04  0.14497316020E+04  0.25500000920E-02 0.  1.
        2   -1    0    0  501    0  0.00000000000E+00  0.00000000000E+00 -0.22290609573E+04  0.22290609573E+04  0.25500000920E-02 0. -1.
    10030    2    1    2    0    0  0.00000000000E+00  0.00000000000E+00 -0.77932935534E+03  0.36787925593E+04  0.35952969905E+04 0.  0.
        5    1    3    3  502    0 -0.12758365207E+04  0.38871465901E+03  0.84358932445E+03  0.15781390788E+04  0.46999998093E+01 0.  1.
       -5    1    3    3    0  502  0.12758365207E+04 -0.38871465901E+03 -0.16229186798E+04  0.21006534805E+04  0.46999998093E+01 0. -1.
</event>
<event>
 5   0  0.1125196E-06  0.3496170E+04  0.7818609E-02  0.8114698E-01
       -1   -1    0    0    0  501  0.00000000000E+00  0.00000000000E+00  0.14498932824E+04  0.14498932824E+04  0.50400001928E-02 0. -1.
        1   -1    0    0  501    0  0.00000000000E+00  0.00000000000E+00 -0.21076040164E+04  0.21076040164E+04  0.50400001928E-02 0.  1.
    10030    2    1    2    0    0  0.00000000000E+00  0.00000000000E+00 -0.65771073393E+03  0.35574972988E+04  0.34961698502E+04 0.  0.
        4    1    3    3  502    0  0.12123065779E+04 -0.25046932918E+03 -0.15847574390E+04  0.20109400481E+04  0.12699999809E+01 0.  1.
       -4    1    3    3    0  502 -0.12123065779E+04  0.25046932918E+03  0.92704670505E+03  0.15465572508E+04  0.12699999809E+01 0. -1.
</event>
<event>
 5   0  0.1130707E-06  0.3480259E+04  0.7818609E-02  0.8118484E-01
       -1   -1    0    0    0  501  0.00000000000E+00  0.00000000000E+00  0.12100125920E+04  0.12100125920E+04  0.50400001928E-02 0.  1.
        1   -1    0    0  501    0  0.00000000000E+00  0.00000000000E+00 -0.25024958946E+04  0.25024958946E+04  0.50400001928E-02 0. -1.
    10030    2    1    2    0    0  0.00000000000E+00  0.00000000000E+00 -0.12924833026E+04  0.37125084867E+04  0.34802594984E+04 0.  0.
        3    1    3    3  502    0 -0.24004221590E+03  0.50822977584E+03  0.11105140850E+04  0.12446522863E+04  0.10100000352E+00 0.  1.
       -3    1    3    3    0  502  0.24004221590E+03 -0.50822977584E+03 -0.24029973877E+04  0.24678562004E+04  0.10100000352E+00 0. -1.
</event>
<event>
 5   0  0.1130707E-06  0.2633464E+04  0.7818609E-02  0.8356922E-01
        1   -1    0    0  501    0  0.00000000000E+00  0.00000000000E+00  0.21316911246E+04  0.21316911246E+04  0.50400001928E-02 0.  1.
       -1   -1    0    0    0  501  0.00000000000E+00  0.00000000000E+00 -0.81333666593E+03  0.81333666595E+03  0.50400001928E-02 0. -1.
    10030    2    1    2    0    0  0.00000000000E+00  0.00000000000E+00  0.13183544587E+04  0.29450277906E+04  0.26334635385E+04 0.  0.
        3    1    3    3  502    0 -0.50619769440E+03 -0.49690346828E+03 -0.58140750535E+03  0.91716076022E+03  0.10100000352E+00 0. -1.
       -3    1    3    3    0  502  0.50619769440E+03  0.49690346828E+03  0.18997619641E+04  0.20278670304E+04  0.10100000352E+00 0.  1.
</event>
<event>
 5   0  0.1908726E-06  0.3558533E+04  0.7818609E-02  0.8100057E-01
        2   -1    0    0  501    0  0.00000000000E+00  0.00000000000E+00  0.22676590585E+04  0.22676590585E+04  0.25500000920E-02 0. -1.
       -2   -1    0    0    0  501  0.00000000000E+00  0.00000000000E+00 -0.13960604013E+04  0.13960604013E+04  0.25500000920E-02 0.  1.
    10030    2    1    2    0    0  0.00000000000E+00  0.00000000000E+00  0.87159865719E+03  0.36637194598E+04  0.35585328523E+04 0.  0.
        5    1    3    3  502    0  0.35080991306E+03 -0.17379079967E+04  0.28179463086E+03  0.17952220208E+04  0.46999998093E+01 0. -1.
       -5    1    3    3    0  502 -0.35080991306E+03  0.17379079967E+04  0.58980402634E+03  0.18684974390E+04  0.46999998093E+01 0.  1.
</event>
<event>
 5   0  0.1102175E-06  0.2060073E+04  0.7818609E-02  0.8579039E-01
       -1   -1    0    0    0  501  0.00000000000E+00  0.00000000000E+00  0.12529353302E+04  0.12529353302E+04  0.50400001928E-02 0. -1.
        1   -1    0    0  501    0  0.00000000000E+00  0.00000000000E+00 -0.84679141830E+03  0.84679141832E+03  0.50400001928E-02 0.  1.
    10030    2    1    2    0    0  0.00000000000E+00  0.00000000000E+00  0.40614391188E+03  0.20997267485E+04  0.20600727029E+04 0.  0.
        5    1    3    3  502    0  0.55867770408E+03 -0.25095759655E+03  0.10471751311E+04  0.12131357457E+04  0.46999998093E+01 0. -1.
       -5    1    3    3    0  502 -0.55867770408E+03  0.25095759655E+03 -0.64103121920E+03  0.88659100283E+03  0.46999998093E+01 0.  1.
</event>
<event>
 5   0  0.1125196E-06  0.3464168E+04  0.7818609E-02  0.8122335E-01
       -1   -1    0    0    0  501  0.00000000000E+00  0.00000000000E+00  0.10575140775E+04  0.10575140775E+04  0.50400001928E-02 0. -1.
        1   -1    0    0  501    0  0.00000000000E+00  0.00000000000E+00 -0.28369501840E+04  0.28369501840E+04  0.50400001928E-02 0.  1.
    10030    2    1    2    0    0  0.00000000000E+00  0.00000000000E+00 -0.17794361065E+04  0.38944642615E+04  0.34641678693E+04 0.  0.
        4    1    3    3  502    0  0.11149547483E+04 -0.79030122754E+03 -0.20860486801E+04  0.24938526079E+04  0.12699999809E+01 0.  1.
       -4    1    3    3    0  502 -0.11149547483E+04  0.79030122754E+03  0.30661257360E+03  0.14006116536E+04  0.12699999809E+01 0. -1.
</event>
<event>
 5   0  0.1782660E-06  0.3502524E+04  0.7818609E-02  0.8113192E-01
       -2   -1    0    0    0  501  0.00000000000E+00  0.00000000000E+00  0.21663130007E+04  0.21663130007E+04  0.25500000920E-02 0.  1.
        2   -1    0    0  501    0  0.00000000000E+00  0.00000000000E+00 -0.14157320852E+04  0.14157320852E+04  0.25500000920E-02 0. -1.
    10030    2    1    2    0    0  0.00000000000E+00  0.00000000000E+00  0.75058091553E+03  0.35820450859E+04  0.35025241308E+04 0.  0.
        4    1    3    3  502    0  0.16103020110E+04  0.58707231443E+03  0.74288207986E+03  0.18680476082E+04  0.12699999809E+01 0.  1.
       -4    1    3    3    0  502 -0.16103020110E+04 -0.58707231443E+03  0.76988356734E+01  0.17139974778E+04  0.12699999809E+01 0. -1.
</event>
<event>
 5   0  0.1125196E-06  0.3278810E+04  0.7818609E-02  0.8168308E-01
       -1   -1    0    0    0  501  0.00000000000E+00  0.00000000000E+00  0.10065404732E+04  0.10065404732E+04  0.50400001928E-02 0.  1.
        1   -1    0    0  501    0  0.00000000000E+00  0.00000000000E+00 -0.26701848499E+04  0.26701848499E+04  0.50400001928E-02 0. -1.
    10030    2    1    2    0    0  0.00000000000E+00  0.00000000000E+00 -0.16636443767E+04  0.36767253231E+04  0.32788102246E+04 0.  0.
        4    1    3    3  502    0  0.66795532739E+03  0.25003092763E+02 -0.25104409675E+04  0.25979039509E+04  0.12699999809E+01 0. -1.
       -4    1    3    3    0  502 -0.66795532739E+03 -0.25003092763E+02  0.84679659075E+03  0.10788213722E+04  0.12699999809E+01 0.  1.
</event>
<event>
 5   0  0.3041329E-06  0.3117532E+04  0.7818609E-02  0.8210943E-01
       -2   -1    0    0    0  501  0.00000000000E+00  0.00000000000E+00  0.10938125959E+04  0.10938125959E+04  0.25500000920E-02 0. -1.
        2   -1    0    0  501    0  0.00000000000E+00  0.00000000000E+00 -0.22213605084E+04  0.22213605084E+04  0.25500000920E-02 0.  1.
    10030    2    1    2    0    0  0.00000000000E+00  0.00000000000E+00 -0.11275479126E+04  0.33151731043E+04  0.31175324243E+04 0.  0.
        2    1    3    3  502    0 -0.93943364890E+03  0.12434598720E+04 -0.52974410350E+03  0.16460124086E+04  0.25500000920E-02 0.  1.
       -2    1    3    3    0  502  0.93943364890E+03 -0.12434598720E+04 -0.59780380907E+03  0.16691606957E+04  0.25500000920E-02 0. -1.
</event>
<event>
 5   0  0.1110956E-06  0.2063472E+04  0.7818609E-02  0.8577507E-01
        1   -1    0    0  501    0  0.00000000000E+00  0.00000000000E+00  0.21571089616E+04  0.21571089616E+04  0.50400001928E-02 0. -1.
       -1   -1    0    0    0  501  0.00000000000E+00  0.00000000000E+00 -0.49347473034E+03  0.49347473037E+03  0.50400001928E-02 0.  1.
    10030    2    1    2    0    0  0.00000000000E+00  0.00000000000E+00  0.16636342313E+04  0.26505836920E+04  0.20634716021E+04 0.  0.
        1    1    3    3  502    0 -0.58769998265E+02  0.77825876466E+03 -0.34965200722E+02  0.78125743692E+03  0.50400001928E-02 0.  1.
       -1    1    3    3    0  502  0.58769998265E+02 -0.77825876466E+03  0.16985994320E+04  0.18693262550E+04  0.50400001928E-02 0. -1.
</event>
<event>
 5   0  0.1102175E-06  0.2003596E+04  0.7818609E-02  0.8604941E-01
        1   -1    0    0  501    0  0.00000000000E+00  0.00000000000E+00  0.22483971640E+04  0.22483971640E+04  0.50400001928E-02 0. -1.
       -1   -1    0    0    0  501  0.00000000000E+00  0.00000000000E+00 -0.44636218465E+03  0.44636218468E+03  0.50400001928E-02 0.  1.
    10030    2    1    2    0    0  0.00000000000E+00  0.00000000000E+00  0.18020349794E+04  0.26947593487E+04  0.20035962369E+04 0.  0.
        5    1    3    3  502    0  0.74463882860E+03  0.67014165601E+03  0.90202033393E+03  0.13480502947E+04  0.46999998093E+01 0. -1.
       -5    1    3    3    0  502 -0.74463882860E+03 -0.67014165601E+03  0.90001464543E+03  0.13467090540E+04  0.46999998093E+01 0.  1.
</event>
<event>
 5   0  0.1782660E-06  0.2233021E+04  0.7818609E-02  0.8504808E-01
        2   -1    0    0  501    0  0.00000000000E+00  0.00000000000E+00  0.18218163227E+04  0.18218163227E+04  0.25500000920E-02 0. -1.
       -2   -1    0    0    0  501  0.00000000000E+00  0.00000000000E+00 -0.68425977169E+03  0.68425977169E+03  0.25500000920E-02 0.  1.
    10030    2    1    2    0    0  0.00000000000E+00  0.00000000000E+00  0.11375565510E+04  0.25060760944E+04  0.22330209323E+04 0.  0.
        4    1    3    3  502    0 -0.24305245295E+03 -0.83400518983E+03  0.13559402125E+04  0.16103461194E+04  0.12699999809E+01 0. -1.
       -4    1    3    3    0  502  0.24305245295E+03  0.83400518983E+03 -0.21838366149E+03  0.89572997497E+03  0.12699999809E+01 0.  1.
</event>
<event>
 5   0  0.1782660E-06  0.3492869E+04  0.7818609E-02  0.8115482E-01
       -2   -1    0    0    0  501  0.00000000000E+00  0.00000000000E+00  0.17230447786E+04  0.17230447786E+04  0.25500000920E-02 0. -1.
        2   -1    0    0  501    0  0.00000000000E+00  0.00000000000E+00 -0.17701417813E+04  0.17701417813E+04  0.25500000920E-02 0.  1.
    10030    2    1    2    0    0  0.00000000000E+00  0.00000000000E+00 -0.47097002658E+02  0.34931865599E+04  0.34928690520E+04 0.  0.
        4    1    3    3  502    0  0.15397671517E+04 -0.55014502688E+03  0.59009468384E+03  0.17383198155E+04  0.12699999809E+01 0. -1.
       -4    1    3    3    0  502 -0.15397671517E+04  0.55014502688E+03 -0.63719168650E+03  0.17548667443E+04  0.12699999809E+01 0.  1.
</event>
<event>
 5   0  0.3378848E-06  0.1755370E+04  0.7818609E-02  0.8730400E-01
       -2   -1    0    0    0  501  0.00000000000E+00  0.00000000000E+00  0.79906268790E+03  0.79906268791E+03  0.25500000920E-02 0.  1.
        2   -1    0    0  501    0  0.00000000000E+00  0.00000000000E+00 -0.96404374010E+03  0.96404374011E+03  0.25500000920E-02 0. -1.
    10030    2    1    2    0    0  0.00000000000E+00  0.00000000000E+00 -0.16498105220E+03  0.17631064280E+04  0.17553704820E+04 0.  0.
        1    1    3    3  502    0  0.84962503211E+01 -0.59724233078E+03  0.56343049426E+03  0.82111175234E+03  0.50400001928E-02 0.  1.
       -1    1    3    3    0  502 -0.84962503211E+01  0.59724233078E+03 -0.72841154646E+03  0.94199467567E+03  0.50400001928E-02 0. -1.
</event>
<event>
 5   0  0.1908726E-06  0.3550607E+04  0.7818609E-02  0.8101900E-01
        2   -1    0    0  501    0  0.00000000000E+00  0.00000000000E+00  0.27421190131E+04  0.27421190131E+04  0.25500000920E-02 0.  1.
       -2   -1    0    0    0  501  0.00000000000E+00  0.00000000000E+00 -0.11493678298E+04  0.11493678299E+04  0.25500000920E-02 0. -1.
    10030    2    1    2    0    0  0.00000000000E+00  0.00000000000E+00  0.15927511833E+04  0.38914868430E+04  0.35506074857E+04 0.  0.
        5    1    3    3  502    0  0.10460532027E+04  0.32085429386E+03  0.23286320572E+04  0.25728824553E+04  0.46999998093E+01 0.  1.
       -5    1    3    3    0  502 -0.10460532027E+04 -0.32085429386E+03 -0.73588087391E+03  0.13186043877E+04  0.46999998093E+01 0. -1.
</event>
<event>
 5   0  0.1782660E-06  0.3397691E+04  0.7818609E-02  0.8138473E-01
       -2   -1    0    0    0  501  0.00000000000E+00  0.00000000000E+00  0.21503988447E+04  0.21503988447E+04  0.25500000920E-02 0.  1.
        2   -1    0    0  501    0  0.00000000000E+00  0.00000000000E+00 -0.13421115933E+04  0.13421115933E+04  0.25500000920E-02 0. -1.
    10030    2    1    2    0    0  0.00000000000E+00  0.00000000000E+00  0.80828725149E+03  0.34925104380E+04  0.33976905213E+04 0.  0.
        4    1    3    3  502    0 -0.13902143353E+04 -0.16637840154E+03  0.13931249094E+04  0.19751395639E+04  0.12699999809E+01 0.  1.
       -4    1    3    3    0  502  0.13902143353E+04  0.16637840154E+03 -0.58483765794E+03  0.15173708741E+04  0.12699999809E+01 0. -1.
</event>
<event>
 5   0  0.1782660E-06  0.3501414E+04  0.7818609E-02  0.8113455E-01
        2   -1    0    0  501    0  0.00000000000E+00  0.00000000000E+00  0.31797009898E+04  0.31797009898E+04  0.25500000920E-02 0.  1.
       -2   -1    0    0    0  501  0.00000000000E+00  0.00000000000E+00 -0.96391940201E+03  0.96391940201E+03  0.25500000920E-02 0. -1.
    10030    2    1    2    0    0  0.00000000000E+00  0.00000000000E+00  0.22157815878E+04  0.41436203918E+04  0.35014142723E+04 0.  0.
        4    1    3    3  502    0  0.17265940198E+03  0.10420037899E+04 -0.54439781400E+03  0.11882566053E+04  0.12699999809E+01 0. -1.
       -4    1    3    3    0  502 -0.17265940198E+03 -0.10420037899E+04  0.27601794018E+04  0.29553637864E+04  0.12699999809E+01 0.  1.
</event>
<event>
 5   0  0.1908726E-06  0.2678893E+04  0.7818609E-02  0.8341886E-01
        2   -1    0    0  501    0  0.00000000000E+00  0.00000000000E+00  0.18721158034E+04  0.18721158034E+04  0.25500000920E-02 0. -1.
       -2   -1    0    0    0  501  0.00000000000E+00  0.00000000000E+00 -0.95833684827E+03  0.95833684827E+03  0.25500000920E-02 0.  1.
    10030    2    1    2    0    0  0.00000000000E+00  0.00000000000E+00  0.91377895516E+03  0.28304526517E+04  0.26788934720E+04 0.  0.
        5    1    3    3  502    0  0.11209446704E+04 -0.19293694968E+03 -0.29048639322E+03  0.11739446560E+04  0.46999998093E+01 0.  1.
       -5    1    3    3    0  502 -0.11209446704E+04  0.19293694968E+03  0.12042653484E+04  0.16565079957E+04  0.46999998093E+01 0. -1.
</event>
<event>
 5   0  0.1782660E-06  0.3509347E+04  0.7818609E-02  0.8111578E-01
       -2   -1    0    0    0  501  0.00000000000E+00  0.00000000000E+00  0.19025971679E+04  0.19025971679E+04  0.25500000920E-02 0.  1.
        2   -1    0    0  501    0  0.00000000000E+00  0.00000000000E+00 -0.16182505482E+04  0.16182505482E+04  0.25500000920E-02 0. -1.
    10030    2    1    2    0    0  0.00000000000E+00  0.00000000000E+00  0.28434661973E+03  0.35208477160E+04  0.35093468964E+04 0.  0.
        4    1    3    3  502    0  0.81767189542E+03 -0.80231180786E+03 -0.11913121988E+04  0.16527304480E+04  0.12699999809E+01 0. -1.
       -4    1    3    3    0  502 -0.81767189542E+03  0.80231180786E+03  0.14756588186E+04  0.18681172681E+04  0.12699999809E+01 0.  1.
</event>
<event>
 5   0  0.1110956E-06  0.2636479E+04  0.7818609E-02  0.8355915E-01
       -1   -1    0    0    0  501  0.00000000000E+00  0.00000000000E+00  0.75738017086E+03  0.75738017087E+03  0.50400001928E-02 0.  1.
        1   -1    0    0  501    0  0.00000000000E+00  0.00000000000E+00 -0.22944292104E+04  0.22944292104E+04  0.50400001928E-02 0. -1.
    10030    2    1    2    0    0  0.00000000000E+00  0.00000000000E+00 -0.15370490396E+04  0.30518093813E+04  0.26364788544E+04 0.  0.
        1    1    3    3  502    0  0.63202590467E+03 -0.81503686338E+03 -0.17188390333E+04  0.20045322286E+04  0.50400001928E-02 0. -1.
       -1    1    3    3    0  502 -0.63202590467E+03  0.81503686338E+03  0.18178999374E+03  0.10472771528E+04  0.50400001928E-02 0.  1.
</event>
<event>
 5   0  0.1110956E-06  0.2017680E+04  0.7818609E-02  0.8598399E-01
       -1   -1    0    0    0  501  0.00000000000E+00  0.00000000000E+00  0.54537284000E+03  0.54537284003E+03  0.50400001928E-02 0. -1.
        1   -1    0    0  501    0  0.00000000000E+00  0.00000000000E+00 -0.18661691511E+04  0.18661691511E+04  0.50400001928E-02 0.  1.
    10030    2    1    2    0    0  0.00000000000E+00  0.00000000000E+00 -0.13207963111E+04  0.24115419911E+04  0.20176798258E+04 0.  0.
        1    1    3    3  502    0 -0.22868963237E+02  0.73857995874E+03 -0.14813004206E+04  0.16553773833E+04  0.50400001928E-02 0.  1.
       -1    1    3    3    0  502  0.22868963237E+02 -0.73857995874E+03  0.16050410954E+03  0.75616460783E+03  0.50400001928E-02 0. -1.
</event>
<event>
 5   0  0.1102175E-06  0.3573708E+04  0.7818609E-02  0.8096541E-01
       -1   -1    0    0    0  501  0.00000000000E+00  0.00000000000E+00  0.12886746661E+04  0.12886746661E+04  0.50400001928E-02 0.  1.
        1   -1    0    0  501    0  0.00000000000E+00  0.00000000000E+00 -0.24776214943E+04  0.24776214943E+04  0.50400001928E-02 0. -1.
    10030    2    1    2    0    0  0.00000000000E+00  0.00000000000E+00 -0.11889468281E+04  0.37662961604E+04  0.35737084671E+04 0.  0.
        5    1    3    3  502    0 -0.69058971074E+03  0.16275057054E+04 -0.86754485777E+03  0.19693514516E+04  0.46999998093E+01 0.  1.
       -5    1    3    3    0  502  0.69058971074E+03 -0.16275057054E+04 -0.32140197036E+03  0.17969447088E+04  0.46999998093E+01 0. -1.
</event>
<event>
 5   0  0.1110956E-06  0.2067587E+04  0.7818609E-02  0.8575658E-01
       -1   -1    0    0    0  501  0.00000000000E+00  0.00000000000E+00  0.83344762865E+03  0.83344762866E+03  0.50400001928E-02 0.  1.
        1   -1    0    0  501    0  0.00000000000E+00  0.00000000000E+00 -0.12822983167E+04  0.12822983167E+04  0.50400001928E-02 0. -1.
    10030    2    1    2    0    0  0.00000000000E+00  0.00000000000E+00 -0.44885068802E+03  0.21157459453E+04  0.20675865073E+04 0.  0.
        1    1    3    3  502    0  0.79414071262E+03 -0.64407646977E+03 -0.68446144002E+02  0.10247823403E+04  0.50400001928E-02 0.  1.
       -1    1    3    3    0  502 -0.79414071262E+03  0.64407646977E+03 -0.38040454402E+03  0.10909636050E+04  0.50400001928E-02 0. -1.
</event>
<event>
 5   0  0.1908726E-06  0.1815250E+04  0.7818609E-02  0.8698232E-01
       -2   -1    0    0    0  501  0.00000000000E+00  0.00000000000E+00  0.42296961834E+03  0.42296961835E+03  0.25500000920E-02 0. -1.
        2   -1    0    0  501    0  0.00000000000E+00  0.00000000000E+00 -0.19476177167E+04  0.19476177167E+04  0.25500000920E-02 0.  1.
    10030    2    1    2    0    0  0.00000000000E+00  0.00000000000E+00 -0.15246480984E+04  0.23705873351E+04  0.18152499799E+04 0.  0.
        5    1    3    3  502    0  0.68933423816E+03  0.23529741327E+03 -0.14694751421E+04  0.16400993409E+04  0.46999998093E+01 0.  1.
       -5    1    3    3    0  502 -0.68933423816E+03 -0.23529741327E+03 -0.55172956271E+02  0.73048799422E+03  0.46999998093E+01 0. -1.
</event>
<event>
 5   0  0.3378848E-06  0.1759179E+04  0.7818609E-02  0.8728314E-01
        2   -1    0    0  501    0  0.00000000000E+00  0.00000000000E+00  0.11335559389E+04  0.11335559389E+04  0.25500000920E-02 0.  1.
       -2   -1    0    0    0  501  0.00000000000E+00  0.00000000000E+00 -0.68252281192E+03  0.68252281193E+03  0.25500000920E-02 0. -1.
    10030    2    1    2    0    0  0.00000000000E+00  0.00000000000E+00  0.45103312697E+03  0.18160787508E+04  0.17591791119E+04 0.  0.
        1    1    3    3  502    0 -0.56795684064E+03  0.33258056350E+03  0.82790787644E+03  0.10576465648E+04  0.50400001928E-02 0.  1.
       -1    1    3    3    0  502  0.56795684064E+03 -0.33258056350E+03 -0.37687474947E+03  0.75843218607E+03  0.50400001928E-02 0. -1.
</event>
<event>
 5   0  0.2565004E-06  0.1955500E+04  0.7818609E-02  0.8627713E-01
        2   -1    0    0  501    0  0.00000000000E+00  0.00000000000E+00  0.36786933534E+04  0.36786933534E+04  0.25500000920E-02 0.  1.
       -2   -1    0    0    0  501  0.00000000000E+00  0.00000000000E+00 -0.25987350893E+03  0.25987350894E+03  0.25500000920E-02 0. -1.
    10030    2    1    2    0    0  0.00000000000E+00  0.00000000000E+00  0.34188198445E+04  0.39385668624E+04  0.19554998850E+04 0.  0.
        3    1    3    3  502    0  0.74435825462E+03  0.59535906731E+03  0.21482488878E+04  0.23502116765E+04  0.10100000352E+00 0.  1.
       -3    1    3    3    0  502 -0.74435825462E+03 -0.59535906731E+03  0.12705709567E+04  0.15883551858E+04  0.10100000352E+00 0. -1.
</event>
<event>
 5   0  0.3041329E-06  0.3495987E+04  0.7818609E-02  0.8114742E-01
       -2   -1    0    0    0  501  0.00000000000E+00  0.00000000000E+00  0.20987845113E+04  0.20987845113E+04  0.25500000920E-02 0. -1.
        2   -1    0    0  501    0  0.00000000000E+00  0.00000000000E+00 -0.14558333670E+04  0.14558333670E+04  0.25500000920E-02 0.  1.
    10030    2    1    2    0    0  0.00000000000E+00  0.00000000000E+00  0.64295114431E+03  0.35546178783E+04  0.34959865684E+04 0.  0.
        2    1    3    3  502    0  0.43008894299E+03 -0.10996063271E+04 -0.98908271408E+03  0.15402581565E+04  0.25500000920E-02 0.  1.
       -2    1    3    3    0  502 -0.43008894299E+03  0.10996063271E+04  0.16320338584E+04  0.20143597217E+04  0.25500000920E-02 0. -1.
</event>
<event>
 5   0  0.1908726E-06  0.2379859E+04  0.7818609E-02  0.8447083E-01
        2   -1    0    0  501    0  0.00000000000E+00  0.00000000000E+00  0.11320533002E+04  0.11320533002E+04  0.25500000920E-02 0. -1.
       -2   -1    0    0    0  501  0.00000000000E+00  0.00000000000E+00 -0.12507644447E+04  0.12507644447E+04  0.25500000920E-02 0.  1.
    10030    2    1    2    0    0  0.00000000000E+00  0.00000000000E+00 -0.11871114444E+03  0.23828177449E+04  0.23798588340E+04 0.  0.
        5    1    3    3  502    0 -0.39880409618E+03 -0.67777737050E+03  0.83477379886E+03  0.11468636607E+04  0.46999998093E+01 0. -1.
       -5    1    3    3    0  502  0.39880409618E+03  0.67777737050E+03 -0.95348494330E+03  0.12359540842E+04  0.46999998093E+01 0.  1.
</event>
<event>
 5   0  0.1782660E-06  0.3530145E+04  0.7818609E-02  0.8106683E-01
       -2   -1    0    0    0  501  0.00000000000E+00  0.00000000000E+00  0.14402874716E+04  0.14402874716E+04  0.25500000920E-02 0.  1.
        2   -1    0    0  501    0  0.00000000000E+00  0.00000000000E+00 -0.21630966244E+04  0.21630966244E+04  0.25500000920E-02 0. -1.
    10030    2    1    2    0    0  0.00000000000E+00  0.00000000000E+00 -0.72280915279E+03  0.36033840960E+04  0.35301450214E+04 0.  0.
        4    1    3    3  502    0  0.94095757284E+03  0.14810252399E+04 -0.16601103582E+03  0.17624977141E+04  0.12699999809E+01 0.  1.
       -4    1    3    3    0  502 -0.94095757284E+03 -0.14810252399E+04 -0.55679811697E+03  0.18408863819E+04  0.12699999809E+01 0. -1.
</event>
<event>
 5   0  0.1130707E-06  0.2007622E+04  0.7818609E-02  0.8603065E-01
       -1   -1    0    0    0  501  0.00000000000E+00  0.00000000000E+00  0.99448164185E+03  0.99448164186E+03  0.50400001928E-02 0.  1.
        1   -1    0    0  501    0  0.00000000000E+00  0.00000000000E+00 -0.10132280653E+04  0.10132280653E+04  0.50400001928E-02 0. -1.
    10030    2    1    2    0    0  0.00000000000E+00  0.00000000000E+00 -0.18746423414E+02  0.20077097071E+04  0.20076221855E+04 0.  0.
        3    1    3    3  502    0  0.88637964379E+02 -0.37474761642E+03 -0.93642184165E+03  0.10125109088E+04  0.10100000352E+00 0. -1.
       -3    1    3    3    0  502 -0.88637964379E+02  0.37474761642E+03  0.91767541824E+03  0.99519879832E+03  0.10100000352E+00 0.  1.
</event>
<event>
 5   0  0.1908726E-06  0.2265258E+04  0.7818609E-02  0.8491747E-01
       -2   -1    0    0    0  501  0.00000000000E+00  0.00000000000E+00  0.63899728797E+03  0.63899728797E+03  0.25500000920E-02 0.  1.
        2   -1    0    0  501    0  0.00000000000E+00  0.00000000000E+00 -0.20075965232E+04  0.20075965232E+04  0.25500000920E-02 0. -1.
    10030    2    1    2    0    0  0.00000000000E+00  0.00000000000E+00 -0.13685992352E+04  0.26465938111E+04  0.22652582490E+04 0.  0.
        5    1    3    3  502    0 -0.97404948482E+02  0.11258003554E+04 -0.77413644263E+03  0.13697530748E+04  0.46999998093E+01 0.  1.
       -5    1    3    3    0  502  0.97404948482E+02 -0.11258003554E+04 -0.59446279257E+03  0.12768407363E+04  0.46999998093E+01 0. -1.
</event>
<event>
 5   0  0.1125196E-06  0.3391620E+04  0.7818609E-02  0.8139966E-01
        1   -1    0    0  501    0  0.00000000000E+00  0.00000000000E+00  0.18319878428E+04  0.18319878428E+04  0.50400001928E-02 0.  1.
       -1   -1    0    0    0  501  0.00000000000E+00  0.00000000000E+00 -0.15697545796E+04  0.15697545796E+04  0.50400001928E-02 0. -1.
    10030    2    1    2    0    0  0.00000000000E+00  0.00000000000E+00  0.26223326324E+03  0.34017424224E+04  0.33916198525E+04 0.  0.
        4    1    3    3  502    0  0.29267325888E+03  0.10596873462E+04 -0.11639282625E+04  0.16010388881E+04  0.12699999809E+01 0. -1.
       -4    1    3    3    0  502 -0.29267325888E+03 -0.10596873462E+04  0.14261615257E+04  0.18007035343E+04  0.12699999809E+01 0.  1.
</event>
<event>
 5   0  0.1102175E-06  0.3591364E+04  0.7818609E-02  0.8092473E-01
        1   -1    0    0  501    0  0.00000000000E+00  0.00000000000E+00  0.25283826057E+04  0.25283826057E+04  0.50400001928E-02 0.  1.
       -1   -1    0    0    0  501  0.00000000000E+00  0.00000000000E+00 -0.12753110935E+04  0.12753110935E+04  0.50400001928E-02 0. -1.
    10030    2    1    2    0    0  0.00000000000E+00  0.00000000000E+00  0.12530715122E+04  0.38036936991E+04  0.35913643010E+04 0.  0.
        5    1    3    3  502    0  0.16079351720E+04  0.74372604021E+03  0.31617796799E+03  0.17996039947E+04  0.46999998093E+01 0. -1.
       -5    1    3    3    0  502 -0.16079351720E+04 -0.74372604021E+03  0.93689354421E+03  0.20040897044E+04  0.46999998093E+01 0.  1.
</event>
<event>
 5   0  0.1130707E-06  0.2807623E+04  0.7818609E-02  0.8300906E-01
       -1   -1    0    0    0  501  0.00000000000E+00  0.00000000000E+00  0.88575193887E+03  0.88575193888E+03  0.50400001928E-02 0. -1.
        1   -1    0    0  501    0  0.00000000000E+00  0.00000000000E+00 -0.22248736108E+04  0.22248736108E+04  0.50400001928E-02 0.  1.
    10030    2    1    2    0    0  0.00000000000E+00  0.00000000000E+00 -0.13391216719E+04  0.31106255497E+04  0.28076225633E+04 0.  0.
        3    1    3    3  502    0 -0.54211477421E+03  0.87948686251E+03 -0.17225530125E+04  0.20086250175E+04  0.10100000352E+00 0.  1.
       -3    1    3    3    0  502  0.54211477421E+03 -0.87948686251E+03  0.38343134062E+03  0.11020005322E+04  0.10100000352E+00 0. -1.
</event>
<event>
 5   0  0.1125196E-06  0.3430396E+04  0.7818609E-02  0.8130486E-01
        1   -1    0    0  501    0  0.00000000000E+00  0.00000000000E+00  0.14872614937E+04  0.14872614937E+04  0.50400001928E-02 0. -1.
       -1   -1    0    0    0  501  0.00000000000E+00  0.00000000000E+00 -0.19780675420E+04  0.19780675420E+04  0.50400001928E-02 0.  1.
    10030    2    1    2    0    0  0.00000000000E+00  0.00000000000E+00 -0.49080604832E+03  0.34653290357E+04  0.34303957131E+04 0.  0.
        4    1    3    3  502    0 -0.13720508136E+04 -0.15738392948E+03  0.78211244645E+03  0.15871340927E+04  0.12699999809E+01 0. -1.
       -4    1    3    3    0  502  0.13720508136E+04  0.15738392948E+03 -0.12729184948E+04  0.18781949429E+04  0.12699999809E+01 0.  1.
</event>
<event>
 5   0  0.1908726E-06  0.3406504E+04  0.7818609E-02  0.8136312E-01
       -2   -1    0    0    0  501  0.00000000000E+00  0.00000000000E+00  0.95452986346E+03  0.95452986347E+03  0.25500000920E-02 0.  1.
        2   -1    0    0  501    0  0.00000000000E+00  0.00000000000E+00 -0.30392626786E+04  0.30392626786E+04  0.25500000920E-02 0. -1.
    10030    2    1    2    0    0  0.00000000000E+00  0.00000000000E+00 -0.20847328151E+04  0.39937925420E+04  0.34065037734E+04 0.  0.
        5    1    3    3  502    0  0.14876877890E+04 -0.24779823900E+03 -0.11444433368E+03  0.15125271965E+04  0.46999998093E+01 0.  1.
       -5    1    3    3    0  502 -0.14876877890E+04  0.24779823900E+03 -0.19702884814E+04  0.24812653455E+04  0.46999998093E+01 0. -1.
</event>
<event>
 5   0  0.1125196E-06  0.2179040E+04  0.7818609E-02  0.8527203E-01
       -1   -1    0    0    0  501  0.00000000000E+00  0.00000000000E+00  0.13098189861E+04  0.13098189861E+04  0.50400001928E-02 0.  1.
        1   -1    0    0  501    0  0.00000000000E+00  0.00000000000E+00 -0.90627282061E+03  0.90627282063E+03  0.50400001928E-02 0. -1.
    10030    2    1    2    0    0  0.00000000000E+00  0.00000000000E+00  0.40354616550E+03  0.22160918067E+04  0.21790395564E+04 0.  0.
        4    1    3    3  502    0 -0.10657134286E+04 -0.69538716896E+02  0.42100995232E+03  0.11479685265E+04  0.12699999809E+01 0.  1.
       -4    1    3    3    0  502  0.10657134286E+04  0.69538716896E+02 -0.17463786827E+02  0.10681232802E+04  0.12699999809E+01 0. -1.
</event>
<event>
 5   0  0.1089337E-06  0.2707173E+04  0.7818609E-02  0.8332681E-01
       -1   -1    0    0    0  501  0.00000000000E+00  0.00000000000E+00  0.10632754099E+04  0.10632754099E+04  0.50400001928E-02 0.  1.
        1   -1    0    0  501    0  0.00000000000E+00  0.00000000000E+00 -0.17231622713E+04  0.17231622713E+04  0.50400001928E-02 0. -1.
    10030    2    1    2    0    0  0.00000000000E+00  0.00000000000E+00 -0.65988686143E+03  0.27864376812E+04  0.27071727469E+04 0.  0.
        2    1    3    3  502    0 -0.27149842960E+03  0.44630196240E+03  0.95533759904E+03  0.10888373465E+04  0.25500000920E-02 0.  1.
       -2    1    3    3    0  502  0.27149842960E+03 -0.44630196240E+03 -0.16152244605E+04  0.16976003348E+04  0.25500000920E-02 0. -1.
</event>
<event>
 5   0  0.1908726E-06  0.3460800E+04  0.7818609E-02  0.8123143E-01
       -2   -1    0    0    0  501  0.00000000000E+00  0.00000000000E+00  0.26312303881E+04  0.26312303881E+04  0.25500000920E-02 0. -1.
        2   -1    0    0  501    0  0.00000000000E+00  0.00000000000E+00 -0.11379789190E+04  0.11379789190E+04  0.25500000920E-02 0.  1.
    10030    2    1    2    0    0  0.00000000000E+00  0.00000000000E+00  0.14932514692E+04  0.37692093071E+04  0.34608003194E+04 0.  0.
        5    1    3    3  502    0 -0.12811937655E+04 -0.79682547616E+03  0.16694051990E+04  0.22501831287E+04  0.46999998093E+01 0. -1.
       -5    1    3    3    0  502  0.12811937655E+04  0.79682547616E+03 -0.17615372979E+03  0.15190261785E+04  0.46999998093E+01 0.  1.
</event>
<event>
 5   0  0.3041329E-06  0.1830384E+04  0.7818609E-02  0.8690306E-01
       -2   -1    0    0    0  501  0.00000000000E+00  0.00000000000E+00  0.82578310300E+03  0.82578310300E+03  0.25500000920E-02 0. -1.
        2   -1    0    0  501    0  0.00000000000E+00  0.00000000000E+00 -0.10142818442E+04  0.10142818442E+04  0.25500000920E-02 0.  1.
    10030    2    1    2    0    0  0.00000000000E+00  0.00000000000E+00 -0.18849874117E+03  0.18400649472E+04  0.18303844499E+04 0.  0.
        2    1    3    3  502    0 -0.17157691043E+03  0.59324822438E+03  0.58474466640E+03  0.85047540636E+03  0.25500000920E-02 0. -1.
       -2    1    3    3    0  502  0.17157691043E+03 -0.59324822438E+03 -0.77324340758E+03  0.98958954082E+03  0.25500000920E-02 0.  1.
</event>
<event>
 5   0  0.1908726E-06  0.3040427E+04  0.7818609E-02  0.8232280E-01
       -2   -1    0    0    0  501  0.00000000000E+00  0.00000000000E+00  0.12585838069E+04  0.12585838069E+04  0.25500000920E-02 0. -1.
        2   -1    0    0  501    0  0.00000000000E+00  0.00000000000E+00 -0.18362298924E+04  0.18362298924E+04  0.25500000920E-02 0.  1.
    10030    2    1    2    0    0  0.00000000000E+00  0.00000000000E+00 -0.57764608543E+03  0.30948136993E+04  0.30404270808E+04 0.  0.
        5    1    3    3  502    0  0.91500841974E+03 -0.32952916495E+02  0.94643355488E+03  0.13168465616E+04  0.46999998093E+01 0. -1.
       -5    1    3    3    0  502 -0.91500841974E+03  0.32952916495E+02 -0.15240796403E+04  0.17779671377E+04  0.46999998093E+01 0.  1.
</event>
<event>
 5   0  0.1110956E-06  0.3864662E+04  0.7818609E-02  0.8032419E-01
       -1   -1    0    0    0  501  0.00000000000E+00  0.00000000000E+00  0.16506588448E+04  0.16506588448E+04  0.50400001928E-02 0. -1.
        1   -1    0    0  501    0  0.00000000000E+00  0.00000000000E+00 -0.22620684518E+04  0.22620684518E+04  0.50400001928E-02 0.  1.
    10030    2    1    2    0    0  0.00000000000E+00  0.00000000000E+00 -0.61140960700E+03  0.39127272965E+04  0.38646621055E+04 0.  0.
        1    1    3    3  502    0  0.28923482784E+03  0.26903955138E+03  0.16093445888E+04  0.16571146826E+04  0.50400001928E-02 0. -1.
       -1    1    3    3    0  502 -0.28923482784E+03 -0.26903955138E+03 -0.22207541958E+04  0.22556126139E+04  0.50400001928E-02 0.  1.
</event>
<event>
 5   0  0.1130707E-06  0.1827314E+04  0.7818609E-02  0.8691908E-01
        1   -1    0    0  501    0  0.00000000000E+00  0.00000000000E+00  0.17550124439E+04  0.17550124439E+04  0.50400001928E-02 0.  1.
       -1   -1    0    0    0  501  0.00000000000E+00  0.00000000000E+00 -0.47564838338E+03  0.47564838340E+03  0.50400001928E-02 0. -1.
    10030    2    1    2    0    0  0.00000000000E+00  0.00000000000E+00  0.12793640605E+04  0.22306608273E+04  0.18273136915E+04 0.  0.
        3    1    3    3  502    0 -0.77324618539E+03  0.48137905825E+03  0.72714441620E+03  0.11654932317E+04  0.10100000352E+00 0.  1.
       -3    1    3    3    0  502  0.77324618539E+03 -0.48137905825E+03  0.55221964433E+03  0.10651675956E+04  0.10100000352E+00 0. -1.
</event>
<event>
 5   0  0.3378848E-06  0.3538776E+04  0.7818609E-02  0.8104661E-01
        2   -1    0    0  501    0  0.00000000000E+00  0.00000000000E+00  0.20468375787E+04  0.20468375787E+04  0.25500000920E-02 0.  1.
       -2   -1    0    0    0  501  0.00000000000E+00  0.00000000000E+00 -0.15295470964E+04  0.15295470964E+04  0.25500000920E-02 0. -1.
    10030    2    1    2    0    0  0.00000000000E+00  0.00000000000E+00  0.51729048229E+03  0.35763846751E+04  0.35387763282E+04 0.  0.
        1    1    3    3  502    0  0.15524890825E+04  0.46870623381E+03  0.97385725520E+03  0.18916410438E+04  0.50400001928E-02 0.  1.
       -1    1    3    3    0  502 -0.15524890825E+04 -0.46870623381E+03 -0.45656677291E+03  0.16847436313E+04  0.50400001928E-02 0. -1.
</event>
<event>
 5   0  0.3378848E-06  0.2135894E+04  0.7818609E-02  0.8545594E-01
       -2   -1    0    0    0  501  0.00000000000E+00  0.00000000000E+00  0.80325886510E+03  0.80325886510E+03  0.25500000920E-02 0.  1.
        2   -1    0    0  501    0  0.00000000000E+00  0.00000000000E+00 -0.14198549120E+04  0.14198549120E+04  0.25500000920E-02 0. -1.
    10030    2    1    2    0    0  0.00000000000E+00  0.00000000000E+00 -0.61659604686E+03  0.22231137771E+04  0.21358942345E+04 0.  0.
        1    1    3    3  502    0 -0.38866185811E+03  0.91429283677E+03  0.99520276848E+02  0.99844565042E+03  0.50400001928E-02 0.  1.
       -1    1    3    3    0  502  0.38866185811E+03 -0.91429283677E+03 -0.71611632371E+03  0.12246681266E+04  0.50400001928E-02 0. -1.
</event>
<event>
 5   0  0.1782660E-06  0.3396990E+04  0.7818609E-02  0.8138645E-01
       -2   -1    0    0    0  501  0.00000000000E+00  0.00000000000E+00  0.11709150287E+04  0.11709150287E+04  0.25500000920E-02 0.  1.
        2   -1    0    0  501    0  0.00000000000E+00  0.00000000000E+00 -0.24637877354E+04  0.24637877354E+04  0.25500000920E-02 0. -1.
    10030    2    1    2    0    0  0.00000000000E+00  0.00000000000E+00 -0.12928727067E+04  0.36347027640E+04  0.33969904838E+04 0.  0.
        4    1    3    3  502    0 -0.61201277560E+03  0.14013734110E+04  0.14453485214E+03  0.15360009801E+04  0.12699999809E+01 0. -1.
       -4    1    3    3    0  502  0.61201277560E+03 -0.14013734110E+04 -0.14374075588E+04  0.20987017839E+04  0.12699999809E+01 0.  1.
</event>
<event>
 5   0  0.3378848E-06  0.2132281E+04  0.7818609E-02  0.8547155E-01
        2   -1    0    0  501    0  0.00000000000E+00  0.00000000000E+00  0.14057622936E+04  0.14057622936E+04  0.25500000920E-02 0. -1.
       -2   -1    0    0    0  501  0.00000000000E+00  0.00000000000E+00 -0.80856847941E+03  0.80856847941E+03  0.25500000920E-02 0.  1.
    10030    2    1    2    0    0  0.00000000000E+00  0.00000000000E+00  0.59719381418E+03  0.22143307730E+04  0.21322805445E+04 0.  0.
        1    1    3    3  502    0 -0.57388826124E+03  0.66748973281E+02 -0.63190201838E+03  0.85621453076E+03  0.50400001928E-02 0.  1.
       -1    1    3    3    0  502  0.57388826124E+03 -0.66748973281E+02  0.12290958326E+04  0.13581162423E+04  0.50400001928E-02 0. -1.
</event>
<event>
 5   0  0.1782660E-06  0.2052846E+04  0.7818609E-02  0.8582304E-01
       -2   -1    0    0    0  501  0.00000000000E+00  0.00000000000E+00  0.18228071791E+04  0.18228071791E+04  0.25500000920E-02 0.  1.
        2   -1    0    0  501    0  0.00000000000E+00  0.00000000000E+00 -0.57797879931E+03  0.57797879932E+03  0.25500000920E-02 0. -1.
    10030    2    1    2    0    0  0.00000000000E+00  0.00000000000E+00  0.12448283798E+04  0.24007859785E+04  0.20528457368E+04 0.  0.
        4    1    3    3  502    0  0.40779511150E+03  0.83208098907E+03  0.11386976292E+04  0.14680904362E+04  0.12699999809E+01 0.  1.
       -4    1    3    3    0  502 -0.40779511150E+03 -0.83208098907E+03  0.10613075062E+03  0.93269554221E+03  0.12699999809E+01 0. -1.
</event>
<event>
 5   0  0.2565004E-06  0.3178364E+04  0.7818609E-02  0.8194555E-01
        2   -1    0    0  501    0  0.00000000000E+00  0.00000000000E+00  0.13316131101E+04  0.13316131101E+04  0.25500000920E-02 0.  1.
       -2   -1    0    0    0  501  0.00000000000E+00  0.00000000000E+00 -0.18965709937E+04  0.18965709937E+04  0.25500000920E-02 0. -1.
    10030    2    1    2    0    0  0.00000000000E+00  0.00000000000E+00 -0.56495788360E+03  0.32281841038E+04  0.31783636038E+04 0.  0.
        3    1    3    3  502    0  0.97045888998E+03 -0.91278435034E+03  0.59743384703E+03  0.14601003182E+04  0.10100000352E+00 0. -1.
       -3    1    3    3    0  502 -0.97045888998E+03  0.91278435034E+03 -0.11623917306E+04  0.17680837856E+04  0.10100000352E+00 0.  1.
</event>
<event>
 5   0  0.2565004E-06  0.3519733E+04  0.7818609E-02  0.8109129E-01
        2   -1    0    0  501    0  0.00000000000E+00  0.00000000000E+00  0.30999890918E+04  0.30999890918E+04  0.25500000920E-02 0.  1.
       -2   -1    0    0    0  501  0.00000000000E+00  0.00000000000E+00 -0.99907766030E+03  0.99907766031E+03  0.25500000920E-02 0. -1.
    10030    2    1    2    0    0  0.00000000000E+00  0.00000000000E+00  0.21009114315E+04  0.40990667521E+04  0.35197328585E+04 0.  0.
        3    1    3    3  502    0 -0.11190481992E+04  0.53304758025E+03  0.25053718469E+04  0.27952274857E+04  0.10100000352E+00 0.  1.
       -3    1    3    3    0  502  0.11190481992E+04 -0.53304758025E+03 -0.40446041543E+03  0.13038392665E+04  0.10100000352E+00 0. -1.
</event>
<event>
 5   0  0.1110956E-06  0.3495209E+04  0.7818609E-02  0.8114926E-01
       -1   -1    0    0    0  501  0.00000000000E+00  0.00000000000E+00  0.16257092376E+04  0.16257092376E+04  0.50400001928E-02 0.  1.
        1   -1    0    0  501    0  0.00000000000E+00  0.00000000000E+00 -0.18786399615E+04  0.18786399616E+04  0.50400001928E-02 0. -1.
    10030    2    1    2    0    0  0.00000000000E+00  0.00000000000E+00 -0.25293072398E+03  0.35043491991E+04  0.34952094870E+04 0.  0.
        1    1    3    3  502    0 -0.52601566398E+03 -0.85755345781E+03 -0.15591989078E+04  0.18555839097E+04  0.50400001928E-02 0. -1.
       -1    1    3    3    0  502  0.52601566398E+03  0.85755345781E+03  0.13062681838E+04  0.16487652895E+04  0.50400001928E-02 0.  1.
</event>
<event>
 5   0  0.1130707E-06  0.2480716E+04  0.7818609E-02  0.8409888E-01
        1   -1    0    0  501    0  0.00000000000E+00  0.00000000000E+00  0.20512569517E+04  0.20512569517E+04  0.50400001928E-02 0. -1.
       -1   -1    0    0    0  501  0.00000000000E+00  0.00000000000E+00 -0.75002219760E+03  0.75002219762E+03  0.50400001928E-02 0.  1.
    10030    2    1    2    0    0  0.00000000000E+00  0.00000000000E+00  0.13012347541E+04  0.28012791493E+04  0.24807162246E+04 0.  0.
        3    1    3    3  502    0  0.62087150812E+03  0.80468701193E+03 -0.15223131509E+03  0.10277047243E+04  0.10100000352E+00 0.  1.
       -3    1    3    3    0  502 -0.62087150812E+03 -0.80468701193E+03  0.14534660691E+04  0.17735744250E+04  0.10100000352E+00 0. -1.
</event>
<event>
 5   0  0.1089337E-06  0.3490605E+04  0.7818609E-02  0.8116020E-01
       -1   -1    0    0    0  501  0.00000000000E+00  0.00000000000E+00  0.15964201952E+04  0.15964201952E+04  0.50400001928E-02 0.  1.
        1   -1    0    0  501    0  0.00000000000E+00  0.00000000000E+00 -0.19080691606E+04  0.19080691606E+04  0.50400001928E-02 0. -1.
    10030    2    1    2    0    0  0.00000000000E+00  0.00000000000E+00 -0.31164896545E+03  0.35044893558E+04  0.34906046134E+04 0.  0.
        2    1    3    3  502    0 -0.11527617209E+04  0.44609032339E+03  0.10812390662E+04  0.16422344778E+04  0.25500000920E-02 0.  1.
       -2    1    3    3    0  502  0.11527617209E+04 -0.44609032339E+03 -0.13928880317E+04  0.18622548780E+04  0.25500000920E-02 0. -1.
</event>
<event>
 5   0  0.1125196E-06  0.3473069E+04  0.7818609E-02  0.8120202E-01
       -1   -1    0    0    0  501  0.00000000000E+00  0.00000000000E+00  0.16166245777E+04  0.16166245777E+04  0.50400001928E-02 0. -1.
        1   -1    0    0  501    0  0.00000000000E+00  0.00000000000E+00 -0.18653380164E+04  0.18653380164E+04  0.50400001928E-02 0.  1.
    10030    2    1    2    0    0  0.00000000000E+00  0.00000000000E+00 -0.24871343867E+03  0.34819625941E+04  0.34730685470E+04 0.  0.
        4    1    3    3  502    0 -0.61385530300E+03  0.15991679521E+04  0.16166881340E+03  0.17205507520E+04  0.12699999809E+01 0. -1.
       -4    1    3    3    0  502  0.61385530300E+03 -0.15991679521E+04 -0.41038225207E+03  0.17614118421E+04  0.12699999809E+01 0.  1.
</event>
<event>
 5   0  0.1089337E-06  0.2571329E+04  0.7818609E-02  0.8378006E-01
        1   -1    0    0  501    0  0.00000000000E+00  0.00000000000E+00  0.11581647248E+04  0.11581647248E+04  0.50400001928E-02 0.  1.
       -1   -1    0    0    0  501  0.00000000000E+00  0.00000000000E+00 -0.14272000983E+04  0.14272000983E+04  0.50400001928E-02 0. -1.
    10030    2    1    2    0    0  0.00000000000E+00  0.00000000000E+00 -0.26903537349E+03  0.25853648231E+04  0.25713286908E+04 0.  0.
        2    1    3    3  502    0 -0.12289005357E+03 -0.23089683136E+03  0.11311297950E+04  0.11609780037E+04  0.25500000920E-02 0.  1.
       -2    1    3    3    0  502  0.12289005357E+03  0.23089683136E+03 -0.14001651685E+04  0.14243868193E+04  0.25500000920E-02 0. -1.
</event>
<event>
 5   0  0.1908726E-06  0.3518129E+04  0.7818609E-02  0.8109507E-01
       -2   -1    0    0    0  501  0.00000000000E+00  0.00000000000E+00  0.15769850251E+04  0.15769850251E+04  0.25500000920E-02 0.  1.
        2   -1    0    0  501    0  0.00000000000E+00  0.00000000000E+00 -0.19621668507E+04  0.19621668507E+04  0.25500000920E-02 0. -1.
    10030    2    1    2    0    0  0.00000000000E+00  0.00000000000E+00 -0.38518182560E+03  0.35391518759E+04  0.35181289007E+04 0.  0.
        5    1    3    3  502    0  0.12761451219E+04 -0.11405704876E+04 -0.60101978806E+03  0.18140270904E+04  0.46999998093E+01 0. -1.
       -5    1    3    3    0  502 -0.12761451219E+04  0.11405704876E+04  0.21583796246E+03  0.17251247854E+04  0.46999998093E+01 0.  1.
</event>
<event>
 5   0  0.1782660E-06  0.1864118E+04  0.7818609E-02  0.8672926E-01
        2   -1    0    0  501    0  0.00000000000E+00  0.00000000000E+00  0.20815911139E+04  0.20815911139E+04  0.25500000920E-02 0. -1.
       -2   -1    0    0    0  501  0.00000000000E+00  0.00000000000E+00 -0.41734145906E+03  0.41734145907E+03  0.25500000920E-02 0.  1.
    10030    2    1    2    0    0  0.00000000000E+00  0.00000000000E+00  0.16642496549E+04  0.24989325730E+04  0.18641183146E+04 0.  0.
        4    1    3    3  502    0 -0.11336512897E+03  0.28125322578E+03 -0.34936345769E+03  0.46261373514E+03  0.12699999809E+01 0.  1.
       -4    1    3    3    0  502  0.11336512897E+03 -0.28125322578E+03  0.20136131126E+04  0.20363188379E+04  0.12699999809E+01 0. -1.
</event>
<event>
 5   0  0.2565004E-06  0.1844005E+04  0.7818609E-02  0.8683242E-01
        2   -1    0    0  501    0  0.00000000000E+00  0.00000000000E+00  0.16769205650E+04  0.16769205650E+04  0.25500000920E-02 0.  1.
       -2   -1    0    0    0  501  0.00000000000E+00  0.00000000000E+00 -0.50693441978E+03  0.50693441979E+03  0.25500000920E-02 0. -1.
    10030    2    1    2    0    0  0.00000000000E+00  0.00000000000E+00  0.11699861452E+04  0.21838549848E+04  0.18440051558E+04 0.  0.
        3    1    3    3  502    0 -0.35797940315E+02  0.91884742708E+03  0.50531286760E+03  0.10492393393E+04  0.10100000352E+00 0.  1.
       -3    1    3    3    0  502  0.35797940315E+02 -0.91884742708E+03  0.66467327762E+03  0.11346156455E+04  0.10100000352E+00 0. -1.
</event>
<event>
 5   0  0.1089337E-06  0.3594594E+04  0.7818609E-02  0.8091731E-01
       -1   -1    0    0    0  501  0.00000000000E+00  0.00000000000E+00  0.18246351881E+04  0.18246351881E+04  0.50400001928E-02 0. -1.
        1   -1    0    0  501    0  0.00000000000E+00  0.00000000000E+00 -0.17703685167E+04  0.17703685167E+04  0.50400001928E-02 0.  1.
    10030    2    1    2    0    0  0.00000000000E+00  0.00000000000E+00  0.54266671415E+02  0.35950037048E+04  0.35945941031E+04 0.  0.
        2    1    3    3  502    0  0.15515459621E+04 -0.17668624895E+03 -0.86277915480E+03  0.17840686010E+04  0.25500000920E-02 0.  1.
       -2    1    3    3    0  502 -0.15515459621E+04  0.17668624895E+03  0.91704582622E+03  0.18109351039E+04  0.25500000920E-02 0. -1.
</event>
<event>
 5   0  0.3378848E-06  0.3376395E+04  0.7818609E-02  0.8143724E-01
        2   -1    0    0  501    0  0.00000000000E+00  0.00000000000E+00  0.15904984566E+04  0.15904984566E+04  0.25500000920E-02 0.  1.
       -2   -1    0    0    0  501  0.00000000000E+00  0.00000000000E+00 -0.17918983435E+04  0.17918983435E+04  0.25500000920E-02 0. -1.
    10030    2    1    2    0    0  0.00000000000E+00  0.00000000000E+00 -0.20139988691E+03  0.33823968001E+04  0.33763954447E+04 0.  0.
        1    1    3    3  502    0  0.97290872750E+03  0.18859950889E+01  0.12814104686E+04  0.16089026503E+04  0.50400001928E-02 0.  1.
       -1    1    3    3    0  502 -0.97290872750E+03 -0.18859950889E+01 -0.14828103555E+04  0.17734941498E+04  0.50400001928E-02 0. -1.
</event>
<event>
 5   0  0.1782660E-06  0.3183861E+04  0.7818609E-02  0.8193092E-01
       -2   -1    0    0    0  501  0.00000000000E+00  0.00000000000E+00  0.19864249891E+04  0.19864249891E+04  0.25500000920E-02 0.  1.
        2   -1    0    0  501    0  0.00000000000E+00  0.00000000000E+00 -0.12757810787E+04  0.12757810787E+04  0.25500000920E-02 0. -1.
    10030    2    1    2    0    0  0.00000000000E+00  0.00000000000E+00  0.71064391038E+03  0.32622060678E+04  0.31838614388E+04 0.  0.
        4    1    3    3  502    0 -0.26644251671E+02  0.42616359527E+03  0.19266547674E+04  0.19734045535E+04  0.12699999809E+01 0.  1.
       -4    1    3    3    0  502  0.26644251671E+02 -0.42616359527E+03 -0.12160108570E+04  0.12888015143E+04  0.12699999809E+01 0. -1.
</event>
<event>
 5   0  0.1130707E-06  0.3598686E+04  0.7818609E-02  0.8090793E-01
        1   -1    0    0  501    0  0.00000000000E+00  0.00000000000E+00  0.13960913549E+04  0.13960913550E+04  0.50400001928E-02 0.  1.
       -1   -1    0    0    0  501  0.00000000000E+00  0.00000000000E+00 -0.23190714604E+04  0.23190714604E+04  0.50400001928E-02 0. -1.
    10030    2    1    2    0    0  0.00000000000E+00  0.00000000000E+00 -0.92298010545E+03  0.37151628154E+04  0.35986862144E+04 0.  0.
        3    1    3    3  502    0 -0.10719243854E+04 -0.13276575088E+04 -0.10508792990E+04  0.20040069012E+04  0.10100000352E+00 0. -1.
       -3    1    3    3    0  502  0.10719243854E+04  0.13276575088E+04  0.12789919358E+03  0.17111559142E+04  0.10100000352E+00 0.  1.
</event>
<event>
 5   0  0.3041329E-06  0.2095553E+04  0.7818609E-02  0.8563205E-01
        2   -1    0    0  501    0  0.00000000000E+00  0.00000000000E+00  0.15552110003E+04  0.15552110003E+04  0.25500000920E-02 0. -1.
       -2   -1    0    0    0  501  0.00000000000E+00  0.00000000000E+00 -0.70590789349E+03  0.70590789349E+03  0.25500000920E-02 0.  1.
    10030    2    1    2    0    0  0.00000000000E+00  0.00000000000E+00  0.84930310681E+03  0.22611188938E+04  0.20955531214E+04 0.  0.
        2    1    3    3  502    0  0.64488828779E+03  0.72260945074E+03 -0.66689120676E+01  0.96855035822E+03  0.25500000920E-02 0.  1.
       -2    1    3    3    0  502 -0.64488828779E+03 -0.72260945074E+03  0.85597201888E+03  0.12925685356E+04  0.25500000920E-02 0. -1.
</event>
<event>
 5   0  0.1908726E-06  0.3493854E+04  0.7818609E-02  0.8115248E-01
       -2   -1    0    0    0  501  0.00000000000E+00  0.00000000000E+00  0.12417052178E+04  0.12417052178E+04  0.25500000920E-02 0.  1.
        2   -1    0    0  501    0  0.00000000000E+00  0.00000000000E+00 -0.24577122462E+04  0.24577122462E+04  0.25500000920E-02 0. -1.
    10030    2    1    2    0    0  0.00000000000E+00  0.00000000000E+00 -0.12160070284E+04  0.36994174639E+04  0.34938541010E+04 0.  0.
        5    1    3    3  502    0  0.15331752129E+04  0.80616224626E+03 -0.84760993708E+03  0.19284679142E+04  0.46999998093E+01 0. -1.
       -5    1    3    3    0  502 -0.15331752129E+04 -0.80616224626E+03 -0.36839709130E+03  0.17709495497E+04  0.46999998093E+01 0.  1.
</event>
<event>
 5   0  0.1042825E-06  0.3528834E+04  0.7818609E-02  0.8106990E-01
        4   -1    0    0  501    0  0.00000000000E+00  0.00000000000E+00  0.13398585025E+04  0.13398591044E+04  0.12699999809E+01 0. -1.
       -4   -1    0    0    0  501  0.00000000000E+00  0.00000000000E+00 -0.23235034617E+04  0.23235038088E+04  0.12699999809E+01 0.  1.
    10030    2    1    2    0    0  0.00000000000E+00  0.00000000000E+00 -0.98364495920E+03  0.36633629132E+04  0.35288341458E+04 0.  0.
        1    1    3    3  502    0 -0.40055965700E+03 -0.91575222669E+03 -0.20012534288E+04  0.22369768586E+04  0.50400001928E-02 0.  1.
       -1    1    3    3    0  502  0.40055965700E+03  0.91575222669E+03  0.10176084696E+04  0.14263860547E+04  0.50400001928E-02 0. -1.
</event>
<event>
 5   0  0.2565004E-06  0.3608005E+04  0.7818609E-02  0.8088661E-01
       -2   -1    0    0    0  501  0.00000000000E+00  0.00000000000E+00  0.18623468209E+04  0.18623468209E+04  0.25500000920E-02 0. -1.
        2   -1    0    0  501    0  0.00000000000E+00  0.00000000000E+00 -0.17474858815E+04  0.17474858815E+04  0.25500000920E-02 0.  1.
    10030    2    1    2    0    0  0.00000000000E+00  0.00000000000E+00  0.11486093945E+03  0.36098327024E+04  0.36080048647E+04 0.  0.
        3    1    3    3  502    0  0.47061703176E+03 -0.80380375423E+03 -0.14882935976E+04  0.17557330972E+04  0.10100000352E+00 0.  1.
       -3    1    3    3    0  502 -0.47061703176E+03  0.80380375423E+03  0.16031545370E+04  0.18540996051E+04  0.10100000352E+00 0. -1.
</event>
<event>
 5   0  0.1908726E-06  0.2244382E+04  0.7818609E-02  0.8500179E-01
        2   -1    0    0  501    0  0.00000000000E+00  0.00000000000E+00  0.87253424173E+03  0.87253424174E+03  0.25500000920E-02 0.  1.
       -2   -1    0    0    0  501  0.00000000000E+00  0.00000000000E+00 -0.14432820625E+04  0.14432820625E+04  0.25500000920E-02 0. -1.
    10030    2    1    2    0    0  0.00000000000E+00  0.00000000000E+00 -0.57074782081E+03  0.23158163043E+04  0.22443823382E+04 0.  0.
        5    1    3    3  502    0 -0.38344126147E+01  0.11117883125E+04 -0.44254733124E+03  0.11966445525E+04  0.46999998093E+01 0. -1.
       -5    1    3    3    0  502  0.38344126147E+01 -0.11117883125E+04 -0.12820048957E+03  0.11191717518E+04  0.46999998093E+01 0.  1.
</event>
<event>
 5   0  0.1110956E-06  0.1894024E+04  0.7818609E-02  0.8657837E-01
       -1   -1    0    0    0  501  0.00000000000E+00  0.00000000000E+00  0.44770010115E+03  0.44770010118E+03  0.50400001928E-02 0. -1.
        1   -1    0    0  501    0  0.00000000000E+00  0.00000000000E+00 -0.20031978303E+04  0.20031978303E+04  0.50400001928E-02 0.  1.
    10030    2    1    2    0    0  0.00000000000E+00  0.00000000000E+00 -0.15554977291E+04  0.24508979314E+04  0.18940241511E+04 0.  0.
        1    1    3    3  502    0  0.21419172178E+03  0.89816738762E+03 -0.50554640901E+03  0.10526917505E+04  0.50400001928E-02 0. -1.
       -1    1    3    3    0  502 -0.21419172178E+03 -0.89816738762E+03 -0.10499513201E+04  0.13982061810E+04  0.50400001928E-02 0.  1.
</event>
<event>
 5   0  0.1908726E-06  0.2333742E+04  0.7818609E-02  0.8464735E-01
        2   -1    0    0  501    0  0.00000000000E+00  0.00000000000E+00  0.14181137702E+04  0.14181137702E+04  0.25500000920E-02 0.  1.
       -2   -1    0    0    0  501  0.00000000000E+00  0.00000000000E+00 -0.96014020679E+03  0.96014020679E+03  0.25500000920E-02 0. -1.
    10030    2    1    2    0    0  0.00000000000E+00  0.00000000000E+00  0.45797356344E+03  0.23782539770E+04  0.23337421011E+04 0.  0.
        5    1    3    3  502    0  0.64966229411E+03  0.50750314221E+03  0.10705372772E+04  0.13511819595E+04  0.46999998093E+01 0.  1.
       -5    1    3    3    0  502 -0.64966229411E+03 -0.50750314221E+03 -0.61256371378E+03  0.10270720175E+04  0.46999998093E+01 0. -1.
</event>
<event>
 5   0  0.1125196E-06  0.3263683E+04  0.7818609E-02  0.8172198E-01
        1   -1    0    0  501    0  0.00000000000E+00  0.00000000000E+00  0.10098704566E+04  0.10098704567E+04  0.50400001928E-02 0. -1.
       -1   -1    0    0    0  501  0.00000000000E+00  0.00000000000E+00 -0.26368797046E+04  0.26368797046E+04  0.50400001928E-02 0.  1.
    10030    2    1    2    0    0  0.00000000000E+00  0.00000000000E+00 -0.16270092480E+04  0.36467501613E+04  0.32636831411E+04 0.  0.
        4    1    3    3  502    0 -0.80960719647E+03  0.12904360571E+04 -0.14671592641E+04  0.21150051889E+04  0.12699999809E+01 0.  1.
       -4    1    3    3    0  502  0.80960719647E+03 -0.12904360571E+04 -0.15984998388E+03  0.15317449723E+04  0.12699999809E+01 0. -1.
</event>
<event>
 5   0  0.1130707E-06  0.3230495E+04  0.7818609E-02  0.8180810E-01
       -1   -1    0    0    0  501  0.00000000000E+00  0.00000000000E+00  0.16647365081E+04  0.16647365081E+04  0.50400001928E-02 0. -1.
        1   -1    0    0  501    0  0.00000000000E+00  0.00000000000E+00 -0.15672294260E+04  0.15672294260E+04  0.50400001928E-02 0.  1.
    10030    2    1    2    0    0  0.00000000000E+00  0.00000000000E+00  0.97507082109E+02  0.32319659341E+04  0.32304947250E+04 0.  0.
        3    1    3    3  502    0  0.12175896624E+03  0.55785332727E+03  0.15604010988E+04  0.16615887517E+04  0.10100000352E+00 0. -1.
       -3    1    3    3    0  502 -0.12175896624E+03 -0.55785332727E+03 -0.14628940167E+04  0.15703771824E+04  0.10100000352E+00 0.  1.
</event>
<event>
 5   0  0.1130707E-06  0.3503144E+04  0.7818609E-02  0.8113045E-01
       -1   -1    0    0    0  501  0.00000000000E+00  0.00000000000E+00  0.18196984661E+04  0.18196984661E+04  0.50400001928E-02 0.  1.
        1   -1    0    0  501    0  0.00000000000E+00  0.00000000000E+00 -0.16859963916E+04  0.16859963916E+04  0.50400001928E-02 0. -1.
    10030    2    1    2    0    0  0.00000000000E+00  0.00000000000E+00  0.13370207450E+03  0.35056948577E+04  0.35031443291E+04 0.  0.
        3    1    3    3  502    0 -0.59389998429E+03  0.11441907935E+04  0.12535116946E+04  0.17981049307E+04  0.10100000352E+00 0.  1.
       -3    1    3    3    0  502  0.59389998429E+03 -0.11441907935E+04 -0.11198096201E+04  0.17075899270E+04  0.10100000352E+00 0. -1.
</event>
<event>
 5   0  0.1110956E-06  0.2644689E+04  0.7818609E-02  0.8353178E-01
        1   -1    0    0  501    0  0.00000000000E+00  0.00000000000E+00  0.20231691340E+04  0.20231691340E+04  0.50400001928E-02 0. -1.
       -1   -1    0    0    0  501  0.00000000000E+00  0.00000000000E+00 -0.86428505924E+03  0.86428505925E+03  0.50400001928E-02 0.  1.
    10030    2    1    2    0    0  0.00000000000E+00  0.00000000000E+00  0.11588840748E+04  0.28874541933E+04  0.26446889079E+04 0.  0.
        1    1    3    3  502    0 -0.66599622804E+03  0.91956197430E+03 -0.16060525529E+03  0.11467080049E+04  0.50400001928E-02 0. -1.
       -1    1    3    3    0  502  0.66599622804E+03 -0.91956197430E+03  0.13194893301E+04  0.17407461884E+04  0.50400001928E-02 0.  1.
</event>
<event>
 5   0  0.1089337E-06  0.3469047E+04  0.7818609E-02  0.8121165E-01
       -1   -1    0    0    0  501  0.00000000000E+00  0.00000000000E+00  0.13281625537E+04  0.13281625537E+04  0.50400001928E-02 0.  1.
        1   -1    0    0  501    0  0.00000000000E+00  0.00000000000E+00 -0.22652133108E+04  0.22652133108E+04  0.50400001928E-02 0. -1.
    10030    2    1    2    0    0  0.00000000000E+00  0.00000000000E+00 -0.93705075706E+03  0.35933758645E+04  0.34690468406E+04 0.  0.
        2    1    3    3  502    0  0.76390308851E+03 -0.14799365976E+04 -0.97046550750E+03  0.19275797163E+04  0.25500000920E-02 0. -1.
       -2    1    3    3    0  502 -0.76390308851E+03  0.14799365976E+04  0.33414750439E+02  0.16657961481E+04  0.25500000920E-02 0.  1.
</event>
<event>
 5   0  0.1102175E-06  0.3245783E+04  0.7818609E-02  0.8176829E-01
       -1   -1    0    0    0  501  0.00000000000E+00  0.00000000000E+00  0.13166497327E+04  0.13166497327E+04  0.50400001928E-02 0. -1.
        1   -1    0    0  501    0  0.00000000000E+00  0.00000000000E+00 -0.20003629729E+04  0.20003629729E+04  0.50400001928E-02 0.  1.
    10030    2    1    2    0    0  0.00000000000E+00  0.00000000000E+00 -0.68371324017E+03  0.33170127056E+04  0.32457833406E+04 0.  0.
        5    1    3    3  502    0  0.96324130243E+03  0.12466744136E+04 -0.73992281620E+03  0.17405570270E+04  0.46999998093E+01 0.  1.
       -5    1    3    3    0  502 -0.96324130243E+03 -0.12466744136E+04  0.56209576036E+02  0.15764556786E+04  0.46999998093E+01 0. -1.
</event>
<event>
 5   0  0.1130707E-06  0.2896324E+04  0.7818609E-02  0.8273972E-01
       -1   -1    0    0    0  501  0.00000000000E+00  0.00000000000E+00  0.20773074107E+04  0.20773074107E+04  0.50400001928E-02 0.  1.
        1   -1    0    0  501    0  0.00000000000E+00  0.00000000000E+00 -0.10095635014E+04  0.10095635014E+04  0.50400001928E-02 0. -1.
    10030    2    1    2    0    0  0.00000000000E+00  0.00000000000E+00  0.10677439093E+04  0.30868709121E+04  0.28963243900E+04 0.  0.
        3    1    3    3  502    0  0.11708844665E+04 -0.38699179615E+03  0.13430583379E+04  0.18233317837E+04  0.10100000352E+00 0.  1.
       -3    1    3    3    0  502 -0.11708844665E+04  0.38699179615E+03 -0.27531442866E+03  0.12635391284E+04  0.10100000352E+00 0. -1.
</event>
<event>
 5   0  0.1782660E-06  0.3469772E+04  0.7818609E-02  0.8120991E-01
        2   -1    0    0  501    0  0.00000000000E+00  0.00000000000E+00  0.24669685015E+04  0.24669685015E+04  0.25500000920E-02 0.  1.
       -2   -1    0    0    0  501  0.00000000000E+00  0.00000000000E+00 -0.12200521647E+04  0.12200521647E+04  0.25500000920E-02 0. -1.
    10030    2    1    2    0    0  0.00000000000E+00  0.00000000000E+00  0.12469163368E+04  0.36870206662E+04  0.34697724770E+04 0.  0.
        4    1    3    3  502    0 -0.26526697685E+02  0.10551236332E+04  0.20865625542E+04  0.23383187235E+04  0.12699999809E+01 0.  1.
       -4    1    3    3    0  502  0.26526697685E+02 -0.10551236332E+04 -0.83964621742E+03  0.13487019428E+04  0.12699999809E+01 0. -1.
</event>
<event>
 5   0  0.1089337E-06  0.1914545E+04  0.7818609E-02  0.8647650E-01
       -1   -1    0    0    0  501  0.00000000000E+00  0.00000000000E+00  0.10482026909E+04  0.10482026909E+04  0.50400001928E-02 0.  1.
        1   -1    0    0  501    0  0.00000000000E+00  0.00000000000E+00 -0.87423024343E+03  0.87423024345E+03  0.50400001928E-02 0. -1.
    10030    2    1    2    0    0  0.00000000000E+00  0.00000000000E+00  0.17397244743E+03  0.19224329343E+04  0.19145448479E+04 0.  0.
        2    1    3    3  502    0 -0.32767247239E+03 -0.54767838093E+03  0.80340295416E+03  0.10260492994E+04  0.25500000920E-02 0.  1.
       -2    1    3    3    0  502  0.32767247239E+03  0.54767838093E+03 -0.62943050673E+03  0.89638363490E+03  0.25500000920E-02 0. -1.
</event>
<event>
 5   0  0.1782660E-06  0.3483738E+04  0.7818609E-02  0.8117655E-01
       -2   -1    0    0    0  501  0.00000000000E+00  0.00000000000E+00  0.15409615912E+04  0.15409615912E+04  0.25500000920E-02 0. -1.
        2   -1    0    0  501    0  0.00000000000E+00  0.00000000000E+00 -0.19689706843E+04  0.19689706843E+04  0.25500000920E-02 0.  1.
    10030    2    1    2    0    0  0.00000000000E+00  0.00000000000E+00 -0.42800909309E+03  0.35099322755E+04  0.34837383362E+04 0.  0.
        4    1    3    3  502    0  0.99226090372E+03 -0.11437390899E+04 -0.10815162346E+04  0.18607524783E+04  0.12699999809E+01 0.  1.
       -4    1    3    3    0  502 -0.99226090372E+03  0.11437390899E+04  0.65350714155E+03  0.16491797973E+04  0.12699999809E+01 0. -1.
</event>
<event>
 5   0  0.2565004E-06  0.3414247E+04  0.7818609E-02  0.8134418E-01
        2   -1    0    0  501    0  0.00000000000E+00  0.00000000000E+00  0.19075543432E+04  0.19075543432E+04  0.25500000920E-02 0. -1.
       -2   -1    0    0    0  501  0.00000000000E+00  0.00000000000E+00 -0.15277522739E+04  0.15277522739E+04  0.25500000920E-02 0.  1.
    10030    2    1    2    0    0  0.00000000000E+00  0.00000000000E+00  0.37980206934E+03  0.34353066171E+04  0.34142469069E+04 0.  0.
        3    1    3    3  502    0  0.61937796105E+03 -0.77650452344E+03 -0.12070728690E+04  0.15632060820E+04  0.10100000352E+00 0.  1.
       -3    1    3    3    0  502 -0.61937796105E+03  0.77650452344E+03  0.15868749383E+04  0.18721005351E+04  0.10100000352E+00 0. -1.
</event>
<event>
 5   0  0.1908726E-06  0.3425050E+04  0.7818609E-02  0.8131785E-01
        2   -1    0    0  501    0  0.00000000000E+00  0.00000000000E+00  0.19239028567E+04  0.19239028567E+04  0.25500000920E-02 0.  1.
       -2   -1    0    0    0  501  0.00000000000E+00  0.00000000000E+00 -0.15243712165E+04  0.15243712165E+04  0.25500000920E-02 0. -1.
    10030    2    1    2    0    0  0.00000000000E+00  0.00000000000E+00  0.39953164016E+03  0.34482740732E+04  0.34250501533E+04 0.  0.
        5    1    3    3  502    0  0.13761987779E+04 -0.61939596836E+03  0.10146647695E+04  0.18185546806E+04  0.46999998093E+01 0.  1.
       -5    1    3    3    0  502 -0.13761987779E+04  0.61939596836E+03 -0.61513312934E+03  0.16297193926E+04  0.46999998093E+01 0. -1.
</event>
<event>
 5   0  0.1125196E-06  0.3497499E+04  0.7818609E-02  0.8114383E-01
        1   -1    0    0  501    0  0.00000000000E+00  0.00000000000E+00  0.21999650215E+04  0.21999650215E+04  0.50400001928E-02 0. -1.
       -1   -1    0    0    0  501  0.00000000000E+00  0.00000000000E+00 -0.13900785043E+04  0.13900785043E+04  0.50400001928E-02 0.  1.
    10030    2    1    2    0    0  0.00000000000E+00  0.00000000000E+00  0.80988651722E+03  0.35900435257E+04  0.34974985841E+04 0.  0.
        4    1    3    3  502    0 -0.12986044233E+03 -0.15046754837E+04 -0.49997942773E+03  0.15908780867E+04  0.12699999809E+01 0.  1.
       -4    1    3    3    0  502  0.12986044233E+03  0.15046754837E+04  0.13098659449E+04  0.19991654390E+04  0.12699999809E+01 0. -1.
</event>
<event>
 5   0  0.3041329E-06  0.2227934E+04  0.7818609E-02  0.8506890E-01
       -2   -1    0    0    0  501  0.00000000000E+00  0.00000000000E+00  0.16142405587E+04  0.16142405587E+04  0.25500000920E-02 0. -1.
        2   -1    0    0  501    0  0.00000000000E+00  0.00000000000E+00 -0.76873466805E+03  0.76873466806E+03  0.25500000920E-02 0.  1.
    10030    2    1    2    0    0  0.00000000000E+00  0.00000000000E+00  0.84550589067E+03  0.23829752268E+04  0.22279341822E+04 0.  0.
        2    1    3    3  502    0 -0.25371420755E+03 -0.10043174619E+04  0.86102139985E+03  0.13469900944E+04  0.25500000920E-02 0.  1.
       -2    1    3    3    0  502  0.25371420755E+03  0.10043174619E+04 -0.15515509176E+02  0.10359851324E+04  0.25500000920E-02 0. -1.
</event>
<event>
 5   0  0.1125196E-06  0.3086432E+04  0.7818609E-02  0.8219471E-01
        1   -1    0    0  501    0  0.00000000000E+00  0.00000000000E+00  0.20070546877E+04  0.20070546877E+04  0.50400001928E-02 0. -1.
       -1   -1    0    0    0  501  0.00000000000E+00  0.00000000000E+00 -0.11865726142E+04  0.11865726142E+04  0.50400001928E-02 0.  1.
    10030    2    1    2    0    0  0.00000000000E+00  0.00000000000E+00  0.82048207358E+03  0.31936273019E+04  0.30864323272E+04 0.  0.
        4    1    3    3  502    0  0.14675007235E+04  0.45311174759E+03  0.56595305225E+03  0.16368179800E+04  0.12699999809E+01 0.  1.
       -4    1    3    3    0  502 -0.14675007235E+04 -0.45311174759E+03  0.25452902133E+03  0.15568093219E+04  0.12699999809E+01 0. -1.
</event>
<event>
 5   0  0.1102175E-06  0.2722513E+04  0.7818609E-02  0.8327737E-01
       -1   -1    0    0    0  501  0.00000000000E+00  0.00000000000E+00  0.13880733243E+04  0.13880733243E+04  0.50400001928E-02 0.  1.
        1   -1    0    0  501    0  0.00000000000E+00  0.00000000000E+00 -0.13349576023E+04  0.13349576023E+04  0.50400001928E-02 0. -1.
    10030    2    1    2    0    0  0.00000000000E+00  0.00000000000E+00  0.53115722080E+02  0.27230309266E+04  0.27225128369E+04 0.  0.
        5    1    3    3  502    0 -0.11260314485E+04  0.73469144320E+03  0.23938605850E+03  0.13656669121E+04  0.46999998093E+01 0.  1.
       -5    1    3    3    0  502  0.11260314485E+04 -0.73469144320E+03 -0.18627033642E+03  0.13573640145E+04  0.46999998093E+01 0. -1.
</event>
<event>
 5   0  0.1125196E-06  0.3407834E+04  0.7818609E-02  0.8135986E-01
       -1   -1    0    0    0  501  0.00000000000E+00  0.00000000000E+00  0.17628482572E+04  0.17628482572E+04  0.50400001928E-02 0. -1.
        1   -1    0    0  501    0  0.00000000000E+00  0.00000000000E+00 -0.16469553992E+04  0.16469553992E+04  0.50400001928E-02 0.  1.
    10030    2    1    2    0    0  0.00000000000E+00  0.00000000000E+00  0.11589285799E+03  0.34098036564E+04  0.34078335964E+04 0.  0.
        4    1    3    3  502    0 -0.57811587862E+03 -0.42990425026E+03  0.16029553984E+04  0.17574137975E+04  0.12699999809E+01 0. -1.
       -4    1    3    3    0  502  0.57811587862E+03  0.42990425026E+03 -0.14870625404E+04  0.16523898588E+04  0.12699999809E+01 0.  1.
</event>
<event>
 5   0  0.3041329E-06  0.3579204E+04  0.7818609E-02  0.8095272E-01
       -2   -1    0    0    0  501  0.00000000000E+00  0.00000000000E+00  0.19959720947E+04  0.19959720947E+04  0.25500000920E-02 0. -1.
        2   -1    0    0  501    0  0.00000000000E+00  0.00000000000E+00 -0.16045696261E+04  0.16045696261E+04  0.25500000920E-02 0.  1.
    10030    2    1    2    0    0  0.00000000000E+00  0.00000000000E+00  0.39140246861E+03  0.36005417209E+04  0.35792044914E+04 0.  0.
        2    1    3    3  502    0 -0.15437922060E+04 -0.59212961131E+02 -0.71294184082E+03  0.17014954066E+04  0.25500000920E-02 0.  1.
       -2    1    3    3    0  502  0.15437922060E+04  0.59212961131E+02  0.11043443094E+04  0.18990463143E+04  0.25500000920E-02 0. -1.
</event>
<event>
 5   0  0.1110956E-06  0.2059775E+04  0.7818609E-02  0.8579173E-01
       -1   -1    0    0    0  501  0.00000000000E+00  0.00000000000E+00  0.13574886500E+04  0.13574886500E+04  0.50400001928E-02 0.  1.
        1   -1    0    0  501    0  0.00000000000E+00  0.00000000000E+00 -0.78134567998E+03  0.78134568000E+03  0.50400001928E-02 0. -1.
    10030    2    1    2    0    0  0.00000000000E+00  0.00000000000E+00  0.57614297000E+03  0.21388343300E+04  0.20597746404E+04 0.  0.
        1    1    3    3  502    0 -0.26539439121E+03  0.93797881130E+03  0.63313569093E+03  0.11623679437E+04  0.50400001928E-02 0. -1.
       -1    1    3    3    0  502  0.26539439121E+03 -0.93797881130E+03 -0.56992720924E+02  0.97646638631E+03  0.50400001928E-02 0.  1.
</event>
<event>
 5   0  0.3378848E-06  0.3437266E+04  0.7818609E-02  0.8128820E-01
       -2   -1    0    0    0  501  0.00000000000E+00  0.00000000000E+00  0.11946322558E+04  0.11946322558E+04  0.25500000920E-02 0. -1.
        2   -1    0    0  501    0  0.00000000000E+00  0.00000000000E+00 -0.24724754339E+04  0.24724754339E+04  0.25500000920E-02 0.  1.
    10030    2    1    2    0    0  0.00000000000E+00  0.00000000000E+00 -0.12778431781E+04  0.36671076897E+04  0.34372657186E+04 0.  0.
        1    1    3    3  502    0  0.48553819752E+03  0.82325111293E+03 -0.21627915376E+04  0.23645627442E+04  0.50400001928E-02 0.  1.
       -1    1    3    3    0  502 -0.48553819752E+03 -0.82325111293E+03  0.88494835946E+03  0.13025449455E+04  0.50400001928E-02 0. -1.
</event>
<event>
 5   0  0.3378848E-06  0.3481085E+04  0.7818609E-02  0.8118287E-01
       -2   -1    0    0    0  501  0.00000000000E+00  0.00000000000E+00  0.16230747314E+04  0.16230747315E+04  0.25500000920E-02 0.  1.
        2   -1    0    0  501    0  0.00000000000E+00  0.00000000000E+00 -0.18665116992E+04  0.18665116992E+04  0.25500000920E-02 0. -1.
    10030    2    1    2    0    0  0.00000000000E+00  0.00000000000E+00 -0.24343696772E+03  0.34895864306E+04  0.34810848739E+04 0.  0.
        1    1    3    3  502    0  0.15094289863E+04  0.75362380538E+03  0.30730250722E+03  0.17148642907E+04  0.50400001928E-02 0.  1.
       -1    1    3    3    0  502 -0.15094289863E+04 -0.75362380538E+03 -0.55073947494E+03  0.17747221399E+04  0.50400001928E-02 0. -1.
</event>
<event>
 5   0  0.3041329E-06  0.3493910E+04  0.7818609E-02  0.8115235E-01
       -2   -1    0    0    0  501  0.00000000000E+00  0.00000000000E+00  0.20686311732E+04  0.20686311732E+04  0.25500000920E-02 0. -1.
        2   -1    0    0  501    0  0.00000000000E+00  0.00000000000E+00 -0.14752998562E+04  0.14752998562E+04  0.25500000920E-02 0.  1.
    10030    2    1    2    0    0  0.00000000000E+00  0.00000000000E+00  0.59333131707E+03  0.35439310294E+04  0.34939097140E+04 0.  0.
        2    1    3    3  502    0  0.90382958026E+03 -0.12193952999E+04 -0.58059719936E+03  0.16250925867E+04  0.25500000920E-02 0.  1.
       -2    1    3    3    0  502 -0.90382958026E+03  0.12193952999E+04  0.11739285164E+04  0.19188384427E+04  0.25500000920E-02 0. -1.
</event>
<event>
 5   0  0.1042825E-06  0.1737835E+04  0.7818609E-02  0.8740075E-01
        4   -1    0    0  501    0  0.00000000000E+00  0.00000000000E+00  0.98168449833E+03  0.98168531983E+03  0.12699999809E+01 0. -1.
       -4   -1    0    0    0  501  0.00000000000E+00  0.00000000000E+00 -0.76910270386E+03  0.76910375241E+03  0.12699999809E+01 0.  1.
    10030    2    1    2    0    0  0.00000000000E+00  0.00000000000E+00  0.21258179448E+03  0.17507890722E+04  0.17378352500E+04 0.  0.
        5    1    3    3  502    0 -0.65412011499E+03 -0.36104947756E+03 -0.34059859393E+03  0.82113296260E+03  0.46999998093E+01 0.  1.
       -5    1    3    3    0  502  0.65412011499E+03  0.36104947756E+03  0.55318038841E+03  0.92965610964E+03  0.46999998093E+01 0. -1.
</event>
<event>
 5   0  0.1102175E-06  0.2223866E+04  0.7818609E-02  0.8508560E-01
        1   -1    0    0  501    0  0.00000000000E+00  0.00000000000E+00  0.11534194374E+04  0.11534194374E+04  0.50400001928E-02 0. -1.
       -1   -1    0    0    0  501  0.00000000000E+00  0.00000000000E+00 -0.10719391044E+04  0.10719391044E+04  0.50400001928E-02 0.  1.
    10030    2    1    2    0    0  0.00000000000E+00  0.00000000000E+00  0.81480333035E+02  0.22253585418E+04  0.22238663617E+04 0.  0.
        5    1    3    3  502    0 -0.64554134430E+03  0.59239910400E+03  0.72582570315E+03  0.11377633176E+04  0.46999998093E+01 0. -1.
       -5    1    3    3    0  502  0.64554134430E+03 -0.59239910400E+03 -0.64434537012E+03  0.10875952242E+04  0.46999998093E+01 0.  1.
</event>
<event>
 5   0  0.1782660E-06  0.3506676E+04  0.7818609E-02  0.8112210E-01
        2   -1    0    0  501    0  0.00000000000E+00  0.00000000000E+00  0.20280777638E+04  0.20280777638E+04  0.25500000920E-02 0.  1.
       -2   -1    0    0    0  501  0.00000000000E+00  0.00000000000E+00 -0.15158170670E+04  0.15158170670E+04  0.25500000920E-02 0. -1.
    10030    2    1    2    0    0  0.00000000000E+00  0.00000000000E+00  0.51226069680E+03  0.35438948308E+04  0.35066764251E+04 0.  0.
        4    1    3    3  502    0  0.17893879866E+03 -0.12917115403E+03 -0.15017241321E+04  0.15178541638E+04  0.12699999809E+01 0. -1.
       -4    1    3    3    0  502 -0.17893879866E+03  0.12917115403E+03  0.20139848289E+04  0.20260406671E+04  0.12699999809E+01 0.  1.
</event>
<event>
 5   0  0.3041329E-06  0.3192825E+04  0.7818609E-02  0.8190715E-01
        2   -1    0    0  501    0  0.00000000000E+00  0.00000000000E+00  0.14992631282E+04  0.14992631282E+04  0.25500000920E-02 0. -1.
       -2   -1    0    0    0  501  0.00000000000E+00  0.00000000000E+00 -0.16998564914E+04  0.16998564914E+04  0.25500000920E-02 0.  1.
    10030    2    1    2    0    0  0.00000000000E+00  0.00000000000E+00 -0.20059336326E+03  0.31991196196E+04  0.31928245556E+04 0.  0.
        2    1    3    3  502    0  0.75267684331E+02  0.10512594657E+04  0.11011172198E+04  0.15242279423E+04  0.25500000920E-02 0. -1.
       -2    1    3    3    0  502 -0.75267684331E+02 -0.10512594657E+04 -0.13017105830E+04  0.16748916772E+04  0.25500000920E-02 0.  1.
</event>
<event>
 5   0  0.1782660E-06  0.3423400E+04  0.7818609E-02  0.8132187E-01
       -2   -1    0    0    0  501  0.00000000000E+00  0.00000000000E+00  0.12307938064E+04  0.12307938064E+04  0.25500000920E-02 0.  1.
        2   -1    0    0  501    0  0.00000000000E+00  0.00000000000E+00 -0.23805105705E+04  0.23805105705E+04  0.25500000920E-02 0. -1.
    10030    2    1    2    0    0  0.00000000000E+00  0.00000000000E+00 -0.11497167641E+04  0.36113043769E+04  0.34234004535E+04 0.  0.
        4    1    3    3  502    0  0.10661428719E+04  0.13342959845E+04 -0.45500129440E+03  0.17674937591E+04  0.12699999809E+01 0. -1.
       -4    1    3    3    0  502 -0.10661428719E+04 -0.13342959845E+04 -0.69471546971E+03  0.18438106178E+04  0.12699999809E+01 0.  1.
</event>
<event>
 5   0  0.3378848E-06  0.3520616E+04  0.7818609E-02  0.8108921E-01
        2   -1    0    0  501    0  0.00000000000E+00  0.00000000000E+00  0.18365088122E+04  0.18365088122E+04  0.25500000920E-02 0. -1.
       -2   -1    0    0    0  501  0.00000000000E+00  0.00000000000E+00 -0.16872692328E+04  0.16872692328E+04  0.25500000920E-02 0.  1.
    10030    2    1    2    0    0  0.00000000000E+00  0.00000000000E+00  0.14923957940E+03  0.35237780449E+04  0.35206163179E+04 0.  0.
        1    1    3    3  502    0 -0.90036295711E+03 -0.14828342660E+04  0.37360849548E+03  0.17745518372E+04  0.50400001928E-02 0. -1.
       -1    1    3    3    0  502  0.90036295711E+03  0.14828342660E+04 -0.22436891608E+03  0.17492262077E+04  0.50400001928E-02 0.  1.
</event>
<event>
 5   0  0.1908726E-06  0.3446273E+04  0.7818609E-02  0.8126642E-01
        2   -1    0    0  501    0  0.00000000000E+00  0.00000000000E+00  0.18335248583E+04  0.18335248583E+04  0.25500000920E-02 0. -1.
       -2   -1    0    0    0  501  0.00000000000E+00  0.00000000000E+00 -0.16193937424E+04  0.16193937424E+04  0.25500000920E-02 0.  1.
    10030    2    1    2    0    0  0.00000000000E+00  0.00000000000E+00  0.21413111585E+03  0.34529186007E+04  0.34462725847E+04 0.  0.
        5    1    3    3  502    0 -0.94293332712E+03  0.11850468927E+04 -0.71653987040E+03  0.16753837988E+04  0.46999998093E+01 0.  1.
       -5    1    3    3    0  502  0.94293332712E+03 -0.11850468927E+04  0.93067098624E+03  0.17775348019E+04  0.46999998093E+01 0. -1.
</event>
<event>
 5   0  0.3378848E-06  0.3465221E+04  0.7818609E-02  0.8122082E-01
       -2   -1    0    0    0  501  0.00000000000E+00  0.00000000000E+00  0.11332554427E+04  0.11332554427E+04  0.25500000920E-02 0. -1.
        2   -1    0    0  501    0  0.00000000000E+00  0.00000000000E+00 -0.26489517643E+04  0.26489517643E+04  0.25500000920E-02 0.  1.
    10030    2    1    2    0    0  0.00000000000E+00  0.00000000000E+00 -0.15156963216E+04  0.37822072071E+04  0.34652209190E+04 0.  0.
        1    1    3    3  502    0  0.94340980330E+02  0.62681635134E+03 -0.25178485359E+04  0.25964129503E+04  0.50400001928E-02 0.  1.
       -1    1    3    3    0  502 -0.94340980330E+02 -0.62681635134E+03  0.10021522142E+04  0.11857942568E+04  0.50400001928E-02 0. -1.
</event>
<event>
 5   0  0.1782660E-06  0.2141291E+04  0.7818609E-02  0.8543270E-01
        2   -1    0    0  501    0  0.00000000000E+00  0.00000000000E+00  0.10842940347E+04  0.10842940347E+04  0.25500000920E-02 0.  1.
       -2   -1    0    0    0  501  0.00000000000E+00  0.00000000000E+00 -0.10571682959E+04  0.10571682959E+04  0.25500000920E-02 0. -1.
    10030    2    1    2    0    0  0.00000000000E+00  0.00000000000E+00  0.27125738786E+02  0.21414623306E+04  0.21412905239E+04 0.  0.
        4    1    3    3  502    0 -0.17099735918E+03 -0.35895937127E+03  0.10077189527E+04  0.10833240640E+04  0.12699999809E+01 0.  1.
       -4    1    3    3    0  502  0.17099735918E+03  0.35895937127E+03 -0.98059321396E+03  0.10581382666E+04  0.12699999809E+01 0. -1.
</event>
<event>
 5   0  0.1089337E-06  0.3320559E+04  0.7818609E-02  0.8157684E-01
       -1   -1    0    0    0  501  0.00000000000E+00  0.00000000000E+00  0.14341066163E+04  0.14341066163E+04  0.50400001928E-02 0.  1.
        1   -1    0    0  501    0  0.00000000000E+00  0.00000000000E+00 -0.19221222838E+04  0.19221222838E+04  0.50400001928E-02 0. -1.
    10030    2    1    2    0    0  0.00000000000E+00  0.00000000000E+00 -0.48801566749E+03  0.33562289002E+04  0.33205591605E+04 0.  0.
        2    1    3    3  502    0  0.14212021607E+04  0.35638531381E+03  0.54521426185E+03  0.15633568578E+04  0.25500000920E-02 0.  1.
       -2    1    3    3    0  502 -0.14212021607E+04 -0.35638531381E+03 -0.10332299293E+04  0.17928720424E+04  0.25500000920E-02 0. -1.
</event>
<event>
 5   0  0.1908726E-06  0.3447504E+04  0.7818609E-02  0.8126345E-01
        2   -1    0    0  501    0  0.00000000000E+00  0.00000000000E+00  0.19648206440E+04  0.19648206440E+04  0.25500000920E-02 0.  1.
       -2   -1    0    0    0  501  0.00000000000E+00  0.00000000000E+00 -0.15122604594E+04  0.15122604594E+04  0.25500000920E-02 0. -1.
    10030    2    1    2    0    0  0.00000000000E+00  0.00000000000E+00  0.45256018458E+03  0.34770811033E+04  0.34475037750E+04 0.  0.
        5    1    3    3  502    0 -0.10900738581E+04  0.97341768664E+03  0.11481764950E+04  0.18585301619E+04  0.46999998093E+01 0.  1.
       -5    1    3    3    0  502  0.10900738581E+04 -0.97341768664E+03 -0.69561631045E+03  0.16185509415E+04  0.46999998093E+01 0. -1.
</event>
<event>
 5   0  0.1110956E-06  0.2398047E+04  0.7818609E-02  0.8440235E-01
       -1   -1    0    0    0  501  0.00000000000E+00  0.00000000000E+00  0.11927738790E+04  0.11927738790E+04  0.50400001928E-02 0. -1.
        1   -1    0    0  501    0  0.00000000000E+00  0.00000000000E+00 -0.12053056815E+04  0.12053056815E+04  0.50400001928E-02 0.  1.
    10030    2    1    2    0    0  0.00000000000E+00  0.00000000000E+00 -0.12531802470E+02  0.23980795605E+04  0.23980468161E+04 0.  0.
        1    1    3    3  502    0  0.84371567261E+03  0.66125377707E+03  0.53090475983E+03  0.11962326521E+04  0.50400001928E-02 0.  1.
       -1    1    3    3    0  502 -0.84371567261E+03 -0.66125377707E+03 -0.54343656230E+03  0.12018469084E+04  0.50400001928E-02 0. -1.
</event>
<event>
 5   0  0.1130707E-06  0.3923575E+04  0.7818609E-02  0.8020144E-01
       -1   -1    0    0    0  501  0.00000000000E+00  0.00000000000E+00  0.24322704735E+04  0.24322704735E+04  0.50400001928E-02 0.  1.
        1   -1    0    0  501    0  0.00000000000E+00  0.00000000000E+00 -0.15823118269E+04  0.15823118269E+04  0.50400001928E-02 0. -1.
    10030    2    1    2    0    0  0.00000000000E+00  0.00000000000E+00  0.84995864665E+03  0.40145823004E+04  0.39235750720E+04 0.  0.
        3    1    3    3  502    0 -0.12789809846E+04  0.13607937678E+04 -0.18983936302E+03  0.18771230730E+04  0.10100000352E+00 0. -1.
       -3    1    3    3    0  502  0.12789809846E+04 -0.13607937678E+04  0.10397980097E+04  0.21374592273E+04  0.10100000352E+00 0.  1.
</event>
<event>
 5   0  0.1125196E-06  0.3528875E+04  0.7818609E-02  0.8106981E-01
        1   -1    0    0  501    0  0.00000000000E+00  0.00000000000E+00  0.23655681748E+04  0.23655681748E+04  0.50400001928E-02 0. -1.
       -1   -1    0    0    0  501  0.00000000000E+00  0.00000000000E+00 -0.13160642004E+04  0.13160642005E+04  0.50400001928E-02 0.  1.
    10030    2    1    2    0    0  0.00000000000E+00  0.00000000000E+00  0.10495039743E+04  0.36816323753E+04  0.35288749417E+04 0.  0.
        4    1    3    3  502    0 -0.34149658122E+03 -0.95102863618E+03 -0.98429189515E+03  0.14106408223E+04  0.12699999809E+01 0.  1.
       -4    1    3    3    0  502  0.34149658122E+03  0.95102863618E+03  0.20337958695E+04  0.22709915529E+04  0.12699999809E+01 0. -1.
</event>
<event>
 5   0  0.1782660E-06  0.2927463E+04  0.7818609E-02  0.8264753E-01
       -2   -1    0    0    0  501  0.00000000000E+00  0.00000000000E+00  0.16275626342E+04  0.16275626342E+04  0.25500000920E-02 0. -1.
        2   -1    0    0  501    0  0.00000000000E+00  0.00000000000E+00 -0.13163920407E+04  0.13163920407E+04  0.25500000920E-02 0.  1.
    10030    2    1    2    0    0  0.00000000000E+00  0.00000000000E+00  0.31117059357E+03  0.29439546749E+04  0.29274634053E+04 0.  0.
        4    1    3    3  502    0 -0.18483725264E+02 -0.30362817888E+02 -0.13159573720E+04  0.13164379843E+04  0.12699999809E+01 0.  1.
       -4    1    3    3    0  502  0.18483725264E+02  0.30362817888E+02  0.16271279656E+04  0.16275166905E+04  0.12699999809E+01 0. -1.
</event>
<event>
 5   0  0.1125196E-06  0.2098034E+04  0.7818609E-02  0.8562110E-01
       -1   -1    0    0    0  501  0.00000000000E+00  0.00000000000E+00  0.55698190146E+03  0.55698190148E+03  0.50400001928E-02 0.  1.
        1   -1    0    0  501    0  0.00000000000E+00  0.00000000000E+00 -0.19757128874E+04  0.19757128874E+04  0.50400001928E-02 0. -1.
    10030    2    1    2    0    0  0.00000000000E+00  0.00000000000E+00 -0.14187309859E+04  0.25326947888E+04  0.20980336706E+04 0.  0.
        4    1    3    3  502    0  0.57455146699E+03  0.51080555231E+03  0.15222551015E+03  0.78371290619E+03  0.12699999809E+01 0.  1.
       -4    1    3    3    0  502 -0.57455146699E+03 -0.51080555231E+03 -0.15709564960E+04  0.17489818827E+04  0.12699999809E+01 0. -1.
</event>
<event>
 5   0  0.2565004E-06  0.3440328E+04  0.7818609E-02  0.8128079E-01
        2   -1    0    0  501    0  0.00000000000E+00  0.00000000000E+00  0.25002191514E+04  0.25002191514E+04  0.25500000920E-02 0. -1.
       -2   -1    0    0    0  501  0.00000000000E+00  0.00000000000E+00 -0.11834818624E+04  0.11834818624E+04  0.25500000920E-02 0.  1.
    10030    2    1    2    0    0  0.00000000000E+00  0.00000000000E+00  0.13167372890E+04  0.36837010139E+04  0.34403279017E+04 0.  0.
        3    1    3    3  502    0  0.13124685045E+04  0.69591116783E+03 -0.27021659414E+03  0.15099281264E+04  0.10100000352E+00 0.  1.
       -3    1    3    3    0  502 -0.13124685045E+04 -0.69591116783E+03  0.15869538831E+04  0.21737728875E+04  0.10100000352E+00 0. -1.
</event>
<event>
 5   0  0.2565004E-06  0.3776693E+04  0.7818609E-02  0.8051175E-01
       -2   -1    0    0    0  501  0.00000000000E+00  0.00000000000E+00  0.13871840788E+04  0.13871840788E+04  0.25500000920E-02 0.  1.
        2   -1    0    0  501    0  0.00000000000E+00  0.00000000000E+00 -0.25705689754E+04  0.25705689754E+04  0.25500000920E-02 0. -1.
    10030    2    1    2    0    0  0.00000000000E+00  0.00000000000E+00 -0.11833848966E+04  0.39577530542E+04  0.37766929216E+04 0.  0.
        3    1    3    3  502    0 -0.39745110457E+02 -0.11274960104E+03  0.13832143674E+04  0.13883710393E+04  0.10100000352E+00 0.  1.
       -3    1    3    3    0  502  0.39745110457E+02  0.11274960104E+03 -0.25665992640E+04  0.25693820149E+04  0.10100000352E+00 0. -1.
</event>
<event>
 5   0  0.2565004E-06  0.3497180E+04  0.7818609E-02  0.8114459E-01
       -2   -1    0    0    0  501  0.00000000000E+00  0.00000000000E+00  0.19008133282E+04  0.19008133282E+04  0.25500000920E-02 0.  1.
        2   -1    0    0  501    0  0.00000000000E+00  0.00000000000E+00 -0.16085574413E+04  0.16085574413E+04  0.25500000920E-02 0. -1.
    10030    2    1    2    0    0  0.00000000000E+00  0.00000000000E+00  0.29225588693E+03  0.35093707695E+04  0.34971802490E+04 0.  0.
        3    1    3    3  502    0  0.48374705897E+03 -0.15463483423E+04  0.80596317151E+03  0.18096356144E+04  0.10100000352E+00 0.  1.
       -3    1    3    3    0  502 -0.48374705897E+03  0.15463483423E+04 -0.51370728458E+03  0.16997351551E+04  0.10100000352E+00 0. -1.
</event>
<event>
 5   0  0.1102175E-06  0.3581038E+04  0.7818609E-02  0.8094849E-01
       -1   -1    0    0    0  501  0.00000000000E+00  0.00000000000E+00  0.22923393570E+04  0.22923393570E+04  0.50400001928E-02 0. -1.
        1   -1    0    0  501    0  0.00000000000E+00  0.00000000000E+00 -0.13985530721E+04  0.13985530721E+04  0.50400001928E-02 0.  1.
    10030    2    1    2    0    0  0.00000000000E+00  0.00000000000E+00  0.89378628494E+03  0.36908924291E+04  0.35810379780E+04 0.  0.
        5    1    3    3  502    0  0.11829129207E+04  0.84690179427E+03  0.15226602122E+04  0.21059539024E+04  0.46999998093E+01 0. -1.
       -5    1    3    3    0  502 -0.11829129207E+04 -0.84690179427E+03 -0.62887392727E+03  0.15849385267E+04  0.46999998093E+01 0.  1.
</event>
<event>
 5   0  0.3041329E-06  0.3368901E+04  0.7818609E-02  0.8145582E-01
        2   -1    0    0  501    0  0.00000000000E+00  0.00000000000E+00  0.18326913843E+04  0.18326913843E+04  0.25500000920E-02 0.  1.
       -2   -1    0    0    0  501  0.00000000000E+00  0.00000000000E+00 -0.15482001802E+04  0.15482001802E+04  0.25500000920E-02 0. -1.
    10030    2    1    2    0    0  0.00000000000E+00  0.00000000000E+00  0.28449120410E+03  0.33808915645E+04  0.33689007890E+04 0.  0.
        2    1    3    3  502    0 -0.39927588351E+02  0.16674782294E+04 -0.93740825655E+02  0.16705882797E+04  0.25500000920E-02 0.  1.
       -2    1    3    3    0  502  0.39927588351E+02 -0.16674782294E+04  0.37823202976E+03  0.17103032849E+04  0.25500000920E-02 0. -1.
</event>
<event>
 5   0  0.1089337E-06  0.1741879E+04  0.7818609E-02  0.8737833E-01
       -1   -1    0    0    0  501  0.00000000000E+00  0.00000000000E+00  0.14827776537E+04  0.14827776537E+04  0.50400001928E-02 0. -1.
        1   -1    0    0  501    0  0.00000000000E+00  0.00000000000E+00 -0.51156401921E+03  0.51156401924E+03  0.50400001928E-02 0.  1.
    10030    2    1    2    0    0  0.00000000000E+00  0.00000000000E+00  0.97121363449E+03  0.19943416729E+04  0.17418790959E+04 0.  0.
        2    1    3    3  502    0 -0.37786434370E+03  0.78461658438E+03  0.49871369121E+03  0.10035536819E+04  0.25500000920E-02 0.  1.
       -2    1    3    3    0  502  0.37786434370E+03 -0.78461658438E+03  0.47249994328E+03  0.99078799101E+03  0.25500000920E-02 0. -1.
</event>
<event>
 5   0  0.1782660E-06  0.3727887E+04  0.7818609E-02  0.8061810E-01
       -2   -1    0    0    0  501  0.00000000000E+00  0.00000000000E+00  0.25142625050E+04  0.25142625050E+04  0.25500000920E-02 0.  1.
        2   -1    0    0  501    0  0.00000000000E+00  0.00000000000E+00 -0.13818308334E+04  0.13818308334E+04  0.25500000920E-02 0. -1.
    10030    2    1    2    0    0  0.00000000000E+00  0.00000000000E+00  0.11324316716E+04  0.38960933385E+04  0.37278870438E+04 0.  0.
        4    1    3    3  502    0  0.13128726114E+04 -0.19075313289E+03 -0.80215963883E+03  0.15503170484E+04  0.12699999809E+01 0. -1.
       -4    1    3    3    0  502 -0.13128726114E+04  0.19075313289E+03  0.19345913105E+04  0.23457762901E+04  0.12699999809E+01 0.  1.
</event>
<event>
 5   0  0.2565004E-06  0.3686214E+04  0.7818609E-02  0.8071024E-01
        2   -1    0    0  501    0  0.00000000000E+00  0.00000000000E+00  0.16967471014E+04  0.16967471014E+04  0.25500000920E-02 0. -1.
       -2   -1    0    0    0  501  0.00000000000E+00  0.00000000000E+00 -0.20020913082E+04  0.20020913082E+04  0.25500000920E-02 0.  1.
    10030    2    1    2    0    0  0.00000000000E+00  0.00000000000E+00 -0.30534420674E+03  0.36988384096E+04  0.36862135716E+04 0.  0.
        3    1    3    3  502    0  0.66039440789E+03 -0.54533239040E+03  0.14849512466E+04  0.17142311411E+04  0.10100000352E+00 0. -1.
       -3    1    3    3    0  502 -0.66039440789E+03  0.54533239040E+03 -0.17902954533E+04  0.19846072686E+04  0.10100000352E+00 0.  1.
</event>
<event>
 5   0  0.1782660E-06  0.3545857E+04  0.7818609E-02  0.8103008E-01
        2   -1    0    0  501    0  0.00000000000E+00  0.00000000000E+00  0.20831645621E+04  0.20831645621E+04  0.25500000920E-02 0. -1.
       -2   -1    0    0    0  501  0.00000000000E+00  0.00000000000E+00 -0.15088943704E+04  0.15088943704E+04  0.25500000920E-02 0.  1.
    10030    2    1    2    0    0  0.00000000000E+00  0.00000000000E+00  0.57427019165E+03  0.35920589325E+04  0.35458568952E+04 0.  0.
        4    1    3    3  502    0 -0.76616959118E+03 -0.15980488545E+04  0.23650707534E+03  0.17879354556E+04  0.12699999809E+01 0.  1.
       -4    1    3    3    0  502  0.76616959118E+03  0.15980488545E+04  0.33776311632E+03  0.18041234768E+04  0.12699999809E+01 0. -1.
</event>
<event>
 5   0  0.2565004E-06  0.3645110E+04  0.7818609E-02  0.8080236E-01
        2   -1    0    0  501    0  0.00000000000E+00  0.00000000000E+00  0.17351531774E+04  0.17351531774E+04  0.25500000920E-02 0. -1.
       -2   -1    0    0    0  501  0.00000000000E+00  0.00000000000E+00 -0.19143589844E+04  0.19143589844E+04  0.25500000920E-02 0.  1.
    10030    2    1    2    0    0  0.00000000000E+00  0.00000000000E+00 -0.17920580709E+03  0.36495121618E+04  0.36451096414E+04 0.  0.
        3    1    3    3  502    0 -0.85706530534E+03 -0.15374596051E+04 -0.56278676398E+03  0.18479913222E+04  0.10100000352E+00 0.  1.
       -3    1    3    3    0  502  0.85706530534E+03  0.15374596051E+04  0.38358095690E+03  0.18015208396E+04  0.10100000352E+00 0. -1.
</event>
<event>
 5   0  0.2565004E-06  0.3106495E+04  0.7818609E-02  0.8213958E-01
        2   -1    0    0  501    0  0.00000000000E+00  0.00000000000E+00  0.24278845731E+04  0.24278845731E+04  0.25500000920E-02 0.  1.
       -2   -1    0    0    0  501  0.00000000000E+00  0.00000000000E+00 -0.99369533831E+03  0.99369533832E+03  0.25500000920E-02 0. -1.
    10030    2    1    2    0    0  0.00000000000E+00  0.00000000000E+00  0.14341892348E+04  0.34215799114E+04  0.31064948622E+04 0.  0.
        3    1    3    3  502    0  0.89835111658E+03  0.51170654513E+03 -0.55965896757E+03  0.11756259980E+04  0.10100000352E+00 0. -1.
       -3    1    3    3    0  502 -0.89835111658E+03 -0.51170654513E+03  0.19938482023E+04  0.22459539134E+04  0.10100000352E+00 0.  1.
</event>
<event>
 5   0  0.1089337E-06  0.2510938E+04  0.7818609E-02  0.8399099E-01
        1   -1    0    0  501    0  0.00000000000E+00  0.00000000000E+00  0.16954221105E+04  0.16954221105E+04  0.50400001928E-02 0.  1.
       -1   -1    0    0    0  501  0.00000000000E+00  0.00000000000E+00 -0.92968161127E+03  0.92968161129E+03  0.50400001928E-02 0. -1.
    10030    2    1    2    0    0  0.00000000000E+00  0.00000000000E+00  0.76574049919E+03  0.26251037218E+04  0.25109382784E+04 0.  0.
        2    1    3    3  502    0  0.10847248266E+04  0.16637831986E+03 -0.25468741328E+03  0.11265768386E+04  0.25500000920E-02 0. -1.
       -2    1    3    3    0  502 -0.10847248266E+04 -0.16637831986E+03  0.10204279125E+04  0.14985268831E+04  0.25500000920E-02 0.  1.
</event>
<event>
 5   0  0.1110956E-06  0.3000635E+04  0.7818609E-02  0.8243550E-01
        1   -1    0    0  501    0  0.00000000000E+00  0.00000000000E+00  0.13732104922E+04  0.13732104922E+04  0.50400001928E-02 0.  1.
       -1   -1    0    0    0  501  0.00000000000E+00  0.00000000000E+00 -0.16391894908E+04  0.16391894908E+04  0.50400001928E-02 0. -1.
    10030    2    1    2    0    0  0.00000000000E+00  0.00000000000E+00 -0.26597899859E+03  0.30123999830E+04  0.30006347378E+04 0.  0.
        1    1    3    3  502    0 -0.93271052482E+03  0.91892803809E+03  0.60239511071E+03  0.14412694168E+04  0.50400001928E-02 0.  1.
       -1    1    3    3    0  502  0.93271052482E+03 -0.91892803809E+03 -0.86837410930E+03  0.15711305662E+04  0.50400001928E-02 0. -1.
</event>
<event>
 5   0  0.1130707E-06  0.1749420E+04  0.7818609E-02  0.8733669E-01
       -1   -1    0    0    0  501  0.00000000000E+00  0.00000000000E+00  0.15527002471E+04  0.15527002471E+04  0.50400001928E-02 0. -1.
        1   -1    0    0  501    0  0.00000000000E+00  0.00000000000E+00 -0.49276597129E+03  0.49276597132E+03  0.50400001928E-02 0.  1.
    10030    2    1    2    0    0  0.00000000000E+00  0.00000000000E+00  0.10599342758E+04  0.20454662184E+04  0.17494202987E+04 0.  0.
        3    1    3    3  502    0 -0.49555083745E+03 -0.70472998569E+03  0.70691401986E+03  0.11144247067E+04  0.10100000352E+00 0. -1.
       -3    1    3    3    0  502  0.49555083745E+03  0.70472998569E+03  0.35302025593E+03  0.93104151171E+03  0.10100000352E+00 0.  1.
</event>
<event>
 5   0  0.1782660E-06  0.3458529E+04  0.7818609E-02  0.8123689E-01
       -2   -1    0    0    0  501  0.00000000000E+00  0.00000000000E+00  0.13253078452E+04  0.13253078452E+04  0.25500000920E-02 0.  1.
        2   -1    0    0  501    0  0.00000000000E+00  0.00000000000E+00 -0.22563475338E+04  0.22563475338E+04  0.25500000920E-02 0. -1.
    10030    2    1    2    0    0  0.00000000000E+00  0.00000000000E+00 -0.93103968867E+03  0.35816553790E+04  0.34585286397E+04 0.  0.
        4    1    3    3  502    0  0.40392486427E+03  0.11129398877E+04 -0.17707726624E+04  0.21301239223E+04  0.12699999809E+01 0. -1.
       -4    1    3    3    0  502 -0.40392486427E+03 -0.11129398877E+04  0.83973297369E+03  0.14515314567E+04  0.12699999809E+01 0.  1.
</event>
<event>
 5   0  0.2565004E-06  0.2750310E+04  0.7818609E-02  0.8318863E-01
       -2   -1    0    0    0  501  0.00000000000E+00  0.00000000000E+00  0.87468572401E+03  0.87468572402E+03  0.25500000920E-02 0. -1.
        2   -1    0    0  501    0  0.00000000000E+00  0.00000000000E+00 -0.21619775783E+04  0.21619775783E+04  0.25500000920E-02 0.  1.
    10030    2    1    2    0    0  0.00000000000E+00  0.00000000000E+00 -0.12872918543E+04  0.30366633023E+04  0.27503097450E+04 0.  0.
        3    1    3    3  502    0 -0.57319766412E+03  0.29304949877E+03 -0.19853261430E+04  0.20870921099E+04  0.10100000352E+00 0.  1.
       -3    1    3    3    0  502  0.57319766412E+03 -0.29304949877E+03  0.69803428877E+03  0.94957119237E+03  0.10100000352E+00 0. -1.
</event>
<event>
 5   0  0.1130707E-06  0.3386071E+04  0.7818609E-02  0.8141333E-01
        1   -1    0    0  501    0  0.00000000000E+00  0.00000000000E+00  0.14789820179E+04  0.14789820179E+04  0.50400001928E-02 0.  1.
       -1   -1    0    0    0  501  0.00000000000E+00  0.00000000000E+00 -0.19380695157E+04  0.19380695157E+04  0.50400001928E-02 0. -1.
    10030    2    1    2    0    0  0.00000000000E+00  0.00000000000E+00 -0.45908749777E+03  0.34170515335E+04  0.33860714482E+04 0.  0.
        3    1    3    3  502    0  0.15576271482E+04  0.49414753996E+03  0.21720952720E+03  0.16485035981E+04  0.10100000352E+00 0.  1.
       -3    1    3    3    0  502 -0.15576271482E+04 -0.49414753996E+03 -0.67629702498E+03  0.17685479355E+04  0.10100000352E+00 0. -1.
</event>
<event>
 5   0  0.1089337E-06  0.2220191E+04  0.7818609E-02  0.8510071E-01
       -1   -1    0    0    0  501  0.00000000000E+00  0.00000000000E+00  0.15088724602E+04  0.15088724602E+04  0.50400001928E-02 0. -1.
        1   -1    0    0  501    0  0.00000000000E+00  0.00000000000E+00 -0.81671079059E+03  0.81671079060E+03  0.50400001928E-02 0.  1.
    10030    2    1    2    0    0  0.00000000000E+00  0.00000000000E+00  0.69216166965E+03  0.23255832509E+04  0.22201913611E+04 0.  0.
        2    1    3    3  502    0  0.68641697941E+02  0.34609476800E+03 -0.75641235717E+03  0.83465736996E+03  0.25500000920E-02 0.  1.
       -2    1    3    3    0  502 -0.68641697941E+02 -0.34609476800E+03  0.14485740268E+04  0.14909258809E+04  0.25500000920E-02 0. -1.
</event>
<event>
 5   0  0.1102175E-06  0.3466517E+04  0.7818609E-02  0.8121771E-01
        1   -1    0    0  501    0  0.00000000000E+00  0.00000000000E+00  0.10668732812E+04  0.10668732812E+04  0.50400001928E-02 0. -1.
       -1   -1    0    0    0  501  0.00000000000E+00  0.00000000000E+00 -0.28158784897E+04  0.28158784897E+04  0.50400001928E-02 0.  1.
    10030    2    1    2    0    0  0.00000000000E+00  0.00000000000E+00 -0.17490052086E+04  0.38827517709E+04  0.34665172861E+04 0.  0.
        5    1    3    3  502    0  0.76181634261E+02  0.11324827470E+04 -0.23416879541E+04  0.26022769603E+04  0.46999998093E+01 0.  1.
       -5    1    3    3    0  502 -0.76181634261E+02 -0.11324827470E+04  0.59268274556E+03  0.12804748106E+04  0.46999998093E+01 0. -1.
</event>
<event>
 5   0  0.3041329E-06  0.3565269E+04  0.7818609E-02  0.8098494E-01
       -2   -1    0    0    0  501  0.00000000000E+00  0.00000000000E+00  0.21504834460E+04  0.21504834460E+04  0.25500000920E-02 0. -1.
        2   -1    0    0  501    0  0.00000000000E+00  0.00000000000E+00 -0.14777077024E+04  0.14777077024E+04  0.25500000920E-02 0.  1.
    10030    2    1    2    0    0  0.00000000000E+00  0.00000000000E+00  0.67277574359E+03  0.36281911484E+04  0.35652691074E+04 0.  0.
        2    1    3    3  502    0 -0.14283287854E+04  0.66229253205E+03 -0.51444879262E+03  0.16563248708E+04  0.25500000920E-02 0.  1.
       -2    1    3    3    0  502  0.14283287854E+04 -0.66229253205E+03  0.11872245362E+04  0.19718662776E+04  0.25500000920E-02 0. -1.
</event>
<event>
 5   0  0.1089337E-06  0.3384050E+04  0.7818609E-02  0.8141832E-01
        1   -1    0    0  501    0  0.00000000000E+00  0.00000000000E+00  0.14211075355E+04  0.14211075355E+04  0.50400001928E-02 0. -1.
       -1   -1    0    0    0  501  0.00000000000E+00  0.00000000000E+00 -0.20145896350E+04  0.20145896350E+04  0.50400001928E-02 0.  1.
    10030    2    1    2    0    0  0.00000000000E+00  0.00000000000E+00 -0.59348209954E+03  0.34356971705E+04  0.33840499472E+04 0.  0.
        2    1    3    3  502    0 -0.10642002364E+04 -0.12701587965E+04  0.50714462770E+02  0.16578291433E+04  0.25500000920E-02 0. -1.
       -2    1    3    3    0  502  0.10642002364E+04  0.12701587965E+04 -0.64419656231E+03  0.17778680273E+04  0.25500000920E-02 0.  1.
</event>
<event>
 5   0  0.1782660E-06  0.3159727E+04  0.7818609E-02  0.8199535E-01
       -2   -1    0    0    0  501  0.00000000000E+00  0.00000000000E+00  0.12209703299E+04  0.12209703299E+04  0.25500000920E-02 0. -1.
        2   -1    0    0  501    0  0.00000000000E+00  0.00000000000E+00 -0.20442499150E+04  0.20442499150E+04  0.25500000920E-02 0.  1.
    10030    2    1    2    0    0  0.00000000000E+00  0.00000000000E+00 -0.82327958511E+03  0.32652202450E+04  0.31597268826E+04 0.  0.
        4    1    3    3  502    0  0.11479122674E+04  0.99681087202E+03 -0.85567446527E+03  0.17445672505E+04  0.12699999809E+01 0.  1.
       -4    1    3    3    0  502 -0.11479122674E+04 -0.99681087202E+03  0.32394880157E+02  0.15206529944E+04  0.12699999809E+01 0. -1.
</event>
<event>
 5   0  0.1782660E-06  0.2983834E+04  0.7818609E-02  0.8248362E-01
        2   -1    0    0  501    0  0.00000000000E+00  0.00000000000E+00  0.26294122535E+04  0.26294122535E+04  0.25500000920E-02 0.  1.
       -2   -1    0    0    0  501  0.00000000000E+00  0.00000000000E+00 -0.84650707273E+03  0.84650707273E+03  0.25500000920E-02 0. -1.
    10030    2    1    2    0    0  0.00000000000E+00  0.00000000000E+00  0.17829051808E+04  0.34759193263E+04  0.29838338223E+04 0.  0.
        4    1    3    3  502    0  0.12266242224E+02  0.94765558819E+03 -0.45078928762E+03  0.10494828104E+04  0.12699999809E+01 0. -1.
       -4    1    3    3    0  502 -0.12266242224E+02 -0.94765558819E+03  0.22336944684E+04  0.24264365159E+04  0.12699999809E+01 0.  1.
</event>
<event>
 5   0  0.1908726E-06  0.3156357E+04  0.7818609E-02  0.8200439E-01
       -2   -1    0    0    0  501  0.00000000000E+00  0.00000000000E+00  0.19201800549E+04  0.19201800549E+04  0.25500000920E-02 0.  1.
        2   -1    0    0  501    0  0.00000000000E+00  0.00000000000E+00 -0.12970908252E+04  0.12970908252E+04  0.25500000920E-02 0. -1.
    10030    2    1    2    0    0  0.00000000000E+00  0.00000000000E+00  0.62308922965E+03  0.32172708801E+04  0.31563573511E+04 0.  0.
        5    1    3    3  502    0  0.95783938440E+03  0.11387109049E+04 -0.22444274878E+03  0.15048307043E+04  0.46999998093E+01 0. -1.
       -5    1    3    3    0  502 -0.95783938440E+03 -0.11387109049E+04  0.84753197842E+03  0.17124401758E+04  0.46999998093E+01 0.  1.
</event>
<event>
 5   0  0.1125196E-06  0.3170077E+04  0.7818609E-02  0.8196765E-01
        1   -1    0    0  501    0  0.00000000000E+00  0.00000000000E+00  0.18823941581E+04  0.18823941581E+04  0.50400001928E-02 0. -1.
       -1   -1    0    0    0  501  0.00000000000E+00  0.00000000000E+00 -0.13346552199E+04  0.13346552199E+04  0.50400001928E-02 0.  1.
    10030    2    1    2    0    0  0.00000000000E+00  0.00000000000E+00  0.54773893816E+03  0.32170493780E+04  0.31700770899E+04 0.  0.
        4    1    3    3  502    0  0.54638504795E+03 -0.13995872674E+04  0.78629139819E+03  0.16957703015E+04  0.12699999809E+01 0. -1.
       -4    1    3    3    0  502 -0.54638504795E+03  0.13995872674E+04 -0.23855246004E+03  0.15212790765E+04  0.12699999809E+01 0.  1.
</event>
<event>
 5   0  0.1130707E-06  0.3517198E+04  0.7818609E-02  0.8109726E-01
        1   -1    0    0  501    0  0.00000000000E+00  0.00000000000E+00  0.12943597872E+04  0.12943597872E+04  0.50400001928E-02 0. -1.
       -1   -1    0    0    0  501  0.00000000000E+00  0.00000000000E+00 -0.23893434381E+04  0.23893434381E+04  0.50400001928E-02 0.  1.
    10030    2    1    2    0    0  0.00000000000E+00  0.00000000000E+00 -0.10949836509E+04  0.36837032253E+04  0.35171977847E+04 0.  0.
        3    1    3    3  502    0 -0.11571850301E+04  0.12310912137E+04 -0.10584471949E+04  0.19937334939E+04  0.10100000352E+00 0.  1.
       -3    1    3    3    0  502  0.11571850301E+04 -0.12310912137E+04 -0.36536456083E+02  0.16899697314E+04  0.10100000352E+00 0. -1.
</event>
<event>
 5   0  0.1782660E-06  0.3458479E+04  0.7818609E-02  0.8123701E-01
       -2   -1    0    0    0  501  0.00000000000E+00  0.00000000000E+00  0.10098469595E+04  0.10098469595E+04  0.25500000920E-02 0. -1.
        2   -1    0    0  501    0  0.00000000000E+00  0.00000000000E+00 -0.29611120453E+04  0.29611120453E+04  0.25500000920E-02 0.  1.
    10030    2    1    2    0    0  0.00000000000E+00  0.00000000000E+00 -0.19512650858E+04  0.39709590047E+04  0.34584794321E+04 0.  0.
        4    1    3    3  502    0  0.24998735021E+03  0.96551634687E+03  0.64633376198E+03  0.11884714705E+04  0.12699999809E+01 0. -1.
       -4    1    3    3    0  502 -0.24998735021E+03 -0.96551634687E+03 -0.25975988478E+04  0.27824875343E+04  0.12699999809E+01 0.  1.
</event>
<event>
 5   0  0.1130707E-06  0.3476357E+04  0.7818609E-02  0.8119416E-01
       -1   -1    0    0    0  501  0.00000000000E+00  0.00000000000E+00  0.14465985287E+04  0.14465985287E+04  0.50400001928E-02 0.  1.
        1   -1    0    0  501    0  0.00000000000E+00  0.00000000000E+00 -0.20885296513E+04  0.20885296513E+04  0.50400001928E-02 0. -1.
    10030    2    1    2    0    0  0.00000000000E+00  0.00000000000E+00 -0.64193112260E+03  0.35351281801E+04  0.34763566680E+04 0.  0.
        3    1    3    3  502    0  0.16608997907E+04  0.46980776359E+03 -0.52926124144E+03  0.18053877482E+04  0.10100000352E+00 0. -1.
       -3    1    3    3    0  502 -0.16608997907E+04 -0.46980776359E+03 -0.11266988115E+03  0.17297404319E+04  0.10100000352E+00 0.  1.
</event>
<event>
 5   0  0.1908726E-06  0.3506620E+04  0.7818609E-02  0.8112223E-01
       -2   -1    0    0    0  501  0.00000000000E+00  0.00000000000E+00  0.13108823504E+04  0.13108823504E+04  0.25500000920E-02 0. -1.
        2   -1    0    0  501    0  0.00000000000E+00  0.00000000000E+00 -0.23450591984E+04  0.23450591984E+04  0.25500000920E-02 0.  1.
    10030    2    1    2    0    0  0.00000000000E+00  0.00000000000E+00 -0.10341768480E+04  0.36559415488E+04  0.35066204322E+04 0.  0.
        5    1    3    3  502    0 -0.15425194159E+04  0.73865876647E+03 -0.11452230465E+03  0.17140946211E+04  0.46999998093E+01 0. -1.
       -5    1    3    3    0  502  0.15425194159E+04 -0.73865876647E+03 -0.91965454330E+03  0.19418469277E+04  0.46999998093E+01 0.  1.
</event>
<event>
 5   0  0.1782660E-06  0.1810302E+04  0.7818609E-02  0.8700840E-01
        2   -1    0    0  501    0  0.00000000000E+00  0.00000000000E+00  0.76203230594E+03  0.76203230595E+03  0.25500000920E-02 0. -1.
       -2   -1    0    0    0  501  0.00000000000E+00  0.00000000000E+00 -0.10751493099E+04  0.10751493099E+04  0.25500000920E-02 0.  1.
    10030    2    1    2    0    0  0.00000000000E+00  0.00000000000E+00 -0.31311700399E+03  0.18371816159E+04  0.18103021934E+04 0.  0.
        4    1    3    3  502    0  0.42504923165E+03  0.69021626411E+03  0.25220176862E+03  0.84892442865E+03  0.12699999809E+01 0.  1.
       -4    1    3    3    0  502 -0.42504923165E+03 -0.69021626411E+03 -0.56531877261E+03  0.98825718724E+03  0.12699999809E+01 0. -1.
</event>
<event>
 5   0  0.1908726E-06  0.3196576E+04  0.7818609E-02  0.8189722E-01
        2   -1    0    0  501    0  0.00000000000E+00  0.00000000000E+00  0.87010437081E+03  0.87010437082E+03  0.25500000920E-02 0.  1.
       -2   -1    0    0    0  501  0.00000000000E+00  0.00000000000E+00 -0.29358828333E+04  0.29358828333E+04  0.25500000920E-02 0. -1.
    10030    2    1    2    0    0  0.00000000000E+00  0.00000000000E+00 -0.20657784625E+04  0.38059872041E+04  0.31965759715E+04 0.  0.
        5    1    3    3  502    0 -0.97763647438E+02 -0.10748375133E+04  0.37069336876E+03  0.11411700462E+04  0.46999998093E+01 0.  1.
       -5    1    3    3    0  502  0.97763647438E+02  0.10748375133E+04 -0.24364718312E+04  0.26648171579E+04  0.46999998093E+01 0. -1.
</event>
<event>
 5   0  0.1782660E-06  0.3259465E+04  0.7818609E-02  0.8173287E-01
        2   -1    0    0  501    0  0.00000000000E+00  0.00000000000E+00  0.19853155720E+04  0.19853155720E+04  0.25500000920E-02 0. -1.
       -2   -1    0    0    0  501  0.00000000000E+00  0.00000000000E+00 -0.13378366218E+04  0.13378366218E+04  0.25500000920E-02 0.  1.
    10030    2    1    2    0    0  0.00000000000E+00  0.00000000000E+00  0.64747895021E+03  0.33231521938E+04  0.32594649120E+04 0.  0.
        4    1    3    3  502    0  0.97017155978E+03  0.26154125305E+03  0.16319276710E+04  0.19164619012E+04  0.12699999809E+01 0. -1.
       -4    1    3    3    0  502 -0.97017155978E+03 -0.26154125305E+03 -0.98444872083E+03  0.14066902926E+04  0.12699999809E+01 0.  1.
</event>
<event>
 5   0  0.1125196E-06  0.3494126E+04  0.7818609E-02  0.8115183E-01
       -1   -1    0    0    0  501  0.00000000000E+00  0.00000000000E+00  0.15925030446E+04  0.15925030446E+04  0.50400001928E-02 0.  1.
        1   -1    0    0  501    0  0.00000000000E+00  0.00000000000E+00 -0.19166235746E+04  0.19166235746E+04  0.50400001928E-02 0. -1.
    10030    2    1    2    0    0  0.00000000000E+00  0.00000000000E+00 -0.32412053006E+03  0.35091266192E+04  0.34941258580E+04 0.  0.
        4    1    3    3  502    0  0.10335556991E+04  0.13920195333E+04 -0.37809186775E+03  0.17745170717E+04  0.12699999809E+01 0. -1.
       -4    1    3    3    0  502 -0.10335556991E+04 -0.13920195333E+04  0.53971337689E+02  0.17346095476E+04  0.12699999809E+01 0.  1.
</event>
<event>
 5   0  0.1089337E-06  0.3061689E+04  0.7818609E-02  0.8226331E-01
        1   -1    0    0  501    0  0.00000000000E+00  0.00000000000E+00  0.16845630059E+04  0.16845630059E+04  0.50400001928E-02 0.  1.
       -1   -1    0    0    0  501  0.00000000000E+00  0.00000000000E+00 -0.13911531794E+04  0.13911531794E+04  0.50400001928E-02 0. -1.
    10030    2    1    2    0    0  0.00000000000E+00  0.00000000000E+00  0.29340982650E+03  0.30757161853E+04  0.30616891949E+04 0.  0.
        2    1    3    3  502    0 -0.22902504707E+03  0.12080566774E+04 -0.76941156181E+03  0.14504646012E+04  0.25500000920E-02 0. -1.
       -2    1    3    3    0  502  0.22902504707E+03 -0.12080566774E+04  0.10628213883E+04  0.16252515840E+04  0.25500000920E-02 0.  1.
</event>
<event>
 5   0  0.1125196E-06  0.2981320E+04  0.7818609E-02  0.8249085E-01
       -1   -1    0    0    0  501  0.00000000000E+00  0.00000000000E+00  0.91005877379E+03  0.91005877381E+03  0.50400001928E-02 0.  1.
        1   -1    0    0  501    0  0.00000000000E+00  0.00000000000E+00 -0.24416738897E+04  0.24416738897E+04  0.50400001928E-02 0. -1.
    10030    2    1    2    0    0  0.00000000000E+00  0.00000000000E+00 -0.15316151159E+04  0.33517326635E+04  0.29813196716E+04 0.  0.
        4    1    3    3  502    0 -0.42389034609E+03 -0.54895711193E+03  0.71761107029E+03  0.99800009887E+03  0.12699999809E+01 0.  1.
       -4    1    3    3    0  502  0.42389034609E+03  0.54895711193E+03 -0.22492261862E+04  0.23537325646E+04  0.12699999809E+01 0. -1.
</event>
<event>
 5   0  0.3378848E-06  0.1849095E+04  0.7818609E-02  0.8680618E-01
        2   -1    0    0  501    0  0.00000000000E+00  0.00000000000E+00  0.86415692436E+03  0.86415692436E+03  0.25500000920E-02 0. -1.
       -2   -1    0    0    0  501  0.00000000000E+00  0.00000000000E+00 -0.98915884899E+03  0.98915884900E+03  0.25500000920E-02 0.  1.
    10030    2    1    2    0    0  0.00000000000E+00  0.00000000000E+00 -0.12500192464E+03  0.18533157734E+04  0.18490954206E+04 0.  0.
        1    1    3    3  502    0 -0.28808561659E+03 -0.80092119290E+03  0.29932213133E+03  0.90225374372E+03  0.50400001928E-02 0.  1.
       -1    1    3    3    0  502  0.28808561659E+03  0.80092119290E+03 -0.42432405597E+03  0.95106202964E+03  0.50400001928E-02 0. -1.
</event>
<event>
 5   0  0.3041329E-06  0.3330960E+04  0.7818609E-02  0.8155062E-01
       -2   -1    0    0    0  501  0.00000000000E+00  0.00000000000E+00  0.17387355071E+04  0.17387355071E+04  0.25500000920E-02 0. -1.
        2   -1    0    0  501    0  0.00000000000E+00  0.00000000000E+00 -0.15953103959E+04  0.15953103959E+04  0.25500000920E-02 0.  1.
    10030    2    1    2    0    0  0.00000000000E+00  0.00000000000E+00  0.14342511118E+03  0.33340459030E+04  0.33309595195E+04 0.  0.
        2    1    3    3  502    0 -0.16424564439E+01  0.66295555026E+03  0.16009731289E+04  0.17328091986E+04  0.25500000920E-02 0. -1.
       -2    1    3    3    0  502  0.16424564439E+01 -0.66295555026E+03 -0.14575480178E+04  0.16012367044E+04  0.25500000920E-02 0.  1.
</event>
<event>
 5   0  0.1908726E-06  0.3511367E+04  0.7818609E-02  0.8111101E-01
        2   -1    0    0  501    0  0.00000000000E+00  0.00000000000E+00  0.12230325415E+04  0.12230325415E+04  0.25500000920E-02 0. -1.
       -2   -1    0    0    0  501  0.00000000000E+00  0.00000000000E+00 -0.25203123223E+04  0.25203123223E+04  0.25500000920E-02 0.  1.
    10030    2    1    2    0    0  0.00000000000E+00  0.00000000000E+00 -0.12972797807E+04  0.37433448638E+04  0.35113666769E+04 0.  0.
        5    1    3    3  502    0 -0.11634964619E+04  0.35012155711E+03  0.70240248212E+03  0.14034601735E+04  0.46999998093E+01 0. -1.
       -5    1    3    3    0  502  0.11634964619E+04 -0.35012155711E+03 -0.19996822629E+04  0.23398846903E+04  0.46999998093E+01 0.  1.
</event>
<event>
 5   0  0.1782660E-06  0.1842766E+04  0.7818609E-02  0.8683882E-01
       -2   -1    0    0    0  501  0.00000000000E+00  0.00000000000E+00  0.56627200857E+03  0.56627200858E+03  0.25500000920E-02 0.  1.
        2   -1    0    0  501    0  0.00000000000E+00  0.00000000000E+00 -0.14991854649E+04  0.14991854649E+04  0.25500000920E-02 0. -1.
    10030    2    1    2    0    0  0.00000000000E+00  0.00000000000E+00 -0.93291345637E+03  0.20654574735E+04  0.18427661430E+04 0.  0.
        4    1    3    3  502    0  0.32859474856E+03 -0.46648462538E+03 -0.12773196317E+04  0.13989744347E+04  0.12699999809E+01 0. -1.
       -4    1    3    3    0  502 -0.32859474856E+03  0.46648462538E+03  0.34440617536E+03  0.66648303881E+03  0.12699999809E+01 0.  1.
</event>
<event>
 5   0  0.2565004E-06  0.2831950E+04  0.7818609E-02  0.8293417E-01
        2   -1    0    0  501    0  0.00000000000E+00  0.00000000000E+00  0.17093819558E+04  0.17093819558E+04  0.25500000920E-02 0.  1.
       -2   -1    0    0    0  501  0.00000000000E+00  0.00000000000E+00 -0.11729301897E+04  0.11729301897E+04  0.25500000920E-02 0. -1.
    10030    2    1    2    0    0  0.00000000000E+00  0.00000000000E+00  0.53645176612E+03  0.28823121455E+04  0.28319503539E+04 0.  0.
        3    1    3    3  502    0  0.68113324862E+02  0.10788036510E+04 -0.66265875536E+03  0.12679011707E+04  0.10100000352E+00 0. -1.
       -3    1    3    3    0  502 -0.68113324862E+02 -0.10788036510E+04  0.11991105215E+04  0.16144109748E+04  0.10100000352E+00 0.  1.
</event>
<event>
 5   0  0.1908726E-06  0.3520003E+04  0.7818609E-02  0.8109066E-01
        2   -1    0    0  501    0  0.00000000000E+00  0.00000000000E+00  0.12413321757E+04  0.12413321757E+04  0.25500000920E-02 0.  1.
       -2   -1    0    0    0  501  0.00000000000E+00  0.00000000000E+00 -0.24953883001E+04  0.24953883001E+04  0.25500000920E-02 0. -1.
    10030    2    1    2    0    0  0.00000000000E+00  0.00000000000E+00 -0.12540561244E+04  0.37367204758E+04  0.35200032885E+04 0.  0.
        5    1    3    3  502    0 -0.44046218618E+03  0.25822908460E+03 -0.24150347351E+04  0.24684213699E+04  0.46999998093E+01 0. -1.
       -5    1    3    3    0  502  0.44046218618E+03 -0.25822908460E+03  0.11609786107E+04  0.12682991059E+04  0.46999998093E+01 0.  1.
</event>
<event>
 5   0  0.1782660E-06  0.2033477E+04  0.7818609E-02  0.8591127E-01
        2   -1    0    0  501    0  0.00000000000E+00  0.00000000000E+00  0.18668306760E+04  0.18668306760E+04  0.25500000920E-02 0.  1.
       -2   -1    0    0    0  501  0.00000000000E+00  0.00000000000E+00 -0.55374971163E+03  0.55374971164E+03  0.25500000920E-02 0. -1.
    10030    2    1    2    0    0  0.00000000000E+00  0.00000000000E+00  0.13130809644E+04  0.24205803876E+04  0.20334767749E+04 0.  0.
        4    1    3    3  502    0 -0.96755269072E+03 -0.42183412041E+02  0.28806963494E+03  0.10104075302E+04  0.12699999809E+01 0. -1.
       -4    1    3    3    0  502  0.96755269072E+03  0.42183412041E+02  0.10250113294E+04  0.14101728575E+04  0.12699999809E+01 0.  1.
</event>
<event>
 5   0  0.1089337E-06  0.3544730E+04  0.7818609E-02  0.8103271E-01
       -1   -1    0    0    0  501  0.00000000000E+00  0.00000000000E+00  0.18008462802E+04  0.18008462802E+04  0.50400001928E-02 0.  1.
        1   -1    0    0  501    0  0.00000000000E+00  0.00000000000E+00 -0.17443341255E+04  0.17443341255E+04  0.50400001928E-02 0. -1.
    10030    2    1    2    0    0  0.00000000000E+00  0.00000000000E+00  0.56512154747E+02  0.35451804057E+04  0.35447299594E+04 0.  0.
        2    1    3    3  502    0  0.10560632861E+04  0.25281300889E+03 -0.13726694157E+04  0.17502586684E+04  0.25500000920E-02 0. -1.
       -2    1    3    3    0  502 -0.10560632861E+04 -0.25281300889E+03  0.14291815704E+04  0.17949217373E+04  0.25500000920E-02 0.  1.
</event>
<event>
 5   0  0.3378848E-06  0.3969083E+04  0.7818609E-02  0.8010813E-01
        2   -1    0    0  501    0  0.00000000000E+00  0.00000000000E+00  0.24583097164E+04  0.24583097164E+04  0.25500000920E-02 0. -1.
       -2   -1    0    0    0  501  0.00000000000E+00  0.00000000000E+00 -0.16020781326E+04  0.16020781326E+04  0.25500000920E-02 0.  1.
    10030    2    1    2    0    0  0.00000000000E+00  0.00000000000E+00  0.85623158383E+03  0.40603878490E+04  0.39690826344E+04 0.  0.
        1    1    3    3  502    0  0.93073690757E+03  0.14681311731E+04 -0.55136665467E+03  0.18236462158E+04  0.50400001928E-02 0.  1.
       -1    1    3    3    0  502 -0.93073690757E+03 -0.14681311731E+04  0.14075982385E+04  0.22367416332E+04  0.50400001928E-02 0. -1.
</event>
<event>
 5   0  0.1102175E-06  0.3454390E+04  0.7818609E-02  0.8124685E-01
       -1   -1    0    0    0  501  0.00000000000E+00  0.00000000000E+00  0.14202398060E+04  0.14202398060E+04  0.50400001928E-02 0. -1.
        1   -1    0    0  501    0  0.00000000000E+00  0.00000000000E+00 -0.21004919216E+04  0.21004919216E+04  0.50400001928E-02 0.  1.
    10030    2    1    2    0    0  0.00000000000E+00  0.00000000000E+00 -0.68025211559E+03  0.35207317276E+04  0.34543898096E+04 0.  0.
        5    1    3    3  502    0  0.32976030642E+03  0.62873654094E+03  0.12646377548E+04  0.14503041882E+04  0.46999998093E+01 0. -1.
       -5    1    3    3    0  502 -0.32976030642E+03 -0.62873654094E+03 -0.19448898704E+04  0.20704275393E+04  0.46999998093E+01 0.  1.
</event>
<event>
 5   0  0.1102175E-06  0.3448668E+04  0.7818609E-02  0.8126064E-01
        1   -1    0    0  501    0  0.00000000000E+00  0.00000000000E+00  0.17389267798E+04  0.17389267798E+04  0.50400001928E-02 0. -1.
       -1   -1    0    0    0  501  0.00000000000E+00  0.00000000000E+00 -0.17098633964E+04  0.17098633964E+04  0.50400001928E-02 0.  1.
    10030    2    1    2    0    0  0.00000000000E+00  0.00000000000E+00  0.29063383360E+02  0.34487901762E+04  0.34486677136E+04 0.  0.
        5    1    3    3  502    0 -0.13346650310E+04  0.33783769212E+03  0.10527593442E+04  0.17331443615E+04  0.46999998093E+01 0. -1.
       -5    1    3    3    0  502  0.13346650310E+04 -0.33783769212E+03 -0.10236959609E+04  0.17156458147E+04  0.46999998093E+01 0.  1.
</event>
<event>
 5   0  0.1908726E-06  0.3357885E+04  0.7818609E-02  0.8148321E-01
        2   -1    0    0  501    0  0.00000000000E+00  0.00000000000E+00  0.15910763473E+04  0.15910763473E+04  0.25500000920E-02 0.  1.
       -2   -1    0    0    0  501  0.00000000000E+00  0.00000000000E+00 -0.17716614502E+04  0.17716614502E+04  0.25500000920E-02 0. -1.
    10030    2    1    2    0    0  0.00000000000E+00  0.00000000000E+00 -0.18058510288E+03  0.33627377975E+04  0.33578854232E+04 0.  0.
        5    1    3    3  502    0  0.99720690046E+03  0.63361830892E+03  0.11042986828E+04  0.16172171884E+04  0.46999998093E+01 0.  1.
       -5    1    3    3    0  502 -0.99720690046E+03 -0.63361830892E+03 -0.12848837857E+04  0.17455206090E+04  0.46999998093E+01 0. -1.
</event>
<event>
 5   0  0.3041329E-06  0.3580145E+04  0.7818609E-02  0.8095055E-01
       -2   -1    0    0    0  501  0.00000000000E+00  0.00000000000E+00  0.23770255437E+04  0.23770255437E+04  0.25500000920E-02 0.  1.
        2   -1    0    0  501    0  0.00000000000E+00  0.00000000000E+00 -0.13480544545E+04  0.13480544545E+04  0.25500000920E-02 0. -1.
    10030    2    1    2    0    0  0.00000000000E+00  0.00000000000E+00  0.10289710892E+04  0.37250799982E+04  0.35801451773E+04 0.  0.
        2    1    3    3  502    0  0.63425401611E+02 -0.13712624783E+04  0.17098987081E+04  0.21927464874E+04  0.25500000920E-02 0.  1.
       -2    1    3    3    0  502 -0.63425401611E+02  0.13712624783E+04 -0.68092761890E+03  0.15323335108E+04  0.25500000920E-02 0. -1.
</event>
<event>
 5   0  0.3041329E-06  0.2817765E+04  0.7818609E-02  0.8297774E-01
       -2   -1    0    0    0  501  0.00000000000E+00  0.00000000000E+00  0.98923241258E+03  0.98923241258E+03  0.25500000920E-02 0. -1.
        2   -1    0    0  501    0  0.00000000000E+00  0.00000000000E+00 -0.20065556757E+04  0.20065556757E+04  0.25500000920E-02 0.  1.
    10030    2    1    2    0    0  0.00000000000E+00  0.00000000000E+00 -0.10173232631E+04  0.29957880882E+04  0.28177650094E+04 0.  0.
        2    1    3    3  502    0  0.54510274533E+03 -0.13738749271E+03 -0.18821543632E+04  0.19643109155E+04  0.25500000920E-02 0.  1.
       -2    1    3    3    0  502 -0.54510274533E+03  0.13738749271E+03  0.86483110009E+03  0.10314771727E+04  0.25500000920E-02 0. -1.
</event>
<event>
 5   0  0.1089337E-06  0.3560033E+04  0.7818609E-02  0.8099708E-01
        1   -1    0    0  501    0  0.00000000000E+00  0.00000000000E+00  0.20211050480E+04  0.20211050480E+04  0.50400001928E-02 0. -1.
       -1   -1    0    0    0  501  0.00000000000E+00  0.00000000000E+00 -0.15676863915E+04  0.15676863915E+04  0.50400001928E-02 0.  1.
    10030    2    1    2    0    0  0.00000000000E+00  0.00000000000E+00  0.45341865646E+03  0.35887914395E+04  0.35600330782E+04 0.  0.
        2    1    3    3  502    0 -0.65396332530E+03  0.37399357126E+03 -0.13990552445E+04  0.15889917556E+04  0.25500000920E-02 0.  1.
       -2    1    3    3    0  502  0.65396332530E+03 -0.37399357126E+03  0.18524739009E+04  0.19997996839E+04  0.25500000920E-02 0. -1.
</event>
<event>
 5   0  0.1206274E-06  0.1982628E+04  0.7818609E-02  0.8614786E-01
        1   -1    0    0  501    0  0.00000000000E+00  0.00000000000E+00  0.81545767018E+03  0.81545767019E+03  0.50400001928E-02 0. -1.
       -1   -1    0    0    0  501  0.00000000000E+00  0.00000000000E+00 -0.12050939122E+04  0.12050939122E+04  0.50400001928E-02 0.  1.
    10030    2    1    2    0    0  0.00000000000E+00  0.00000000000E+00 -0.38963624199E+03  0.20205515824E+04  0.19826276241E+04 0.  0.
        1    1    3    3  502    0 -0.51376278020E+03 -0.57745621729E+03  0.43777663363E+03  0.88828838683E+03  0.50400001928E-02 0. -1.
       -1    1    3    3    0  502  0.51376278020E+03  0.57745621729E+03 -0.82741287562E+03  0.11322631955E+04  0.50400001928E-02 0.  1.
</event>
<event>
 5   0  0.1908726E-06  0.3510740E+04  0.7818609E-02  0.8111249E-01
        2   -1    0    0  501    0  0.00000000000E+00  0.00000000000E+00  0.15814097421E+04  0.15814097421E+04  0.25500000920E-02 0. -1.
       -2   -1    0    0    0  501  0.00000000000E+00  0.00000000000E+00 -0.19484663774E+04  0.19484663774E+04  0.25500000920E-02 0.  1.
    10030    2    1    2    0    0  0.00000000000E+00  0.00000000000E+00 -0.36705663527E+03  0.35298761194E+04  0.35107399284E+04 0.  0.
        5    1    3    3  502    0  0.12677534753E+04  0.48225276570E+03  0.93678704684E+03  0.16484412836E+04  0.46999998093E+01 0. -1.
       -5    1    3    3    0  502 -0.12677534753E+04 -0.48225276570E+03 -0.13038436821E+04  0.18814348359E+04  0.46999998093E+01 0.  1.
</event>
<event>
 5   0  0.2565004E-06  0.3363594E+04  0.7818609E-02  0.8146900E-01
       -2   -1    0    0    0  501  0.00000000000E+00  0.00000000000E+00  0.17015145446E+04  0.17015145446E+04  0.25500000920E-02 0. -1.
        2   -1    0    0  501    0  0.00000000000E+00  0.00000000000E+00 -0.16623076755E+04  0.16623076755E+04  0.25500000920E-02 0.  1.
    10030    2    1    2    0    0  0.00000000000E+00  0.00000000000E+00  0.39206869143E+02  0.33638222201E+04  0.33635937254E+04 0.  0.
        3    1    3    3  502    0 -0.72549855992E+03  0.14191267021E+04 -0.51724950004E+03  0.16756538463E+04  0.10100000352E+00 0. -1.
       -3    1    3    3    0  502  0.72549855992E+03 -0.14191267021E+04  0.55645636919E+03  0.16881683738E+04  0.10100000352E+00 0.  1.
</event>
<event>
 5   0  0.1908726E-06  0.1815543E+04  0.7818609E-02  0.8698077E-01
       -2   -1    0    0    0  501  0.00000000000E+00  0.00000000000E+00  0.62218675716E+03  0.62218675716E+03  0.25500000920E-02 0.  1.
        2   -1    0    0  501    0  0.00000000000E+00  0.00000000000E+00 -0.13244405624E+04  0.13244405624E+04  0.25500000920E-02 0. -1.
    10030    2    1    2    0    0  0.00000000000E+00  0.00000000000E+00 -0.70225380526E+03  0.19466273196E+04  0.18155433111E+04 0.  0.
        5    1    3    3  502    0 -0.46752243027E+03 -0.16627749278E+03  0.46388822261E+03  0.67929360403E+03  0.46999998093E+01 0.  1.
       -5    1    3    3    0  502  0.46752243027E+03  0.16627749278E+03 -0.11661420279E+04  0.12673337155E+04  0.46999998093E+01 0. -1.
</event>
<event>
 5   0  0.1089337E-06  0.1844328E+04  0.7818609E-02  0.8683075E-01
       -1   -1    0    0    0  501  0.00000000000E+00  0.00000000000E+00  0.11282013031E+04  0.11282013031E+04  0.50400001928E-02 0.  1.
        1   -1    0    0  501    0  0.00000000000E+00  0.00000000000E+00 -0.75375420827E+03  0.75375420828E+03  0.50400001928E-02 0. -1.
    10030    2    1    2    0    0  0.00000000000E+00  0.00000000000E+00  0.37444709485E+03  0.18819555114E+04  0.18443280403E+04 0.  0.
        2    1    3    3  502    0 -0.69504687048E+02  0.13869816508E+03  0.11147897044E+04  0.11255328372E+04  0.25500000920E-02 0.  1.
       -2    1    3    3    0  502  0.69504687048E+02 -0.13869816508E+03 -0.74034260957E+03  0.75642267422E+03  0.25500000920E-02 0. -1.
</event>
<event>
 5   0  0.3378848E-06  0.3380710E+04  0.7818609E-02  0.8142657E-01
        2   -1    0    0  501    0  0.00000000000E+00  0.00000000000E+00  0.19394049162E+04  0.19394049162E+04  0.25500000920E-02 0.  1.
       -2   -1    0    0    0  501  0.00000000000E+00  0.00000000000E+00 -0.14732867348E+04  0.14732867348E+04  0.25500000920E-02 0. -1.
    10030    2    1    2    0    0  0.00000000000E+00  0.00000000000E+00  0.46611818141E+03  0.34126916510E+04  0.33807097104E+04 0.  0.
        1    1    3    3  502    0 -0.10849236118E+04  0.11294563935E+04  0.87513330272E+03  0.17940427213E+04  0.50400001928E-02 0.  1.
       -1    1    3    3    0  502  0.10849236118E+04 -0.11294563935E+04 -0.40901512131E+03  0.16186489297E+04  0.50400001928E-02 0. -1.
</event>
<event>
 5   0  0.1130707E-06  0.3518663E+04  0.7818609E-02  0.8109381E-01
       -1   -1    0    0    0  501  0.00000000000E+00  0.00000000000E+00  0.20502538832E+04  0.20502538832E+04  0.50400001928E-02 0.  1.
        1   -1    0    0  501    0  0.00000000000E+00  0.00000000000E+00 -0.15096898705E+04  0.15096898705E+04  0.50400001928E-02 0. -1.
    10030    2    1    2    0    0  0.00000000000E+00  0.00000000000E+00  0.54056401269E+03  0.35599437538E+04  0.35186631095E+04 0.  0.
        3    1    3    3  502    0  0.43474282102E+03 -0.15641458063E+04  0.95624376741E+03  0.18841325794E+04  0.10100000352E+00 0.  1.
       -3    1    3    3    0  502 -0.43474282102E+03  0.15641458063E+04 -0.41567975473E+03  0.16758111744E+04  0.10100000352E+00 0. -1.
</event>
<event>
 5   0  0.1110956E-06  0.3484933E+04  0.7818609E-02  0.8117370E-01
        1   -1    0    0  501    0  0.00000000000E+00  0.00000000000E+00  0.20062917377E+04  0.20062917377E+04  0.50400001928E-02 0.  1.
       -1   -1    0    0    0  501  0.00000000000E+00  0.00000000000E+00 -0.15133339951E+04  0.15133339951E+04  0.50400001928E-02 0. -1.
    10030    2    1    2    0    0  0.00000000000E+00  0.00000000000E+00  0.49295774266E+03  0.35196257328E+04  0.34849329926E+04 0.  0.
        1    1    3    3  502    0  0.54673383809E+03 -0.73667482131E+03 -0.12496807844E+04  0.15502611861E+04  0.50400001928E-02 0. -1.
       -1    1    3    3    0  502 -0.54673383809E+03  0.73667482131E+03  0.17426385271E+04  0.19693645468E+04  0.50400001928E-02 0.  1.
</event>
<event>
 5   0  0.1042825E-06  0.3465339E+04  0.7818609E-02  0.8122054E-01
        3   -1    0    0  501    0  0.00000000000E+00  0.00000000000E+00  0.24790130854E+04  0.24790130875E+04  0.10100000352E+00 0. -1.
       -3   -1    0    0    0  501  0.00000000000E+00  0.00000000000E+00 -0.12110236051E+04  0.12110236093E+04  0.10100000352E+00 0.  1.
    10030    2    1    2    0    0  0.00000000000E+00  0.00000000000E+00  0.12679894804E+04  0.36900366967E+04  0.34653388724E+04 0.  0.
        4    1    3    3  502    0 -0.27143322969E+03  0.45643812122E+03  0.23902183263E+04  0.24485009734E+04  0.12699999809E+01 0. -1.
       -4    1    3    3    0  502  0.27143322969E+03 -0.45643812122E+03 -0.11222288459E+04  0.12415357233E+04  0.12699999809E+01 0.  1.
</event>
<event>
 5   0  0.3041329E-06  0.3442486E+04  0.7818609E-02  0.8127557E-01
        2   -1    0    0  501    0  0.00000000000E+00  0.00000000000E+00  0.17658384983E+04  0.17658384983E+04  0.25500000920E-02 0. -1.
       -2   -1    0    0    0  501  0.00000000000E+00  0.00000000000E+00 -0.16777734125E+04  0.16777734125E+04  0.25500000920E-02 0.  1.
    10030    2    1    2    0    0  0.00000000000E+00  0.00000000000E+00  0.88065085870E+02  0.34436119108E+04  0.34424856620E+04 0.  0.
        2    1    3    3  502    0  0.15599088286E+04  0.46822225527E+03  0.60110723014E+03  0.17360522850E+04  0.25500000920E-02 0. -1.
       -2    1    3    3    0  502 -0.15599088286E+04 -0.46822225527E+03 -0.51304214427E+03  0.17075596258E+04  0.25500000920E-02 0.  1.
</event>
<event>
 5   0  0.3041329E-06  0.3435815E+04  0.7818609E-02  0.8129172E-01
        2   -1    0    0  501    0  0.00000000000E+00  0.00000000000E+00  0.31057110655E+04  0.31057110655E+04  0.25500000920E-02 0. -1.
       -2   -1    0    0    0  501  0.00000000000E+00  0.00000000000E+00 -0.95025118610E+03  0.95025118610E+03  0.25500000920E-02 0.  1.
    10030    2    1    2    0    0  0.00000000000E+00  0.00000000000E+00  0.21554598794E+04  0.40559622516E+04  0.34358146770E+04 0.  0.
        2    1    3    3  502    0  0.44527925486E+03  0.44373020095E+03  0.29650589520E+04  0.30309643177E+04  0.25500000920E-02 0. -1.
       -2    1    3    3    0  502 -0.44527925486E+03 -0.44373020095E+03 -0.80959907265E+03  0.10249979339E+04  0.25500000920E-02 0.  1.
</event>
<event>
 5   0  0.1125196E-06  0.2739937E+04  0.7818609E-02  0.8322162E-01
        1   -1    0    0  501    0  0.00000000000E+00  0.00000000000E+00  0.15906008837E+04  0.15906008837E+04  0.50400001928E-02 0.  1.
       -1   -1    0    0    0  501  0.00000000000E+00  0.00000000000E+00 -0.11799401451E+04  0.11799401452E+04  0.50400001928E-02 0. -1.
    10030    2    1    2    0    0  0.00000000000E+00  0.00000000000E+00  0.41066073851E+03  0.27705410288E+04  0.27399371070E+04 0.  0.
        4    1    3    3  502    0  0.12796754308E+04 -0.40357572709E+03  0.48476767765E+03  0.14266898366E+04  0.12699999809E+01 0.  1.
       -4    1    3    3    0  502 -0.12796754308E+04  0.40357572709E+03 -0.74106939133E+02  0.13438511922E+04  0.12699999809E+01 0. -1.
</event>
<event>
 5   0  0.1102175E-06  0.2098044E+04  0.7818609E-02  0.8562106E-01
       -1   -1    0    0    0  501  0.00000000000E+00  0.00000000000E+00  0.74156507129E+03  0.74156507131E+03  0.50400001928E-02 0.  1.
        1   -1    0    0  501    0  0.00000000000E+00  0.00000000000E+00 -0.14839516904E+04  0.14839516904E+04  0.50400001928E-02 0. -1.
    10030    2    1    2    0    0  0.00000000000E+00  0.00000000000E+00 -0.74238661913E+03  0.22255167617E+04  0.20980436041E+04 0.  0.
        5    1    3    3  502    0 -0.19329446809E+03 -0.56721906967E+03  0.54212153140E+03  0.80809533423E+03  0.46999998093E+01 0.  1.
       -5    1    3    3    0  502  0.19329446809E+03  0.56721906967E+03 -0.12845081505E+04  0.14174214275E+04  0.46999998093E+01 0. -1.
</event>
<event>
 5   0  0.2565004E-06  0.3497361E+04  0.7818609E-02  0.8114416E-01
        2   -1    0    0  501    0  0.00000000000E+00  0.00000000000E+00  0.20998408039E+04  0.20998408039E+04  0.25500000920E-02 0.  1.
       -2   -1    0    0    0  501  0.00000000000E+00  0.00000000000E+00 -0.14562452956E+04  0.14562452956E+04  0.25500000920E-02 0. -1.
    10030    2    1    2    0    0  0.00000000000E+00  0.00000000000E+00  0.64359550836E+03  0.35560860995E+04  0.34973608862E+04 0.  0.
        3    1    3    3  502    0  0.40922536516E+03 -0.90890324729E+03 -0.11390991487E+04  0.15136437471E+04  0.10100000352E+00 0. -1.
       -3    1    3    3    0  502 -0.40922536516E+03  0.90890324729E+03  0.17826946570E+04  0.20424423524E+04  0.10100000352E+00 0.  1.
</event>
<event>
 5   0  0.1908726E-06  0.3480880E+04  0.7818609E-02  0.8118336E-01
        2   -1    0    0  501    0  0.00000000000E+00  0.00000000000E+00  0.18377857125E+04  0.18377857125E+04  0.25500000920E-02 0. -1.
       -2   -1    0    0    0  501  0.00000000000E+00  0.00000000000E+00 -0.16482505251E+04  0.16482505251E+04  0.25500000920E-02 0.  1.
    10030    2    1    2    0    0  0.00000000000E+00  0.00000000000E+00  0.18953518738E+03  0.34860362375E+04  0.34808799264E+04 0.  0.
        5    1    3    3  502    0  0.86952833739E+03 -0.62465654223E+03  0.14689641429E+04  0.18177329475E+04  0.46999998093E+01 0. -1.
       -5    1    3    3    0  502 -0.86952833739E+03  0.62465654223E+03 -0.12794289555E+04  0.16683032900E+04  0.46999998093E+01 0.  1.
</event>
<event>
 5   0  0.3041329E-06  0.2367249E+04  0.7818609E-02  0.8451868E-01
        2   -1    0    0  501    0  0.00000000000E+00  0.00000000000E+00  0.15664188223E+04  0.15664188223E+04  0.25500000920E-02 0. -1.
       -2   -1    0    0    0  501  0.00000000000E+00  0.00000000000E+00 -0.89437571069E+03  0.89437571069E+03  0.25500000920E-02 0.  1.
    10030    2    1    2    0    0  0.00000000000E+00  0.00000000000E+00  0.67204311165E+03  0.24607945330E+04  0.23672489919E+04 0.  0.
        2    1    3    3  502    0  0.34913793935E+03 -0.10809586310E+04 -0.96830903582E+01  0.11359853101E+04  0.25500000920E-02 0.  1.
       -2    1    3    3    0  502 -0.34913793935E+03  0.10809586310E+04  0.68172620200E+03  0.13248092229E+04  0.25500000920E-02 0. -1.
</event>
<event>
 5   0  0.1110956E-06  0.3309259E+04  0.7818609E-02  0.8160543E-01
       -1   -1    0    0    0  501  0.00000000000E+00  0.00000000000E+00  0.17159669495E+04  0.17159669495E+04  0.50400001928E-02 0. -1.
        1   -1    0    0  501    0  0.00000000000E+00  0.00000000000E+00 -0.15954843406E+04  0.15954843406E+04  0.50400001928E-02 0.  1.
    10030    2    1    2    0    0  0.00000000000E+00  0.00000000000E+00  0.12048260893E+03  0.33114512902E+04  0.33092587672E+04 0.  0.
        1    1    3    3  502    0  0.48777919809E+03 -0.12280440352E+04  0.10567814806E+04  0.16919833912E+04  0.50400001928E-02 0. -1.
       -1    1    3    3    0  502 -0.48777919809E+03  0.12280440352E+04 -0.93629887164E+03  0.16194678989E+04  0.50400001928E-02 0.  1.
</event>
<event>
 5   0  0.1130707E-06  0.3486725E+04  0.7818609E-02  0.8116943E-01
       -1   -1    0    0    0  501  0.00000000000E+00  0.00000000000E+00  0.13053845688E+04  0.13053845688E+04  0.50400001928E-02 0.  1.
        1   -1    0    0  501    0  0.00000000000E+00  0.00000000000E+00 -0.23282898582E+04  0.23282898582E+04  0.50400001928E-02 0. -1.
    10030    2    1    2    0    0  0.00000000000E+00  0.00000000000E+00 -0.10229052894E+04  0.36336744269E+04  0.34867254853E+04 0.  0.
        3    1    3    3  502    0 -0.69695614790E+03 -0.15643860264E+04 -0.17173546025E+03  0.17212044010E+04  0.10100000352E+00 0.  1.
       -3    1    3    3    0  502  0.69695614790E+03  0.15643860264E+04 -0.85116982913E+03  0.19124700259E+04  0.10100000352E+00 0. -1.
</event>
<event>
 5   0  0.1908726E-06  0.1774459E+04  0.7818609E-02  0.8720001E-01
       -2   -1    0    0    0  501  0.00000000000E+00  0.00000000000E+00  0.65471730279E+03  0.65471730279E+03  0.25500000920E-02 0.  1.
        2   -1    0    0  501    0  0.00000000000E+00  0.00000000000E+00 -0.12023139654E+04  0.12023139654E+04  0.25500000920E-02 0. -1.
    10030    2    1    2    0    0  0.00000000000E+00  0.00000000000E+00 -0.54759666262E+03  0.18570312682E+04  0.17744585163E+04 0.  0.
        5    1    3    3  502    0  0.46280478904E+03  0.33688873755E+03 -0.98318430039E+03  0.11376975665E+04  0.46999998093E+01 0. -1.
       -5    1    3    3    0  502 -0.46280478904E+03 -0.33688873755E+03  0.43558763777E+03  0.71933370172E+03  0.46999998093E+01 0.  1.
</event>
<event>
 5   0  0.1110956E-06  0.3450225E+04  0.7818609E-02  0.8125688E-01
        1   -1    0    0  501    0  0.00000000000E+00  0.00000000000E+00  0.15817577594E+04  0.15817577594E+04  0.50400001928E-02 0. -1.
       -1   -1    0    0    0  501  0.00000000000E+00  0.00000000000E+00 -0.18814593013E+04  0.18814593013E+04  0.50400001928E-02 0.  1.
    10030    2    1    2    0    0  0.00000000000E+00  0.00000000000E+00 -0.29970154196E+03  0.34632170607E+04  0.34502248326E+04 0.  0.
        1    1    3    3  502    0 -0.10507647502E+04  0.31176412322E+03 -0.14870494622E+04  0.18473276732E+04  0.50400001928E-02 0.  1.
       -1    1    3    3    0  502  0.10507647502E+04 -0.31176412322E+03  0.11873479203E+04  0.16158893875E+04  0.50400001928E-02 0. -1.
</event>
<event>
 5   0  0.3041329E-06  0.3303732E+04  0.7818609E-02  0.8161946E-01
       -2   -1    0    0    0  501  0.00000000000E+00  0.00000000000E+00  0.14373844759E+04  0.14373844759E+04  0.25500000920E-02 0.  1.
        2   -1    0    0  501    0  0.00000000000E+00  0.00000000000E+00 -0.18983515424E+04  0.18983515425E+04  0.25500000920E-02 0. -1.
    10030    2    1    2    0    0  0.00000000000E+00  0.00000000000E+00 -0.46096706657E+03  0.33357360183E+04  0.33037318516E+04 0.  0.
        2    1    3    3  502    0 -0.70416256883E+02 -0.61580887910E+01 -0.18968238507E+04  0.18981404299E+04  0.25500000920E-02 0. -1.
       -2    1    3    3    0  502  0.70416256883E+02  0.61580887910E+01  0.14358567841E+04  0.14375955884E+04  0.25500000920E-02 0.  1.
</event>
<event>
 5   0  0.3041329E-06  0.3513124E+04  0.7818609E-02  0.8110687E-01
       -2   -1    0    0    0  501  0.00000000000E+00  0.00000000000E+00  0.90356728373E+03  0.90356728373E+03  0.25500000920E-02 0.  1.
        2   -1    0    0  501    0  0.00000000000E+00  0.00000000000E+00 -0.34148099036E+04  0.34148099036E+04  0.25500000920E-02 0. -1.
    10030    2    1    2    0    0  0.00000000000E+00  0.00000000000E+00 -0.25112426199E+04  0.43183771874E+04  0.35131242558E+04 0.  0.
        2    1    3    3  502    0 -0.44152490742E+03 -0.53434136958E+03 -0.32395895904E+04  0.33129149789E+04  0.25500000920E-02 0. -1.
       -2    1    3    3    0  502  0.44152490742E+03  0.53434136958E+03  0.72834697053E+03  0.10054622084E+04  0.25500000920E-02 0.  1.
</event>
<event>
 5   0  0.1908726E-06  0.3435574E+04  0.7818609E-02  0.8129230E-01
        2   -1    0    0  501    0  0.00000000000E+00  0.00000000000E+00  0.24600625416E+04  0.24600625416E+04  0.25500000920E-02 0.  1.
       -2   -1    0    0    0  501  0.00000000000E+00  0.00000000000E+00 -0.11994784770E+04  0.11994784770E+04  0.25500000920E-02 0. -1.
    10030    2    1    2    0    0  0.00000000000E+00  0.00000000000E+00  0.12605840647E+04  0.36595410186E+04  0.34355739379E+04 0.  0.
        5    1    3    3  502    0 -0.16713682885E+04  0.32922091769E+03  0.86586926086E+03  0.19109186365E+04  0.46999998093E+01 0.  1.
       -5    1    3    3    0  502  0.16713682885E+04 -0.32922091769E+03  0.39471480380E+03  0.17486223820E+04  0.46999998093E+01 0. -1.
</event>
<event>
 5   0  0.1782660E-06  0.3057771E+04  0.7818609E-02  0.8227424E-01
        2   -1    0    0  501    0  0.00000000000E+00  0.00000000000E+00  0.18401741764E+04  0.18401741764E+04  0.25500000920E-02 0.  1.
       -2   -1    0    0    0  501  0.00000000000E+00  0.00000000000E+00 -0.12702549015E+04  0.12702549015E+04  0.25500000920E-02 0. -1.
    10030    2    1    2    0    0  0.00000000000E+00  0.00000000000E+00  0.56991927493E+03  0.31104290779E+04  0.30577706043E+04 0.  0.
        4    1    3    3  502    0  0.11205256622E+04 -0.45730822020E+03 -0.66535587027E+03  0.13810896476E+04  0.12699999809E+01 0. -1.
       -4    1    3    3    0  502 -0.11205256622E+04  0.45730822020E+03  0.12352751452E+04  0.17293394303E+04  0.12699999809E+01 0.  1.
</event>
<event>
 5   0  0.1130707E-06  0.3504343E+04  0.7818609E-02  0.8112762E-01
       -1   -1    0    0    0  501  0.00000000000E+00  0.00000000000E+00  0.11228866810E+04  0.11228866810E+04  0.50400001928E-02 0.  1.
        1   -1    0    0  501    0  0.00000000000E+00  0.00000000000E+00 -0.27341175047E+04  0.27341175047E+04  0.50400001928E-02 0. -1.
    10030    2    1    2    0    0  0.00000000000E+00  0.00000000000E+00 -0.16112308238E+04  0.38570041857E+04  0.35043425234E+04 0.  0.
        3    1    3    3  502    0  0.24784751213E+02 -0.21386930236E+03 -0.27195032594E+04  0.27280125276E+04  0.10100000352E+00 0. -1.
       -3    1    3    3    0  502 -0.24784751213E+02  0.21386930236E+03  0.11082724356E+04  0.11289916582E+04  0.10100000352E+00 0.  1.
</event>
<event>
 5   0  0.1130707E-06  0.2349753E+04  0.7818609E-02  0.8458558E-01
       -1   -1    0    0    0  501  0.00000000000E+00  0.00000000000E+00  0.13753451979E+04  0.13753451979E+04  0.50400001928E-02 0.  1.
        1   -1    0    0  501    0  0.00000000000E+00  0.00000000000E+00 -0.10036280653E+04  0.10036280653E+04  0.50400001928E-02 0. -1.
    10030    2    1    2    0    0  0.00000000000E+00  0.00000000000E+00  0.37171713265E+03  0.23789732632E+04  0.23497532126E+04 0.  0.
        3    1    3    3  502    0  0.18205105788E+03 -0.11046632643E+04 -0.17481791385E+03  0.11331305434E+04  0.10100000352E+00 0.  1.
       -3    1    3    3    0  502 -0.18205105788E+03  0.11046632643E+04  0.54653504650E+03  0.12458427198E+04  0.10100000352E+00 0. -1.
</event>
<event>
 5   0  0.1110956E-06  0.2040681E+04  0.7818609E-02  0.8587834E-01
       -1   -1    0    0    0  501  0.00000000000E+00  0.00000000000E+00  0.57542640837E+03  0.57542640839E+03  0.50400001928E-02 0.  1.
        1   -1    0    0  501    0  0.00000000000E+00  0.00000000000E+00 -0.18092576893E+04  0.18092576893E+04  0.50400001928E-02 0. -1.
    10030    2    1    2    0    0  0.00000000000E+00  0.00000000000E+00 -0.12338312809E+04  0.23846840977E+04  0.20406809197E+04 0.  0.
        1    1    3    3  502    0 -0.84339650121E+03  0.48725393848E+03 -0.26177603072E+03  0.10085934509E+04  0.50400001928E-02 0.  1.
       -1    1    3    3    0  502  0.84339650121E+03 -0.48725393848E+03 -0.97205525018E+03  0.13760906468E+04  0.50400001928E-02 0. -1.
</event>
<event>
 5   0  0.3041329E-06  0.3485521E+04  0.7818609E-02  0.8117230E-01
       -2   -1    0    0    0  501  0.00000000000E+00  0.00000000000E+00  0.95901040747E+03  0.95901040747E+03  0.25500000920E-02 0.  1.
        2   -1    0    0  501    0  0.00000000000E+00  0.00000000000E+00 -0.31670285968E+04  0.31670285968E+04  0.25500000920E-02 0. -1.
    10030    2    1    2    0    0  0.00000000000E+00  0.00000000000E+00 -0.22080181893E+04  0.41260390043E+04  0.34855205552E+04 0.  0.
        2    1    3    3  502    0 -0.16168861589E+03  0.14061222395E+04  0.99648435980E+02  0.14188913883E+04  0.25500000920E-02 0.  1.
       -2    1    3    3    0  502  0.16168861589E+03 -0.14061222395E+04 -0.23076666253E+04  0.27071476160E+04  0.25500000920E-02 0. -1.
</event>
<event>
 5   0  0.1089337E-06  0.2606784E+04  0.7818609E-02  0.8365900E-01
        1   -1    0    0  501    0  0.00000000000E+00  0.00000000000E+00  0.23905770385E+04  0.23905770386E+04  0.50400001928E-02 0.  1.
       -1   -1    0    0    0  501  0.00000000000E+00  0.00000000000E+00 -0.71063626805E+03  0.71063626807E+03  0.50400001928E-02 0. -1.
    10030    2    1    2    0    0  0.00000000000E+00  0.00000000000E+00  0.16799407705E+04  0.31012133066E+04  0.26067840303E+04 0.  0.
        2    1    3    3  502    0  0.58798421818E+03 -0.27527193173E+03 -0.50458363853E+03  0.82225587593E+03  0.25500000920E-02 0. -1.
       -2    1    3    3    0  502 -0.58798421818E+03  0.27527193173E+03  0.21845244090E+04  0.22789574307E+04  0.25500000920E-02 0.  1.
</event>
<event>
 5   0  0.3041329E-06  0.3108918E+04  0.7818609E-02  0.8213295E-01
       -2   -1    0    0    0  501  0.00000000000E+00  0.00000000000E+00  0.14399042625E+04  0.14399042625E+04  0.25500000920E-02 0. -1.
        2   -1    0    0  501    0  0.00000000000E+00  0.00000000000E+00 -0.16781279051E+04  0.16781279051E+04  0.25500000920E-02 0.  1.
    10030    2    1    2    0    0  0.00000000000E+00  0.00000000000E+00 -0.23822364261E+03  0.31180321677E+04  0.31089184767E+04 0.  0.
        2    1    3    3  502    0 -0.59488521459E+03  0.17507093070E+03 -0.15487044464E+04  0.16682397045E+04  0.25500000920E-02 0.  1.
       -2    1    3    3    0  502  0.59488521459E+03 -0.17507093070E+03  0.13104808038E+04  0.14497924632E+04  0.25500000920E-02 0. -1.
</event>
<event>
 5   0  0.3041329E-06  0.3465749E+04  0.7818609E-02  0.8121955E-01
        2   -1    0    0  501    0  0.00000000000E+00  0.00000000000E+00  0.20473949172E+04  0.20473949172E+04  0.25500000920E-02 0.  1.
       -2   -1    0    0    0  501  0.00000000000E+00  0.00000000000E+00 -0.14666707573E+04  0.14666707573E+04  0.25500000920E-02 0. -1.
    10030    2    1    2    0    0  0.00000000000E+00  0.00000000000E+00  0.58072415991E+03  0.35140656746E+04  0.34657491276E+04 0.  0.
        2    1    3    3  502    0  0.98487065557E+03 -0.13577758328E+04 -0.15082331886E+03  0.16841238356E+04  0.25500000920E-02 0. -1.
       -2    1    3    3    0  502 -0.98487065557E+03  0.13577758328E+04  0.73154747878E+03  0.18299418389E+04  0.25500000920E-02 0.  1.
</event>
<event>
 5   0  0.1110956E-06  0.3506921E+04  0.7818609E-02  0.8112152E-01
        1   -1    0    0  501    0  0.00000000000E+00  0.00000000000E+00  0.14472349220E+04  0.14472349220E+04  0.50400001928E-02 0. -1.
       -1   -1    0    0    0  501  0.00000000000E+00  0.00000000000E+00 -0.21244814714E+04  0.21244814714E+04  0.50400001928E-02 0.  1.
    10030    2    1    2    0    0  0.00000000000E+00  0.00000000000E+00 -0.67724654940E+03  0.35717163935E+04  0.35069210294E+04 0.  0.
        1    1    3    3  502    0  0.16294063945E+04 -0.40992211805E+03  0.17226467772E+03  0.16889868148E+04  0.50400001928E-02 0. -1.
       -1    1    3    3    0  502 -0.16294063945E+04  0.40992211805E+03 -0.84951122712E+03  0.18827295787E+04  0.50400001928E-02 0.  1.
</event>
<event>
 5   0  0.1089337E-06  0.2077901E+04  0.7818609E-02  0.8571041E-01
        1   -1    0    0  501    0  0.00000000000E+00  0.00000000000E+00  0.11990641481E+04  0.11990641481E+04  0.50400001928E-02 0.  1.
       -1   -1    0    0    0  501  0.00000000000E+00  0.00000000000E+00 -0.90021721124E+03  0.90021721125E+03  0.50400001928E-02 0. -1.
    10030    2    1    2    0    0  0.00000000000E+00  0.00000000000E+00  0.29884693687E+03  0.20992813594E+04  0.20779010405E+04 0.  0.
        2    1    3    3  502    0  0.58650633547E+03  0.16808402241E+01 -0.71697002742E+03  0.92630369048E+03  0.25500000920E-02 0. -1.
       -2    1    3    3    0  502 -0.58650633547E+03 -0.16808402241E+01  0.10158169643E+04  0.11729776689E+04  0.25500000920E-02 0.  1.
</event>
<event>
 5   0  0.1110956E-06  0.3536058E+04  0.7818609E-02  0.8105297E-01
       -1   -1    0    0    0  501  0.00000000000E+00  0.00000000000E+00  0.12153031839E+04  0.12153031839E+04  0.50400001928E-02 0.  1.
        1   -1    0    0  501    0  0.00000000000E+00  0.00000000000E+00 -0.25721374539E+04  0.25721374539E+04  0.50400001928E-02 0. -1.
    10030    2    1    2    0    0  0.00000000000E+00  0.00000000000E+00 -0.13568342701E+04  0.37874406378E+04  0.35360581653E+04 0.  0.
        1    1    3    3  502    0  0.22252269416E+03  0.75793925778E+03 -0.23726174399E+04  0.25006602696E+04  0.50400001928E-02 0. -1.
       -1    1    3    3    0  502 -0.22252269416E+03 -0.75793925778E+03  0.10157831698E+04  0.12867803682E+04  0.50400001928E-02 0.  1.
</event>
<event>
 5   0  0.1130707E-06  0.3138973E+04  0.7818609E-02  0.8205123E-01
        1   -1    0    0  501    0  0.00000000000E+00  0.00000000000E+00  0.20254008555E+04  0.20254008555E+04  0.50400001928E-02 0. -1.
       -1   -1    0    0    0  501  0.00000000000E+00  0.00000000000E+00 -0.12161978746E+04  0.12161978746E+04  0.50400001928E-02 0.  1.
    10030    2    1    2    0    0  0.00000000000E+00  0.00000000000E+00  0.80920298086E+03  0.32415987301E+04  0.31389732179E+04 0.  0.
        3    1    3    3  502    0 -0.58634498707E+03  0.80618593845E+03 -0.84728260368E+03  0.13082904998E+04  0.10100000352E+00 0.  1.
       -3    1    3    3    0  502  0.58634498707E+03 -0.80618593845E+03  0.16564855845E+04  0.19333082303E+04  0.10100000352E+00 0. -1.
</event>
<event>
 5   0  0.1908726E-06  0.3445804E+04  0.7818609E-02  0.8126755E-01
        2   -1    0    0  501    0  0.00000000000E+00  0.00000000000E+00  0.19979123438E+04  0.19979123438E+04  0.25500000920E-02 0. -1.
       -2   -1    0    0    0  501  0.00000000000E+00  0.00000000000E+00 -0.14857463632E+04  0.14857463632E+04  0.25500000920E-02 0.  1.
    10030    2    1    2    0    0  0.00000000000E+00  0.00000000000E+00  0.51216598056E+03  0.34836587069E+04  0.34458038242E+04 0.  0.
        5    1    3    3  502    0 -0.51970227931E+03 -0.15306412782E+04 -0.34663391477E+03  0.16532181775E+04  0.46999998093E+01 0. -1.
       -5    1    3    3    0  502  0.51970227931E+03  0.15306412782E+04  0.85879989532E+03  0.18304405294E+04  0.46999998093E+01 0.  1.
</event>
<event>
 5   0  0.1908726E-06  0.3558553E+04  0.7818609E-02  0.8100052E-01
       -2   -1    0    0    0  501  0.00000000000E+00  0.00000000000E+00  0.15241315823E+04  0.15241315823E+04  0.25500000920E-02 0. -1.
        2   -1    0    0  501    0  0.00000000000E+00  0.00000000000E+00 -0.20771329815E+04  0.20771329815E+04  0.25500000920E-02 0.  1.
    10030    2    1    2    0    0  0.00000000000E+00  0.00000000000E+00 -0.55300139921E+03  0.36012645639E+04  0.35585525023E+04 0.  0.
        5    1    3    3  502    0  0.15293384531E+04  0.59956619353E+03 -0.96840726192E+03  0.19068797654E+04  0.46999998093E+01 0.  1.
       -5    1    3    3    0  502 -0.15293384531E+04 -0.59956619353E+03  0.41540586271E+03  0.16943847985E+04  0.46999998093E+01 0. -1.
</event>
<event>
 5   0  0.1782660E-06  0.3177682E+04  0.7818609E-02  0.8194736E-01
        2   -1    0    0  501    0  0.00000000000E+00  0.00000000000E+00  0.18812625788E+04  0.18812625788E+04  0.25500000920E-02 0.  1.
       -2   -1    0    0    0  501  0.00000000000E+00  0.00000000000E+00 -0.13418733898E+04  0.13418733898E+04  0.25500000920E-02 0. -1.
    10030    2    1    2    0    0  0.00000000000E+00  0.00000000000E+00  0.53938918907E+03  0.32231359686E+04  0.31776822961E+04 0.  0.
        4    1    3    3  502    0 -0.10649033617E+04 -0.30362491535E+03  0.14253814651E+04  0.18049712444E+04  0.12699999809E+01 0.  1.
       -4    1    3    3    0  502  0.10649033617E+04  0.30362491535E+03 -0.88599227605E+03  0.14181647242E+04  0.12699999809E+01 0. -1.
</event>
<event>
 5   0  0.1042825E-06  0.3489135E+04  0.7818609E-02  0.8116370E-01
        3   -1    0    0  501    0  0.00000000000E+00  0.00000000000E+00  0.18621603933E+04  0.18621603961E+04  0.10100000352E+00 0.  1.
       -3   -1    0    0    0  501  0.00000000000E+00  0.00000000000E+00 -0.16344006750E+04  0.16344006781E+04  0.10100000352E+00 0. -1.
    10030    2    1    2    0    0  0.00000000000E+00  0.00000000000E+00  0.22775971834E+03  0.34965610742E+04  0.34891352591E+04 0.  0.
        3    1    3    3  502    0 -0.14342554132E+04 -0.58116545631E+03  0.92099718018E+03  0.18008547121E+04  0.10100000352E+00 0.  1.
       -3    1    3    3    0  502  0.14342554132E+04  0.58116545631E+03 -0.69323746184E+03  0.16957063621E+04  0.10100000352E+00 0. -1.
</event>
<event>
 5   0  0.1102175E-06  0.2032958E+04  0.7818609E-02  0.8591365E-01
       -1   -1    0    0    0  501  0.00000000000E+00  0.00000000000E+00  0.74203795584E+03  0.74203795586E+03  0.50400001928E-02 0.  1.
        1   -1    0    0  501    0  0.00000000000E+00  0.00000000000E+00 -0.13924209959E+04  0.13924209959E+04  0.50400001928E-02 0. -1.
    10030    2    1    2    0    0  0.00000000000E+00  0.00000000000E+00 -0.65038304010E+03  0.21344589518E+04  0.20329576774E+04 0.  0.
        5    1    3    3  502    0 -0.62642011125E+03 -0.63685245169E+03  0.18402235459E+03  0.91206881209E+03  0.46999998093E+01 0. -1.
       -5    1    3    3    0  502  0.62642011125E+03  0.63685245169E+03 -0.83440539469E+03  0.12223901397E+04  0.46999998093E+01 0.  1.
</event>
<event>
 5   0  0.3378848E-06  0.3508758E+04  0.7818609E-02  0.8111718E-01
        2   -1    0    0  501    0  0.00000000000E+00  0.00000000000E+00  0.22468266661E+04  0.22468266661E+04  0.25500000920E-02 0. -1.
       -2   -1    0    0    0  501  0.00000000000E+00  0.00000000000E+00 -0.13698630622E+04  0.13698630622E+04  0.25500000920E-02 0.  1.
    10030    2    1    2    0    0  0.00000000000E+00  0.00000000000E+00  0.87696360387E+03  0.36166897283E+04  0.35087575334E+04 0.  0.
        1    1    3    3  502    0  0.10682504266E+04  0.32679052794E+03  0.18328287214E+04  0.21464417404E+04  0.50400001928E-02 0. -1.
       -1    1    3    3    0  502 -0.10682504266E+04 -0.32679052794E+03 -0.95586511748E+03  0.14702479879E+04  0.50400001928E-02 0.  1.
</event>
<event>
 5   0  0.1130707E-06  0.3470300E+04  0.7818609E-02  0.8120865E-01
       -1   -1    0    0    0  501  0.00000000000E+00  0.00000000000E+00  0.17927743011E+04  0.17927743012E+04  0.50400001928E-02 0. -1.
        1   -1    0    0  501    0  0.00000000000E+00  0.00000000000E+00 -0.16793776535E+04  0.16793776536E+04  0.50400001928E-02 0.  1.
    10030    2    1    2    0    0  0.00000000000E+00  0.00000000000E+00  0.11339664760E+03  0.34721519547E+04  0.34702997561E+04 0.  0.
        3    1    3    3  502    0  0.16536084289E+04 -0.29827352756E+03  0.48977707519E+03  0.17502198510E+04  0.10100000352E+00 0.  1.
       -3    1    3    3    0  502 -0.16536084289E+04  0.29827352756E+03 -0.37638042760E+03  0.17219321037E+04  0.10100000352E+00 0. -1.
</event>
<event>
 5   0  0.3041329E-06  0.2985475E+04  0.7818609E-02  0.8247891E-01
       -2   -1    0    0    0  501  0.00000000000E+00  0.00000000000E+00  0.89597521398E+03  0.89597521398E+03  0.25500000920E-02 0.  1.
        2   -1    0    0  501    0  0.00000000000E+00  0.00000000000E+00 -0.24869720960E+04  0.24869720960E+04  0.25500000920E-02 0. -1.
    10030    2    1    2    0    0  0.00000000000E+00  0.00000000000E+00 -0.15909968821E+04  0.33829473100E+04  0.29854750750E+04 0.  0.
        2    1    3    3  502    0 -0.11331763897E+04 -0.31392807732E+03 -0.18375060571E+04  0.21815288395E+04  0.25500000920E-02 0. -1.
       -2    1    3    3    0  502  0.11331763897E+04  0.31392807732E+03  0.24650917502E+03  0.12014184705E+04  0.25500000920E-02 0.  1.
</event>
<event>
 5   0  0.1782660E-06  0.3268080E+04  0.7818609E-02  0.8171065E-01
        2   -1    0    0  501    0  0.00000000000E+00  0.00000000000E+00  0.24006497008E+04  0.24006497008E+04  0.25500000920E-02 0. -1.
       -2   -1    0    0    0  501  0.00000000000E+00  0.00000000000E+00 -0.11122353397E+04  0.11122353397E+04  0.25500000920E-02 0.  1.
    10030    2    1    2    0    0  0.00000000000E+00  0.00000000000E+00  0.12884143611E+04  0.35128850406E+04  0.32680804370E+04 0.  0.
        4    1    3    3  502    0 -0.14571997364E+04  0.72942857757E+03  0.51437584852E+03  0.17088245223E+04  0.12699999809E+01 0.  1.
       -4    1    3    3    0  502  0.14571997364E+04 -0.72942857757E+03  0.77403851255E+03  0.18040605182E+04  0.12699999809E+01 0. -1.
</event>
<event>
 5   0  0.1102175E-06  0.3401441E+04  0.7818609E-02  0.8137553E-01
        1   -1    0    0  501    0  0.00000000000E+00  0.00000000000E+00  0.15599101031E+04  0.15599101031E+04  0.50400001928E-02 0. -1.
       -1   -1    0    0    0  501  0.00000000000E+00  0.00000000000E+00 -0.18542417626E+04  0.18542417626E+04  0.50400001928E-02 0.  1.
    10030    2    1    2    0    0  0.00000000000E+00  0.00000000000E+00 -0.29433165954E+03  0.34141518657E+04  0.34014411410E+04 0.  0.
        5    1    3    3  502    0  0.73976289732E+03  0.15269458355E+04 -0.26428794520E+03  0.17171729490E+04  0.46999998093E+01 0. -1.
       -5    1    3    3    0  502 -0.73976289732E+03 -0.15269458355E+04 -0.30043714341E+02  0.16969789167E+04  0.46999998093E+01 0.  1.
</event>
<event>
 5   0  0.1908726E-06  0.3436897E+04  0.7818609E-02  0.8128910E-01
        2   -1    0    0  501    0  0.00000000000E+00  0.00000000000E+00  0.25038154107E+04  0.25038154107E+04  0.25500000920E-02 0.  1.
       -2   -1    0    0    0  501  0.00000000000E+00  0.00000000000E+00 -0.11794258893E+04  0.11794258893E+04  0.25500000920E-02 0. -1.
    10030    2    1    2    0    0  0.00000000000E+00  0.00000000000E+00  0.13243895213E+04  0.36832413000E+04  0.34368966918E+04 0.  0.
        5    1    3    3  502    0  0.16888469387E+03 -0.29211445519E+03  0.24679583903E+04  0.24909222391E+04  0.46999998093E+01 0.  1.
       -5    1    3    3    0  502 -0.16888469387E+03  0.29211445519E+03 -0.11435688690E+04  0.11923190609E+04  0.46999998093E+01 0. -1.
</event>
<event>
 5   0  0.2565004E-06  0.3453757E+04  0.7818609E-02  0.8124837E-01
        2   -1    0    0  501    0  0.00000000000E+00  0.00000000000E+00  0.19047413729E+04  0.19047413729E+04  0.25500000920E-02 0. -1.
       -2   -1    0    0    0  501  0.00000000000E+00  0.00000000000E+00 -0.15656245303E+04  0.15656245303E+04  0.25500000920E-02 0.  1.
    10030    2    1    2    0    0  0.00000000000E+00  0.00000000000E+00  0.33911684258E+03  0.34703659031E+04  0.34537572684E+04 0.  0.
        3    1    3    3  502    0  0.17851797724E+03  0.33608675704E+03 -0.15229665188E+04  0.15697929813E+04  0.10100000352E+00 0.  1.
       -3    1    3    3    0  502 -0.17851797724E+03 -0.33608675704E+03  0.18620833614E+04  0.19005729219E+04  0.10100000352E+00 0. -1.
</event>
<event>
 5   0  0.3378848E-06  0.3433173E+04  0.7818609E-02  0.8129812E-01
        2   -1    0    0  501    0  0.00000000000E+00  0.00000000000E+00  0.26234287017E+04  0.26234287017E+04  0.25500000920E-02 0.  1.
       -2   -1    0    0    0  501  0.00000000000E+00  0.00000000000E+00 -0.11232133133E+04  0.11232133133E+04  0.25500000920E-02 0. -1.
    10030    2    1    2    0    0  0.00000000000E+00  0.00000000000E+00  0.15002153884E+04  0.37466420150E+04  0.34331734848E+04 0.  0.
        1    1    3    3  502    0  0.69982288359E+03  0.64740890607E+03 -0.80774024234E+03  0.12495337767E+04  0.50400001928E-02 0. -1.
       -1    1    3    3    0  502 -0.69982288359E+03 -0.64740890607E+03  0.23079556308E+04  0.24971082383E+04  0.50400001928E-02 0.  1.
</event>
<event>
 5   0  0.1089337E-06  0.3811104E+04  0.7818609E-02  0.8043776E-01
        1   -1    0    0  501    0  0.00000000000E+00  0.00000000000E+00  0.24964243925E+04  0.24964243925E+04  0.50400001928E-02 0.  1.
       -1   -1    0    0    0  501  0.00000000000E+00  0.00000000000E+00 -0.14545316580E+04  0.14545316580E+04  0.50400001928E-02 0. -1.
    10030    2    1    2    0    0  0.00000000000E+00  0.00000000000E+00  0.10418927345E+04  0.39509560504E+04  0.38111039401E+04 0.  0.
        2    1    3    3  502    0  0.18843216173E+04 -0.26020724525E+03  0.63801749430E+03  0.20063504407E+04  0.25500000920E-02 0. -1.
       -2    1    3    3    0  502 -0.18843216173E+04  0.26020724525E+03  0.40387524020E+03  0.19446056097E+04  0.25500000920E-02 0.  1.
</event>
<event>
 5   0  0.1130707E-06  0.3355611E+04  0.7818609E-02  0.8148888E-01
       -1   -1    0    0    0  501  0.00000000000E+00  0.00000000000E+00  0.12377052255E+04  0.12377052255E+04  0.50400001928E-02 0.  1.
        1   -1    0    0  501    0  0.00000000000E+00  0.00000000000E+00 -0.22743950104E+04  0.22743950104E+04  0.50400001928E-02 0. -1.
    10030    2    1    2    0    0  0.00000000000E+00  0.00000000000E+00 -0.10366897849E+04  0.35121002359E+04  0.33556105788E+04 0.  0.
        3    1    3    3  502    0 -0.18029841907E+03 -0.14685817979E+04  0.30961605305E+03  0.15116554262E+04  0.10100000352E+00 0.  1.
       -3    1    3    3    0  502  0.18029841907E+03  0.14685817979E+04 -0.13463058379E+04  0.20004448097E+04  0.10100000352E+00 0. -1.
</event>
<event>
 5   0  0.1125196E-06  0.3512616E+04  0.7818609E-02  0.8110807E-01
       -1   -1    0    0    0  501  0.00000000000E+00  0.00000000000E+00  0.17335873224E+04  0.17335873225E+04  0.50400001928E-02 0. -1.
        1   -1    0    0  501    0  0.00000000000E+00  0.00000000000E+00 -0.17793266617E+04  0.17793266617E+04  0.50400001928E-02 0.  1.
    10030    2    1    2    0    0  0.00000000000E+00  0.00000000000E+00 -0.45739339248E+02  0.35129139841E+04  0.35126162006E+04 0.  0.
        4    1    3    3  502    0 -0.11640256275E+03 -0.13930324676E+04  0.10404831449E+04  0.17426117754E+04  0.12699999809E+01 0. -1.
       -4    1    3    3    0  502  0.11640256275E+03  0.13930324676E+04 -0.10862224841E+04  0.17703022087E+04  0.12699999809E+01 0.  1.
</event>
<event>
 5   0  0.1782660E-06  0.3383383E+04  0.7818609E-02  0.8141997E-01
        2   -1    0    0  501    0  0.00000000000E+00  0.00000000000E+00  0.10076325845E+04  0.10076325845E+04  0.25500000920E-02 0.  1.
       -2   -1    0    0    0  501  0.00000000000E+00  0.00000000000E+00 -0.28401426453E+04  0.28401426453E+04  0.25500000920E-02 0. -1.
    10030    2    1    2    0    0  0.00000000000E+00  0.00000000000E+00 -0.18325100608E+04  0.38477752298E+04  0.33833830845E+04 0.  0.
        4    1    3    3  502    0  0.70532303467E+03  0.93895175908E+03 -0.23010525858E+04  0.25834000087E+04  0.12699999809E+01 0. -1.
       -4    1    3    3    0  502 -0.70532303467E+03 -0.93895175908E+03  0.46854252506E+03  0.12643752211E+04  0.12699999809E+01 0.  1.
</event>
<event>
 5   0  0.2565004E-06  0.3553667E+04  0.7818609E-02  0.8101188E-01
       -2   -1    0    0    0  501  0.00000000000E+00  0.00000000000E+00  0.28659174516E+04  0.28659174516E+04  0.25500000920E-02 0. -1.
        2   -1    0    0  501    0  0.00000000000E+00  0.00000000000E+00 -0.11016146098E+04  0.11016146098E+04  0.25500000920E-02 0.  1.
    10030    2    1    2    0    0  0.00000000000E+00  0.00000000000E+00  0.17643028417E+04  0.39675320614E+04  0.35536665771E+04 0.  0.
        3    1    3    3  502    0 -0.69615137709E+03  0.97947152042E+03 -0.57915357857E+03  0.13339453051E+04  0.10100000352E+00 0.  1.
       -3    1    3    3    0  502  0.69615137709E+03 -0.97947152042E+03  0.23434564203E+04  0.26335867564E+04  0.10100000352E+00 0. -1.
</event>
<event>
 5   0  0.3041329E-06  0.3296977E+04  0.7818609E-02  0.8163665E-01
        2   -1    0    0  501    0  0.00000000000E+00  0.00000000000E+00  0.23087130718E+04  0.23087130718E+04  0.25500000920E-02 0. -1.
       -2   -1    0    0    0  501  0.00000000000E+00  0.00000000000E+00 -0.11770686803E+04  0.11770686803E+04  0.25500000920E-02 0.  1.
    10030    2    1    2    0    0  0.00000000000E+00  0.00000000000E+00  0.11316443915E+04  0.34857817521E+04  0.32969767052E+04 0.  0.
        2    1    3    3  502    0  0.58554860329E+03  0.14283296075E+04  0.11773217512E+04  0.19414116360E+04  0.25500000920E-02 0. -1.
       -2    1    3    3    0  502 -0.58554860329E+03 -0.14283296075E+04 -0.45677359722E+02  0.15443701161E+04  0.25500000920E-02 0.  1.
</event>
<event>
 5   0  0.1102175E-06  0.3570718E+04  0.7818609E-02  0.8097232E-01
       -1   -1    0    0    0  501  0.00000000000E+00  0.00000000000E+00  0.22637323887E+04  0.22637323887E+04  0.50400001928E-02 0.  1.
        1   -1    0    0  501    0  0.00000000000E+00  0.00000000000E+00 -0.14080754862E+04  0.14080754862E+04  0.50400001928E-02 0. -1.
    10030    2    1    2    0    0  0.00000000000E+00  0.00000000000E+00  0.85565690250E+03  0.36718078748E+04  0.35707176218E+04 0.  0.
        5    1    3    3  502    0 -0.81540596847E+03  0.13621010021E+04  0.12678256398E+04  0.20316520312E+04  0.46999998093E+01 0.  1.
       -5    1    3    3    0  502  0.81540596847E+03 -0.13621010021E+04 -0.41216873726E+03  0.16401558436E+04  0.46999998093E+01 0. -1.
</event>
<event>
 5   0  0.1102175E-06  0.3493575E+04  0.7818609E-02  0.8115314E-01
       -1   -1    0    0    0  501  0.00000000000E+00  0.00000000000E+00  0.31809042664E+04  0.31809042664E+04  0.50400001928E-02 0.  1.
        1   -1    0    0  501    0  0.00000000000E+00  0.00000000000E+00 -0.95924523335E+03  0.95924523336E+03  0.50400001928E-02 0. -1.
    10030    2    1    2    0    0  0.00000000000E+00  0.00000000000E+00  0.22216590330E+04  0.41401494998E+04  0.34935753922E+04 0.  0.
        5    1    3    3  502    0 -0.23998427817E+03  0.17207308936E+04  0.13252525005E+04  0.21851369618E+04  0.46999998093E+01 0. -1.
       -5    1    3    3    0  502  0.23998427817E+03 -0.17207308936E+04  0.89640653255E+03  0.19550125379E+04  0.46999998093E+01 0.  1.
</event>
<event>
 5   0  0.3041329E-06  0.3505652E+04  0.7818609E-02  0.8112452E-01
        2   -1    0    0  501    0  0.00000000000E+00  0.00000000000E+00  0.24053022573E+04  0.24053022573E+04  0.25500000920E-02 0.  1.
       -2   -1    0    0    0  501  0.00000000000E+00  0.00000000000E+00 -0.12773444691E+04  0.12773444691E+04  0.25500000920E-02 0. -1.
    10030    2    1    2    0    0  0.00000000000E+00  0.00000000000E+00  0.11279577881E+04  0.36826467264E+04  0.35056523130E+04 0.  0.
        2    1    3    3  502    0  0.56039716454E+03  0.10897915262E+03 -0.11769430048E+04  0.13080964315E+04  0.25500000920E-02 0. -1.
       -2    1    3    3    0  502 -0.56039716454E+03 -0.10897915262E+03  0.23049007929E+04  0.23745502949E+04  0.25500000920E-02 0.  1.
</event>
<event>
 5   0  0.1782660E-06  0.3524586E+04  0.7818609E-02  0.8107988E-01
       -2   -1    0    0    0  501  0.00000000000E+00  0.00000000000E+00  0.15968274336E+04  0.15968274336E+04  0.25500000920E-02 0.  1.
        2   -1    0    0  501    0  0.00000000000E+00  0.00000000000E+00 -0.19449039492E+04  0.19449039492E+04  0.25500000920E-02 0. -1.
    10030    2    1    2    0    0  0.00000000000E+00  0.00000000000E+00 -0.34807651564E+03  0.35417313828E+04  0.35245856391E+04 0.  0.
        4    1    3    3  502    0 -0.39135371639E+02  0.87178210308E+02 -0.19422981344E+04  0.19446478533E+04  0.12699999809E+01 0. -1.
       -4    1    3    3    0  502  0.39135371639E+02 -0.87178210308E+02  0.15942216187E+04  0.15970835295E+04  0.12699999809E+01 0.  1.
</event>
<event>
 5   0  0.2565004E-06  0.3556066E+04  0.7818609E-02  0.8100630E-01
        2   -1    0    0  501    0  0.00000000000E+00  0.00000000000E+00  0.21724317075E+04  0.21724317075E+04  0.25500000920E-02 0.  1.
       -2   -1    0    0    0  501  0.00000000000E+00  0.00000000000E+00 -0.14552366274E+04  0.14552366274E+04  0.25500000920E-02 0. -1.
    10030    2    1    2    0    0  0.00000000000E+00  0.00000000000E+00  0.71719508006E+03  0.36276683349E+04  0.35560664737E+04 0.  0.
        3    1    3    3  502    0 -0.11575530669E+04 -0.15438442990E+03  0.17263543541E+04  0.20842415937E+04  0.10100000352E+00 0.  1.
       -3    1    3    3    0  502  0.11575530669E+04  0.15438442990E+03 -0.10091592741E+04  0.15434267412E+04  0.10100000352E+00 0. -1.
</event>
<event>
 5   0  0.2565004E-06  0.2953198E+04  0.7818609E-02  0.8257223E-01
        2   -1    0    0  501    0  0.00000000000E+00  0.00000000000E+00  0.14257959553E+04  0.14257959554E+04  0.25500000920E-02 0. -1.
       -2   -1    0    0    0  501  0.00000000000E+00  0.00000000000E+00 -0.15292120489E+04  0.15292120489E+04  0.25500000920E-02 0.  1.
    10030    2    1    2    0    0  0.00000000000E+00  0.00000000000E+00 -0.10341609357E+03  0.29550080043E+04  0.29531978289E+04 0.  0.
        3    1    3    3  502    0  0.88173297388E+03 -0.22984313893E+03  0.11109264615E+04  0.14368154088E+04  0.10100000352E+00 0. -1.
       -3    1    3    3    0  502 -0.88173297388E+03  0.22984313893E+03 -0.12143425551E+04  0.15181925955E+04  0.10100000352E+00 0.  1.
</event>
<event>
 5   0  0.1102175E-06  0.3397867E+04  0.7818609E-02  0.8138430E-01
       -1   -1    0    0    0  501  0.00000000000E+00  0.00000000000E+00  0.14442564244E+04  0.14442564244E+04  0.50400001928E-02 0. -1.
        1   -1    0    0  501    0  0.00000000000E+00  0.00000000000E+00 -0.19985194553E+04  0.19985194553E+04  0.50400001928E-02 0.  1.
    10030    2    1    2    0    0  0.00000000000E+00  0.00000000000E+00 -0.55426303088E+03  0.34427758797E+04  0.33978667205E+04 0.  0.
        5    1    3    3  502    0  0.15812629155E+04 -0.50305081524E+03 -0.64650422702E+03  0.17808543837E+04  0.46999998093E+01 0.  1.
       -5    1    3    3    0  502 -0.15812629155E+04  0.50305081524E+03  0.92241196140E+02  0.16619214960E+04  0.46999998093E+01 0. -1.
</event>
<event>
 5   0  0.3378848E-06  0.3457346E+04  0.7818609E-02  0.8123974E-01
        2   -1    0    0  501    0  0.00000000000E+00  0.00000000000E+00  0.19511627718E+04  0.19511627718E+04  0.25500000920E-02 0. -1.
       -2   -1    0    0    0  501  0.00000000000E+00  0.00000000000E+00 -0.15315532973E+04  0.15315532973E+04  0.25500000920E-02 0.  1.
    10030    2    1    2    0    0  0.00000000000E+00  0.00000000000E+00  0.41960947446E+03  0.34827160691E+04  0.34573456736E+04 0.  0.
        1    1    3    3  502    0 -0.50470483496E+03 -0.94553458650E+03  0.15760564783E+04  0.19059686900E+04  0.50400001928E-02 0. -1.
       -1    1    3    3    0  502  0.50470483496E+03  0.94553458650E+03 -0.11564470038E+04  0.15767473790E+04  0.50400001928E-02 0.  1.
</event>
<event>
 5   0  0.1089337E-06  0.3258388E+04  0.7818609E-02  0.8173565E-01
       -1   -1    0    0    0  501  0.00000000000E+00  0.00000000000E+00  0.15354781811E+04  0.15354781811E+04  0.50400001928E-02 0. -1.
        1   -1    0    0  501    0  0.00000000000E+00  0.00000000000E+00 -0.17286293168E+04  0.17286293168E+04  0.50400001928E-02 0.  1.
    10030    2    1    2    0    0  0.00000000000E+00  0.00000000000E+00 -0.19315113575E+03  0.32641074979E+04  0.32583876989E+04 0.  0.
        2    1    3    3  502    0 -0.12406655719E+04  0.64015185593E+03  0.74467661474E+03  0.15822732761E+04  0.25500000920E-02 0. -1.
       -2    1    3    3    0  502  0.12406655719E+04 -0.64015185593E+03 -0.93782775049E+03  0.16818342217E+04  0.25500000920E-02 0.  1.
</event>
<event>
 5   0  0.1260874E-06  0.1820094E+04  0.7818609E-02  0.8695686E-01
       -1   -1    0    0    0  501  0.00000000000E+00  0.00000000000E+00  0.92589489608E+03  0.92589489610E+03  0.50400001928E-02 0. -1.
        1   -1    0    0  501    0  0.00000000000E+00  0.00000000000E+00 -0.89447050363E+03  0.89447050364E+03  0.50400001928E-02 0.  1.
    10030    2    1    2    0    0  0.00000000000E+00  0.00000000000E+00  0.31424392455E+02  0.18203653997E+04  0.18200941449E+04 0.  0.
        2    1    3    3  502    0  0.44199203900E+03  0.55532885656E+03 -0.55396778775E+03  0.90034849439E+03  0.25500000920E-02 0.  1.
       -2    1    3    3    0  502 -0.44199203900E+03 -0.55532885656E+03  0.58539218021E+03  0.92001690535E+03  0.25500000920E-02 0. -1.
</event>
<event>
 5   0  0.3041329E-06  0.3477279E+04  0.7818609E-02  0.8119196E-01
       -2   -1    0    0    0  501  0.00000000000E+00  0.00000000000E+00  0.14366459838E+04  0.14366459838E+04  0.25500000920E-02 0. -1.
        2   -1    0    0  501    0  0.00000000000E+00  0.00000000000E+00 -0.21041148310E+04  0.21041148310E+04  0.25500000920E-02 0.  1.
    10030    2    1    2    0    0  0.00000000000E+00  0.00000000000E+00 -0.66746884712E+03  0.35407608148E+04  0.34772794661E+04 0.  0.
        2    1    3    3  502    0  0.62961576031E+03 -0.18872045612E+03  0.13052582602E+04  0.14614138846E+04  0.25500000920E-02 0. -1.
       -2    1    3    3    0  502 -0.62961576031E+03  0.18872045612E+03 -0.19727271073E+04  0.20793469302E+04  0.25500000920E-02 0.  1.
</event>
<event>
 5   0  0.1782660E-06  0.2652860E+04  0.7818609E-02  0.8350464E-01
        2   -1    0    0  501    0  0.00000000000E+00  0.00000000000E+00  0.19521935658E+04  0.19521935658E+04  0.25500000920E-02 0.  1.
       -2   -1    0    0    0  501  0.00000000000E+00  0.00000000000E+00 -0.90125134840E+03  0.90125134840E+03  0.25500000920E-02 0. -1.
    10030    2    1    2    0    0  0.00000000000E+00  0.00000000000E+00  0.10509422174E+04  0.28534449142E+04  0.26528604061E+04 0.  0.
        4    1    3    3  502    0 -0.97363359568E+03  0.76508778974E+03  0.14025576802E+02  0.12383537598E+04  0.12699999809E+01 0. -1.
       -4    1    3    3    0  502  0.97363359568E+03 -0.76508778974E+03  0.10369166406E+04  0.16150911544E+04  0.12699999809E+01 0.  1.
</event>
<event>
 5   0  0.1110956E-06  0.3209891E+04  0.7818609E-02  0.8186210E-01
       -1   -1    0    0    0  501  0.00000000000E+00  0.00000000000E+00  0.98101569181E+03  0.98101569182E+03  0.50400001928E-02 0. -1.
        1   -1    0    0  501    0  0.00000000000E+00  0.00000000000E+00 -0.26256972712E+04  0.26256972712E+04  0.50400001928E-02 0.  1.
    10030    2    1    2    0    0  0.00000000000E+00  0.00000000000E+00 -0.16446815794E+04  0.36067129630E+04  0.32098911041E+04 0.  0.
        1    1    3    3  502    0 -0.31289342107E+03  0.11453108280E+04 -0.20357571765E+04  0.23566812401E+04  0.50400001928E-02 0.  1.
       -1    1    3    3    0  502  0.31289342107E+03 -0.11453108280E+04  0.39107559709E+03  0.12500317230E+04  0.50400001928E-02 0. -1.
</event>
<event>
 5   0  0.1130707E-06  0.3542025E+04  0.7818609E-02  0.8103902E-01
        1   -1    0    0  501    0  0.00000000000E+00  0.00000000000E+00  0.22361620290E+04  0.22361620290E+04  0.50400001928E-02 0. -1.
       -1   -1    0    0    0  501  0.00000000000E+00  0.00000000000E+00 -0.14026198842E+04  0.14026198842E+04  0.50400001928E-02 0.  1.
    10030    2    1    2    0    0  0.00000000000E+00  0.00000000000E+00  0.83354214480E+03  0.36387819132E+04  0.35420250288E+04 0.  0.
        3    1    3    3  502    0  0.66602528981E+03  0.95926016528E+03  0.17845752649E+04  0.21327162582E+04  0.10100000352E+00 0. -1.
       -3    1    3    3    0  502 -0.66602528981E+03 -0.95926016528E+03 -0.95103312014E+03  0.15060656550E+04  0.10100000352E+00 0.  1.
</event>
<event>
 5   0  0.1782660E-06  0.3452453E+04  0.7818609E-02  0.8125151E-01
        2   -1    0    0  501    0  0.00000000000E+00  0.00000000000E+00  0.22476311315E+04  0.22476311315E+04  0.25500000920E-02 0. -1.
       -2   -1    0    0    0  501  0.00000000000E+00  0.00000000000E+00 -0.13257773338E+04  0.13257773338E+04  0.25500000920E-02 0.  1.
    10030    2    1    2    0    0  0.00000000000E+00  0.00000000000E+00  0.92185379768E+03  0.35734084653E+04  0.34524532778E+04 0.  0.
        4    1    3    3  502    0  0.95372349368E+03  0.13256138012E+04  0.10400066233E+04  0.19360929321E+04  0.12699999809E+01 0. -1.
       -4    1    3    3    0  502 -0.95372349368E+03 -0.13256138012E+04 -0.11815282567E+03  0.16373155332E+04  0.12699999809E+01 0.  1.
</event>
<event>
 5   0  0.1102175E-06  0.3584843E+04  0.7818609E-02  0.8093972E-01
       -1   -1    0    0    0  501  0.00000000000E+00  0.00000000000E+00  0.15507515706E+04  0.15507515706E+04  0.50400001928E-02 0. -1.
        1   -1    0    0  501    0  0.00000000000E+00  0.00000000000E+00 -0.20717530408E+04  0.20717530408E+04  0.50400001928E-02 0.  1.
    10030    2    1    2    0    0  0.00000000000E+00  0.00000000000E+00 -0.52100147024E+03  0.36225046114E+04  0.35848426922E+04 0.  0.
        5    1    3    3  502    0  0.15129597244E+04  0.56585873765E+03 -0.10455207013E+04  0.19241566634E+04  0.46999998093E+01 0.  1.
       -5    1    3    3    0  502 -0.15129597244E+04 -0.56585873765E+03  0.52451923110E+03  0.16983479480E+04  0.46999998093E+01 0. -1.
</event>
<event>
 5   0  0.1110956E-06  0.2804176E+04  0.7818609E-02  0.8301973E-01
        1   -1    0    0  501    0  0.00000000000E+00  0.00000000000E+00  0.13655404373E+04  0.13655404373E+04  0.50400001928E-02 0. -1.
       -1   -1    0    0    0  501  0.00000000000E+00  0.00000000000E+00 -0.14396132927E+04  0.14396132928E+04  0.50400001928E-02 0.  1.
    10030    2    1    2    0    0  0.00000000000E+00  0.00000000000E+00 -0.74072855419E+02  0.28051537301E+04  0.28041755761E+04 0.  0.
        1    1    3    3  502    0 -0.10940570885E+04 -0.67287632578E+03 -0.59948401118E+03  0.14174288491E+04  0.50400001928E-02 0.  1.
       -1    1    3    3    0  502  0.10940570885E+04  0.67287632578E+03  0.52541115576E+03  0.13877248810E+04  0.50400001928E-02 0. -1.
</event>
<event>
 5   0  0.1908726E-06  0.3598840E+04  0.7818609E-02  0.8090758E-01
        2   -1    0    0  501    0  0.00000000000E+00  0.00000000000E+00  0.14355349166E+04  0.14355349166E+04  0.25500000920E-02 0. -1.
       -2   -1    0    0    0  501  0.00000000000E+00  0.00000000000E+00 -0.22555437821E+04  0.22555437821E+04  0.25500000920E-02 0.  1.
    10030    2    1    2    0    0  0.00000000000E+00  0.00000000000E+00 -0.82000886545E+03  0.36910786987E+04  0.35988397326E+04 0.  0.
        5    1    3    3  502    0  0.96324852651E+03  0.11085724117E+04 -0.14764178237E+04  0.20824534079E+04  0.46999998093E+01 0. -1.
       -5    1    3    3    0  502 -0.96324852651E+03 -0.11085724117E+04  0.65640895828E+03  0.16086252908E+04  0.46999998093E+01 0.  1.
</event>
<event>
 5   0  0.1089337E-06  0.3484651E+04  0.7818609E-02  0.8117437E-01
       -1   -1    0    0    0  501  0.00000000000E+00  0.00000000000E+00  0.23191767094E+04  0.23191767094E+04  0.50400001928E-02 0.  1.
        1   -1    0    0  501    0  0.00000000000E+00  0.00000000000E+00 -0.13089554453E+04  0.13089554453E+04  0.50400001928E-02 0. -1.
    10030    2    1    2    0    0  0.00000000000E+00  0.00000000000E+00  0.10102212641E+04  0.36281321547E+04  0.34846514789E+04 0.  0.
        2    1    3    3  502    0  0.14199818855E+04  0.35600211180E+02  0.15556573096E+04  0.21065814950E+04  0.25500000920E-02 0.  1.
       -2    1    3    3    0  502 -0.14199818855E+04 -0.35600211180E+02 -0.54543604543E+03  0.15215506597E+04  0.25500000920E-02 0. -1.
</event>
<event>
 5   0  0.1089337E-06  0.2449242E+04  0.7818609E-02  0.8421295E-01
        1   -1    0    0  501    0  0.00000000000E+00  0.00000000000E+00  0.13127265521E+04  0.13127265521E+04  0.50400001928E-02 0.  1.
       -1   -1    0    0    0  501  0.00000000000E+00  0.00000000000E+00 -0.11424287448E+04  0.11424287448E+04  0.50400001928E-02 0. -1.
    10030    2    1    2    0    0  0.00000000000E+00  0.00000000000E+00  0.17029780731E+03  0.24551552969E+04  0.24492419621E+04 0.  0.
        2    1    3    3  502    0  0.81096806846E+03  0.13692212919E+03  0.99468716245E+03  0.12906662732E+04  0.25500000920E-02 0.  1.
       -2    1    3    3    0  502 -0.81096806846E+03 -0.13692212919E+03 -0.82438935514E+03  0.11644890237E+04  0.25500000920E-02 0. -1.
</event>
<event>
 5   0  0.1125196E-06  0.2499842E+04  0.7818609E-02  0.8403042E-01
        1   -1    0    0  501    0  0.00000000000E+00  0.00000000000E+00  0.19202383260E+04  0.19202383260E+04  0.50400001928E-02 0. -1.
       -1   -1    0    0    0  501  0.00000000000E+00  0.00000000000E+00 -0.81359831406E+03  0.81359831407E+03  0.50400001928E-02 0.  1.
    10030    2    1    2    0    0  0.00000000000E+00  0.00000000000E+00  0.11066400119E+04  0.27338366400E+04  0.24998421267E+04 0.  0.
        4    1    3    3  502    0  0.97014092249E+03 -0.42659099509E+03 -0.17139176597E+03  0.10735595172E+04  0.12699999809E+01 0.  1.
       -4    1    3    3    0  502 -0.97014092249E+03  0.42659099509E+03  0.12780317779E+04  0.16602771229E+04  0.12699999809E+01 0. -1.
</event>
<event>
 5   0  0.1908726E-06  0.3440868E+04  0.7818609E-02  0.8127948E-01
       -2   -1    0    0    0  501  0.00000000000E+00  0.00000000000E+00  0.12948715241E+04  0.12948715241E+04  0.25500000920E-02 0. -1.
        2   -1    0    0  501    0  0.00000000000E+00  0.00000000000E+00 -0.22858583112E+04  0.22858583112E+04  0.25500000920E-02 0.  1.
    10030    2    1    2    0    0  0.00000000000E+00  0.00000000000E+00 -0.99098678710E+03  0.35807298353E+04  0.34408678180E+04 0.  0.
        5    1    3    3  502    0 -0.84547023270E+03 -0.24545561612E+03  0.10426954063E+04  0.13646626595E+04  0.46999998093E+01 0. -1.
       -5    1    3    3    0  502  0.84547023270E+03  0.24545561612E+03 -0.20336821934E+04  0.22160671758E+04  0.46999998093E+01 0.  1.
</event>
<event>
 5   0  0.1110956E-06  0.3548277E+04  0.7818609E-02  0.8102443E-01
       -1   -1    0    0    0  501  0.00000000000E+00  0.00000000000E+00  0.19197536631E+04  0.19197536631E+04  0.50400001928E-02 0.  1.
        1   -1    0    0  501    0  0.00000000000E+00  0.00000000000E+00 -0.16395680475E+04  0.16395680475E+04  0.50400001928E-02 0. -1.
    10030    2    1    2    0    0  0.00000000000E+00  0.00000000000E+00  0.28018561560E+03  0.35593217107E+04  0.35482766325E+04 0.  0.
        1    1    3    3  502    0  0.75777855196E+02  0.13278589898E+04  0.13178920482E+04  0.18723758252E+04  0.50400001928E-02 0.  1.
       -1    1    3    3    0  502 -0.75777855196E+02 -0.13278589898E+04 -0.10377064326E+04  0.16869458855E+04  0.50400001928E-02 0. -1.
</event>
<event>
 5   0  0.3378848E-06  0.3521384E+04  0.7818609E-02  0.8108741E-01
       -2   -1    0    0    0  501  0.00000000000E+00  0.00000000000E+00  0.12375129530E+04  0.12375129530E+04  0.25500000920E-02 0. -1.
        2   -1    0    0  501    0  0.00000000000E+00  0.00000000000E+00 -0.25050529350E+04  0.25050529350E+04  0.25500000920E-02 0.  1.
    10030    2    1    2    0    0  0.00000000000E+00  0.00000000000E+00 -0.12675399819E+04  0.37425658880E+04  0.35213835094E+04 0.  0.
        1    1    3    3  502    0  0.77763129975E+03 -0.85838196496E+03 -0.20431496013E+04  0.23486145553E+04  0.50400001928E-02 0.  1.
       -1    1    3    3    0  502 -0.77763129975E+03  0.85838196496E+03  0.77560961939E+03  0.13939513327E+04  0.50400001928E-02 0. -1.
</event>
<event>
 5   0  0.1125196E-06  0.2367881E+04  0.7818609E-02  0.8451627E-01
        1   -1    0    0  501    0  0.00000000000E+00  0.00000000000E+00  0.19794012459E+04  0.19794012459E+04  0.50400001928E-02 0.  1.
       -1   -1    0    0    0  501  0.00000000000E+00  0.00000000000E+00 -0.70815085047E+03  0.70815085049E+03  0.50400001928E-02 0. -1.
    10030    2    1    2    0    0  0.00000000000E+00  0.00000000000E+00  0.12712503955E+04  0.26875520964E+04  0.23678806353E+04 0.  0.
        4    1    3    3  502    0 -0.58861947010E+03  0.56834605762E+03 -0.33559733898E+03  0.88437396424E+03  0.12699999809E+01 0. -1.
       -4    1    3    3    0  502  0.58861947010E+03 -0.56834605762E+03  0.16068477344E+04  0.18031781322E+04  0.12699999809E+01 0.  1.
</event>
<event>
 5   0  0.1102175E-06  0.1952883E+04  0.7818609E-02  0.8628972E-01
        1   -1    0    0  501    0  0.00000000000E+00  0.00000000000E+00  0.13854208982E+04  0.13854208982E+04  0.50400001928E-02 0. -1.
       -1   -1    0    0    0  501  0.00000000000E+00  0.00000000000E+00 -0.68819362280E+03  0.68819362281E+03  0.50400001928E-02 0.  1.
    10030    2    1    2    0    0  0.00000000000E+00  0.00000000000E+00  0.69722727544E+03  0.20736145211E+04  0.19528828199E+04 0.  0.
        5    1    3    3  502    0  0.21056032663E+03 -0.94625435471E+03  0.22440864712E+03  0.99504486626E+03  0.46999998093E+01 0. -1.
       -5    1    3    3    0  502 -0.21056032663E+03  0.94625435471E+03  0.47281862831E+03  0.10785696548E+04  0.46999998093E+01 0.  1.
</event>
<event>
 5   0  0.1130707E-06  0.2099356E+04  0.7818609E-02  0.8561527E-01
        1   -1    0    0  501    0  0.00000000000E+00  0.00000000000E+00  0.17078865123E+04  0.17078865123E+04  0.50400001928E-02 0.  1.
       -1   -1    0    0    0  501  0.00000000000E+00  0.00000000000E+00 -0.64513904720E+03  0.64513904722E+03  0.50400001928E-02 0. -1.
    10030    2    1    2    0    0  0.00000000000E+00  0.00000000000E+00  0.10627474651E+04  0.23530255595E+04  0.20993563559E+04 0.  0.
        3    1    3    3  502    0 -0.20474000278E+02 -0.32995266661E+03 -0.58526756179E+03  0.67218009192E+03  0.10100000352E+00 0. -1.
       -3    1    3    3    0  502  0.20474000278E+02  0.32995266661E+03  0.16480150269E+04  0.16808454676E+04  0.10100000352E+00 0.  1.
</event>
<event>
 5   0  0.1908726E-06  0.1808057E+04  0.7818609E-02  0.8702027E-01
       -2   -1    0    0    0  501  0.00000000000E+00  0.00000000000E+00  0.68993628666E+03  0.68993628666E+03  0.25500000920E-02 0.  1.
        2   -1    0    0  501    0  0.00000000000E+00  0.00000000000E+00 -0.11845545725E+04  0.11845545725E+04  0.25500000920E-02 0. -1.
    10030    2    1    2    0    0  0.00000000000E+00  0.00000000000E+00 -0.49461828583E+03  0.18744908592E+04  0.18080566176E+04 0.  0.
        5    1    3    3  502    0 -0.79981966400E+03 -0.41938837681E+03 -0.28938340051E+03  0.94834748274E+03  0.46999998093E+01 0.  1.
       -5    1    3    3    0  502  0.79981966400E+03  0.41938837681E+03 -0.20523488532E+03  0.92614337642E+03  0.46999998093E+01 0. -1.
</event>
<event>
 5   0  0.2565004E-06  0.3535459E+04  0.7818609E-02  0.8105438E-01
        2   -1    0    0  501    0  0.00000000000E+00  0.00000000000E+00  0.12870495197E+04  0.12870495197E+04  0.25500000920E-02 0. -1.
       -2   -1    0    0    0  501  0.00000000000E+00  0.00000000000E+00 -0.24279307472E+04  0.24279307472E+04  0.25500000920E-02 0.  1.
    10030    2    1    2    0    0  0.00000000000E+00  0.00000000000E+00 -0.11408812275E+04  0.37149802669E+04  0.35354587267E+04 0.  0.
        3    1    3    3  502    0  0.10548287152E+04  0.12104971771E+03  0.91467278656E+03  0.14014074958E+04  0.10100000352E+00 0. -1.
       -3    1    3    3    0  502 -0.10548287152E+04 -0.12104971771E+03 -0.20555540140E+04  0.23135727711E+04  0.10100000352E+00 0.  1.
</event>
<event>
 5   0  0.3378848E-06  0.3537809E+04  0.7818609E-02  0.8104888E-01
       -2   -1    0    0    0  501  0.00000000000E+00  0.00000000000E+00  0.14488249016E+04  0.14488249016E+04  0.25500000920E-02 0.  1.
        2   -1    0    0  501    0  0.00000000000E+00  0.00000000000E+00 -0.21596969407E+04  0.21596969407E+04  0.25500000920E-02 0. -1.
    10030    2    1    2    0    0  0.00000000000E+00  0.00000000000E+00 -0.71087203914E+03  0.36085218423E+04  0.35378087611E+04 0.  0.
        1    1    3    3  502    0 -0.56863777543E+03  0.33920588296E+03 -0.20285310763E+04  0.21338575113E+04  0.50400001928E-02 0. -1.
       -1    1    3    3    0  502  0.56863777543E+03 -0.33920588296E+03  0.13176590372E+04  0.14746643310E+04  0.50400001928E-02 0.  1.
</event>
<event>
 5   0  0.1089337E-06  0.3460082E+04  0.7818609E-02  0.8123316E-01
        1   -1    0    0  501    0  0.00000000000E+00  0.00000000000E+00  0.26941248921E+04  0.26941248921E+04  0.50400001928E-02 0. -1.
       -1   -1    0    0    0  501  0.00000000000E+00  0.00000000000E+00 -0.11109511351E+04  0.11109511351E+04  0.50400001928E-02 0.  1.
    10030    2    1    2    0    0  0.00000000000E+00  0.00000000000E+00  0.15831737571E+04  0.38050760272E+04  0.34600815637E+04 0.  0.
        2    1    3    3  502    0  0.16156484097E+04  0.32177220747E+03  0.21052519087E+03  0.16607763225E+04  0.25500000920E-02 0.  1.
       -2    1    3    3    0  502 -0.16156484097E+04 -0.32177220747E+03  0.13726485662E+04  0.21442997047E+04  0.25500000920E-02 0. -1.
</event>
<event>
 5   0  0.1782660E-06  0.2186016E+04  0.7818609E-02  0.8524271E-01
        2   -1    0    0  501    0  0.00000000000E+00  0.00000000000E+00  0.14506835504E+04  0.14506835504E+04  0.25500000920E-02 0. -1.
       -2   -1    0    0    0  501  0.00000000000E+00  0.00000000000E+00 -0.82351969451E+03  0.82351969451E+03  0.25500000920E-02 0.  1.
    10030    2    1    2    0    0  0.00000000000E+00  0.00000000000E+00  0.62716385588E+03  0.22742032449E+04  0.21860159874E+04 0.  0.
        4    1    3    3  502    0  0.15084187443E+03 -0.75526177013E+03 -0.49326397417E+03  0.91459530592E+03  0.12699999809E+01 0.  1.
       -4    1    3    3    0  502 -0.15084187443E+03  0.75526177013E+03  0.11204278300E+04  0.13596079390E+04  0.12699999809E+01 0. -1.
</event>
<event>
 5   0  0.1782660E-06  0.3555033E+04  0.7818609E-02  0.8100870E-01
       -2   -1    0    0    0  501  0.00000000000E+00  0.00000000000E+00  0.13301655226E+04  0.13301655226E+04  0.25500000920E-02 0.  1.
        2   -1    0    0  501    0  0.00000000000E+00  0.00000000000E+00 -0.23753177542E+04  0.23753177542E+04  0.25500000920E-02 0. -1.
    10030    2    1    2    0    0  0.00000000000E+00  0.00000000000E+00 -0.10451522316E+04  0.37054832768E+04  0.35550334917E+04 0.  0.
        4    1    3    3  502    0 -0.86908670826E+02 -0.17753736244E+04 -0.53061925901E+03  0.18550102518E+04  0.12699999809E+01 0.  1.
       -4    1    3    3    0  502  0.86908670826E+02  0.17753736244E+04 -0.51453297258E+03  0.18504730250E+04  0.12699999809E+01 0. -1.
</event>
<event>
 5   0  0.3378848E-06  0.3071171E+04  0.7818609E-02  0.8223695E-01
       -2   -1    0    0    0  501  0.00000000000E+00  0.00000000000E+00  0.15545916232E+04  0.15545916232E+04  0.25500000920E-02 0.  1.
        2   -1    0    0  501    0  0.00000000000E+00  0.00000000000E+00 -0.15168114461E+04  0.15168114461E+04  0.25500000920E-02 0. -1.
    10030    2    1    2    0    0  0.00000000000E+00  0.00000000000E+00  0.37780177167E+02  0.30714030693E+04  0.30711707006E+04 0.  0.
        1    1    3    3  502    0 -0.11210741850E+04  0.30747454321E+03  0.10222976744E+04  0.15480440750E+04  0.50400001928E-02 0.  1.
       -1    1    3    3    0  502  0.11210741850E+04 -0.30747454321E+03 -0.98451749726E+03  0.15233589943E+04  0.50400001928E-02 0. -1.
</event>
<event>
 5   0  0.1130707E-06  0.3460980E+04  0.7818609E-02  0.8123100E-01
        1   -1    0    0  501    0  0.00000000000E+00  0.00000000000E+00  0.15467404128E+04  0.15467404128E+04  0.50400001928E-02 0. -1.
       -1   -1    0    0    0  501  0.00000000000E+00  0.00000000000E+00 -0.19360689658E+04  0.19360689658E+04  0.50400001928E-02 0.  1.
    10030    2    1    2    0    0  0.00000000000E+00  0.00000000000E+00 -0.38932855305E+03  0.34828093786E+04  0.34609802723E+04 0.  0.
        3    1    3    3  502    0  0.14581778939E+04 -0.79862412038E+03  0.28848145502E+03  0.16873958682E+04  0.10100000352E+00 0. -1.
       -3    1    3    3    0  502 -0.14581778939E+04  0.79862412038E+03 -0.67781000807E+03  0.17954135104E+04  0.10100000352E+00 0.  1.
</event>
<event>
 5   0  0.1908726E-06  0.3283321E+04  0.7818609E-02  0.8167152E-01
        2   -1    0    0  501    0  0.00000000000E+00  0.00000000000E+00  0.21738102130E+04  0.21738102130E+04  0.25500000920E-02 0. -1.
       -2   -1    0    0    0  501  0.00000000000E+00  0.00000000000E+00 -0.12397813071E+04  0.12397813071E+04  0.25500000920E-02 0.  1.
    10030    2    1    2    0    0  0.00000000000E+00  0.00000000000E+00  0.93402890589E+03  0.34135915202E+04  0.32833210427E+04 0.  0.
        5    1    3    3  502    0 -0.12909183431E+04 -0.29613927162E+03 -0.54144947115E+03  0.14308592721E+04  0.46999998093E+01 0.  1.
       -5    1    3    3    0  502  0.12909183431E+04  0.29613927162E+03  0.14754783770E+04  0.19827322481E+04  0.46999998093E+01 0. -1.
</event>
<event>
 5   0  0.1125196E-06  0.3076898E+04  0.7818609E-02  0.8222107E-01
        1   -1    0    0  501    0  0.00000000000E+00  0.00000000000E+00  0.27927674777E+04  0.27927674777E+04  0.50400001928E-02 0.  1.
       -1   -1    0    0    0  501  0.00000000000E+00  0.00000000000E+00 -0.84748406656E+03  0.84748406657E+03  0.50400001928E-02 0. -1.
    10030    2    1    2    0    0  0.00000000000E+00  0.00000000000E+00  0.19452834112E+04  0.36402515443E+04  0.30768983987E+04 0.  0.
        4    1    3    3  502    0 -0.18286057423E+03  0.14108992451E+04  0.16652804054E+04  0.21902591424E+04  0.12699999809E+01 0. -1.
       -4    1    3    3    0  502  0.18286057423E+03 -0.14108992451E+04  0.28000300572E+03  0.14499924019E+04  0.12699999809E+01 0.  1.
</event>
<event>
 5   0  0.3041329E-06  0.3488708E+04  0.7818609E-02  0.8116471E-01
        2   -1    0    0  501    0  0.00000000000E+00  0.00000000000E+00  0.13024506161E+04  0.13024506161E+04  0.25500000920E-02 0. -1.
       -2   -1    0    0    0  501  0.00000000000E+00  0.00000000000E+00 -0.23361886300E+04  0.23361886300E+04  0.25500000920E-02 0.  1.
    10030    2    1    2    0    0  0.00000000000E+00  0.00000000000E+00 -0.10337380139E+04  0.36386392461E+04  0.34887076807E+04 0.  0.
        2    1    3    3  502    0  0.30195351705E+03  0.35198920834E+03 -0.22707128793E+04  0.23175869584E+04  0.25500000920E-02 0.  1.
       -2    1    3    3    0  502 -0.30195351705E+03 -0.35198920834E+03  0.12369748654E+04  0.13210522877E+04  0.25500000920E-02 0. -1.
</event>
<event>
 5   0  0.1782660E-06  0.3412237E+04  0.7818609E-02  0.8134909E-01
        2   -1    0    0  501    0  0.00000000000E+00  0.00000000000E+00  0.12975601945E+04  0.12975601945E+04  0.25500000920E-02 0.  1.
       -2   -1    0    0    0  501  0.00000000000E+00  0.00000000000E+00 -0.22433185856E+04  0.22433185856E+04  0.25500000920E-02 0. -1.
    10030    2    1    2    0    0  0.00000000000E+00  0.00000000000E+00 -0.94575839112E+03  0.35408787801E+04  0.34122373307E+04 0.  0.
        4    1    3    3  502    0  0.10346840928E+04  0.69399404492E+03 -0.16824299271E+04  0.20935068614E+04  0.12699999809E+01 0. -1.
       -4    1    3    3    0  502 -0.10346840928E+04 -0.69399404492E+03  0.73667153596E+03  0.14473719187E+04  0.12699999809E+01 0.  1.
</event>
<event>
 5   0  0.1908726E-06  0.3533843E+04  0.7818609E-02  0.8105816E-01
        2   -1    0    0  501    0  0.00000000000E+00  0.00000000000E+00  0.17663077337E+04  0.17663077337E+04  0.25500000920E-02 0.  1.
       -2   -1    0    0    0  501  0.00000000000E+00  0.00000000000E+00 -0.17675356366E+04  0.17675356366E+04  0.25500000920E-02 0. -1.
    10030    2    1    2    0    0  0.00000000000E+00  0.00000000000E+00 -0.12279028656E+01  0.35338433703E+04  0.35338431570E+04 0.  0.
        5    1    3    3  502    0  0.16614594108E+04 -0.16222647918E+03 -0.57960014358E+03  0.17671228652E+04  0.46999998093E+01 0. -1.
       -5    1    3    3    0  502 -0.16614594108E+04  0.16222647918E+03  0.57837224072E+03  0.17667205051E+04  0.46999998093E+01 0.  1.
</event>
<event>
 5   0  0.1130707E-06  0.3527612E+04  0.7818609E-02  0.8107277E-01
       -1   -1    0    0    0  501  0.00000000000E+00  0.00000000000E+00  0.15560288875E+04  0.15560288875E+04  0.50400001928E-02 0.  1.
        1   -1    0    0  501    0  0.00000000000E+00  0.00000000000E+00 -0.19993275653E+04  0.19993275653E+04  0.50400001928E-02 0. -1.
    10030    2    1    2    0    0  0.00000000000E+00  0.00000000000E+00 -0.44329867773E+03  0.35553564528E+04  0.35276119102E+04 0.  0.
        3    1    3    3  502    0 -0.16800999780E+02  0.14294345792E+04 -0.12629479637E+04  0.19075122697E+04  0.10100000352E+00 0. -1.
       -3    1    3    3    0  502  0.16800999780E+02 -0.14294345792E+04  0.81964928596E+03  0.16478441831E+04  0.10100000352E+00 0.  1.
</event>
<event>
 5   0  0.1110956E-06  0.3404717E+04  0.7818609E-02  0.8136750E-01
        1   -1    0    0  501    0  0.00000000000E+00  0.00000000000E+00  0.12314375038E+04  0.12314375038E+04  0.50400001928E-02 0.  1.
       -1   -1    0    0    0  501  0.00000000000E+00  0.00000000000E+00 -0.23533670834E+04  0.23533670834E+04  0.50400001928E-02 0. -1.
    10030    2    1    2    0    0  0.00000000000E+00  0.00000000000E+00 -0.11219295796E+04  0.35848045872E+04  0.34047170142E+04 0.  0.
        1    1    3    3  502    0  0.12882774318E+04 -0.35752897457E+03 -0.16705261634E+04  0.21396596392E+04  0.50400001928E-02 0. -1.
       -1    1    3    3    0  502 -0.12882774318E+04  0.35752897457E+03  0.54859658376E+03  0.14451449480E+04  0.50400001928E-02 0.  1.
</event>
<event>
 5   0  0.1102175E-06  0.3439687E+04  0.7818609E-02  0.8128234E-01
        1   -1    0    0  501    0  0.00000000000E+00  0.00000000000E+00  0.24506963955E+04  0.24506963955E+04  0.50400001928E-02 0. -1.
       -1   -1    0    0    0  501  0.00000000000E+00  0.00000000000E+00 -0.12069477501E+04  0.12069477501E+04  0.50400001928E-02 0.  1.
    10030    2    1    2    0    0  0.00000000000E+00  0.00000000000E+00  0.12437486455E+04  0.36576441456E+04  0.34396874862E+04 0.  0.
        5    1    3    3  502    0 -0.13782402073E+03 -0.47803834054E+03  0.23724991892E+04  0.24241061463E+04  0.46999998093E+01 0. -1.
       -5    1    3    3    0  502  0.13782402073E+03  0.47803834054E+03 -0.11287505437E+04  0.12335379993E+04  0.46999998093E+01 0.  1.
</event>
<event>
 5   0  0.1908726E-06  0.2976432E+04  0.7818609E-02  0.8250493E-01
       -2   -1    0    0    0  501  0.00000000000E+00  0.00000000000E+00  0.19044944123E+04  0.19044944123E+04  0.25500000920E-02 0.  1.
        2   -1    0    0  501    0  0.00000000000E+00  0.00000000000E+00 -0.11629262403E+04  0.11629262403E+04  0.25500000920E-02 0. -1.
    10030    2    1    2    0    0  0.00000000000E+00  0.00000000000E+00  0.74156817197E+03  0.30674206526E+04  0.29764317742E+04 0.  0.
        5    1    3    3  502    0  0.14366239358E+04 -0.36812806616E+03  0.49849921342E+03  0.15645862590E+04  0.46999998093E+01 0. -1.
       -5    1    3    3    0  502 -0.14366239358E+04  0.36812806616E+03  0.24306895855E+03  0.15028343936E+04  0.46999998093E+01 0.  1.
</event>
<event>
 5   0  0.1130707E-06  0.3412555E+04  0.7818609E-02  0.8134832E-01
        1   -1    0    0  501    0  0.00000000000E+00  0.00000000000E+00  0.16101524064E+04  0.16101524064E+04  0.50400001928E-02 0. -1.
       -1   -1    0    0    0  501  0.00000000000E+00  0.00000000000E+00 -0.18081416207E+04  0.18081416207E+04  0.50400001928E-02 0.  1.
    10030    2    1    2    0    0  0.00000000000E+00  0.00000000000E+00 -0.19798921432E+03  0.34182940271E+04  0.34125553954E+04 0.  0.
        3    1    3    3  502    0  0.16535845530E+04  0.39685580040E+03 -0.23904091602E+03  0.17172585623E+04  0.10100000352E+00 0. -1.
       -3    1    3    3    0  502 -0.16535845530E+04 -0.39685580040E+03  0.41051701701E+02  0.17010354648E+04  0.10100000352E+00 0.  1.
</event>
<event>
 5   0  0.1102175E-06  0.3404446E+04  0.7818609E-02  0.8136816E-01
        1   -1    0    0  501    0  0.00000000000E+00  0.00000000000E+00  0.19819782677E+04  0.19819782677E+04  0.50400001928E-02 0. -1.
       -1   -1    0    0    0  501  0.00000000000E+00  0.00000000000E+00 -0.14619552989E+04  0.14619552989E+04  0.50400001928E-02 0.  1.
    10030    2    1    2    0    0  0.00000000000E+00  0.00000000000E+00  0.52002296878E+03  0.34439335665E+04  0.34044462872E+04 0.  0.
        5    1    3    3  502    0 -0.10835596348E+04  0.82329716700E+03  0.12944283676E+04  0.18781604287E+04  0.46999998093E+01 0. -1.
       -5    1    3    3    0  502  0.10835596348E+04 -0.82329716700E+03 -0.77440539878E+03  0.15657731378E+04  0.46999998093E+01 0.  1.
</event>
<event>
 5   0  0.3041329E-06  0.3483901E+04  0.7818609E-02  0.8117616E-01
        2   -1    0    0  501    0  0.00000000000E+00  0.00000000000E+00  0.22591703888E+04  0.22591703888E+04  0.25500000920E-02 0. -1.
       -2   -1    0    0    0  501  0.00000000000E+00  0.00000000000E+00 -0.13431443000E+04  0.13431443000E+04  0.25500000920E-02 0.  1.
    10030    2    1    2    0    0  0.00000000000E+00  0.00000000000E+00  0.91602608877E+03  0.36023146888E+04  0.34839011642E+04 0.  0.
        2    1    3    3  502    0  0.15127426419E+04  0.10855466921E+03  0.13440017046E+04  0.20264537988E+04  0.25500000920E-02 0. -1.
       -2    1    3    3    0  502 -0.15127426419E+04 -0.10855466921E+03 -0.42797561588E+03  0.15758608900E+04  0.25500000920E-02 0.  1.
</event>
<event>
 5   0  0.2565004E-06  0.3543800E+04  0.7818609E-02  0.8103488E-01
        2   -1    0    0  501    0  0.00000000000E+00  0.00000000000E+00  0.24555398357E+04  0.24555398357E+04  0.25500000920E-02 0. -1.
       -2   -1    0    0    0  501  0.00000000000E+00  0.00000000000E+00 -0.12785904331E+04  0.12785904331E+04  0.25500000920E-02 0.  1.
    10030    2    1    2    0    0  0.00000000000E+00  0.00000000000E+00  0.11769494026E+04  0.37341302688E+04  0.35438000745E+04 0.  0.
        3    1    3    3  502    0 -0.12652275674E+04  0.12013739937E+04  0.91415307233E+03  0.19697147306E+04  0.10100000352E+00 0. -1.
       -3    1    3    3    0  502  0.12652275674E+04 -0.12013739937E+04  0.26279633030E+03  0.17644155382E+04  0.10100000352E+00 0.  1.
</event>
<event>
 5   0  0.3041329E-06  0.3436450E+04  0.7818609E-02  0.8129018E-01
       -2   -1    0    0    0  501  0.00000000000E+00  0.00000000000E+00  0.14668232129E+04  0.14668232129E+04  0.25500000920E-02 0. -1.
        2   -1    0    0  501    0  0.00000000000E+00  0.00000000000E+00 -0.20127147205E+04  0.20127147205E+04  0.25500000920E-02 0.  1.
    10030    2    1    2    0    0  0.00000000000E+00  0.00000000000E+00 -0.54589150764E+03  0.34795379335E+04  0.34364497221E+04 0.  0.
        2    1    3    3  502    0 -0.12355099328E+04 -0.52504995959E+03  0.81294436542E+03  0.15694077850E+04  0.25500000920E-02 0. -1.
       -2    1    3    3    0  502  0.12355099328E+04  0.52504995959E+03 -0.13588358731E+04  0.19101301485E+04  0.25500000920E-02 0.  1.
</event>
<event>
 5   0  0.1125196E-06  0.3255997E+04  0.7818609E-02  0.8174183E-01
        1   -1    0    0  501    0  0.00000000000E+00  0.00000000000E+00  0.23119309883E+04  0.23119309883E+04  0.50400001928E-02 0. -1.
       -1   -1    0    0    0  501  0.00000000000E+00  0.00000000000E+00 -0.11463921620E+04  0.11463921620E+04  0.50400001928E-02 0.  1.
    10030    2    1    2    0    0  0.00000000000E+00  0.00000000000E+00  0.11655388263E+04  0.34583231504E+04  0.32559972753E+04 0.  0.
        4    1    3    3  502    0  0.12398311762E+04 -0.76219670126E+03  0.13576602302E+04  0.19903185851E+04  0.12699999809E+01 0. -1.
       -4    1    3    3    0  502 -0.12398311762E+04  0.76219670126E+03 -0.19212140385E+03  0.14680045652E+04  0.12699999809E+01 0.  1.
</event>
<event>
 5   0  0.1110956E-06  0.3516584E+04  0.7818609E-02  0.8109871E-01
       -1   -1    0    0    0  501  0.00000000000E+00  0.00000000000E+00  0.16804298070E+04  0.16804298070E+04  0.50400001928E-02 0.  1.
        1   -1    0    0  501    0  0.00000000000E+00  0.00000000000E+00 -0.18397615206E+04  0.18397615206E+04  0.50400001928E-02 0. -1.
    10030    2    1    2    0    0  0.00000000000E+00  0.00000000000E+00 -0.15933171369E+03  0.35201913276E+04  0.35165836245E+04 0.  0.
        1    1    3    3  502    0  0.79564137330E+02 -0.73177084182E+03  0.15187725818E+04  0.16877467737E+04  0.50400001928E-02 0.  1.
       -1    1    3    3    0  502 -0.79564137330E+02  0.73177084182E+03 -0.16781042954E+04  0.18324445539E+04  0.50400001928E-02 0. -1.
</event>
<event>
 5   0  0.2565004E-06  0.3667808E+04  0.7818609E-02  0.8075134E-01
       -2   -1    0    0    0  501  0.00000000000E+00  0.00000000000E+00  0.13660341846E+04  0.13660341846E+04  0.25500000920E-02 0. -1.
        2   -1    0    0  501    0  0.00000000000E+00  0.00000000000E+00 -0.24620206020E+04  0.24620206020E+04  0.25500000920E-02 0.  1.
    10030    2    1    2    0    0  0.00000000000E+00  0.00000000000E+00 -0.10959864174E+04  0.38280547866E+04  0.36678082314E+04 0.  0.
        3    1    3    3  502    0  0.68609041865E+02  0.13480793038E+04  0.74768783667E+03  0.15430690591E+04  0.10100000352E+00 0. -1.
       -3    1    3    3    0  502 -0.68609041865E+02 -0.13480793038E+04 -0.18436742540E+04  0.22849857275E+04  0.10100000352E+00 0.  1.
</event>
<event>
 5   0  0.1110956E-06  0.1730592E+04  0.7818609E-02  0.8744106E-01
       -1   -1    0    0    0  501  0.00000000000E+00  0.00000000000E+00  0.46118256258E+03  0.46118256261E+03  0.50400001928E-02 0.  1.
        1   -1    0    0  501    0  0.00000000000E+00  0.00000000000E+00 -0.16235165467E+04  0.16235165467E+04  0.50400001928E-02 0. -1.
    10030    2    1    2    0    0  0.00000000000E+00  0.00000000000E+00 -0.11623339841E+04  0.20846991093E+04  0.17305924089E+04 0.  0.
        1    1    3    3  502    0  0.27826526632E+03  0.20479859960E+03 -0.15368180864E+04  0.15751774045E+04  0.50400001928E-02 0. -1.
       -1    1    3    3    0  502 -0.27826526632E+03 -0.20479859960E+03  0.37448410227E+03  0.50952170485E+03  0.50400001928E-02 0.  1.
</event>
<event>
 5   0  0.1908726E-06  0.2669567E+04  0.7818609E-02  0.8344947E-01
        2   -1    0    0  501    0  0.00000000000E+00  0.00000000000E+00  0.16594812251E+04  0.16594812251E+04  0.25500000920E-02 0.  1.
       -2   -1    0    0    0  501  0.00000000000E+00  0.00000000000E+00 -0.10736172285E+04  0.10736172285E+04  0.25500000920E-02 0. -1.
    10030    2    1    2    0    0  0.00000000000E+00  0.00000000000E+00  0.58586399662E+03  0.27330984537E+04  0.26695674809E+04 0.  0.
        5    1    3    3  502    0  0.90948297888E+03 -0.38871658998E+03  0.12105691898E+04  0.15632529320E+04  0.46999998093E+01 0.  1.
       -5    1    3    3    0  502 -0.90948297888E+03  0.38871658998E+03 -0.62470519315E+03  0.11698455217E+04  0.46999998093E+01 0. -1.
</event>
<event>
 5   0  0.2565004E-06  0.3348221E+04  0.7818609E-02  0.8150733E-01
       -2   -1    0    0    0  501  0.00000000000E+00  0.00000000000E+00  0.18579908001E+04  0.18579908001E+04  0.25500000920E-02 0. -1.
        2   -1    0    0  501    0  0.00000000000E+00  0.00000000000E+00 -0.15084283714E+04  0.15084283714E+04  0.25500000920E-02 0.  1.
    10030    2    1    2    0    0  0.00000000000E+00  0.00000000000E+00  0.34956242874E+03  0.33664191715E+04  0.33482210421E+04 0.  0.
        3    1    3    3  502    0 -0.92646044987E+03 -0.13146781412E+04  0.64199866579E+03  0.17317245385E+04  0.10100000352E+00 0. -1.
       -3    1    3    3    0  502  0.92646044987E+03  0.13146781412E+04 -0.29243623704E+03  0.16346946330E+04  0.10100000352E+00 0.  1.
</event>
<event>
 5   0  0.1089337E-06  0.3576458E+04  0.7818609E-02  0.8095906E-01
        1   -1    0    0  501    0  0.00000000000E+00  0.00000000000E+00  0.11237179756E+04  0.11237179756E+04  0.50400001928E-02 0. -1.
       -1   -1    0    0    0  501  0.00000000000E+00  0.00000000000E+00 -0.28456993087E+04  0.28456993087E+04  0.50400001928E-02 0.  1.
    10030    2    1    2    0    0  0.00000000000E+00  0.00000000000E+00 -0.17219813331E+04  0.39694172843E+04  0.35764582852E+04 0.  0.
        2    1    3    3  502    0 -0.14878622615E+03 -0.79085729064E+02 -0.28368688756E+04  0.28418685598E+04  0.25500000920E-02 0.  1.
       -2    1    3    3    0  502  0.14878622615E+03  0.79085729064E+02  0.11148875426E+04  0.11275487245E+04  0.25500000920E-02 0. -1.
</event>
<event>
 5   0  0.3378848E-06  0.3721015E+04  0.7818609E-02  0.8063321E-01
       -2   -1    0    0    0  501  0.00000000000E+00  0.00000000000E+00  0.13181408332E+04  0.13181408332E+04  0.25500000920E-02 0. -1.
        2   -1    0    0  501    0  0.00000000000E+00  0.00000000000E+00 -0.26260380850E+04  0.26260380850E+04  0.25500000920E-02 0.  1.
    10030    2    1    2    0    0  0.00000000000E+00  0.00000000000E+00 -0.13078972517E+04  0.39441789182E+04  0.37210149311E+04 0.  0.
        1    1    3    3  502    0 -0.72945004640E+03  0.16932425328E+04 -0.38933618642E+03  0.18843434695E+04  0.50400001928E-02 0.  1.
       -1    1    3    3    0  502  0.72945004640E+03 -0.16932425328E+04 -0.91856106532E+03  0.20598354487E+04  0.50400001928E-02 0. -1.
</event>
<event>
 5   0  0.1782660E-06  0.3440096E+04  0.7818609E-02  0.8128135E-01
        2   -1    0    0  501    0  0.00000000000E+00  0.00000000000E+00  0.95543050854E+03  0.95543050854E+03  0.25500000920E-02 0.  1.
       -2   -1    0    0    0  501  0.00000000000E+00  0.00000000000E+00 -0.30965786141E+04  0.30965786141E+04  0.25500000920E-02 0. -1.
    10030    2    1    2    0    0  0.00000000000E+00  0.00000000000E+00 -0.21411481055E+04  0.40520091226E+04  0.34400963242E+04 0.  0.
        4    1    3    3  502    0  0.14272099421E+04 -0.95902140290E+03 -0.11221025809E+04  0.20532330810E+04  0.12699999809E+01 0.  1.
       -4    1    3    3    0  502 -0.14272099421E+04  0.95902140290E+03 -0.10190455247E+04  0.19987760416E+04  0.12699999809E+01 0. -1.
</event>
<event>
 5   0  0.3378848E-06  0.3189581E+04  0.7818609E-02  0.8191574E-01
        2   -1    0    0  501    0  0.00000000000E+00  0.00000000000E+00  0.75630651576E+03  0.75630651576E+03  0.25500000920E-02 0.  1.
       -2   -1    0    0    0  501  0.00000000000E+00  0.00000000000E+00 -0.33628658404E+04  0.33628658404E+04  0.25500000920E-02 0. -1.
    10030    2    1    2    0    0  0.00000000000E+00  0.00000000000E+00 -0.26065593246E+04  0.41191723562E+04  0.31895813811E+04 0.  0.
        1    1    3    3  502    0  0.10595145543E+04 -0.40153254963E+03  0.14611060009E+03  0.11424306486E+04  0.50400001928E-02 0.  1.
       -1    1    3    3    0  502 -0.10595145543E+04  0.40153254963E+03 -0.27526699247E+04  0.29767417076E+04  0.50400001928E-02 0. -1.
</event>
<event>
 5   0  0.1908726E-06  0.3483304E+04  0.7818609E-02  0.8117758E-01
        2   -1    0    0  501    0  0.00000000000E+00  0.00000000000E+00  0.19045466049E+04  0.19045466049E+04  0.25500000920E-02 0.  1.
       -2   -1    0    0    0  501  0.00000000000E+00  0.00000000000E+00 -0.15926899206E+04  0.15926899206E+04  0.25500000920E-02 0. -1.
    10030    2    1    2    0    0  0.00000000000E+00  0.00000000000E+00  0.31185668429E+03  0.34972365256E+04  0.34833042825E+04 0.  0.
        5    1    3    3  502    0  0.11566491312E+04  0.95294034901E+03 -0.73497507927E+03  0.16691743404E+04  0.46999998093E+01 0. -1.
       -5    1    3    3    0  502 -0.11566491312E+04 -0.95294034901E+03  0.10468317636E+04  0.18280621851E+04  0.46999998093E+01 0.  1.
</event>
<event>
 5   0  0.1042825E-06  0.2431637E+04  0.7818609E-02  0.8427753E-01
       -3   -1    0    0    0  501  0.00000000000E+00  0.00000000000E+00  0.16123079124E+04  0.16123079155E+04  0.10100000352E+00 0.  1.
        3   -1    0    0  501    0  0.00000000000E+00  0.00000000000E+00 -0.91683147074E+03  0.91683147630E+03  0.10100000352E+00 0. -1.
    10030    2    1    2    0    0  0.00000000000E+00  0.00000000000E+00  0.69547644164E+03  0.25291393919E+04  0.24316370170E+04 0.  0.
        5    1    3    3  502    0 -0.27558267353E+03  0.14731898290E+03 -0.87434033830E+03  0.92851591793E+03  0.46999998093E+01 0. -1.
       -5    1    3    3    0  502  0.27558267353E+03 -0.14731898290E+03  0.15698167799E+04  0.16006234739E+04  0.46999998093E+01 0.  1.
</event>
<event>
 5   0  0.1782660E-06  0.3437583E+04  0.7818609E-02  0.8128743E-01
       -2   -1    0    0    0  501  0.00000000000E+00  0.00000000000E+00  0.12181904438E+04  0.12181904438E+04  0.25500000920E-02 0.  1.
        2   -1    0    0  501    0  0.00000000000E+00  0.00000000000E+00 -0.24251093580E+04  0.24251093580E+04  0.25500000920E-02 0. -1.
    10030    2    1    2    0    0  0.00000000000E+00  0.00000000000E+00 -0.12069189141E+04  0.36432998018E+04  0.34375834798E+04 0.  0.
        4    1    3    3  502    0 -0.44340474448E+03  0.14411377825E+04 -0.14779153162E+04  0.21113316107E+04  0.12699999809E+01 0. -1.
       -4    1    3    3    0  502  0.44340474448E+03 -0.14411377825E+04  0.27099640210E+03  0.15319681911E+04  0.12699999809E+01 0.  1.
</event>
<event>
 5   0  0.1110956E-06  0.3547364E+04  0.7818609E-02  0.8102656E-01
       -1   -1    0    0    0  501  0.00000000000E+00  0.00000000000E+00  0.18195560660E+04  0.18195560660E+04  0.50400001928E-02 0. -1.
        1   -1    0    0  501    0  0.00000000000E+00  0.00000000000E+00 -0.17289647359E+04  0.17289647359E+04  0.50400001928E-02 0.  1.
    10030    2    1    2    0    0  0.00000000000E+00  0.00000000000E+00  0.90591330121E+02  0.35485208019E+04  0.35473642458E+04 0.  0.
        1    1    3    3  502    0  0.31341964653E+03 -0.74706684964E+03 -0.15330677820E+04  0.17339658523E+04  0.50400001928E-02 0.  1.
       -1    1    3    3    0  502 -0.31341964653E+03  0.74706684964E+03  0.16236591121E+04  0.18145549496E+04  0.50400001928E-02 0. -1.
</event>
<event>
 5   0  0.1908726E-06  0.3545341E+04  0.7818609E-02  0.8103128E-01
        2   -1    0    0  501    0  0.00000000000E+00  0.00000000000E+00  0.22007173559E+04  0.22007173559E+04  0.25500000920E-02 0.  1.
       -2   -1    0    0    0  501  0.00000000000E+00  0.00000000000E+00 -0.14278804368E+04  0.14278804368E+04  0.25500000920E-02 0. -1.
    10030    2    1    2    0    0  0.00000000000E+00  0.00000000000E+00  0.77283691908E+03  0.36285977927E+04  0.35453413147E+04 0.  0.
        5    1    3    3  502    0  0.37855772141E+02 -0.54943143680E+03 -0.13380921220E+04  0.14470040015E+04  0.46999998093E+01 0. -1.
       -5    1    3    3    0  502 -0.37855772141E+02  0.54943143680E+03  0.21109290411E+04  0.21815937912E+04  0.46999998093E+01 0.  1.
</event>
<event>
 5   0  0.1130707E-06  0.3614626E+04  0.7818609E-02  0.8087150E-01
       -1   -1    0    0    0  501  0.00000000000E+00  0.00000000000E+00  0.22079327603E+04  0.22079327603E+04  0.50400001928E-02 0. -1.
        1   -1    0    0  501    0  0.00000000000E+00  0.00000000000E+00 -0.14793840318E+04  0.14793840318E+04  0.50400001928E-02 0.  1.
    10030    2    1    2    0    0  0.00000000000E+00  0.00000000000E+00  0.72854872845E+03  0.36873167921E+04  0.36146261045E+04 0.  0.
        3    1    3    3  502    0  0.92815511453E+03  0.57419725619E+02 -0.12166039763E+04  0.15313047335E+04  0.10100000352E+00 0.  1.
       -3    1    3    3    0  502 -0.92815511453E+03 -0.57419725619E+02  0.19451527048E+04  0.21560120586E+04  0.10100000352E+00 0. -1.
</event>
<event>
 5   0  0.1130707E-06  0.3438187E+04  0.7818609E-02  0.8128597E-01
        1   -1    0    0  501    0  0.00000000000E+00  0.00000000000E+00  0.13354543301E+04  0.13354543301E+04  0.50400001928E-02 0.  1.
       -1   -1    0    0    0  501  0.00000000000E+00  0.00000000000E+00 -0.22129413394E+04  0.22129413394E+04  0.50400001928E-02 0. -1.
    10030    2    1    2    0    0  0.00000000000E+00  0.00000000000E+00 -0.87748700922E+03  0.35483956695E+04  0.34381867861E+04 0.  0.
        3    1    3    3  502    0 -0.72593071367E+03  0.14161269101E+04  0.23240237320E+03  0.16082293679E+04  0.10100000352E+00 0. -1.
       -3    1    3    3    0  502  0.72593071367E+03 -0.14161269101E+04 -0.11098893824E+04  0.19401663016E+04  0.10100000352E+00 0.  1.
</event>
<event>
 5   0  0.1130707E-06  0.3389710E+04  0.7818609E-02  0.8140437E-01
        1   -1    0    0  501    0  0.00000000000E+00  0.00000000000E+00  0.24174771083E+04  0.24174771083E+04  0.50400001928E-02 0. -1.
       -1   -1    0    0    0  501  0.00000000000E+00  0.00000000000E+00 -0.11882357332E+04  0.11882357332E+04  0.50400001928E-02 0.  1.
    10030    2    1    2    0    0  0.00000000000E+00  0.00000000000E+00  0.12292413751E+04  0.36057128416E+04  0.33897095359E+04 0.  0.
        3    1    3    3  502    0  0.52751444916E+03 -0.12475919944E+04  0.16982489824E+04  0.21722814953E+04  0.10100000352E+00 0. -1.
       -3    1    3    3    0  502 -0.52751444916E+03  0.12475919944E+04 -0.46900760729E+03  0.14334313463E+04  0.10100000352E+00 0.  1.
</event>
<event>
 5   0  0.1102175E-06  0.3449807E+04  0.7818609E-02  0.8125789E-01
       -1   -1    0    0    0  501  0.00000000000E+00  0.00000000000E+00  0.10751876357E+04  0.10751876357E+04  0.50400001928E-02 0. -1.
        1   -1    0    0  501    0  0.00000000000E+00  0.00000000000E+00 -0.27672298032E+04  0.27672298032E+04  0.50400001928E-02 0.  1.
    10030    2    1    2    0    0  0.00000000000E+00  0.00000000000E+00 -0.16920421675E+04  0.38424174389E+04  0.34498065277E+04 0.  0.
        5    1    3    3  502    0  0.12034550521E+04  0.63869558286E+03  0.33221214209E+03  0.14023634006E+04  0.46999998093E+01 0. -1.
       -5    1    3    3    0  502 -0.12034550521E+04 -0.63869558286E+03 -0.20242543096E+04  0.24400540383E+04  0.46999998093E+01 0.  1.
</event>
<event>
 5   0  0.1908726E-06  0.3417158E+04  0.7818609E-02  0.8133708E-01
        2   -1    0    0  501    0  0.00000000000E+00  0.00000000000E+00  0.16975440178E+04  0.16975440178E+04  0.25500000920E-02 0.  1.
       -2   -1    0    0    0  501  0.00000000000E+00  0.00000000000E+00 -0.17196853217E+04  0.17196853217E+04  0.25500000920E-02 0. -1.
    10030    2    1    2    0    0  0.00000000000E+00  0.00000000000E+00 -0.22141303820E+02  0.34172293395E+04  0.34171576085E+04 0.  0.
        5    1    3    3  502    0 -0.21370039468E+03  0.12364007545E+04  0.11486367327E+04  0.17011005608E+04  0.46999998093E+01 0.  1.
       -5    1    3    3    0  502  0.21370039468E+03 -0.12364007545E+04 -0.11707780365E+04  0.17161287787E+04  0.46999998093E+01 0. -1.
</event>
<event>
 5   0  0.1125196E-06  0.3559816E+04  0.7818609E-02  0.8099759E-01
        1   -1    0    0  501    0  0.00000000000E+00  0.00000000000E+00  0.15628602233E+04  0.15628602233E+04  0.50400001928E-02 0.  1.
       -1   -1    0    0    0  501  0.00000000000E+00  0.00000000000E+00 -0.20270993004E+04  0.20270993004E+04  0.50400001928E-02 0. -1.
    10030    2    1    2    0    0  0.00000000000E+00  0.00000000000E+00 -0.46423907709E+03  0.35899595237E+04  0.35598162117E+04 0.  0.
        4    1    3    3  502    0  0.59802600679E+03  0.16162060357E+04 -0.68121522045E+03  0.18530550030E+04  0.12699999809E+01 0. -1.
       -4    1    3    3    0  502 -0.59802600679E+03 -0.16162060357E+04  0.21697614336E+03  0.17369045208E+04  0.12699999809E+01 0.  1.
</event>
<event>
 5   0  0.1256388E-06  0.2003275E+04  0.7818609E-02  0.8605091E-01
       -1   -1    0    0    0  501  0.00000000000E+00  0.00000000000E+00  0.89137467372E+03  0.89137467373E+03  0.50400001928E-02 0.  1.
        1   -1    0    0  501    0  0.00000000000E+00  0.00000000000E+00 -0.11255400910E+04  0.11255400910E+04  0.50400001928E-02 0. -1.
    10030    2    1    2    0    0  0.00000000000E+00  0.00000000000E+00 -0.23416541731E+03  0.20169147648E+04  0.20032752496E+04 0.  0.
        1    1    3    3  502    0  0.21598250618E+03  0.90861158734E+03  0.24739656927E+03  0.96614104671E+03  0.50400001928E-02 0.  1.
       -1    1    3    3    0  502 -0.21598250618E+03 -0.90861158734E+03 -0.48156198658E+03  0.10507737181E+04  0.50400001928E-02 0. -1.
</event>
<event>
 5   0  0.2565004E-06  0.3448459E+04  0.7818609E-02  0.8126114E-01
       -2   -1    0    0    0  501  0.00000000000E+00  0.00000000000E+00  0.17827651984E+04  0.17827651984E+04  0.25500000920E-02 0. -1.
        2   -1    0    0  501    0  0.00000000000E+00  0.00000000000E+00 -0.16676155351E+04  0.16676155351E+04  0.25500000920E-02 0.  1.
    10030    2    1    2    0    0  0.00000000000E+00  0.00000000000E+00  0.11514966329E+03  0.34503807336E+04  0.34484587516E+04 0.  0.
        3    1    3    3  502    0 -0.59701527961E+02 -0.14092582130E+04  0.10497897440E+04  0.17583035858E+04  0.10100000352E+00 0.  1.
       -3    1    3    3    0  502  0.59701527961E+02  0.14092582130E+04 -0.93464008068E+03  0.16920771477E+04  0.10100000352E+00 0. -1.
</event>
<event>
 5   0  0.1125196E-06  0.3272834E+04  0.7818609E-02  0.8169842E-01
       -1   -1    0    0    0  501  0.00000000000E+00  0.00000000000E+00  0.97568295924E+03  0.97568295925E+03  0.50400001928E-02 0.  1.
        1   -1    0    0  501    0  0.00000000000E+00  0.00000000000E+00 -0.27446007328E+04  0.27446007328E+04  0.50400001928E-02 0. -1.
    10030    2    1    2    0    0  0.00000000000E+00  0.00000000000E+00 -0.17689177736E+04  0.37202836921E+04  0.32728337355E+04 0.  0.
        4    1    3    3  502    0  0.80280739248E+03  0.51399312354E+03 -0.23964070013E+04  0.25790418316E+04  0.12699999809E+01 0. -1.
       -4    1    3    3    0  502 -0.80280739248E+03 -0.51399312354E+03  0.62748922765E+03  0.11412418605E+04  0.12699999809E+01 0.  1.
</event>
<event>
 5   0  0.1110956E-06  0.2703766E+04  0.7818609E-02  0.8333784E-01
        1   -1    0    0  501    0  0.00000000000E+00  0.00000000000E+00  0.98959164636E+03  0.98959164637E+03  0.50400001928E-02 0. -1.
       -1   -1    0    0    0  501  0.00000000000E+00  0.00000000000E+00 -0.18468094957E+04  0.18468094957E+04  0.50400001928E-02 0.  1.
    10030    2    1    2    0    0  0.00000000000E+00  0.00000000000E+00 -0.85721784932E+03  0.28364011421E+04  0.27037657068E+04 0.  0.
        1    1    3    3  502    0 -0.63827588620E+03  0.10504870259E+04 -0.10189469920E+04  0.15966126866E+04  0.50400001928E-02 0.  1.
       -1    1    3    3    0  502  0.63827588620E+03 -0.10504870259E+04  0.16172914269E+03  0.12397884554E+04  0.50400001928E-02 0. -1.
</event>
<event>
 5   0  0.1089337E-06  0.3361220E+04  0.7818609E-02  0.8147490E-01
        1   -1    0    0  501    0  0.00000000000E+00  0.00000000000E+00  0.22714035627E+04  0.22714035627E+04  0.50400001928E-02 0. -1.
       -1   -1    0    0    0  501  0.00000000000E+00  0.00000000000E+00 -0.12434818792E+04  0.12434818792E+04  0.50400001928E-02 0.  1.
    10030    2    1    2    0    0  0.00000000000E+00  0.00000000000E+00  0.10279216834E+04  0.35148854419E+04  0.33612195231E+04 0.  0.
        2    1    3    3  502    0  0.80570443348E+03  0.13221115371E+04 -0.16961411056E+03  0.15575325027E+04  0.25500000920E-02 0.  1.
       -2    1    3    3    0  502 -0.80570443348E+03 -0.13221115371E+04  0.11975357940E+04  0.19573529392E+04  0.25500000920E-02 0. -1.
</event>
<event>
 5   0  0.1908726E-06  0.3460459E+04  0.7818609E-02  0.8123225E-01
        2   -1    0    0  501    0  0.00000000000E+00  0.00000000000E+00  0.24180937156E+04  0.24180937156E+04  0.25500000920E-02 0.  1.
       -2   -1    0    0    0  501  0.00000000000E+00  0.00000000000E+00 -0.12380390420E+04  0.12380390420E+04  0.25500000920E-02 0. -1.
    10030    2    1    2    0    0  0.00000000000E+00  0.00000000000E+00  0.11800546736E+04  0.36561327576E+04  0.34604591760E+04 0.  0.
        5    1    3    3  502    0  0.25596060779E+03  0.17081546601E+04  0.69758845622E+03  0.18627828429E+04  0.46999998093E+01 0.  1.
       -5    1    3    3    0  502 -0.25596060779E+03 -0.17081546601E+04  0.48246621736E+03  0.17933499147E+04  0.46999998093E+01 0. -1.
</event>
<event>
 5   0  0.3041329E-06  0.3538505E+04  0.7818609E-02  0.8104725E-01
       -2   -1    0    0    0  501  0.00000000000E+00  0.00000000000E+00  0.13528743307E+04  0.13528743307E+04  0.25500000920E-02 0.  1.
        2   -1    0    0  501    0  0.00000000000E+00  0.00000000000E+00 -0.23137811802E+04  0.23137811802E+04  0.25500000920E-02 0. -1.
    10030    2    1    2    0    0  0.00000000000E+00  0.00000000000E+00 -0.96090684941E+03  0.36666555109E+04  0.35385054278E+04 0.  0.
        2    1    3    3  502    0 -0.32212235342E+03 -0.15706185652E+04  0.29473695071E+03  0.16301764806E+04  0.25500000920E-02 0. -1.
       -2    1    3    3    0  502  0.32212235342E+03  0.15706185652E+04 -0.12556438001E+04  0.20364790303E+04  0.25500000920E-02 0.  1.
</event>
<event>
 5   0  0.3378848E-06  0.3526447E+04  0.7818609E-02  0.8107551E-01
        2   -1    0    0  501    0  0.00000000000E+00  0.00000000000E+00  0.21934949798E+04  0.21934949798E+04  0.25500000920E-02 0. -1.
       -2   -1    0    0    0  501  0.00000000000E+00  0.00000000000E+00 -0.14173532398E+04  0.14173532398E+04  0.25500000920E-02 0.  1.
    10030    2    1    2    0    0  0.00000000000E+00  0.00000000000E+00  0.77614173997E+03  0.36108482196E+04  0.35264470596E+04 0.  0.
        1    1    3    3  502    0  0.23971855882E+03 -0.28409029677E+03 -0.13767777969E+04  0.14260748179E+04  0.50400001928E-02 0.  1.
       -1    1    3    3    0  502 -0.23971855882E+03  0.28409029677E+03  0.21529195369E+04  0.21847734016E+04  0.50400001928E-02 0. -1.
</event>
<event>
 5   0  0.1782660E-06  0.1728546E+04  0.7818609E-02  0.8745249E-01
        2   -1    0    0  501    0  0.00000000000E+00  0.00000000000E+00  0.18183513155E+04  0.18183513155E+04  0.25500000920E-02 0. -1.
       -2   -1    0    0    0  501  0.00000000000E+00  0.00000000000E+00 -0.41079394159E+03  0.41079394160E+03  0.25500000920E-02 0.  1.
    10030    2    1    2    0    0  0.00000000000E+00  0.00000000000E+00  0.14075573739E+04  0.22291452571E+04  0.17285458676E+04 0.  0.
        4    1    3    3  502    0 -0.62565353988E+03  0.56374084379E+03  0.45331584470E+03  0.95642195650E+03  0.12699999809E+01 0.  1.
       -4    1    3    3    0  502  0.62565353988E+03 -0.56374084379E+03  0.95424152916E+03  0.12727233006E+04  0.12699999809E+01 0. -1.
</event>
<event>
 5   0  0.1110956E-06  0.3543040E+04  0.7818609E-02  0.8103665E-01
       -1   -1    0    0    0  501  0.00000000000E+00  0.00000000000E+00  0.17395029110E+04  0.17395029110E+04  0.50400001928E-02 0.  1.
        1   -1    0    0  501    0  0.00000000000E+00  0.00000000000E+00 -0.18041265223E+04  0.18041265224E+04  0.50400001928E-02 0. -1.
    10030    2    1    2    0    0  0.00000000000E+00  0.00000000000E+00 -0.64623611367E+02  0.35436294333E+04  0.35430401281E+04 0.  0.
        1    1    3    3  502    0  0.10795466767E+04  0.13433334055E+04  0.37802180025E+03  0.17643316432E+04  0.50400001928E-02 0. -1.
       -1    1    3    3    0  502 -0.10795466767E+04 -0.13433334055E+04 -0.44264541161E+03  0.17792977902E+04  0.50400001928E-02 0.  1.
</event>
<event>
 5   0  0.1782660E-06  0.3475939E+04  0.7818609E-02  0.8119516E-01
       -2   -1    0    0    0  501  0.00000000000E+00  0.00000000000E+00  0.12999890993E+04  0.12999890993E+04  0.25500000920E-02 0. -1.
        2   -1    0    0  501    0  0.00000000000E+00  0.00000000000E+00 -0.23235104802E+04  0.23235104802E+04  0.25500000920E-02 0.  1.
    10030    2    1    2    0    0  0.00000000000E+00  0.00000000000E+00 -0.10235213809E+04  0.36234995795E+04  0.34759391804E+04 0.  0.
        4    1    3    3  502    0 -0.12891678071E+04 -0.61348616052E+03  0.52138113078E+03  0.15199206560E+04  0.12699999809E+01 0. -1.
       -4    1    3    3    0  502  0.12891678071E+04  0.61348616052E+03 -0.15449025117E+04  0.21035789236E+04  0.12699999809E+01 0.  1.
</event>
<event>
 5   0  0.2565004E-06  0.2192557E+04  0.7818609E-02  0.8521532E-01
        2   -1    0    0  501    0  0.00000000000E+00  0.00000000000E+00  0.11801400515E+04  0.11801400515E+04  0.25500000920E-02 0.  1.
       -2   -1    0    0    0  501  0.00000000000E+00  0.00000000000E+00 -0.10183764468E+04  0.10183764468E+04  0.25500000920E-02 0. -1.
    10030    2    1    2    0    0  0.00000000000E+00  0.00000000000E+00  0.16176360478E+03  0.21985164983E+04  0.21925572580E+04 0.  0.
        3    1    3    3  502    0  0.27220644769E+03 -0.49049317250E+02 -0.98281462068E+03  0.10209930335E+04  0.10100000352E+00 0. -1.
       -3    1    3    3    0  502 -0.27220644769E+03  0.49049317250E+02  0.11445782255E+04  0.11775234648E+04  0.10100000352E+00 0.  1.
</event>
<event>
 5   0  0.1908726E-06  0.3435938E+04  0.7818609E-02  0.8129142E-01
       -2   -1    0    0    0  501  0.00000000000E+00  0.00000000000E+00  0.15212566523E+04  0.15212566523E+04  0.25500000920E-02 0. -1.
        2   -1    0    0  501    0  0.00000000000E+00  0.00000000000E+00 -0.19401183237E+04  0.19401183237E+04  0.25500000920E-02 0.  1.
    10030    2    1    2    0    0  0.00000000000E+00  0.00000000000E+00 -0.41886167146E+03  0.34613749760E+04  0.34359382452E+04 0.  0.
        5    1    3    3  502    0 -0.19592481588E+03 -0.94379539132E+03  0.12231586082E+04  0.15573295557E+04  0.46999998093E+01 0. -1.
       -5    1    3    3    0  502  0.19592481588E+03  0.94379539132E+03 -0.16420202796E+04  0.19040454204E+04  0.46999998093E+01 0.  1.
</event>
<event>
 5   0  0.1042825E-06  0.3535700E+04  0.7818609E-02  0.8105381E-01
        3   -1    0    0  501    0  0.00000000000E+00  0.00000000000E+00  0.19488177137E+04  0.19488177163E+04  0.10100000352E+00 0. -1.
       -3   -1    0    0    0  501  0.00000000000E+00  0.00000000000E+00 -0.16036873884E+04  0.16036873916E+04  0.10100000352E+00 0.  1.
    10030    2    1    2    0    0  0.00000000000E+00  0.00000000000E+00  0.34513032529E+03  0.35525051079E+04  0.35357004398E+04 0.  0.
        2    1    3    3  502    0 -0.12504418141E+04  0.12257950334E+04 -0.71728682052E+02  0.17525191006E+04  0.25500000920E-02 0.  1.
       -2    1    3    3    0  502  0.12504418141E+04 -0.12257950334E+04  0.41685900734E+03  0.17999860072E+04  0.25500000920E-02 0. -1.
</event>
<event>
 5   0  0.1102175E-06  0.1821292E+04  0.7818609E-02  0.8695058E-01
        1   -1    0    0  501    0  0.00000000000E+00  0.00000000000E+00  0.18191051467E+04  0.18191051467E+04  0.50400001928E-02 0.  1.
       -1   -1    0    0    0  501  0.00000000000E+00  0.00000000000E+00 -0.45587014240E+03  0.45587014243E+03  0.50400001928E-02 0. -1.
    10030    2    1    2    0    0  0.00000000000E+00  0.00000000000E+00  0.13632350043E+04  0.22749752891E+04  0.18212915443E+04 0.  0.
        5    1    3    3  502    0  0.74539745666E+03 -0.30563296264E+03  0.15133849366E+03  0.81972819027E+03  0.46999998093E+01 0. -1.
       -5    1    3    3    0  502 -0.74539745666E+03  0.30563296264E+03  0.12118965106E+04  0.14552470988E+04  0.46999998093E+01 0.  1.
</event>
<event>
 5   0  0.1042825E-06  0.2259448E+04  0.7818609E-02  0.8494084E-01
        3   -1    0    0  501    0  0.00000000000E+00  0.00000000000E+00  0.64632795571E+03  0.64632796360E+03  0.10100000352E+00 0. -1.
       -3   -1    0    0    0  501  0.00000000000E+00  0.00000000000E+00 -0.19746582405E+04  0.19746582431E+04  0.10100000352E+00 0.  1.
    10030    2    1    2    0    0  0.00000000000E+00  0.00000000000E+00 -0.13283302848E+04  0.26209862067E+04  0.22594484615E+04 0.  0.
        3    1    3    3  502    0 -0.53556912254E+03  0.61601207569E+03 -0.15701420468E+04  0.17696472021E+04  0.10100000352E+00 0. -1.
       -3    1    3    3    0  502  0.53556912254E+03 -0.61601207569E+03  0.24181176198E+03  0.85133900466E+03  0.10100000352E+00 0.  1.
</event>
<event>
 5   0  0.1908726E-06  0.3559581E+04  0.7818609E-02  0.8099813E-01
       -2   -1    0    0    0  501  0.00000000000E+00  0.00000000000E+00  0.16059574205E+04  0.16059574205E+04  0.25500000920E-02 0. -1.
        2   -1    0    0  501    0  0.00000000000E+00  0.00000000000E+00 -0.19724398933E+04  0.19724398933E+04  0.25500000920E-02 0.  1.
    10030    2    1    2    0    0  0.00000000000E+00  0.00000000000E+00 -0.36648247275E+03  0.35783973138E+04  0.35595811456E+04 0.  0.
        5    1    3    3  502    0  0.10859033263E+04 -0.87326442969E+03 -0.12962775101E+04  0.19031905505E+04  0.46999998093E+01 0.  1.
       -5    1    3    3    0  502 -0.10859033263E+04  0.87326442969E+03  0.92979503733E+03  0.16752067633E+04  0.46999998093E+01 0. -1.
</event>
<event>
 5   0  0.1908726E-06  0.3435412E+04  0.7818609E-02  0.8129269E-01
       -2   -1    0    0    0  501  0.00000000000E+00  0.00000000000E+00  0.17014569218E+04  0.17014569218E+04  0.25500000920E-02 0.  1.
        2   -1    0    0  501    0  0.00000000000E+00  0.00000000000E+00 -0.17341104095E+04  0.17341104095E+04  0.25500000920E-02 0. -1.
    10030    2    1    2    0    0  0.00000000000E+00  0.00000000000E+00 -0.32653487678E+02  0.34355673313E+04  0.34354121496E+04 0.  0.
        5    1    3    3  502    0  0.14164169990E+04  0.97128536138E+03 -0.45648731489E+02  0.17180623577E+04  0.46999998093E+01 0. -1.
       -5    1    3    3    0  502 -0.14164169990E+04 -0.97128536138E+03  0.12995243811E+02  0.17175049737E+04  0.46999998093E+01 0.  1.
</event>
<event>
 5   0  0.1110956E-06  0.1721078E+04  0.7818609E-02  0.8749433E-01
       -1   -1    0    0    0  501  0.00000000000E+00  0.00000000000E+00  0.31359219361E+03  0.31359219365E+03  0.50400001928E-02 0. -1.
        1   -1    0    0  501    0  0.00000000000E+00  0.00000000000E+00 -0.23614334620E+04  0.23614334620E+04  0.50400001928E-02 0.  1.
    10030    2    1    2    0    0  0.00000000000E+00  0.00000000000E+00 -0.20478412684E+04  0.26750256556E+04  0.17210776850E+04 0.  0.
        1    1    3    3  502    0  0.29104718255E+03 -0.80403660273E+03 -0.11741617305E+04  0.14525285162E+04  0.50400001928E-02 0.  1.
       -1    1    3    3    0  502 -0.29104718255E+03  0.80403660273E+03 -0.87367953786E+03  0.12224971394E+04  0.50400001928E-02 0. -1.
</event>
<event>
 5   0  0.1908726E-06  0.3441076E+04  0.7818609E-02  0.8127898E-01
        2   -1    0    0  501    0  0.00000000000E+00  0.00000000000E+00  0.12144759440E+04  0.12144759440E+04  0.25500000920E-02 0.  1.
       -2   -1    0    0    0  501  0.00000000000E+00  0.00000000000E+00 -0.24374719108E+04  0.24374719108E+04  0.25500000920E-02 0. -1.
    10030    2    1    2    0    0  0.00000000000E+00  0.00000000000E+00 -0.12229959669E+04  0.36519478548E+04  0.34410759944E+04 0.  0.
        5    1    3    3  502    0  0.92150038931E+03 -0.71782915995E+03  0.72915937988E+03  0.13770029635E+04  0.46999998093E+01 0.  1.
       -5    1    3    3    0  502 -0.92150038931E+03  0.71782915995E+03 -0.19521553467E+04  0.22749448912E+04  0.46999998093E+01 0. -1.
</event>
<event>
 5   0  0.3041329E-06  0.3478404E+04  0.7818609E-02  0.8118927E-01
        2   -1    0    0  501    0  0.00000000000E+00  0.00000000000E+00  0.14018920223E+04  0.14018920223E+04  0.25500000920E-02 0. -1.
       -2   -1    0    0    0  501  0.00000000000E+00  0.00000000000E+00 -0.21576720462E+04  0.21576720462E+04  0.25500000920E-02 0.  1.
    10030    2    1    2    0    0  0.00000000000E+00  0.00000000000E+00 -0.75578002393E+03  0.35595640685E+04  0.34784037881E+04 0.  0.
        2    1    3    3  502    0  0.47592603342E+03 -0.50327243506E+03 -0.20104293517E+04  0.21264089238E+04  0.25500000920E-02 0.  1.
       -2    1    3    3    0  502 -0.47592603342E+03  0.50327243506E+03  0.12546493277E+04  0.14331551447E+04  0.25500000920E-02 0. -1.
</event>
<event>
 5   0  0.3041329E-06  0.3502721E+04  0.7818609E-02  0.8113145E-01
        2   -1    0    0  501    0  0.00000000000E+00  0.00000000000E+00  0.14949908187E+04  0.14949908187E+04  0.25500000920E-02 0. -1.
       -2   -1    0    0    0  501  0.00000000000E+00  0.00000000000E+00 -0.20516936456E+04  0.20516936456E+04  0.25500000920E-02 0.  1.
    10030    2    1    2    0    0  0.00000000000E+00  0.00000000000E+00 -0.55670282690E+03  0.35466844643E+04  0.35027207499E+04 0.  0.
        2    1    3    3  502    0 -0.48952377810E+03  0.75738631052E+03 -0.17985263587E+04  0.20119554208E+04  0.25500000920E-02 0.  1.
       -2    1    3    3    0  502  0.48952377810E+03 -0.75738631052E+03  0.12418235318E+04  0.15347290434E+04  0.25500000920E-02 0. -1.
</event>
<event>
 5   0  0.3378848E-06  0.2788690E+04  0.7818609E-02  0.8306788E-01
       -2   -1    0    0    0  501  0.00000000000E+00  0.00000000000E+00  0.99613806859E+03  0.99613806860E+03  0.25500000920E-02 0.  1.
        2   -1    0    0  501    0  0.00000000000E+00  0.00000000000E+00 -0.19517353857E+04  0.19517353857E+04  0.25500000920E-02 0. -1.
    10030    2    1    2    0    0  0.00000000000E+00  0.00000000000E+00 -0.95559731712E+03  0.29478734543E+04  0.27886899559E+04 0.  0.
        1    1    3    3  502    0 -0.12718884989E+03  0.13794252504E+04 -0.64562814261E+03  0.15283411672E+04  0.50400001928E-02 0. -1.
       -1    1    3    3    0  502  0.12718884989E+03 -0.13794252504E+04 -0.30996917451E+03  0.14195322871E+04  0.50400001928E-02 0.  1.
</event>
<event>
 5   0  0.1130707E-06  0.2753393E+04  0.7818609E-02  0.8317886E-01
       -1   -1    0    0    0  501  0.00000000000E+00  0.00000000000E+00  0.10273821406E+04  0.10273821406E+04  0.50400001928E-02 0.  1.
        1   -1    0    0  501    0  0.00000000000E+00  0.00000000000E+00 -0.18447792534E+04  0.18447792534E+04  0.50400001928E-02 0. -1.
    10030    2    1    2    0    0  0.00000000000E+00  0.00000000000E+00 -0.81739711280E+03  0.28721613940E+04  0.27533930038E+04 0.  0.
        3    1    3    3  502    0  0.77292828648E+03 -0.98519699269E+03  0.18804594277E+03  0.12662513721E+04  0.10100000352E+00 0.  1.
       -3    1    3    3    0  502 -0.77292828648E+03  0.98519699269E+03 -0.10054430556E+04  0.16059100220E+04  0.10100000352E+00 0. -1.
</event>
<event>
 5   0  0.1089337E-06  0.3182633E+04  0.7818609E-02  0.8193419E-01
        1   -1    0    0  501    0  0.00000000000E+00  0.00000000000E+00  0.20185085814E+04  0.20185085814E+04  0.50400001928E-02 0.  1.
       -1   -1    0    0    0  501  0.00000000000E+00  0.00000000000E+00 -0.12545344935E+04  0.12545344935E+04  0.50400001928E-02 0. -1.
    10030    2    1    2    0    0  0.00000000000E+00  0.00000000000E+00  0.76397408792E+03  0.32730430749E+04  0.31826332750E+04 0.  0.
        2    1    3    3  502    0  0.14799137140E+04  0.34747749473E+03 -0.10191481954E+03  0.15235720661E+04  0.25500000920E-02 0. -1.
       -2    1    3    3    0  502 -0.14799137140E+04 -0.34747749473E+03  0.86588890746E+03  0.17494710087E+04  0.25500000920E-02 0.  1.
</event>
<event>
 5   0  0.1908726E-06  0.2807428E+04  0.7818609E-02  0.8300966E-01
        2   -1    0    0  501    0  0.00000000000E+00  0.00000000000E+00  0.86834992879E+03  0.86834992879E+03  0.25500000920E-02 0.  1.
       -2   -1    0    0    0  501  0.00000000000E+00  0.00000000000E+00 -0.22691465724E+04  0.22691465724E+04  0.25500000920E-02 0. -1.
    10030    2    1    2    0    0  0.00000000000E+00  0.00000000000E+00 -0.14007966436E+04  0.31374965012E+04  0.28074281929E+04 0.  0.
        5    1    3    3  502    0 -0.22240167584E+03 -0.27225272989E+03 -0.22191450783E+04  0.22468224279E+04  0.46999998093E+01 0. -1.
       -5    1    3    3    0  502  0.22240167584E+03  0.27225272989E+03  0.81834843463E+03  0.89067407327E+03  0.46999998093E+01 0.  1.
</event>
<event>
 5   0  0.1130707E-06  0.3537590E+04  0.7818609E-02  0.8104939E-01
       -1   -1    0    0    0  501  0.00000000000E+00  0.00000000000E+00  0.12881728402E+04  0.12881728402E+04  0.50400001928E-02 0.  1.
        1   -1    0    0  501    0  0.00000000000E+00  0.00000000000E+00 -0.24287393712E+04  0.24287393712E+04  0.50400001928E-02 0. -1.
    10030    2    1    2    0    0  0.00000000000E+00  0.00000000000E+00 -0.11405665310E+04  0.37169122114E+04  0.35375901933E+04 0.  0.
        3    1    3    3  502    0  0.14522454158E+04  0.87940293477E+02  0.48663290340E+03  0.15341322746E+04  0.10100000352E+00 0.  1.
       -3    1    3    3    0  502 -0.14522454158E+04 -0.87940293477E+02 -0.16271994344E+04  0.21827799368E+04  0.10100000352E+00 0. -1.
</event>
<event>
 5   0  0.1908726E-06  0.3067175E+04  0.7818609E-02  0.8224805E-01
        2   -1    0    0  501    0  0.00000000000E+00  0.00000000000E+00  0.80960676687E+03  0.80960676687E+03  0.25500000920E-02 0.  1.
       -2   -1    0    0    0  501  0.00000000000E+00  0.00000000000E+00 -0.29049781252E+04  0.29049781252E+04  0.25500000920E-02 0. -1.
    10030    2    1    2    0    0  0.00000000000E+00  0.00000000000E+00 -0.20953713583E+04  0.37145848920E+04  0.30671745615E+04 0.  0.
        5    1    3    3  502    0  0.12009492303E+04  0.77829095176E+03 -0.38010640826E+03  0.14807156483E+04  0.46999998093E+01 0.  1.
       -5    1    3    3    0  502 -0.12009492303E+04 -0.77829095176E+03 -0.17152649500E+04  0.22338692438E+04  0.46999998093E+01 0. -1.
</event>
<event>
 5   0  0.3378848E-06  0.3464052E+04  0.7818609E-02  0.8122362E-01
        2   -1    0    0  501    0  0.00000000000E+00  0.00000000000E+00  0.27470111016E+04  0.27470111016E+04  0.25500000920E-02 0. -1.
       -2   -1    0    0    0  501  0.00000000000E+00  0.00000000000E+00 -0.10920646246E+04  0.10920646246E+04  0.25500000920E-02 0.  1.
    10030    2    1    2    0    0  0.00000000000E+00  0.00000000000E+00  0.16549464769E+04  0.38390757262E+04  0.34640517591E+04 0.  0.
        1    1    3    3  502    0  0.13203168357E+04  0.47066579574E+03 -0.30009833664E+03  0.14334649802E+04  0.50400001928E-02 0.  1.
       -1    1    3    3    0  502 -0.13203168357E+04 -0.47066579574E+03  0.19550448136E+04  0.24056107459E+04  0.50400001928E-02 0. -1.
</event>
<event>
 5   0  0.3041329E-06  0.3232446E+04  0.7818609E-02  0.8180300E-01
       -2   -1    0    0    0  501  0.00000000000E+00  0.00000000000E+00  0.11185591662E+04  0.11185591662E+04  0.25500000920E-02 0.  1.
        2   -1    0    0  501    0  0.00000000000E+00  0.00000000000E+00 -0.23353053969E+04  0.23353053969E+04  0.25500000920E-02 0. -1.
    10030    2    1    2    0    0  0.00000000000E+00  0.00000000000E+00 -0.12167462307E+04  0.34538645631E+04  0.32324462920E+04 0.  0.
        2    1    3    3  502    0 -0.69574462259E+03  0.48741761783E+01 -0.21670973195E+04  0.22760481387E+04  0.25500000920E-02 0. -1.
       -2    1    3    3    0  502  0.69574462259E+03 -0.48741761783E+01  0.95035108885E+03  0.11778164244E+04  0.25500000920E-02 0.  1.
</event>
<event>
 5   0  0.3041329E-06  0.3491729E+04  0.7818609E-02  0.8115753E-01
       -2   -1    0    0    0  501  0.00000000000E+00  0.00000000000E+00  0.13678927851E+04  0.13678927851E+04  0.25500000920E-02 0. -1.
        2   -1    0    0  501    0  0.00000000000E+00  0.00000000000E+00 -0.22282762741E+04  0.22282762741E+04  0.25500000920E-02 0.  1.
    10030    2    1    2    0    0  0.00000000000E+00  0.00000000000E+00 -0.86038348898E+03  0.35961690592E+04  0.34917291067E+04 0.  0.
        2    1    3    3  502    0  0.89780101594E+03 -0.34965930444E+03  0.10692870080E+04  0.14393342207E+04  0.25500000920E-02 0. -1.
       -2    1    3    3    0  502 -0.89780101594E+03  0.34965930444E+03 -0.19296704970E+04  0.21568348385E+04  0.25500000920E-02 0.  1.
</event>
<event>
 5   0  0.1102175E-06  0.3511344E+04  0.7818609E-02  0.8111107E-01
        1   -1    0    0  501    0  0.00000000000E+00  0.00000000000E+00  0.16370043848E+04  0.16370043848E+04  0.50400001928E-02 0. -1.
       -1   -1    0    0    0  501  0.00000000000E+00  0.00000000000E+00 -0.18829421593E+04  0.18829421593E+04  0.50400001928E-02 0.  1.
    10030    2    1    2    0    0  0.00000000000E+00  0.00000000000E+00 -0.24593777451E+03  0.35199465440E+04  0.35113442275E+04 0.  0.
        5    1    3    3  502    0  0.22793991975E+03 -0.12213935531E+04  0.11204745722E+04  0.16730941921E+04  0.46999998093E+01 0. -1.
       -5    1    3    3    0  502 -0.22793991975E+03  0.12213935531E+04 -0.13664123467E+04  0.18468523519E+04  0.46999998093E+01 0.  1.
</event>
<event>
 5   0  0.1908726E-06  0.3676859E+04  0.7818609E-02  0.8073110E-01
       -2   -1    0    0    0  501  0.00000000000E+00  0.00000000000E+00  0.13920836169E+04  0.13920836169E+04  0.25500000920E-02 0.  1.
        2   -1    0    0  501    0  0.00000000000E+00  0.00000000000E+00 -0.24278877007E+04  0.24278877007E+04  0.25500000920E-02 0. -1.
    10030    2    1    2    0    0  0.00000000000E+00  0.00000000000E+00 -0.10358040838E+04  0.38199713176E+04  0.36768588179E+04 0.  0.
        5    1    3    3  502    0  0.11362176939E+04  0.89124047327E+03  0.66414357656E+03  0.15894681530E+04  0.46999998093E+01 0. -1.
       -5    1    3    3    0  502 -0.11362176939E+04 -0.89124047327E+03 -0.16999476604E+04  0.22305031646E+04  0.46999998093E+01 0.  1.
</event>
<event>
 5   0  0.1130707E-06  0.2280109E+04  0.7818609E-02  0.8485805E-01
        1   -1    0    0  501    0  0.00000000000E+00  0.00000000000E+00  0.64140118542E+03  0.64140118544E+03  0.50400001928E-02 0.  1.
       -1   -1    0    0    0  501  0.00000000000E+00  0.00000000000E+00 -0.20263832469E+04  0.20263832469E+04  0.50400001928E-02 0. -1.
    10030    2    1    2    0    0  0.00000000000E+00  0.00000000000E+00 -0.13849820614E+04  0.26677844323E+04  0.22801093103E+04 0.  0.
        3    1    3    3  502    0 -0.47395568335E+03 -0.96092121473E+03 -0.11482318886E+04  0.15704903855E+04  0.10100000352E+00 0. -1.
       -3    1    3    3    0  502  0.47395568335E+03  0.96092121473E+03 -0.23675017288E+03  0.10972940469E+04  0.10100000352E+00 0.  1.
</event>
<event>
 5   0  0.1102175E-06  0.3503070E+04  0.7818609E-02  0.8113063E-01
        1   -1    0    0  501    0  0.00000000000E+00  0.00000000000E+00  0.17420533791E+04  0.17420533791E+04  0.50400001928E-02 0.  1.
       -1   -1    0    0    0  501  0.00000000000E+00  0.00000000000E+00 -0.17610680602E+04  0.17610680602E+04  0.50400001928E-02 0. -1.
    10030    2    1    2    0    0  0.00000000000E+00  0.00000000000E+00 -0.19014681119E+02  0.35031214392E+04  0.35030698337E+04 0.  0.
        5    1    3    3  502    0  0.16726090485E+04 -0.36014623962E+03 -0.38438101570E+03  0.17535955059E+04  0.46999998093E+01 0. -1.
       -5    1    3    3    0  502 -0.16726090485E+04  0.36014623962E+03  0.36536633458E+03  0.17495259334E+04  0.46999998093E+01 0.  1.
</event>
<event>
 5   0  0.1782660E-06  0.3476235E+04  0.7818609E-02  0.8119445E-01
        2   -1    0    0  501    0  0.00000000000E+00  0.00000000000E+00  0.24673782234E+04  0.24673782234E+04  0.25500000920E-02 0. -1.
       -2   -1    0    0    0  501  0.00000000000E+00  0.00000000000E+00 -0.12243977366E+04  0.12243977366E+04  0.25500000920E-02 0.  1.
    10030    2    1    2    0    0  0.00000000000E+00  0.00000000000E+00  0.12429804868E+04  0.36917759600E+04  0.34762349242E+04 0.  0.
        4    1    3    3  502    0 -0.13150628845E+04  0.11184818124E+04  0.40734757972E+03  0.17737884931E+04  0.12699999809E+01 0.  1.
       -4    1    3    3    0  502  0.13150628845E+04 -0.11184818124E+04  0.83563290707E+03  0.19179874669E+04  0.12699999809E+01 0. -1.
</event>
<event>
 5   0  0.3378848E-06  0.3478742E+04  0.7818609E-02  0.8118846E-01
        2   -1    0    0  501    0  0.00000000000E+00  0.00000000000E+00  0.14496099146E+04  0.14496099146E+04  0.25500000920E-02 0. -1.
       -2   -1    0    0    0  501  0.00000000000E+00  0.00000000000E+00 -0.20870523245E+04  0.20870523245E+04  0.25500000920E-02 0.  1.
    10030    2    1    2    0    0  0.00000000000E+00  0.00000000000E+00 -0.63744240993E+03  0.35366622392E+04  0.34787421531E+04 0.  0.
        1    1    3    3  502    0 -0.13612734156E+04  0.15752145770E+03 -0.14077867466E+04  0.19646225708E+04  0.50400001928E-02 0.  1.
       -1    1    3    3    0  502  0.13612734156E+04 -0.15752145770E+03  0.77034433668E+03  0.15720396684E+04  0.50400001928E-02 0. -1.
</event>
<event>
 5   0  0.1908726E-06  0.1829700E+04  0.7818609E-02  0.8690663E-01
        2   -1    0    0  501    0  0.00000000000E+00  0.00000000000E+00  0.11470684592E+04  0.11470684592E+04  0.25500000920E-02 0.  1.
       -2   -1    0    0    0  501  0.00000000000E+00  0.00000000000E+00 -0.72964326111E+03  0.72964326111E+03  0.25500000920E-02 0. -1.
    10030    2    1    2    0    0  0.00000000000E+00  0.00000000000E+00  0.41742519807E+03  0.18767117203E+04  0.18297002719E+04 0.  0.
        5    1    3    3  502    0 -0.68968203276E+03 -0.16016487874E+03  0.80291996018E+03  0.10705216706E+04  0.46999998093E+01 0.  1.
       -5    1    3    3    0  502  0.68968203276E+03  0.16016487874E+03 -0.38549476210E+03  0.80619004974E+03  0.46999998093E+01 0. -1.
</event>
<event>
 5   0  0.1102175E-06  0.3061303E+04  0.7818609E-02  0.8226439E-01
       -1   -1    0    0    0  501  0.00000000000E+00  0.00000000000E+00  0.25022852592E+04  0.25022852592E+04  0.50400001928E-02 0. -1.
        1   -1    0    0  501    0  0.00000000000E+00  0.00000000000E+00 -0.93630162139E+03  0.93630162140E+03  0.50400001928E-02 0.  1.
    10030    2    1    2    0    0  0.00000000000E+00  0.00000000000E+00  0.15659836378E+04  0.34385868806E+04  0.30613028242E+04 0.  0.
        5    1    3    3  502    0 -0.47404004856E+03 -0.37629526683E+02 -0.85121735117E+03  0.97505026427E+03  0.46999998093E+01 0.  1.
       -5    1    3    3    0  502  0.47404004856E+03  0.37629526683E+02  0.24172009890E+04  0.24635366163E+04  0.46999998093E+01 0. -1.
</event>
<event>
 5   0  0.3378848E-06  0.3417368E+04  0.7818609E-02  0.8133657E-01
       -2   -1    0    0    0  501  0.00000000000E+00  0.00000000000E+00  0.16134192671E+04  0.16134192671E+04  0.25500000920E-02 0. -1.
        2   -1    0    0  501    0  0.00000000000E+00  0.00000000000E+00 -0.18095739700E+04  0.18095739700E+04  0.25500000920E-02 0.  1.
    10030    2    1    2    0    0  0.00000000000E+00  0.00000000000E+00 -0.19615470284E+03  0.34229932371E+04  0.34173682906E+04 0.  0.
        1    1    3    3  502    0  0.11328939363E+04  0.70354081868E+03  0.97194273854E+03  0.16501790937E+04  0.50400001928E-02 0.  1.
       -1    1    3    3    0  502 -0.11328939363E+04 -0.70354081868E+03 -0.11680974414E+04  0.17728141434E+04  0.50400001928E-02 0. -1.
</event>
<event>
 5   0  0.3041329E-06  0.3557078E+04  0.7818609E-02  0.8100395E-01
        2   -1    0    0  501    0  0.00000000000E+00  0.00000000000E+00  0.15719522843E+04  0.15719522843E+04  0.25500000920E-02 0.  1.
       -2   -1    0    0    0  501  0.00000000000E+00  0.00000000000E+00 -0.20122759339E+04  0.20122759339E+04  0.25500000920E-02 0. -1.
    10030    2    1    2    0    0  0.00000000000E+00  0.00000000000E+00 -0.44032364964E+03  0.35842282181E+04  0.35570784365E+04 0.  0.
        2    1    3    3  502    0  0.48620320931E+03 -0.11029038292E+04 -0.15379709048E+04  0.19540074006E+04  0.25500000920E-02 0. -1.
       -2    1    3    3    0  502 -0.48620320931E+03  0.11029038292E+04  0.10976472552E+04  0.16302208176E+04  0.25500000920E-02 0.  1.
</event>
<event>
 5   0  0.2565004E-06  0.1920839E+04  0.7818609E-02  0.8644553E-01
        2   -1    0    0  501    0  0.00000000000E+00  0.00000000000E+00  0.11661396400E+04  0.11661396400E+04  0.25500000920E-02 0. -1.
       -2   -1    0    0    0  501  0.00000000000E+00  0.00000000000E+00 -0.79099060659E+03  0.79099060660E+03  0.25500000920E-02 0.  1.
    10030    2    1    2    0    0  0.00000000000E+00  0.00000000000E+00  0.37514903339E+03  0.19571302466E+04  0.19208388805E+04 0.  0.
        3    1    3    3  502    0 -0.22818883955E+03  0.86169808665E+03  0.55183678270E+03  0.10483880884E+04  0.10100000352E+00 0. -1.
       -3    1    3    3    0  502  0.22818883955E+03 -0.86169808665E+03 -0.17668774931E+03  0.90874215814E+03  0.10100000352E+00 0.  1.
</event>
<event>
 5   0  0.1110956E-06  0.2881809E+04  0.7818609E-02  0.8278310E-01
        1   -1    0    0  501    0  0.00000000000E+00  0.00000000000E+00  0.16963615622E+04  0.16963615623E+04  0.50400001928E-02 0.  1.
       -1   -1    0    0    0  501  0.00000000000E+00  0.00000000000E+00 -0.12239171813E+04  0.12239171813E+04  0.50400001928E-02 0. -1.
    10030    2    1    2    0    0  0.00000000000E+00  0.00000000000E+00  0.47244438096E+03  0.29202787435E+04  0.28818091968E+04 0.  0.
        1    1    3    3  502    0 -0.15219442219E+03 -0.52564376053E+03 -0.11145161095E+04  0.12416161498E+04  0.50400001928E-02 0. -1.
       -1    1    3    3    0  502  0.15219442219E+03  0.52564376053E+03  0.15869604905E+04  0.16786625937E+04  0.50400001928E-02 0.  1.
</event>
<event>
 5   0  0.1130707E-06  0.3483088E+04  0.7818609E-02  0.8117810E-01
        1   -1    0    0  501    0  0.00000000000E+00  0.00000000000E+00  0.22024813289E+04  0.22024813289E+04  0.50400001928E-02 0. -1.
       -1   -1    0    0    0  501  0.00000000000E+00  0.00000000000E+00 -0.13770718836E+04  0.13770718836E+04  0.50400001928E-02 0.  1.
    10030    2    1    2    0    0  0.00000000000E+00  0.00000000000E+00  0.82540944532E+03  0.35795532125E+04  0.34830877750E+04 0.  0.
        3    1    3    3  502    0  0.15624020961E+04 -0.76924931926E+03  0.42443472862E+03  0.17924814292E+04  0.10100000352E+00 0.  1.
       -3    1    3    3    0  502 -0.15624020961E+04  0.76924931926E+03  0.40097471670E+03  0.17870717833E+04  0.10100000352E+00 0. -1.
</event>
<event>
 5   0  0.1782660E-06  0.3599532E+04  0.7818609E-02  0.8090599E-01
       -2   -1    0    0    0  501  0.00000000000E+00  0.00000000000E+00  0.12198416041E+04  0.12198416041E+04  0.25500000920E-02 0.  1.
        2   -1    0    0  501    0  0.00000000000E+00  0.00000000000E+00 -0.26553921231E+04  0.26553921231E+04  0.25500000920E-02 0. -1.
    10030    2    1    2    0    0  0.00000000000E+00  0.00000000000E+00 -0.14355505190E+04  0.38752337271E+04  0.35995320734E+04 0.  0.
        4    1    3    3  502    0  0.17442858479E+04  0.44342196320E+03 -0.71791629054E+03  0.19376691074E+04  0.12699999809E+01 0.  1.
       -4    1    3    3    0  502 -0.17442858479E+04 -0.44342196320E+03 -0.71763422850E+03  0.19375646197E+04  0.12699999809E+01 0. -1.
</event>
<event>
 5   0  0.1908726E-06  0.2762207E+04  0.7818609E-02  0.8315099E-01
       -2   -1    0    0    0  501  0.00000000000E+00  0.00000000000E+00  0.12806681320E+04  0.12806681320E+04  0.25500000920E-02 0. -1.
        2   -1    0    0  501    0  0.00000000000E+00  0.00000000000E+00 -0.14894154349E+04  0.14894154349E+04  0.25500000920E-02 0.  1.
    10030    2    1    2    0    0  0.00000000000E+00  0.00000000000E+00 -0.20874730294E+03  0.27700835669E+04  0.27622070036E+04 0.  0.
        5    1    3    3  502    0 -0.16716657175E+03  0.13601917385E+04 -0.27620565679E+03  0.13979906591E+04  0.46999998093E+01 0.  1.
       -5    1    3    3    0  502  0.16716657175E+03 -0.13601917385E+04  0.67458353843E+02  0.13720929078E+04  0.46999998093E+01 0. -1.
</event>
<event>
 5   0  0.3041329E-06  0.2167723E+04  0.7818609E-02  0.8531984E-01
       -2   -1    0    0    0  501  0.00000000000E+00  0.00000000000E+00  0.84519400014E+03  0.84519400014E+03  0.25500000920E-02 0. -1.
        2   -1    0    0  501    0  0.00000000000E+00  0.00000000000E+00 -0.13899239302E+04  0.13899239302E+04  0.25500000920E-02 0.  1.
    10030    2    1    2    0    0  0.00000000000E+00  0.00000000000E+00 -0.54472993002E+03  0.22351179303E+04  0.21677226450E+04 0.  0.
        2    1    3    3  502    0 -0.49389110673E+03 -0.70811445662E+03 -0.94802492276E+03  0.12822268766E+04  0.25500000920E-02 0.  1.
       -2    1    3    3    0  502  0.49389110673E+03  0.70811445662E+03  0.40329499274E+03  0.95289105367E+03  0.25500000920E-02 0. -1.
</event>
<event>
 5   0  0.1089337E-06  0.3465085E+04  0.7818609E-02  0.8122115E-01
        1   -1    0    0  501    0  0.00000000000E+00  0.00000000000E+00  0.21445106187E+04  0.21445106187E+04  0.50400001928E-02 0.  1.
       -1   -1    0    0    0  501  0.00000000000E+00  0.00000000000E+00 -0.13997145363E+04  0.13997145363E+04  0.50400001928E-02 0. -1.
    10030    2    1    2    0    0  0.00000000000E+00  0.00000000000E+00  0.74479608246E+03  0.35442251550E+04  0.34650845220E+04 0.  0.
        2    1    3    3  502    0 -0.17176549612E+04 -0.19192444399E+03  0.49568787048E+03  0.17980211408E+04  0.25500000920E-02 0. -1.
       -2    1    3    3    0  502  0.17176549612E+04  0.19192444399E+03  0.24910821198E+03  0.17462040142E+04  0.25500000920E-02 0.  1.
</event>
<event>
 5   0  0.1782660E-06  0.3517575E+04  0.7818609E-02  0.8109638E-01
        2   -1    0    0  501    0  0.00000000000E+00  0.00000000000E+00  0.23506599005E+04  0.23506599005E+04  0.25500000920E-02 0.  1.
       -2   -1    0    0    0  501  0.00000000000E+00  0.00000000000E+00 -0.13159425406E+04  0.13159425406E+04  0.25500000920E-02 0. -1.
    10030    2    1    2    0    0  0.00000000000E+00  0.00000000000E+00  0.10347173599E+04  0.36666024411E+04  0.35175749383E+04 0.  0.
        4    1    3    3  502    0 -0.14715996999E+04  0.96076953751E+03  0.58842306773E+03  0.18533556325E+04  0.12699999809E+01 0.  1.
       -4    1    3    3    0  502  0.14715996999E+04 -0.96076953751E+03  0.44629429212E+03  0.18132468086E+04  0.12699999809E+01 0. -1.
</event>
<event>
 5   0  0.1908726E-06  0.2320037E+04  0.7818609E-02  0.8470062E-01
        2   -1    0    0  501    0  0.00000000000E+00  0.00000000000E+00  0.13207041736E+04  0.13207041736E+04  0.25500000920E-02 0.  1.
       -2   -1    0    0    0  501  0.00000000000E+00  0.00000000000E+00 -0.10188829429E+04  0.10188829429E+04  0.25500000920E-02 0. -1.
    10030    2    1    2    0    0  0.00000000000E+00  0.00000000000E+00  0.30182123068E+03  0.23395871165E+04  0.23200370300E+04 0.  0.
        5    1    3    3  502    0  0.11256375264E+04 -0.78343718892E+02  0.42229410168E+03  0.12048037091E+04  0.46999998093E+01 0.  1.
       -5    1    3    3    0  502 -0.11256375264E+04  0.78343718892E+02 -0.12047287099E+03  0.11347834074E+04  0.46999998093E+01 0. -1.
</event>
<event>
 5   0  0.2565004E-06  0.2963132E+04  0.7818609E-02  0.8254338E-01
        2   -1    0    0  501    0  0.00000000000E+00  0.00000000000E+00  0.21181971927E+04  0.21181971927E+04  0.25500000920E-02 0. -1.
       -2   -1    0    0    0  501  0.00000000000E+00  0.00000000000E+00 -0.10362765115E+04  0.10362765115E+04  0.25500000920E-02 0.  1.
    10030    2    1    2    0    0  0.00000000000E+00  0.00000000000E+00  0.10819206812E+04  0.31544737042E+04  0.29631321250E+04 0.  0.
        3    1    3    3  502    0 -0.87124497678E+03  0.49840377386E+03 -0.61916357605E+03  0.11793378123E+04  0.10100000352E+00 0.  1.
       -3    1    3    3    0  502  0.87124497678E+03 -0.49840377386E+03  0.17010842572E+04  0.19751358920E+04  0.10100000352E+00 0. -1.
</event>
<event>
 5   0  0.1908726E-06  0.1889047E+04  0.7818609E-02  0.8660328E-01
       -2   -1    0    0    0  501  0.00000000000E+00  0.00000000000E+00  0.61055562844E+03  0.61055562845E+03  0.25500000920E-02 0. -1.
        2   -1    0    0  501    0  0.00000000000E+00  0.00000000000E+00 -0.14611687417E+04  0.14611687417E+04  0.25500000920E-02 0.  1.
    10030    2    1    2    0    0  0.00000000000E+00  0.00000000000E+00 -0.85061311327E+03  0.20717243702E+04  0.18890471666E+04 0.  0.
        5    1    3    3  502    0  0.48370748570E+03 -0.75100459540E+03 -0.76176734556E+03  0.11740069901E+04  0.46999998093E+01 0.  1.
       -5    1    3    3    0  502 -0.48370748570E+03  0.75100459540E+03 -0.88845767710E+02  0.89771738007E+03  0.46999998093E+01 0. -1.
</event>
<event>
 5   0  0.1110956E-06  0.3381577E+04  0.7818609E-02  0.8142443E-01
        1   -1    0    0  501    0  0.00000000000E+00  0.00000000000E+00  0.18301399049E+04  0.18301399049E+04  0.50400001928E-02 0.  1.
       -1   -1    0    0    0  501  0.00000000000E+00  0.00000000000E+00 -0.15620474233E+04  0.15620474233E+04  0.50400001928E-02 0. -1.
    10030    2    1    2    0    0  0.00000000000E+00  0.00000000000E+00  0.26809248158E+03  0.33921873282E+04  0.33815767463E+04 0.  0.
        1    1    3    3  502    0 -0.13985576692E+03 -0.11352123636E+04  0.13831435278E+04  0.17948127380E+04  0.50400001928E-02 0.  1.
       -1    1    3    3    0  502  0.13985576692E+03  0.11352123636E+04 -0.11150510462E+04  0.15973745902E+04  0.50400001928E-02 0. -1.
</event>
<event>
 5   0  0.1782660E-06  0.3450277E+04  0.7818609E-02  0.8125676E-01
       -2   -1    0    0    0  501  0.00000000000E+00  0.00000000000E+00  0.17733941242E+04  0.17733941242E+04  0.25500000920E-02 0.  1.
        2   -1    0    0  501    0  0.00000000000E+00  0.00000000000E+00 -0.16781961750E+04  0.16781961750E+04  0.25500000920E-02 0. -1.
    10030    2    1    2    0    0  0.00000000000E+00  0.00000000000E+00  0.95197949260E+02  0.34515902992E+04  0.34502772272E+04 0.  0.
        4    1    3    3  502    0  0.36305408351E+03 -0.31925570017E+03 -0.16090412632E+04  0.16801035293E+04  0.12699999809E+01 0. -1.
       -4    1    3    3    0  502 -0.36305408351E+03  0.31925570017E+03  0.17042392125E+04  0.17714867699E+04  0.12699999809E+01 0.  1.
</event>
<event>
 5   0  0.1110956E-06  0.3319044E+04  0.7818609E-02  0.8158067E-01
        1   -1    0    0  501    0  0.00000000000E+00  0.00000000000E+00  0.20971968926E+04  0.20971968926E+04  0.50400001928E-02 0. -1.
       -1   -1    0    0    0  501  0.00000000000E+00  0.00000000000E+00 -0.13131875798E+04  0.13131875798E+04  0.50400001928E-02 0.  1.
    10030    2    1    2    0    0  0.00000000000E+00  0.00000000000E+00  0.78400931285E+03  0.34103844724E+04  0.33190437851E+04 0.  0.
        1    1    3    3  502    0  0.93108867262E+03 -0.12912393111E+04  0.87372189481E+03  0.18159336509E+04  0.50400001928E-02 0. -1.
       -1    1    3    3    0  502 -0.93108867262E+03  0.12912393111E+04 -0.89712581957E+02  0.15944508215E+04  0.50400001928E-02 0.  1.
</event>
<event>
 5   0  0.1782660E-06  0.2166292E+04  0.7818609E-02  0.8532591E-01
       -2   -1    0    0    0  501  0.00000000000E+00  0.00000000000E+00  0.13899482799E+04  0.13899482799E+04  0.25500000920E-02 0.  1.
        2   -1    0    0  501    0  0.00000000000E+00  0.00000000000E+00 -0.84406375031E+03  0.84406375032E+03  0.25500000920E-02 0. -1.
    10030    2    1    2    0    0  0.00000000000E+00  0.00000000000E+00  0.54588452957E+03  0.22340120302E+04  0.21662917235E+04 0.  0.
        4    1    3    3  502    0  0.63396354939E+03 -0.84877098689E+03  0.40321764311E+02  0.10601648116E+04  0.12699999809E+01 0.  1.
       -4    1    3    3    0  502 -0.63396354939E+03  0.84877098689E+03  0.50556276526E+03  0.11738472186E+04  0.12699999809E+01 0. -1.
</event>
<event>
 5   0  0.1125196E-06  0.3794778E+04  0.7818609E-02  0.8047276E-01
       -1   -1    0    0    0  501  0.00000000000E+00  0.00000000000E+00  0.22834668015E+04  0.22834668015E+04  0.50400001928E-02 0.  1.
        1   -1    0    0  501    0  0.00000000000E+00  0.00000000000E+00 -0.15765871967E+04  0.15765871967E+04  0.50400001928E-02 0. -1.
    10030    2    1    2    0    0  0.00000000000E+00  0.00000000000E+00  0.70687960477E+03  0.38600539982E+04  0.37947777397E+04 0.  0.
        4    1    3    3  502    0  0.11460650277E+04  0.79222424510E+03  0.16636170299E+04  0.21699556533E+04  0.12699999809E+01 0.  1.
       -4    1    3    3    0  502 -0.11460650277E+04 -0.79222424510E+03 -0.95673742511E+03  0.16900983450E+04  0.12699999809E+01 0. -1.
</event>
<event>
 5   0  0.1110956E-06  0.1823293E+04  0.7818609E-02  0.8694009E-01
       -1   -1    0    0    0  501  0.00000000000E+00  0.00000000000E+00  0.21837010145E+04  0.21837010145E+04  0.50400001928E-02 0. -1.
        1   -1    0    0  501    0  0.00000000000E+00  0.00000000000E+00 -0.38059228421E+03  0.38059228424E+03  0.50400001928E-02 0.  1.
    10030    2    1    2    0    0  0.00000000000E+00  0.00000000000E+00  0.18031087303E+04  0.25642932987E+04  0.18232934566E+04 0.  0.
        1    1    3    3  502    0 -0.66013353218E+03  0.48971369187E+03  0.34695179979E+03  0.89217225450E+03  0.50400001928E-02 0.  1.
       -1    1    3    3    0  502  0.66013353218E+03 -0.48971369187E+03  0.14561569305E+04  0.16721210442E+04  0.50400001928E-02 0. -1.
</event>
<event>
 5   0  0.1782660E-06  0.3511155E+04  0.7818609E-02  0.8111151E-01
        2   -1    0    0  501    0  0.00000000000E+00  0.00000000000E+00  0.29591406102E+04  0.29591406102E+04  0.25500000920E-02 0.  1.
       -2   -1    0    0    0  501  0.00000000000E+00  0.00000000000E+00 -0.10415362485E+04  0.10415362485E+04  0.25500000920E-02 0. -1.
    10030    2    1    2    0    0  0.00000000000E+00  0.00000000000E+00  0.19176043617E+04  0.40006768587E+04  0.35111549154E+04 0.  0.
        4    1    3    3  502    0 -0.48372503078E+03  0.63416181458E+03  0.27407820171E+04  0.28544769732E+04  0.12699999809E+01 0.  1.
       -4    1    3    3    0  502  0.48372503078E+03 -0.63416181458E+03 -0.82317765534E+03  0.11461998855E+04  0.12699999809E+01 0. -1.
</event>
<event>
 5   0  0.3041329E-06  0.2678617E+04  0.7818609E-02  0.8341977E-01
       -2   -1    0    0    0  501  0.00000000000E+00  0.00000000000E+00  0.14978042062E+04  0.14978042062E+04  0.25500000920E-02 0. -1.
        2   -1    0    0  501    0  0.00000000000E+00  0.00000000000E+00 -0.11975845367E+04  0.11975845367E+04  0.25500000920E-02 0.  1.
    10030    2    1    2    0    0  0.00000000000E+00  0.00000000000E+00  0.30021966956E+03  0.26953887429E+04  0.26786169240E+04 0.  0.
        2    1    3    3  502    0 -0.46987846723E+02  0.28880511823E+03 -0.11650283168E+04  0.12012107363E+04  0.25500000920E-02 0.  1.
       -2    1    3    3    0  502  0.46987846723E+02 -0.28880511823E+03  0.14652479863E+04  0.14941780066E+04  0.25500000920E-02 0. -1.
</event>
<event>
 5   0  0.1089337E-06  0.2086211E+04  0.7818609E-02  0.8567342E-01
       -1   -1    0    0    0  501  0.00000000000E+00  0.00000000000E+00  0.54245993690E+03  0.54245993693E+03  0.50400001928E-02 0. -1.
        1   -1    0    0  501    0  0.00000000000E+00  0.00000000000E+00 -0.20058050819E+04  0.20058050820E+04  0.50400001928E-02 0.  1.
    10030    2    1    2    0    0  0.00000000000E+00  0.00000000000E+00 -0.14633451450E+04  0.25482650189E+04  0.20862108218E+04 0.  0.
        2    1    3    3  502    0 -0.71934325852E+03 -0.57465964012E+03 -0.13279783843E+03  0.93022776322E+03  0.25500000920E-02 0.  1.
       -2    1    3    3    0  502  0.71934325852E+03  0.57465964012E+03 -0.13305473066E+04  0.16180372557E+04  0.25500000920E-02 0. -1.
</event>
<event>
 5   0  0.1130707E-06  0.1802206E+04  0.7818609E-02  0.8705127E-01
        1   -1    0    0  501    0  0.00000000000E+00  0.00000000000E+00  0.11710485031E+04  0.11710485032E+04  0.50400001928E-02 0.  1.
       -1   -1    0    0    0  501  0.00000000000E+00  0.00000000000E+00 -0.69338445178E+03  0.69338445180E+03  0.50400001928E-02 0. -1.
    10030    2    1    2    0    0  0.00000000000E+00  0.00000000000E+00  0.47766405136E+03  0.18644329550E+04  0.18022062306E+04 0.  0.
        3    1    3    3  502    0 -0.38446069085E+03  0.71129974940E+02 -0.60106036243E+03  0.71703770168E+03  0.10100000352E+00 0. -1.
       -3    1    3    3    0  502  0.38446069085E+03 -0.71129974940E+02  0.10787244138E+04  0.11473952533E+04  0.10100000352E+00 0.  1.
</event>
<event>
 5   0  0.2565004E-06  0.2785629E+04  0.7818609E-02  0.8307744E-01
       -2   -1    0    0    0  501  0.00000000000E+00  0.00000000000E+00  0.12836393346E+04  0.12836393346E+04  0.25500000920E-02 0. -1.
        2   -1    0    0  501    0  0.00000000000E+00  0.00000000000E+00 -0.15112755252E+04  0.15112755252E+04  0.25500000920E-02 0.  1.
    10030    2    1    2    0    0  0.00000000000E+00  0.00000000000E+00 -0.22763619065E+03  0.27949148598E+04  0.27856293433E+04 0.  0.
        3    1    3    3  502    0 -0.10296030971E+04  0.31279930575E+03  0.77344109545E+03  0.13251932242E+04  0.10100000352E+00 0. -1.
       -3    1    3    3    0  502  0.10296030971E+04 -0.31279930575E+03 -0.10010772861E+04  0.14697216356E+04  0.10100000352E+00 0.  1.
</event>
<event>
 5   0  0.1089337E-06  0.3317752E+04  0.7818609E-02  0.8158393E-01
       -1   -1    0    0    0  501  0.00000000000E+00  0.00000000000E+00  0.15794498142E+04  0.15794498142E+04  0.50400001928E-02 0.  1.
        1   -1    0    0  501    0  0.00000000000E+00  0.00000000000E+00 -0.17422961713E+04  0.17422961713E+04  0.50400001928E-02 0. -1.
    10030    2    1    2    0    0  0.00000000000E+00  0.00000000000E+00 -0.16284635715E+03  0.33217459855E+04  0.33177518678E+04 0.  0.
        2    1    3    3  502    0 -0.10376999748E+04  0.78245784494E+03 -0.11135899950E+04  0.17114742750E+04  0.25500000920E-02 0. -1.
       -2    1    3    3    0  502  0.10376999748E+04 -0.78245784494E+03  0.95074363784E+03  0.16102717105E+04  0.25500000920E-02 0.  1.
</event>
<event>
 5   0  0.1782660E-06  0.3530682E+04  0.7818609E-02  0.8106557E-01
       -2   -1    0    0    0  501  0.00000000000E+00  0.00000000000E+00  0.30496950451E+04  0.30496950451E+04  0.25500000920E-02 0.  1.
        2   -1    0    0  501    0  0.00000000000E+00  0.00000000000E+00 -0.10218820967E+04  0.10218820968E+04  0.25500000920E-02 0. -1.
    10030    2    1    2    0    0  0.00000000000E+00  0.00000000000E+00  0.20278129484E+04  0.40715771419E+04  0.35306819552E+04 0.  0.
        4    1    3    3  502    0 -0.12687333393E+04 -0.77435606410E+03  0.21122428732E+04  0.25828052905E+04  0.12699999809E+01 0.  1.
       -4    1    3    3    0  502  0.12687333393E+04  0.77435606410E+03 -0.84429924876E+02  0.14887718514E+04  0.12699999809E+01 0. -1.
</event>
<event>
 5   0  0.1908726E-06  0.3595457E+04  0.7818609E-02  0.8091533E-01
        2   -1    0    0  501    0  0.00000000000E+00  0.00000000000E+00  0.22681997684E+04  0.22681997684E+04  0.25500000920E-02 0. -1.
       -2   -1    0    0    0  501  0.00000000000E+00  0.00000000000E+00 -0.14248428902E+04  0.14248428902E+04  0.25500000920E-02 0.  1.
    10030    2    1    2    0    0  0.00000000000E+00  0.00000000000E+00  0.84335687816E+03  0.36930426586E+04  0.35954573080E+04 0.  0.
        5    1    3    3  502    0 -0.52586585232E+03 -0.86730413302E+03 -0.11028756770E+04  0.14983685136E+04  0.46999998093E+01 0.  1.
       -5    1    3    3    0  502  0.52586585232E+03  0.86730413302E+03  0.19462325551E+04  0.21946741449E+04  0.46999998093E+01 0. -1.
</event>
<event>
 5   0  0.1908726E-06  0.2006100E+04  0.7818609E-02  0.8603774E-01
       -2   -1    0    0    0  501  0.00000000000E+00  0.00000000000E+00  0.11613694978E+04  0.11613694978E+04  0.25500000920E-02 0. -1.
        2   -1    0    0  501    0  0.00000000000E+00  0.00000000000E+00 -0.86631247154E+03  0.86631247155E+03  0.25500000920E-02 0.  1.
    10030    2    1    2    0    0  0.00000000000E+00  0.00000000000E+00  0.29505702630E+03  0.20276819694E+04  0.20060995788E+04 0.  0.
        5    1    3    3  502    0  0.65962645656E+02 -0.37840764809E+03  0.10840731308E+04  0.11501217595E+04  0.46999998093E+01 0. -1.
       -5    1    3    3    0  502 -0.65962645656E+02  0.37840764809E+03 -0.78901610452E+03  0.87756020987E+03  0.46999998093E+01 0.  1.
</event>
<event>
 5   0  0.3041329E-06  0.2933879E+04  0.7818609E-02  0.8262868E-01
        2   -1    0    0  501    0  0.00000000000E+00  0.00000000000E+00  0.92093060971E+03  0.92093060971E+03  0.25500000920E-02 0.  1.
       -2   -1    0    0    0  501  0.00000000000E+00  0.00000000000E+00 -0.23366706037E+04  0.23366706037E+04  0.25500000920E-02 0. -1.
    10030    2    1    2    0    0  0.00000000000E+00  0.00000000000E+00 -0.14157399940E+04  0.32576012134E+04  0.29338789912E+04 0.  0.
        2    1    3    3  502    0 -0.11980689552E+04 -0.61121724933E+03 -0.57628388021E+02  0.13462082968E+04  0.25500000920E-02 0. -1.
       -2    1    3    3    0  502  0.11980689552E+04  0.61121724933E+03 -0.13581116060E+04  0.19113929166E+04  0.25500000920E-02 0.  1.
</event>
<event>
 5   0  0.1130707E-06  0.3581594E+04  0.7818609E-02  0.8094721E-01
        1   -1    0    0  501    0  0.00000000000E+00  0.00000000000E+00  0.18328067097E+04  0.18328067097E+04  0.50400001928E-02 0. -1.
       -1   -1    0    0    0  501  0.00000000000E+00  0.00000000000E+00 -0.17497505615E+04  0.17497505615E+04  0.50400001928E-02 0.  1.
    10030    2    1    2    0    0  0.00000000000E+00  0.00000000000E+00  0.83056148171E+02  0.35825572712E+04  0.35815943765E+04 0.  0.
        3    1    3    3  502    0 -0.17231466852E+04 -0.46698183349E+03 -0.98681032817E+02  0.17880281004E+04  0.10100000352E+00 0.  1.
       -3    1    3    3    0  502  0.17231466852E+04  0.46698183349E+03  0.18173718099E+03  0.17945291708E+04  0.10100000352E+00 0. -1.
</event>
<event>
 5   0  0.1089337E-06  0.3293742E+04  0.7818609E-02  0.8164489E-01
        1   -1    0    0  501    0  0.00000000000E+00  0.00000000000E+00  0.15274992960E+04  0.15274992960E+04  0.50400001928E-02 0.  1.
       -1   -1    0    0    0  501  0.00000000000E+00  0.00000000000E+00 -0.17755718500E+04  0.17755718500E+04  0.50400001928E-02 0. -1.
    10030    2    1    2    0    0  0.00000000000E+00  0.00000000000E+00 -0.24807255400E+03  0.33030711461E+04  0.32937424010E+04 0.  0.
        2    1    3    3  502    0  0.11134034087E+04  0.10998211303E+04 -0.63823707198E+03  0.16901539069E+04  0.25500000920E-02 0. -1.
       -2    1    3    3    0  502 -0.11134034087E+04 -0.10998211303E+04  0.39016451798E+03  0.16129172391E+04  0.25500000920E-02 0.  1.
</event>
<event>
 5   0  0.1110956E-06  0.3523083E+04  0.7818609E-02  0.8108341E-01
       -1   -1    0    0    0  501  0.00000000000E+00  0.00000000000E+00  0.17976604091E+04  0.17976604091E+04  0.50400001928E-02 0.  1.
        1   -1    0    0  501    0  0.00000000000E+00  0.00000000000E+00 -0.17261487202E+04  0.17261487202E+04  0.50400001928E-02 0. -1.
    10030    2    1    2    0    0  0.00000000000E+00  0.00000000000E+00  0.71511688932E+02  0.35238091293E+04  0.35230834304E+04 0.  0.
        1    1    3    3  502    0 -0.25404069328E+03 -0.16123539337E+04 -0.62680594600E+03  0.17484586285E+04  0.50400001928E-02 0. -1.
       -1    1    3    3    0  502  0.25404069328E+03  0.16123539337E+04  0.69831763493E+03  0.17753505008E+04  0.50400001928E-02 0.  1.
</event>
<event>
 5   0  0.3041329E-06  0.3078627E+04  0.7818609E-02  0.8221628E-01
       -2   -1    0    0    0  501  0.00000000000E+00  0.00000000000E+00  0.16131391835E+04  0.16131391835E+04  0.25500000920E-02 0. -1.
        2   -1    0    0  501    0  0.00000000000E+00  0.00000000000E+00 -0.14688665948E+04  0.14688665948E+04  0.25500000920E-02 0.  1.
    10030    2    1    2    0    0  0.00000000000E+00  0.00000000000E+00  0.14427258873E+03  0.30820057783E+04  0.30786271352E+04 0.  0.
        2    1    3    3  502    0  0.12252750056E+04 -0.67905792041E+03 -0.56658252090E+03  0.15111036535E+04  0.25500000920E-02 0.  1.
       -2    1    3    3    0  502 -0.12252750056E+04  0.67905792041E+03  0.71085510963E+03  0.15709021248E+04  0.25500000920E-02 0. -1.
</event>
<event>
 5   0  0.3041329E-06  0.2450812E+04  0.7818609E-02  0.8420722E-01
        2   -1    0    0  501    0  0.00000000000E+00  0.00000000000E+00  0.21399758912E+04  0.21399758912E+04  0.25500000920E-02 0.  1.
       -2   -1    0    0    0  501  0.00000000000E+00  0.00000000000E+00 -0.70169936005E+03  0.70169936006E+03  0.25500000920E-02 0. -1.
    10030    2    1    2    0    0  0.00000000000E+00  0.00000000000E+00  0.14382765312E+04  0.28416752513E+04  0.24508118764E+04 0.  0.
        2    1    3    3  502    0  0.47840835091E+03  0.89958351446E+03  0.15085195727E+04  0.18203725858E+04  0.25500000920E-02 0.  1.
       -2    1    3    3    0  502 -0.47840835091E+03 -0.89958351446E+03 -0.70243041550E+02  0.10213026655E+04  0.25500000920E-02 0. -1.
</event>
<event>
 5   0  0.1182756E-06  0.1932137E+04  0.7818609E-02  0.8639023E-01
        1   -1    0    0  501    0  0.00000000000E+00  0.00000000000E+00  0.12739864693E+04  0.12739864693E+04  0.50400001928E-02 0.  1.
       -1   -1    0    0    0  501  0.00000000000E+00  0.00000000000E+00 -0.73257331936E+03  0.73257331938E+03  0.50400001928E-02 0. -1.
    10030    2    1    2    0    0  0.00000000000E+00  0.00000000000E+00  0.54141314997E+03  0.20065597887E+04  0.19321371553E+04 0.  0.
        2    1    3    3  502    0  0.68896620003E+03  0.15364931965E+03  0.95566112587E+03  0.11880954195E+04  0.25500000920E-02 0.  1.
       -2    1    3    3    0  502 -0.68896620003E+03 -0.15364931965E+03 -0.41424797590E+03  0.81846436927E+03  0.25500000920E-02 0. -1.
</event>
<event>
 5   0  0.3378848E-06  0.3279630E+04  0.7818609E-02  0.8168098E-01
        2   -1    0    0  501    0  0.00000000000E+00  0.00000000000E+00  0.15716255768E+04  0.15716255768E+04  0.25500000920E-02 0. -1.
       -2   -1    0    0    0  501  0.00000000000E+00  0.00000000000E+00 -0.17109631233E+04  0.17109631233E+04  0.25500000920E-02 0.  1.
    10030    2    1    2    0    0  0.00000000000E+00  0.00000000000E+00 -0.13933754648E+03  0.32825887001E+04  0.32796301045E+04 0.  0.
        1    1    3    3  502    0  0.82040849787E+03  0.89188043599E+03 -0.11754153946E+04  0.16882304835E+04  0.50400001928E-02 0.  1.
       -1    1    3    3    0  502 -0.82040849787E+03 -0.89188043599E+03  0.10360778481E+04  0.15943582166E+04  0.50400001928E-02 0. -1.
</event>
<event>
 5   0  0.3378848E-06  0.3446297E+04  0.7818609E-02  0.8126636E-01
       -2   -1    0    0    0  501  0.00000000000E+00  0.00000000000E+00  0.12080917058E+04  0.12080917058E+04  0.25500000920E-02 0. -1.
        2   -1    0    0  501    0  0.00000000000E+00  0.00000000000E+00 -0.24577946618E+04  0.24577946618E+04  0.25500000920E-02 0.  1.
    10030    2    1    2    0    0  0.00000000000E+00  0.00000000000E+00 -0.12497029560E+04  0.36658863675E+04  0.34462973437E+04 0.  0.
        1    1    3    3  502    0 -0.16389898828E+04 -0.47542869984E+03 -0.87863460583E+03  0.19194580108E+04  0.50400001928E-02 0.  1.
       -1    1    3    3    0  502  0.16389898828E+04  0.47542869984E+03 -0.37106835019E+03  0.17464283567E+04  0.50400001928E-02 0. -1.
</event>
<event>
 5   0  0.1102175E-06  0.3539793E+04  0.7818609E-02  0.8104424E-01
       -1   -1    0    0    0  501  0.00000000000E+00  0.00000000000E+00  0.24408193190E+04  0.24408193190E+04  0.50400001928E-02 0.  1.
        1   -1    0    0  501    0  0.00000000000E+00  0.00000000000E+00 -0.12833946166E+04  0.12833946166E+04  0.50400001928E-02 0. -1.
    10030    2    1    2    0    0  0.00000000000E+00  0.00000000000E+00  0.11574247024E+04  0.37242139356E+04  0.35397934257E+04 0.  0.
        5    1    3    3  502    0  0.14109777323E+04  0.47973384855E+03  0.15831831503E+04  0.21742800427E+04  0.46999998093E+01 0.  1.
       -5    1    3    3    0  502 -0.14109777323E+04 -0.47973384855E+03 -0.42575844784E+03  0.15499338929E+04  0.46999998093E+01 0. -1.
</event>
<event>
 5   0  0.1782660E-06  0.3491511E+04  0.7818609E-02  0.8115805E-01
       -2   -1    0    0    0  501  0.00000000000E+00  0.00000000000E+00  0.13061375636E+04  0.13061375636E+04  0.25500000920E-02 0.  1.
        2   -1    0    0  501    0  0.00000000000E+00  0.00000000000E+00 -0.23333394891E+04  0.23333394891E+04  0.25500000920E-02 0. -1.
    10030    2    1    2    0    0  0.00000000000E+00  0.00000000000E+00 -0.10272019255E+04  0.36394770526E+04  0.34915110512E+04 0.  0.
        4    1    3    3  502    0 -0.87045310681E+03  0.25004567104E+03 -0.20693139514E+04  0.22588212171E+04  0.12699999809E+01 0. -1.
       -4    1    3    3    0  502  0.87045310681E+03 -0.25004567104E+03  0.10421120258E+04  0.13806558355E+04  0.12699999809E+01 0.  1.
</event>
<event>
 5   0  0.1908726E-06  0.2733339E+04  0.7818609E-02  0.8324268E-01
       -2   -1    0    0    0  501  0.00000000000E+00  0.00000000000E+00  0.78391297380E+03  0.78391297381E+03  0.25500000920E-02 0. -1.
        2   -1    0    0  501    0  0.00000000000E+00  0.00000000000E+00 -0.23826446264E+04  0.23826446264E+04  0.25500000920E-02 0.  1.
    10030    2    1    2    0    0  0.00000000000E+00  0.00000000000E+00 -0.15987316526E+04  0.31665576002E+04  0.27333393749E+04 0.  0.
        5    1    3    3  502    0  0.64696089712E+02 -0.79361620776E+01  0.78210186975E+03  0.78482736405E+03  0.46999998093E+01 0. -1.
       -5    1    3    3    0  502 -0.64696089712E+02  0.79361620776E+01 -0.23808335223E+04  0.23817302361E+04  0.46999998093E+01 0.  1.
</event>
<event>
 5   0  0.1089337E-06  0.1891171E+04  0.7818609E-02  0.8659264E-01
       -1   -1    0    0    0  501  0.00000000000E+00  0.00000000000E+00  0.40919632838E+03  0.40919632841E+03  0.50400001928E-02 0. -1.
        1   -1    0    0  501    0  0.00000000000E+00  0.00000000000E+00 -0.21850933715E+04  0.21850933715E+04  0.50400001928E-02 0.  1.
    10030    2    1    2    0    0  0.00000000000E+00  0.00000000000E+00 -0.17758970432E+04  0.25942897000E+04  0.18911712613E+04 0.  0.
        2    1    3    3  502    0  0.61046345108E+03  0.70642112045E+03 -0.10934230573E+04  0.14378005449E+04  0.25500000920E-02 0.  1.
       -2    1    3    3    0  502 -0.61046345108E+03 -0.70642112045E+03 -0.68247398585E+03  0.11564891551E+04  0.25500000920E-02 0. -1.
</event>
<event>
 5   0  0.2565004E-06  0.3114470E+04  0.7818609E-02  0.8211778E-01
        2   -1    0    0  501    0  0.00000000000E+00  0.00000000000E+00  0.12620159345E+04  0.12620159345E+04  0.25500000920E-02 0.  1.
       -2   -1    0    0    0  501  0.00000000000E+00  0.00000000000E+00 -0.19215132480E+04  0.19215132480E+04  0.25500000920E-02 0. -1.
    10030    2    1    2    0    0  0.00000000000E+00  0.00000000000E+00 -0.65949731356E+03  0.31835291825E+04  0.31144696739E+04 0.  0.
        3    1    3    3  502    0 -0.33267609241E+03  0.22968603315E+03  0.12074427493E+04  0.12733212711E+04  0.10100000352E+00 0.  1.
       -3    1    3    3    0  502  0.33267609241E+03 -0.22968603315E+03 -0.18669400629E+04  0.19102079114E+04  0.10100000352E+00 0. -1.
</event>
<event>
 5   0  0.1089337E-06  0.3391551E+04  0.7818609E-02  0.8139983E-01
        1   -1    0    0  501    0  0.00000000000E+00  0.00000000000E+00  0.26913444804E+04  0.26913444805E+04  0.50400001928E-02 0. -1.
       -1   -1    0    0    0  501  0.00000000000E+00  0.00000000000E+00 -0.10684825906E+04  0.10684825906E+04  0.50400001928E-02 0.  1.
    10030    2    1    2    0    0  0.00000000000E+00  0.00000000000E+00  0.16228618898E+04  0.37598270711E+04  0.33915511040E+04 0.  0.
        2    1    3    3  502    0  0.16544469431E+04  0.18001076782E+03  0.11724560901E+04  0.20357435613E+04  0.25500000920E-02 0. -1.
       -2    1    3    3    0  502 -0.16544469431E+04 -0.18001076782E+03  0.45040579968E+03  0.17240835097E+04  0.25500000920E-02 0.  1.
</event>
<event>
 5   0  0.1102175E-06  0.1875369E+04  0.7818609E-02  0.8667215E-01
        1   -1    0    0  501    0  0.00000000000E+00  0.00000000000E+00  0.16093768666E+04  0.16093768667E+04  0.50400001928E-02 0.  1.
       -1   -1    0    0    0  501  0.00000000000E+00  0.00000000000E+00 -0.54633061363E+03  0.54633061365E+03  0.50400001928E-02 0. -1.
    10030    2    1    2    0    0  0.00000000000E+00  0.00000000000E+00  0.10630462530E+04  0.21557074803E+04  0.18753686050E+04 0.  0.
        5    1    3    3  502    0  0.32152655497E+03 -0.83348989539E+03  0.85896494960E+03  0.12393254641E+04  0.46999998093E+01 0.  1.
       -5    1    3    3    0  502 -0.32152655497E+03  0.83348989539E+03  0.20408130341E+03  0.91638201623E+03  0.46999998093E+01 0. -1.
</event>
<event>
 5   0  0.3378848E-06  0.2040500E+04  0.7818609E-02  0.8587916E-01
        2   -1    0    0  501    0  0.00000000000E+00  0.00000000000E+00  0.19649710028E+04  0.19649710028E+04  0.25500000920E-02 0. -1.
       -2   -1    0    0    0  501  0.00000000000E+00  0.00000000000E+00 -0.52973321090E+03  0.52973321091E+03  0.25500000920E-02 0.  1.
    10030    2    1    2    0    0  0.00000000000E+00  0.00000000000E+00  0.14352377919E+04  0.24947042137E+04  0.20405003295E+04 0.  0.
        1    1    3    3  502    0  0.18556332583E+02  0.32571504049E+03  0.18994799314E+04  0.19272930848E+04  0.50400001928E-02 0. -1.
       -1    1    3    3    0  502 -0.18556332583E+02 -0.32571504049E+03 -0.46424213949E+03  0.56741112888E+03  0.50400001928E-02 0.  1.
</event>
<event>
 5   0  0.2565004E-06  0.3272344E+04  0.7818609E-02  0.8169968E-01
       -2   -1    0    0    0  501  0.00000000000E+00  0.00000000000E+00  0.17703140746E+04  0.17703140746E+04  0.25500000920E-02 0.  1.
        2   -1    0    0  501    0  0.00000000000E+00  0.00000000000E+00 -0.15121946697E+04  0.15121946697E+04  0.25500000920E-02 0. -1.
    10030    2    1    2    0    0  0.00000000000E+00  0.00000000000E+00  0.25811940488E+03  0.32825087444E+04  0.32723444240E+04 0.  0.
        3    1    3    3  502    0 -0.32580302812E+03  0.59004686968E+03 -0.13664623981E+04  0.15236542972E+04  0.10100000352E+00 0. -1.
       -3    1    3    3    0  502  0.32580302812E+03 -0.59004686968E+03  0.16245818030E+04  0.17588544472E+04  0.10100000352E+00 0.  1.
</event>
<event>
 5   0  0.1908726E-06  0.3408482E+04  0.7818609E-02  0.8135828E-01
        2   -1    0    0  501    0  0.00000000000E+00  0.00000000000E+00  0.21812466613E+04  0.21812466613E+04  0.25500000920E-02 0.  1.
       -2   -1    0    0    0  501  0.00000000000E+00  0.00000000000E+00 -0.13315495886E+04  0.13315495886E+04  0.25500000920E-02 0. -1.
    10030    2    1    2    0    0  0.00000000000E+00  0.00000000000E+00  0.84969707275E+03  0.35127962499E+04  0.34084824157E+04 0.  0.
        5    1    3    3  502    0 -0.90312721249E+03  0.14407033928E+04  0.30666121124E+03  0.17278102374E+04  0.46999998093E+01 0. -1.
       -5    1    3    3    0  502  0.90312721249E+03 -0.14407033928E+04  0.54303586151E+03  0.17849860125E+04  0.46999998093E+01 0.  1.
</event>
<event>
 5   0  0.1042825E-06  0.2327847E+04  0.7818609E-02  0.8467022E-01
        3   -1    0    0  501    0  0.00000000000E+00  0.00000000000E+00  0.98351418131E+03  0.98351418649E+03  0.10100000352E+00 0. -1.
       -3   -1    0    0    0  501  0.00000000000E+00  0.00000000000E+00 -0.13774261909E+04  0.13774261946E+04  0.10100000352E+00 0.  1.
    10030    2    1    2    0    0  0.00000000000E+00  0.00000000000E+00 -0.39391200956E+03  0.23609403811E+04  0.23278472483E+04 0.  0.
        4    1    3    3  502    0  0.13217097452E+03  0.10893668872E+04  0.19653793250E+03  0.11148175426E+04  0.12699999809E+01 0. -1.
       -4    1    3    3    0  502 -0.13217097452E+03 -0.10893668872E+04 -0.59044994205E+03  0.12461228384E+04  0.12699999809E+01 0.  1.
</event>
<event>
 5   0  0.1125196E-06  0.2236951E+04  0.7818609E-02  0.8503204E-01
       -1   -1    0    0    0  501  0.00000000000E+00  0.00000000000E+00  0.85637077533E+03  0.85637077534E+03  0.50400001928E-02 0. -1.
        1   -1    0    0  501    0  0.00000000000E+00  0.00000000000E+00 -0.14608016481E+04  0.14608016481E+04  0.50400001928E-02 0.  1.
    10030    2    1    2    0    0  0.00000000000E+00  0.00000000000E+00 -0.60443087275E+03  0.23171724234E+04  0.22369513540E+04 0.  0.
        4    1    3    3  502    0 -0.32103192523E+03  0.93271935149E+03 -0.84834092788E+03  0.13010422086E+04  0.12699999809E+01 0.  1.
       -4    1    3    3    0  502  0.32103192523E+03 -0.93271935149E+03  0.24391005513E+03  0.10161302149E+04  0.12699999809E+01 0. -1.
</event>
<event>
 5   0  0.1908726E-06  0.3375054E+04  0.7818609E-02  0.8144056E-01
       -2   -1    0    0    0  501  0.00000000000E+00  0.00000000000E+00  0.13353958100E+04  0.13353958100E+04  0.25500000920E-02 0. -1.
        2   -1    0    0  501    0  0.00000000000E+00  0.00000000000E+00 -0.21325123027E+04  0.21325123027E+04  0.25500000920E-02 0.  1.
    10030    2    1    2    0    0  0.00000000000E+00  0.00000000000E+00 -0.79711649265E+03  0.34679081127E+04  0.33750543662E+04 0.  0.
        5    1    3    3  502    0  0.63064111879E+03  0.24411658684E+02  0.12095622750E+04  0.13643192944E+04  0.46999998093E+01 0. -1.
       -5    1    3    3    0  502 -0.63064111879E+03 -0.24411658684E+02 -0.20066787677E+04  0.21035888183E+04  0.46999998093E+01 0.  1.
</event>
<event>
 5   0  0.2565004E-06  0.3464751E+04  0.7818609E-02  0.8122195E-01
       -2   -1    0    0    0  501  0.00000000000E+00  0.00000000000E+00  0.11092471374E+04  0.11092471374E+04  0.25500000920E-02 0.  1.
        2   -1    0    0  501    0  0.00000000000E+00  0.00000000000E+00 -0.27055517459E+04  0.27055517459E+04  0.25500000920E-02 0. -1.
    10030    2    1    2    0    0  0.00000000000E+00  0.00000000000E+00 -0.15963046085E+04  0.38147988834E+04  0.34647513789E+04 0.  0.
        3    1    3    3  502    0 -0.15226323077E+04  0.77901146297E+03 -0.49490365377E+03  0.17805048837E+04  0.10100000352E+00 0. -1.
       -3    1    3    3    0  502  0.15226323077E+04 -0.77901146297E+03 -0.11014009547E+04  0.20342939997E+04  0.10100000352E+00 0.  1.
</event>
<event>
 5   0  0.1917599E-06  0.1890741E+04  0.7818609E-02  0.8659479E-01
       -2   -1    0    0    0  501  0.00000000000E+00  0.00000000000E+00  0.68532722526E+03  0.68532722526E+03  0.25500000920E-02 0. -1.
        2   -1    0    0  501    0  0.00000000000E+00  0.00000000000E+00 -0.13040855890E+04  0.13040855890E+04  0.25500000920E-02 0.  1.
    10030    2    1    2    0    0  0.00000000000E+00  0.00000000000E+00 -0.61875836378E+03  0.19894128143E+04  0.18907409746E+04 0.  0.
        5    1    3    3  502    0 -0.71059334797E+03  0.60881143998E+02  0.34353125233E+03  0.79163453133E+03  0.46999998093E+01 0. -1.
       -5    1    3    3    0  502  0.71059334797E+03 -0.60881143998E+02 -0.96228961611E+03  0.11977782830E+04  0.46999998093E+01 0.  1.
</event>
<event>
 5   0  0.1130707E-06  0.3522856E+04  0.7818609E-02  0.8108395E-01
        1   -1    0    0  501    0  0.00000000000E+00  0.00000000000E+00  0.23921084264E+04  0.23921084264E+04  0.50400001928E-02 0. -1.
       -1   -1    0    0    0  501  0.00000000000E+00  0.00000000000E+00 -0.12970268224E+04  0.12970268224E+04  0.50400001928E-02 0.  1.
    10030    2    1    2    0    0  0.00000000000E+00  0.00000000000E+00  0.10950816040E+04  0.36891352488E+04  0.35228561090E+04 0.  0.
        3    1    3    3  502    0  0.16473049463E+04 -0.21796917587E+03 -0.64426154244E+02  0.16629115693E+04  0.10100000352E+00 0.  1.
       -3    1    3    3    0  502 -0.16473049463E+04  0.21796917587E+03  0.11595077583E+04  0.20262236795E+04  0.10100000352E+00 0. -1.
</event>
<event>
 5   0  0.1908726E-06  0.1796441E+04  0.7818609E-02  0.8708194E-01
       -2   -1    0    0    0  501  0.00000000000E+00  0.00000000000E+00  0.52202689798E+03  0.52202689799E+03  0.25500000920E-02 0. -1.
        2   -1    0    0  501    0  0.00000000000E+00  0.00000000000E+00 -0.15455146507E+04  0.15455146507E+04  0.25500000920E-02 0.  1.
    10030    2    1    2    0    0  0.00000000000E+00  0.00000000000E+00 -0.10234877527E+04  0.20675415487E+04  0.17964411695E+04 0.  0.
        5    1    3    3  502    0 -0.41907184480E+03 -0.41275790860E+01 -0.14260761682E+04  0.14863894427E+04  0.46999998093E+01 0.  1.
       -5    1    3    3    0  502  0.41907184480E+03  0.41275790860E+01  0.40258841545E+03  0.58115210597E+03  0.46999998093E+01 0. -1.
</event>
<event>
 5   0  0.1130707E-06  0.3342927E+04  0.7818609E-02  0.8152058E-01
        1   -1    0    0  501    0  0.00000000000E+00  0.00000000000E+00  0.12845599651E+04  0.12845599652E+04  0.50400001928E-02 0. -1.
       -1   -1    0    0    0  501  0.00000000000E+00  0.00000000000E+00 -0.21749012257E+04  0.21749012257E+04  0.50400001928E-02 0.  1.
    10030    2    1    2    0    0  0.00000000000E+00  0.00000000000E+00 -0.89034126057E+03  0.34594611909E+04  0.33429274851E+04 0.  0.
        3    1    3    3  502    0  0.16617865443E+04 -0.14498956034E+03 -0.55485864485E+03  0.17579603572E+04  0.10100000352E+00 0. -1.
       -3    1    3    3    0  502 -0.16617865443E+04  0.14498956034E+03 -0.33548261572E+03  0.17015008337E+04  0.10100000352E+00 0.  1.
</event>
<event>
 5   0  0.3041329E-06  0.2253704E+04  0.7818609E-02  0.8496402E-01
       -2   -1    0    0    0  501  0.00000000000E+00  0.00000000000E+00  0.67778654127E+03  0.67778654128E+03  0.25500000920E-02 0. -1.
        2   -1    0    0  501    0  0.00000000000E+00  0.00000000000E+00 -0.18734438091E+04  0.18734438091E+04  0.25500000920E-02 0.  1.
    10030    2    1    2    0    0  0.00000000000E+00  0.00000000000E+00 -0.11956572678E+04  0.25512303504E+04  0.22537036182E+04 0.  0.
        2    1    3    3  502    0 -0.16756539404E+03  0.69604177141E+03 -0.15829061710E+04  0.17372807071E+04  0.25500000920E-02 0.  1.
       -2    1    3    3    0  502  0.16756539404E+03 -0.69604177141E+03  0.38724890321E+03  0.81394964332E+03  0.25500000920E-02 0. -1.
</event>
<event>
 5   0  0.1782660E-06  0.3414571E+04  0.7818609E-02  0.8134339E-01
       -2   -1    0    0    0  501  0.00000000000E+00  0.00000000000E+00  0.11872191681E+04  0.11872191681E+04  0.25500000920E-02 0. -1.
        2   -1    0    0  501    0  0.00000000000E+00  0.00000000000E+00 -0.24551694994E+04  0.24551694994E+04  0.25500000920E-02 0.  1.
    10030    2    1    2    0    0  0.00000000000E+00  0.00000000000E+00 -0.12679503313E+04  0.36423886675E+04  0.34145712999E+04 0.  0.
        4    1    3    3  502    0  0.14332865288E+04  0.45714758804E+03  0.22705190317E+03  0.15214625761E+04  0.12699999809E+01 0. -1.
       -4    1    3    3    0  502 -0.14332865288E+04 -0.45714758804E+03 -0.14950022345E+04  0.21209260913E+04  0.12699999809E+01 0.  1.
</event>
<event>
 5   0  0.3378848E-06  0.3425041E+04  0.7818609E-02  0.8131788E-01
        2   -1    0    0  501    0  0.00000000000E+00  0.00000000000E+00  0.11837487998E+04  0.11837487998E+04  0.25500000920E-02 0.  1.
       -2   -1    0    0    0  501  0.00000000000E+00  0.00000000000E+00 -0.24774905891E+04  0.24774905891E+04  0.25500000920E-02 0. -1.
    10030    2    1    2    0    0  0.00000000000E+00  0.00000000000E+00 -0.12937417893E+04  0.36612393890E+04  0.34250410283E+04 0.  0.
        1    1    3    3  502    0 -0.35481505333E+03  0.30327547720E+03  0.11144391390E+04  0.12082401797E+04  0.50400001928E-02 0.  1.
       -1    1    3    3    0  502  0.35481505333E+03 -0.30327547720E+03 -0.24081809284E+04  0.24529992093E+04  0.50400001928E-02 0. -1.
</event>
<event>
 5   0  0.1089337E-06  0.3411884E+04  0.7818609E-02  0.8134996E-01
        1   -1    0    0  501    0  0.00000000000E+00  0.00000000000E+00  0.25487162018E+04  0.25487162018E+04  0.50400001928E-02 0. -1.
       -1   -1    0    0    0  501  0.00000000000E+00  0.00000000000E+00 -0.11418448777E+04  0.11418448777E+04  0.50400001928E-02 0.  1.
    10030    2    1    2    0    0  0.00000000000E+00  0.00000000000E+00  0.14068713240E+04  0.36905610795E+04  0.34118842535E+04 0.  0.
        2    1    3    3  502    0 -0.15071182768E+04 -0.57670693117E+03  0.10484409526E+03  0.16170926594E+04  0.25500000920E-02 0. -1.
       -2    1    3    3    0  502  0.15071182768E+04  0.57670693117E+03  0.13020272288E+04  0.20734684201E+04  0.25500000920E-02 0.  1.
</event>
<event>
 5   0  0.1125196E-06  0.1795057E+04  0.7818609E-02  0.8708932E-01
        1   -1    0    0  501    0  0.00000000000E+00  0.00000000000E+00  0.46684936291E+03  0.46684936293E+03  0.50400001928E-02 0. -1.
       -1   -1    0    0    0  501  0.00000000000E+00  0.00000000000E+00 -0.17255192759E+04  0.17255192759E+04  0.50400001928E-02 0.  1.
    10030    2    1    2    0    0  0.00000000000E+00  0.00000000000E+00 -0.12586699130E+04  0.21923686389E+04  0.17950571854E+04 0.  0.
        4    1    3    3  502    0  0.69508925957E+03 -0.13682868585E+03  0.43714248504E+02  0.70977723017E+03  0.12699999809E+01 0. -1.
       -4    1    3    3    0  502 -0.69508925957E+03  0.13682868585E+03 -0.13023841615E+04  0.14825914087E+04  0.12699999809E+01 0.  1.
</event>
<event>
 5   0  0.1130707E-06  0.3367343E+04  0.7818609E-02  0.8145968E-01
       -1   -1    0    0    0  501  0.00000000000E+00  0.00000000000E+00  0.11974231592E+04  0.11974231592E+04  0.50400001928E-02 0.  1.
        1   -1    0    0  501    0  0.00000000000E+00  0.00000000000E+00 -0.23673755688E+04  0.23673755688E+04  0.50400001928E-02 0. -1.
    10030    2    1    2    0    0  0.00000000000E+00  0.00000000000E+00 -0.11699524096E+04  0.35647987280E+04  0.33673433639E+04 0.  0.
        3    1    3    3  502    0 -0.14208736083E+04  0.41295176872E+03  0.26545988934E+03  0.15032897050E+04  0.10100000352E+00 0.  1.
       -3    1    3    3    0  502  0.14208736083E+04 -0.41295176872E+03 -0.14354122989E+04  0.20615090231E+04  0.10100000352E+00 0. -1.
</event>
<event>
 5   0  0.1110956E-06  0.3544954E+04  0.7818609E-02  0.8103218E-01
       -1   -1    0    0    0  501  0.00000000000E+00  0.00000000000E+00  0.32544927000E+04  0.32544927000E+04  0.50400001928E-02 0. -1.
        1   -1    0    0  501    0  0.00000000000E+00  0.00000000000E+00 -0.96533474390E+03  0.96533474391E+03  0.50400001928E-02 0.  1.
    10030    2    1    2    0    0  0.00000000000E+00  0.00000000000E+00  0.22891579561E+04  0.42198274439E+04  0.35449540912E+04 0.  0.
        1    1    3    3  502    0  0.33907211624E+03 -0.16132126686E+04  0.36923408189E+03  0.16893072016E+04  0.50400001928E-02 0.  1.
       -1    1    3    3    0  502 -0.33907211624E+03  0.16132126686E+04  0.19199238742E+04  0.25305202423E+04  0.50400001928E-02 0. -1.
</event>
<event>
 5   0  0.1102175E-06  0.2003434E+04  0.7818609E-02  0.8605017E-01
       -1   -1    0    0    0  501  0.00000000000E+00  0.00000000000E+00  0.79866484374E+03  0.79866484376E+03  0.50400001928E-02 0.  1.
        1   -1    0    0  501    0  0.00000000000E+00  0.00000000000E+00 -0.12563926948E+04  0.12563926948E+04  0.50400001928E-02 0. -1.
    10030    2    1    2    0    0  0.00000000000E+00  0.00000000000E+00 -0.45772785107E+03  0.20550575386E+04  0.20034337277E+04 0.  0.
        5    1    3    3  502    0 -0.45078233261E+03 -0.48529069159E+03  0.54196673866E+03  0.85583982295E+03  0.46999998093E+01 0.  1.
       -5    1    3    3    0  502  0.45078233261E+03  0.48529069159E+03 -0.99969458973E+03  0.11992177156E+04  0.46999998093E+01 0. -1.
</event>
<event>
 5   0  0.3041329E-06  0.3093160E+04  0.7818609E-02  0.8217618E-01
        2   -1    0    0  501    0  0.00000000000E+00  0.00000000000E+00  0.23867456691E+04  0.23867456691E+04  0.25500000920E-02 0. -1.
       -2   -1    0    0    0  501  0.00000000000E+00  0.00000000000E+00 -0.10021637429E+04  0.10021637429E+04  0.25500000920E-02 0.  1.
    10030    2    1    2    0    0  0.00000000000E+00  0.00000000000E+00  0.13845819262E+04  0.33889094120E+04  0.30931601789E+04 0.  0.
        2    1    3    3  502    0 -0.10443708100E+02 -0.74284488930E+03 -0.79386497366E+03  0.10872668472E+04  0.25500000920E-02 0.  1.
       -2    1    3    3    0  502  0.10443708100E+02  0.74284488930E+03  0.21784468998E+04  0.23016425648E+04  0.25500000920E-02 0. -1.
</event>
<event>
 5   0  0.3041329E-06  0.3854941E+04  0.7818609E-02  0.8034466E-01
       -2   -1    0    0    0  501  0.00000000000E+00  0.00000000000E+00  0.23219582214E+04  0.23219582214E+04  0.25500000920E-02 0. -1.
        2   -1    0    0  501    0  0.00000000000E+00  0.00000000000E+00 -0.16000039456E+04  0.16000039456E+04  0.25500000920E-02 0.  1.
    10030    2    1    2    0    0  0.00000000000E+00  0.00000000000E+00  0.72195427581E+03  0.39219621669E+04  0.38549408896E+04 0.  0.
        2    1    3    3  502    0 -0.14795130293E+04 -0.12312497497E+04  0.46376616676E+03  0.19799024743E+04  0.25500000920E-02 0. -1.
       -2    1    3    3    0  502  0.14795130293E+04  0.12312497497E+04  0.25818810906E+03  0.19420596927E+04  0.25500000920E-02 0.  1.
</event>
<event>
 5   0  0.1125196E-06  0.3591506E+04  0.7818609E-02  0.8092440E-01
       -1   -1    0    0    0  501  0.00000000000E+00  0.00000000000E+00  0.17092836659E+04  0.17092836659E+04  0.50400001928E-02 0.  1.
        1   -1    0    0  501    0  0.00000000000E+00  0.00000000000E+00 -0.18865969246E+04  0.18865969246E+04  0.50400001928E-02 0. -1.
    10030    2    1    2    0    0  0.00000000000E+00  0.00000000000E+00 -0.17731325869E+03  0.35958805905E+04  0.35915062619E+04 0.  0.
        4    1    3    3  502    0  0.13516805406E+04 -0.11001870433E+04  0.34462428295E+03  0.17765751669E+04  0.12699999809E+01 0.  1.
       -4    1    3    3    0  502 -0.13516805406E+04  0.11001870433E+04 -0.52193754164E+03  0.18193054236E+04  0.12699999809E+01 0. -1.
</event>
<event>
 5   0  0.1089337E-06  0.1836213E+04  0.7818609E-02  0.8687275E-01
        1   -1    0    0  501    0  0.00000000000E+00  0.00000000000E+00  0.17631004767E+04  0.17631004767E+04  0.50400001928E-02 0.  1.
       -1   -1    0    0    0  501  0.00000000000E+00  0.00000000000E+00 -0.47808958402E+03  0.47808958405E+03  0.50400001928E-02 0. -1.
    10030    2    1    2    0    0  0.00000000000E+00  0.00000000000E+00  0.12850108927E+04  0.22411900607E+04  0.18362134664E+04 0.  0.
        2    1    3    3  502    0 -0.72494900961E+03 -0.47648738123E+03  0.27567248003E+03  0.91026732736E+03  0.25500000920E-02 0. -1.
       -2    1    3    3    0  502  0.72494900961E+03  0.47648738123E+03  0.10093384126E+04  0.13309227334E+04  0.25500000920E-02 0.  1.
</event>
<event>
 5   0  0.3378848E-06  0.3501011E+04  0.7818609E-02  0.8113550E-01
        2   -1    0    0  501    0  0.00000000000E+00  0.00000000000E+00  0.23447677395E+04  0.23447677395E+04  0.25500000920E-02 0.  1.
       -2   -1    0    0    0  501  0.00000000000E+00  0.00000000000E+00 -0.13068543834E+04  0.13068543834E+04  0.25500000920E-02 0. -1.
    10030    2    1    2    0    0  0.00000000000E+00  0.00000000000E+00  0.10379133561E+04  0.36516221229E+04  0.35010112815E+04 0.  0.
        1    1    3    3  502    0  0.20643561517E+03 -0.13372555095E+04 -0.63940625001E+03  0.14965655059E+04  0.50400001928E-02 0.  1.
       -1    1    3    3    0  502 -0.20643561517E+03  0.13372555095E+04  0.16773196062E+04  0.21550566169E+04  0.50400001928E-02 0. -1.
</event>
<event>
 5   0  0.2565004E-06  0.2775744E+04  0.7818609E-02  0.8310839E-01
        2   -1    0    0  501    0  0.00000000000E+00  0.00000000000E+00  0.14438969476E+04  0.14438969476E+04  0.25500000920E-02 0.  1.
       -2   -1    0    0    0  501  0.00000000000E+00  0.00000000000E+00 -0.13340206723E+04  0.13340206723E+04  0.25500000920E-02 0. -1.
    10030    2    1    2    0    0  0.00000000000E+00  0.00000000000E+00  0.10987627527E+03  0.27779176199E+04  0.27757437755E+04 0.  0.
        3    1    3    3  502    0  0.20344112707E+03 -0.11486945122E+04 -0.69751570029E+03  0.13591966513E+04  0.10100000352E+00 0. -1.
       -3    1    3    3    0  502 -0.20344112707E+03  0.11486945122E+04  0.80739197555E+03  0.14187209686E+04  0.10100000352E+00 0.  1.
</event>
<event>
 5   0  0.1908726E-06  0.3458024E+04  0.7818609E-02  0.8123810E-01
       -2   -1    0    0    0  501  0.00000000000E+00  0.00000000000E+00  0.20454711408E+04  0.20454711408E+04  0.25500000920E-02 0. -1.
        2   -1    0    0  501    0  0.00000000000E+00  0.00000000000E+00 -0.14615125516E+04  0.14615125516E+04  0.25500000920E-02 0.  1.
    10030    2    1    2    0    0  0.00000000000E+00  0.00000000000E+00  0.58395858922E+03  0.35069836924E+04  0.34580235663E+04 0.  0.
        5    1    3    3  502    0 -0.74979179997E+03  0.47717480912E+03 -0.12121158013E+04  0.15030403679E+04  0.46999998093E+01 0.  1.
       -5    1    3    3    0  502  0.74979179997E+03 -0.47717480912E+03  0.17960743905E+04  0.20039433245E+04  0.46999998093E+01 0. -1.
</event>
<event>
 5   0  0.1908726E-06  0.3481457E+04  0.7818609E-02  0.8118199E-01
       -2   -1    0    0    0  501  0.00000000000E+00  0.00000000000E+00  0.12626468955E+04  0.12626468955E+04  0.25500000920E-02 0. -1.
        2   -1    0    0  501    0  0.00000000000E+00  0.00000000000E+00 -0.23998279868E+04  0.23998279868E+04  0.25500000920E-02 0.  1.
    10030    2    1    2    0    0  0.00000000000E+00  0.00000000000E+00 -0.11371810913E+04  0.36624748823E+04  0.34814567970E+04 0.  0.
        5    1    3    3  502    0  0.10204673332E+02  0.13194845660E+04  0.62576872292E+03  0.14603945494E+04  0.46999998093E+01 0. -1.
       -5    1    3    3    0  502 -0.10204673332E+02 -0.13194845660E+04 -0.17629498142E+04  0.22020803329E+04  0.46999998093E+01 0.  1.
</event>
<event>
 5   0  0.1125196E-06  0.2051953E+04  0.7818609E-02  0.8582709E-01
        1   -1    0    0  501    0  0.00000000000E+00  0.00000000000E+00  0.13134803796E+04  0.13134803796E+04  0.50400001928E-02 0. -1.
       -1   -1    0    0    0  501  0.00000000000E+00  0.00000000000E+00 -0.80140381989E+03  0.80140381991E+03  0.50400001928E-02 0.  1.
    10030    2    1    2    0    0  0.00000000000E+00  0.00000000000E+00  0.51207655972E+03  0.21148841995E+04  0.20519534045E+04 0.  0.
        4    1    3    3  502    0 -0.75302259579E+02  0.53330148985E+03 -0.64398144585E+03  0.83952047317E+03  0.12699999809E+01 0.  1.
       -4    1    3    3    0  502  0.75302259579E+02 -0.53330148985E+03  0.11560580056E+04  0.12753637264E+04  0.12699999809E+01 0. -1.
</event>
<event>
 5   0  0.1102175E-06  0.2274713E+04  0.7818609E-02  0.8487959E-01
       -1   -1    0    0    0  501  0.00000000000E+00  0.00000000000E+00  0.81592803405E+03  0.81592803406E+03  0.50400001928E-02 0.  1.
        1   -1    0    0  501    0  0.00000000000E+00  0.00000000000E+00 -0.15854090639E+04  0.15854090639E+04  0.50400001928E-02 0. -1.
    10030    2    1    2    0    0  0.00000000000E+00  0.00000000000E+00 -0.76948102989E+03  0.24013370980E+04  0.22747129056E+04 0.  0.
        5    1    3    3  502    0 -0.94217171037E+02 -0.11183208090E+04 -0.57950818607E+03  0.12630796234E+04  0.46999998093E+01 0.  1.
       -5    1    3    3    0  502  0.94217171037E+02  0.11183208090E+04 -0.18997284383E+03  0.11382574747E+04  0.46999998093E+01 0. -1.
</event>
<event>
 5   0  0.3378848E-06  0.3464323E+04  0.7818609E-02  0.8122297E-01
        2   -1    0    0  501    0  0.00000000000E+00  0.00000000000E+00  0.26000495239E+04  0.26000495239E+04  0.25500000920E-02 0. -1.
       -2   -1    0    0    0  501  0.00000000000E+00  0.00000000000E+00 -0.11539718721E+04  0.11539718721E+04  0.25500000920E-02 0.  1.
    10030    2    1    2    0    0  0.00000000000E+00  0.00000000000E+00  0.14460776519E+04  0.37540213960E+04  0.34643233201E+04 0.  0.
        1    1    3    3  502    0 -0.54821857347E+03 -0.11774930885E+04  0.19648873857E+04  0.23553802276E+04  0.50400001928E-02 0. -1.
       -1    1    3    3    0  502  0.54821857347E+03  0.11774930885E+04 -0.51880973388E+03  0.13986411684E+04  0.50400001928E-02 0.  1.
</event>
<event>
 5   0  0.1110956E-06  0.3521491E+04  0.7818609E-02  0.8108716E-01
       -1   -1    0    0    0  501  0.00000000000E+00  0.00000000000E+00  0.14411521051E+04  0.14411521051E+04  0.50400001928E-02 0.  1.
        1   -1    0    0  501    0  0.00000000000E+00  0.00000000000E+00 -0.21512126261E+04  0.21512126261E+04  0.50400001928E-02 0. -1.
    10030    2    1    2    0    0  0.00000000000E+00  0.00000000000E+00 -0.71006052100E+03  0.35923647312E+04  0.35214909369E+04 0.  0.
        1    1    3    3  502    0  0.99055377297E+03 -0.99991005477E+03  0.72418777764E+03  0.15828660184E+04  0.50400001928E-02 0.  1.
       -1    1    3    3    0  502 -0.99055377297E+03  0.99991005477E+03 -0.14342482986E+04  0.20094987128E+04  0.50400001928E-02 0. -1.
</event>
<event>
 5   0  0.1908726E-06  0.2598550E+04  0.7818609E-02  0.8368694E-01
        2   -1    0    0  501    0  0.00000000000E+00  0.00000000000E+00  0.14989074973E+04  0.14989074973E+04  0.25500000920E-02 0. -1.
       -2   -1    0    0    0  501  0.00000000000E+00  0.00000000000E+00 -0.11262302479E+04  0.11262302479E+04  0.25500000920E-02 0.  1.
    10030    2    1    2    0    0  0.00000000000E+00  0.00000000000E+00  0.37267724947E+03  0.26251377452E+04  0.25985495664E+04 0.  0.
        5    1    3    3  502    0 -0.74227850684E+03  0.66964555500E+03  0.10247035125E+04  0.14315872064E+04  0.46999998093E+01 0. -1.
       -5    1    3    3    0  502  0.74227850684E+03 -0.66964555500E+03 -0.65202626299E+03  0.11935505388E+04  0.46999998093E+01 0.  1.
</event>
<event>
 5   0  0.3378848E-06  0.3366258E+04  0.7818609E-02  0.8146238E-01
       -2   -1    0    0    0  501  0.00000000000E+00  0.00000000000E+00  0.10306184554E+04  0.10306184554E+04  0.25500000920E-02 0. -1.
        2   -1    0    0  501    0  0.00000000000E+00  0.00000000000E+00 -0.27487598705E+04  0.27487598705E+04  0.25500000920E-02 0.  1.
    10030    2    1    2    0    0  0.00000000000E+00  0.00000000000E+00 -0.17181414151E+04  0.37793783260E+04  0.33662576563E+04 0.  0.
        1    1    3    3  502    0 -0.25069000752E+03  0.66580049003E+03 -0.25716524788E+04  0.26682451619E+04  0.50400001928E-02 0.  1.
       -1    1    3    3    0  502  0.25069000752E+03 -0.66580049003E+03  0.85351106370E+03  0.11111331641E+04  0.50400001928E-02 0. -1.
</event>
<event>
 5   0  0.2565004E-06  0.1958032E+04  0.7818609E-02  0.8626497E-01
       -2   -1    0    0    0  501  0.00000000000E+00  0.00000000000E+00  0.41420281779E+03  0.41420281780E+03  0.25500000920E-02 0. -1.
        2   -1    0    0  501    0  0.00000000000E+00  0.00000000000E+00 -0.23140170041E+04  0.23140170041E+04  0.25500000920E-02 0.  1.
    10030    2    1    2    0    0  0.00000000000E+00  0.00000000000E+00 -0.18998141863E+04  0.27282198219E+04  0.19580320360E+04 0.  0.
        3    1    3    3  502    0  0.87130504193E+03 -0.42855940031E+03 -0.77567331121E+03  0.12427810473E+04  0.10100000352E+00 0.  1.
       -3    1    3    3    0  502 -0.87130504193E+03  0.42855940031E+03 -0.11241408750E+04  0.14854387745E+04  0.10100000352E+00 0. -1.
</event>
<event>
 5   0  0.2565004E-06  0.3521925E+04  0.7818609E-02  0.8108613E-01
       -2   -1    0    0    0  501  0.00000000000E+00  0.00000000000E+00  0.26473909541E+04  0.26473909541E+04  0.25500000920E-02 0.  1.
        2   -1    0    0  501    0  0.00000000000E+00  0.00000000000E+00 -0.11713379797E+04  0.11713379797E+04  0.25500000920E-02 0. -1.
    10030    2    1    2    0    0  0.00000000000E+00  0.00000000000E+00  0.14760529744E+04  0.38187289339E+04  0.35219253665E+04 0.  0.
        3    1    3    3  502    0 -0.12744270152E+03  0.14570603690E+04  0.18013457575E+04  0.23203691753E+04  0.10100000352E+00 0.  1.
       -3    1    3    3    0  502  0.12744270152E+03 -0.14570603690E+04 -0.32529278312E+03  0.14983597586E+04  0.10100000352E+00 0. -1.
</event>
<event>
 5   0  0.2565004E-06  0.3477663E+04  0.7818609E-02  0.8119104E-01
        2   -1    0    0  501    0  0.00000000000E+00  0.00000000000E+00  0.18266471277E+04  0.18266471277E+04  0.25500000920E-02 0. -1.
       -2   -1    0    0    0  501  0.00000000000E+00  0.00000000000E+00 -0.16552375054E+04  0.16552375055E+04  0.25500000920E-02 0.  1.
    10030    2    1    2    0    0  0.00000000000E+00  0.00000000000E+00  0.17140962222E+03  0.34818846331E+04  0.34776629135E+04 0.  0.
        3    1    3    3  502    0 -0.12030461764E+04  0.31899128352E+03  0.13014520319E+04  0.18007923098E+04  0.10100000352E+00 0. -1.
       -3    1    3    3    0  502  0.12030461764E+04 -0.31899128352E+03 -0.11300424097E+04  0.16810923233E+04  0.10100000352E+00 0.  1.
</event>
<event>
 5   0  0.3041329E-06  0.2759377E+04  0.7818609E-02  0.8315992E-01
       -2   -1    0    0    0  501  0.00000000000E+00  0.00000000000E+00  0.13800713995E+04  0.13800713995E+04  0.25500000920E-02 0.  1.
        2   -1    0    0  501    0  0.00000000000E+00  0.00000000000E+00 -0.13793059778E+04  0.13793059778E+04  0.25500000920E-02 0. -1.
    10030    2    1    2    0    0  0.00000000000E+00  0.00000000000E+00  0.76542167559E+00  0.27593773773E+04  0.27593772711E+04 0.  0.
        2    1    3    3  502    0 -0.12442507182E+04 -0.90344564260E+02  0.58963543065E+03  0.13798521410E+04  0.25500000920E-02 0.  1.
       -2    1    3    3    0  502  0.12442507182E+04  0.90344564260E+02 -0.58887000897E+03  0.13795252363E+04  0.25500000920E-02 0. -1.
</event>
<event>
 5   0  0.1782660E-06  0.3498540E+04  0.7818609E-02  0.8114136E-01
        2   -1    0    0  501    0  0.00000000000E+00  0.00000000000E+00  0.15854467022E+04  0.15854467023E+04  0.25500000920E-02 0. -1.
       -2   -1    0    0    0  501  0.00000000000E+00  0.00000000000E+00 -0.19300208962E+04  0.19300208962E+04  0.25500000920E-02 0.  1.
    10030    2    1    2    0    0  0.00000000000E+00  0.00000000000E+00 -0.34457419397E+03  0.35154675985E+04  0.34985398470E+04 0.  0.
        4    1    3    3  502    0 -0.14258672785E+04  0.38586779455E+03  0.76923758786E+03  0.16654487474E+04  0.12699999809E+01 0. -1.
       -4    1    3    3    0  502  0.14258672785E+04 -0.38586779455E+03 -0.11138117818E+04  0.18500188510E+04  0.12699999809E+01 0.  1.
</event>
<event>
 5   0  0.2565004E-06  0.2602285E+04  0.7818609E-02  0.8367426E-01
        2   -1    0    0  501    0  0.00000000000E+00  0.00000000000E+00  0.24343582242E+04  0.24343582242E+04  0.25500000920E-02 0.  1.
       -2   -1    0    0    0  501  0.00000000000E+00  0.00000000000E+00 -0.69544870126E+03  0.69544870126E+03  0.25500000920E-02 0. -1.
    10030    2    1    2    0    0  0.00000000000E+00  0.00000000000E+00  0.17389095230E+04  0.31298069255E+04  0.26022845851E+04 0.  0.
        3    1    3    3  502    0  0.52183800823E+03 -0.32974074867E+03 -0.50812786560E+03  0.79952348694E+03  0.10100000352E+00 0. -1.
       -3    1    3    3    0  502 -0.52183800823E+03  0.32974074867E+03  0.22470373886E+04  0.23302834385E+04  0.10100000352E+00 0.  1.
</event>
<event>
 5   0  0.2565004E-06  0.3073061E+04  0.7818609E-02  0.8223170E-01
       -2   -1    0    0    0  501  0.00000000000E+00  0.00000000000E+00  0.95553620480E+03  0.95553620480E+03  0.25500000920E-02 0.  1.
        2   -1    0    0  501    0  0.00000000000E+00  0.00000000000E+00 -0.24707868369E+04  0.24707868369E+04  0.25500000920E-02 0. -1.
    10030    2    1    2    0    0  0.00000000000E+00  0.00000000000E+00 -0.15152506321E+04  0.34263230417E+04  0.30730611949E+04 0.  0.
        3    1    3    3  502    0 -0.58279443366E+03  0.27384125096E+03 -0.23130917288E+04  0.24010480500E+04  0.10100000352E+00 0. -1.
       -3    1    3    3    0  502  0.58279443366E+03 -0.27384125096E+03  0.79784109672E+03  0.10252749916E+04  0.10100000352E+00 0.  1.
</event>
<event>
 5   0  0.1782660E-06  0.3842235E+04  0.7818609E-02  0.8037152E-01
        2   -1    0    0  501    0  0.00000000000E+00  0.00000000000E+00  0.12170477048E+04  0.12170477048E+04  0.25500000920E-02 0. -1.
       -2   -1    0    0    0  501  0.00000000000E+00  0.00000000000E+00 -0.30324960637E+04  0.30324960637E+04  0.25500000920E-02 0.  1.
    10030    2    1    2    0    0  0.00000000000E+00  0.00000000000E+00 -0.18154483588E+04  0.42495437685E+04  0.38422349612E+04 0.  0.
        4    1    3    3  502    0 -0.14393474445E+04  0.12547827000E+04 -0.67443750190E+03  0.20251094407E+04  0.12699999809E+01 0.  1.
       -4    1    3    3    0  502  0.14393474445E+04 -0.12547827000E+04 -0.11410108569E+04  0.22244343278E+04  0.12699999809E+01 0. -1.
</event>
<event>
 5   0  0.1130707E-06  0.3447369E+04  0.7818609E-02  0.8126377E-01
       -1   -1    0    0    0  501  0.00000000000E+00  0.00000000000E+00  0.17374196392E+04  0.17374196392E+04  0.50400001928E-02 0. -1.
        1   -1    0    0  501    0  0.00000000000E+00  0.00000000000E+00 -0.17100576805E+04  0.17100576805E+04  0.50400001928E-02 0.  1.
    10030    2    1    2    0    0  0.00000000000E+00  0.00000000000E+00  0.27361958786E+02  0.34474773197E+04  0.34473687347E+04 0.  0.
        3    1    3    3  502    0  0.16205408322E+03 -0.58344256532E+03  0.16275536836E+04  0.17365476545E+04  0.10100000352E+00 0. -1.
       -3    1    3    3    0  502 -0.16205408322E+03  0.58344256532E+03 -0.16001917249E+04  0.17109296652E+04  0.10100000352E+00 0.  1.
</event>
<event>
 5   0  0.1782660E-06  0.3130882E+04  0.7818609E-02  0.8207313E-01
       -2   -1    0    0    0  501  0.00000000000E+00  0.00000000000E+00  0.13424983263E+04  0.13424983263E+04  0.25500000920E-02 0. -1.
        2   -1    0    0  501    0  0.00000000000E+00  0.00000000000E+00 -0.18254066496E+04  0.18254066496E+04  0.25500000920E-02 0.  1.
    10030    2    1    2    0    0  0.00000000000E+00  0.00000000000E+00 -0.48290832328E+03  0.31679049760E+04  0.31308819026E+04 0.  0.
        4    1    3    3  502    0 -0.12913632678E+04 -0.61070393611E+03  0.40645008359E+03  0.14851874192E+04  0.12699999809E+01 0. -1.
       -4    1    3    3    0  502  0.12913632678E+04  0.61070393611E+03 -0.88935840687E+03  0.16827175567E+04  0.12699999809E+01 0.  1.
</event>
<event>
 5   0  0.1908726E-06  0.3421326E+04  0.7818609E-02  0.8132692E-01
       -2   -1    0    0    0  501  0.00000000000E+00  0.00000000000E+00  0.16070329678E+04  0.16070329678E+04  0.25500000920E-02 0. -1.
        2   -1    0    0  501    0  0.00000000000E+00  0.00000000000E+00 -0.18209754505E+04  0.18209754505E+04  0.25500000920E-02 0.  1.
    10030    2    1    2    0    0  0.00000000000E+00  0.00000000000E+00 -0.21394248267E+03  0.34280084183E+04  0.34213258147E+04 0.  0.
        5    1    3    3  502    0 -0.22895171373E+03  0.73206206869E+03 -0.16390136550E+04  0.18096191895E+04  0.46999998093E+01 0.  1.
       -5    1    3    3    0  502  0.22895171373E+03 -0.73206206869E+03  0.14250711724E+04  0.16183892288E+04  0.46999998093E+01 0. -1.
</event>
<event>
 5   0  0.2565004E-06  0.3604131E+04  0.7818609E-02  0.8089546E-01
        2   -1    0    0  501    0  0.00000000000E+00  0.00000000000E+00  0.21452369162E+04  0.21452369162E+04  0.25500000920E-02 0.  1.
       -2   -1    0    0    0  501  0.00000000000E+00  0.00000000000E+00 -0.15137907800E+04  0.15137907800E+04  0.25500000920E-02 0. -1.
    10030    2    1    2    0    0  0.00000000000E+00  0.00000000000E+00  0.63144613616E+03  0.36590276962E+04  0.36041308881E+04 0.  0.
        3    1    3    3  502    0 -0.12933065690E+04 -0.87990067212E+03 -0.59265272473E+03  0.16727535194E+04  0.10100000352E+00 0. -1.
       -3    1    3    3    0  502  0.12933065690E+04  0.87990067212E+03  0.12240988609E+04  0.19862741769E+04  0.10100000352E+00 0.  1.
</event>
<event>
 5   0  0.1089337E-06  0.3214780E+04  0.7818609E-02  0.8184925E-01
        1   -1    0    0  501    0  0.00000000000E+00  0.00000000000E+00  0.11025732780E+04  0.11025732780E+04  0.50400001928E-02 0.  1.
       -1   -1    0    0    0  501  0.00000000000E+00  0.00000000000E+00 -0.23433386116E+04  0.23433386116E+04  0.50400001928E-02 0. -1.
    10030    2    1    2    0    0  0.00000000000E+00  0.00000000000E+00 -0.12407653336E+04  0.34459118896E+04  0.32147799517E+04 0.  0.
        2    1    3    3  502    0  0.42840766475E+03 -0.85012653566E+03  0.76790115714E+03  0.12230782645E+04  0.25500000920E-02 0.  1.
       -2    1    3    3    0  502 -0.42840766475E+03  0.85012653566E+03 -0.20086664908E+04  0.22228336251E+04  0.25500000920E-02 0. -1.
</event>
<event>
 5   0  0.1125196E-06  0.3553489E+04  0.7818609E-02  0.8101229E-01
        1   -1    0    0  501    0  0.00000000000E+00  0.00000000000E+00  0.17868685744E+04  0.17868685745E+04  0.50400001928E-02 0.  1.
       -1   -1    0    0    0  501  0.00000000000E+00  0.00000000000E+00 -0.17666778905E+04  0.17666778905E+04  0.50400001928E-02 0. -1.
    10030    2    1    2    0    0  0.00000000000E+00  0.00000000000E+00  0.20190683958E+02  0.35535464650E+04  0.35534891044E+04 0.  0.
        4    1    3    3  502    0  0.11403481662E+04  0.13169276871E+04  0.35956788788E+03  0.17787588797E+04  0.12699999809E+01 0.  1.
       -4    1    3    3    0  502 -0.11403481662E+04 -0.13169276871E+04 -0.33937720392E+03  0.17747875852E+04  0.12699999809E+01 0. -1.
</event>
<event>
 5   0  0.1102175E-06  0.3485589E+04  0.7818609E-02  0.8117214E-01
       -1   -1    0    0    0  501  0.00000000000E+00  0.00000000000E+00  0.16093170735E+04  0.16093170735E+04  0.50400001928E-02 0.  1.
        1   -1    0    0  501    0  0.00000000000E+00  0.00000000000E+00 -0.18873421316E+04  0.18873421316E+04  0.50400001928E-02 0. -1.
    10030    2    1    2    0    0  0.00000000000E+00  0.00000000000E+00 -0.27802505807E+03  0.34966592052E+04  0.34855885678E+04 0.  0.
        5    1    3    3  502    0 -0.64902266294E+03  0.17250423755E+03 -0.17523248696E+04  0.18766066896E+04  0.46999998093E+01 0. -1.
       -5    1    3    3    0  502  0.64902266294E+03 -0.17250423755E+03  0.14742998115E+04  0.16200525156E+04  0.46999998093E+01 0.  1.
</event>
<event>
 5   0  0.1130707E-06  0.2542706E+04  0.7818609E-02  0.8387927E-01
        1   -1    0    0  501    0  0.00000000000E+00  0.00000000000E+00  0.17282177125E+04  0.17282177125E+04  0.50400001928E-02 0.  1.
       -1   -1    0    0    0  501  0.00000000000E+00  0.00000000000E+00 -0.93526355553E+03  0.93526355555E+03  0.50400001928E-02 0. -1.
    10030    2    1    2    0    0  0.00000000000E+00  0.00000000000E+00  0.79295415695E+03  0.26634812680E+04  0.25427064656E+04 0.  0.
        3    1    3    3  502    0 -0.15725187747E+03  0.53234571625E+03  0.15945786338E+04  0.16884315633E+04  0.10100000352E+00 0.  1.
       -3    1    3    3    0  502  0.15725187747E+03 -0.53234571625E+03 -0.80162447683E+03  0.97504970470E+03  0.10100000352E+00 0. -1.
</event>
<event>
 5   0  0.1042825E-06  0.3469222E+04  0.7818609E-02  0.8121123E-01
       -3   -1    0    0    0  501  0.00000000000E+00  0.00000000000E+00  0.13555825295E+04  0.13555825333E+04  0.10100000352E+00 0.  1.
        3   -1    0    0  501    0  0.00000000000E+00  0.00000000000E+00 -0.22196178752E+04  0.22196178775E+04  0.10100000352E+00 0. -1.
    10030    2    1    2    0    0  0.00000000000E+00  0.00000000000E+00 -0.86403534574E+03  0.35752004108E+04  0.34692219443E+04 0.  0.
        2    1    3    3  502    0  0.81787524865E+03  0.13490209605E+04  0.31119104338E+03  0.16079854912E+04  0.25500000920E-02 0.  1.
       -2    1    3    3    0  502 -0.81787524865E+03 -0.13490209605E+04 -0.11752263891E+04  0.19672149196E+04  0.25500000920E-02 0. -1.
</event>
<event>
 5   0  0.1782660E-06  0.3442601E+04  0.7818609E-02  0.8127529E-01
       -2   -1    0    0    0  501  0.00000000000E+00  0.00000000000E+00  0.13714235899E+04  0.13714235899E+04  0.25500000920E-02 0. -1.
        2   -1    0    0  501    0  0.00000000000E+00  0.00000000000E+00 -0.21604372768E+04  0.21604372768E+04  0.25500000920E-02 0.  1.
    10030    2    1    2    0    0  0.00000000000E+00  0.00000000000E+00 -0.78901368689E+03  0.35318608667E+04  0.34426005554E+04 0.  0.
        4    1    3    3  502    0 -0.82366322388E+03 -0.10529648720E+04  0.71791199186E+03  0.15174173351E+04  0.12699999809E+01 0. -1.
       -4    1    3    3    0  502  0.82366322388E+03  0.10529648720E+04 -0.15069256787E+04  0.20144435316E+04  0.12699999809E+01 0.  1.
</event>
<event>
 5   0  0.1908726E-06  0.1785188E+04  0.7818609E-02  0.8714216E-01
       -2   -1    0    0    0  501  0.00000000000E+00  0.00000000000E+00  0.35759922055E+03  0.35759922056E+03  0.25500000920E-02 0.  1.
        2   -1    0    0  501    0  0.00000000000E+00  0.00000000000E+00 -0.22279800631E+04  0.22279800631E+04  0.25500000920E-02 0. -1.
    10030    2    1    2    0    0  0.00000000000E+00  0.00000000000E+00 -0.18703808425E+04  0.25855792837E+04  0.17851878713E+04 0.  0.
        5    1    3    3  502    0  0.42855464466E+03  0.78088335105E+03 -0.10179362008E+04  0.13526470679E+04  0.46999998093E+01 0. -1.
       -5    1    3    3    0  502 -0.42855464466E+03 -0.78088335105E+03 -0.85244464173E+03  0.12329322157E+04  0.46999998093E+01 0.  1.
</event>
<event>
 5   0  0.3041329E-06  0.3079269E+04  0.7818609E-02  0.8221450E-01
       -2   -1    0    0    0  501  0.00000000000E+00  0.00000000000E+00  0.11672404106E+04  0.11672404106E+04  0.25500000920E-02 0.  1.
        2   -1    0    0  501    0  0.00000000000E+00  0.00000000000E+00 -0.20308365110E+04  0.20308365110E+04  0.25500000920E-02 0. -1.
    10030    2    1    2    0    0  0.00000000000E+00  0.00000000000E+00 -0.86359610041E+03  0.31980769216E+04  0.30792690321E+04 0.  0.
        2    1    3    3  502    0  0.99130248034E+03  0.99620341354E+03 -0.10848452209E+04  0.17753847476E+04  0.25500000920E-02 0. -1.
       -2    1    3    3    0  502 -0.99130248034E+03 -0.99620341354E+03  0.22124912053E+03  0.14226921740E+04  0.25500000920E-02 0.  1.
</event>
<event>
 5   0  0.1130707E-06  0.3451395E+04  0.7818609E-02  0.8125406E-01
        1   -1    0    0  501    0  0.00000000000E+00  0.00000000000E+00  0.18816104210E+04  0.18816104210E+04  0.50400001928E-02 0. -1.
       -1   -1    0    0    0  501  0.00000000000E+00  0.00000000000E+00 -0.15827036432E+04  0.15827036432E+04  0.50400001928E-02 0.  1.
    10030    2    1    2    0    0  0.00000000000E+00  0.00000000000E+00  0.29890677779E+03  0.34643140641E+04  0.34513948880E+04 0.  0.
        3    1    3    3  502    0 -0.53563665161E+03 -0.14876467498E+04  0.84344013057E+03  0.17920353621E+04  0.10100000352E+00 0. -1.
       -3    1    3    3    0  502  0.53563665161E+03  0.14876467498E+04 -0.54453335279E+03  0.16722787021E+04  0.10100000352E+00 0.  1.
</event>
<event>
 5   0  0.1102175E-06  0.2879879E+04  0.7818609E-02  0.8278889E-01
        1   -1    0    0  501    0  0.00000000000E+00  0.00000000000E+00  0.13917269201E+04  0.13917269201E+04  0.50400001928E-02 0.  1.
       -1   -1    0    0    0  501  0.00000000000E+00  0.00000000000E+00 -0.14898222029E+04  0.14898222029E+04  0.50400001928E-02 0. -1.
    10030    2    1    2    0    0  0.00000000000E+00  0.00000000000E+00 -0.98095282789E+02  0.28815491230E+04  0.28798789321E+04 0.  0.
        5    1    3    3  502    0 -0.38688149075E+02  0.44283920785E+03  0.13213452283E+04  0.13941228924E+04  0.46999998093E+01 0.  1.
       -5    1    3    3    0  502  0.38688149075E+02 -0.44283920785E+03 -0.14194405111E+04  0.14874262306E+04  0.46999998093E+01 0. -1.
</event>
<event>
 5   0  0.3378848E-06  0.3444546E+04  0.7818609E-02  0.8127059E-01
       -2   -1    0    0    0  501  0.00000000000E+00  0.00000000000E+00  0.13983247759E+04  0.13983247759E+04  0.25500000920E-02 0.  1.
        2   -1    0    0  501    0  0.00000000000E+00  0.00000000000E+00 -0.21212696281E+04  0.21212696281E+04  0.25500000920E-02 0. -1.
    10030    2    1    2    0    0  0.00000000000E+00  0.00000000000E+00 -0.72294485222E+03  0.35195944040E+04  0.34445457624E+04 0.  0.
        1    1    3    3  502    0  0.31304819630E+03 -0.83669732245E+03  0.11430773257E+04  0.14507540643E+04  0.50400001928E-02 0.  1.
       -1    1    3    3    0  502 -0.31304819630E+03  0.83669732245E+03 -0.18660221779E+04  0.20688403397E+04  0.50400001928E-02 0. -1.
</event>
<event>
 5   0  0.2639179E-06  0.1864084E+04  0.7818609E-02  0.8672944E-01
       -2   -1    0    0    0  501  0.00000000000E+00  0.00000000000E+00  0.62959835705E+03  0.62959835705E+03  0.25500000920E-02 0.  1.
        2   -1    0    0  501    0  0.00000000000E+00  0.00000000000E+00 -0.13797719478E+04  0.13797719478E+04  0.25500000920E-02 0. -1.
    10030    2    1    2    0    0  0.00000000000E+00  0.00000000000E+00 -0.75017359074E+03  0.20093703048E+04  0.18640838516E+04 0.  0.
        3    1    3    3  502    0  0.27758022324E+03  0.65020412562E+03  0.27961057453E+03  0.76026197386E+03  0.10100000352E+00 0.  1.
       -3    1    3    3    0  502 -0.27758022324E+03 -0.65020412562E+03 -0.10297841653E+04  0.12491083310E+04  0.10100000352E+00 0. -1.
</event>
<event>
 5   0  0.1908726E-06  0.3303186E+04  0.7818609E-02  0.8162085E-01
       -2   -1    0    0    0  501  0.00000000000E+00  0.00000000000E+00  0.18233726835E+04  0.18233726835E+04  0.25500000920E-02 0.  1.
        2   -1    0    0  501    0  0.00000000000E+00  0.00000000000E+00 -0.14959963423E+04  0.14959963423E+04  0.25500000920E-02 0. -1.
    10030    2    1    2    0    0  0.00000000000E+00  0.00000000000E+00  0.32737634125E+03  0.33193690258E+04  0.33031856534E+04 0.  0.
        5    1    3    3  502    0 -0.47292290975E+03 -0.64800993483E+03  0.16144244768E+04  0.18027649418E+04  0.46999998093E+01 0.  1.
       -5    1    3    3    0  502  0.47292290975E+03  0.64800993483E+03 -0.12870481356E+04  0.15166040840E+04  0.46999998093E+01 0. -1.
</event>
<event>
 5   0  0.1102175E-06  0.1979760E+04  0.7818609E-02  0.8616142E-01
       -1   -1    0    0    0  501  0.00000000000E+00  0.00000000000E+00  0.81247539617E+03  0.81247539619E+03  0.50400001928E-02 0. -1.
        1   -1    0    0  501    0  0.00000000000E+00  0.00000000000E+00 -0.12060208805E+04  0.12060208805E+04  0.50400001928E-02 0.  1.
    10030    2    1    2    0    0  0.00000000000E+00  0.00000000000E+00 -0.39354548428E+03  0.20184962767E+04  0.19797598770E+04 0.  0.
        5    1    3    3  502    0  0.29206552557E+03  0.35485474343E+03  0.69708860299E+03  0.83497231725E+03  0.46999998093E+01 0. -1.
       -5    1    3    3    0  502 -0.29206552557E+03 -0.35485474343E+03 -0.10906340873E+04  0.11835239594E+04  0.46999998093E+01 0.  1.
</event>
<event>
 5   0  0.1908726E-06  0.2074529E+04  0.7818609E-02  0.8572547E-01
        2   -1    0    0  501    0  0.00000000000E+00  0.00000000000E+00  0.19957593893E+04  0.19957593893E+04  0.25500000920E-02 0.  1.
       -2   -1    0    0    0  501  0.00000000000E+00  0.00000000000E+00 -0.53910173370E+03  0.53910173371E+03  0.25500000920E-02 0. -1.
    10030    2    1    2    0    0  0.00000000000E+00  0.00000000000E+00  0.14566576556E+04  0.25348611230E+04  0.20745287145E+04 0.  0.
        5    1    3    3  502    0  0.33941812551E+03  0.10362041746E+03  0.19192578296E+04  0.19517977767E+04  0.46999998093E+01 0.  1.
       -5    1    3    3    0  502 -0.33941812551E+03 -0.10362041746E+03 -0.46260017397E+03  0.58306334629E+03  0.46999998093E+01 0. -1.
</event>
<event>
 5   0  0.1782660E-06  0.3357616E+04  0.7818609E-02  0.8148388E-01
       -2   -1    0    0    0  501  0.00000000000E+00  0.00000000000E+00  0.15367072216E+04  0.15367072216E+04  0.25500000920E-02 0.  1.
        2   -1    0    0  501    0  0.00000000000E+00  0.00000000000E+00 -0.18340490280E+04  0.18340490280E+04  0.25500000920E-02 0. -1.
    10030    2    1    2    0    0  0.00000000000E+00  0.00000000000E+00 -0.29734180648E+03  0.33707562496E+04  0.33576160508E+04 0.  0.
        4    1    3    3  502    0 -0.10833076628E+04  0.29191179546E+03 -0.14024085261E+04  0.17959730721E+04  0.12699999809E+01 0. -1.
       -4    1    3    3    0  502  0.10833076628E+04 -0.29191179546E+03  0.11050667196E+04  0.15747831776E+04  0.12699999809E+01 0.  1.
</event>
<event>
 5   0  0.3378848E-06  0.1851728E+04  0.7818609E-02  0.8679265E-01
        2   -1    0    0  501    0  0.00000000000E+00  0.00000000000E+00  0.14974316311E+04  0.14974316311E+04  0.25500000920E-02 0.  1.
       -2   -1    0    0    0  501  0.00000000000E+00  0.00000000000E+00 -0.57246271232E+03  0.57246271233E+03  0.25500000920E-02 0. -1.
    10030    2    1    2    0    0  0.00000000000E+00  0.00000000000E+00  0.92496891876E+03  0.20698943434E+04  0.18517275967E+04 0.  0.
        1    1    3    3  502    0  0.28462130074E+03 -0.67261131917E+03 -0.17360061074E+03  0.75070130117E+03  0.50400001928E-02 0. -1.
       -1    1    3    3    0  502 -0.28462130074E+03  0.67261131917E+03  0.10985695295E+04  0.13191930422E+04  0.50400001928E-02 0.  1.
</event>
<event>
 5   0  0.1089337E-06  0.3007072E+04  0.7818609E-02  0.8241714E-01
       -1   -1    0    0    0  501  0.00000000000E+00  0.00000000000E+00  0.92680506644E+03  0.92680506645E+03  0.50400001928E-02 0. -1.
        1   -1    0    0  501    0  0.00000000000E+00  0.00000000000E+00 -0.24391544750E+04  0.24391544750E+04  0.50400001928E-02 0.  1.
    10030    2    1    2    0    0  0.00000000000E+00  0.00000000000E+00 -0.15123494086E+04  0.33659595415E+04  0.30070721476E+04 0.  0.
        2    1    3    3  502    0 -0.27211989096E+03  0.22886429703E+03  0.87906660866E+03  0.94825429289E+03  0.25500000920E-02 0. -1.
       -2    1    3    3    0  502  0.27211989096E+03 -0.22886429703E+03 -0.23914160172E+04  0.24177052486E+04  0.25500000920E-02 0.  1.
</event>
<event>
 5   0  0.1125196E-06  0.2575474E+04  0.7818609E-02  0.8376580E-01
        1   -1    0    0  501    0  0.00000000000E+00  0.00000000000E+00  0.12947195254E+04  0.12947195254E+04  0.50400001928E-02 0. -1.
       -1   -1    0    0    0  501  0.00000000000E+00  0.00000000000E+00 -0.12807918776E+04  0.12807918776E+04  0.50400001928E-02 0.  1.
    10030    2    1    2    0    0  0.00000000000E+00  0.00000000000E+00  0.13927647818E+02  0.25755114031E+04  0.25754737444E+04 0.  0.
        4    1    3    3  502    0  0.99430521595E+03  0.51610452431E+03  0.64199901161E+03  0.12911897948E+04  0.12699999809E+01 0. -1.
       -4    1    3    3    0  502 -0.99430521595E+03 -0.51610452431E+03 -0.62807136379E+03  0.12843216082E+04  0.12699999809E+01 0.  1.
</event>
<event>
 5   0  0.1908726E-06  0.3596214E+04  0.7818609E-02  0.8091360E-01
       -2   -1    0    0    0  501  0.00000000000E+00  0.00000000000E+00  0.16763086456E+04  0.16763086456E+04  0.25500000920E-02 0.  1.
        2   -1    0    0  501    0  0.00000000000E+00  0.00000000000E+00 -0.19287546760E+04  0.19287546760E+04  0.25500000920E-02 0. -1.
    10030    2    1    2    0    0  0.00000000000E+00  0.00000000000E+00 -0.25244603047E+03  0.36050633216E+04  0.35962136414E+04 0.  0.
        5    1    3    3  502    0 -0.13309781455E+04  0.11633152274E+04  0.20376922540E+03  0.17794238195E+04  0.46999998093E+01 0.  1.
       -5    1    3    3    0  502  0.13309781455E+04 -0.11633152274E+04 -0.45621525587E+03  0.18256395021E+04  0.46999998093E+01 0. -1.
</event>
<event>
 5   0  0.1908726E-06  0.2343344E+04  0.7818609E-02  0.8461025E-01
       -2   -1    0    0    0  501  0.00000000000E+00  0.00000000000E+00  0.49826199519E+03  0.49826199520E+03  0.25500000920E-02 0.  1.
        2   -1    0    0  501    0  0.00000000000E+00  0.00000000000E+00 -0.27552076601E+04  0.27552076601E+04  0.25500000920E-02 0. -1.
    10030    2    1    2    0    0  0.00000000000E+00  0.00000000000E+00 -0.22569456650E+04  0.32534696553E+04  0.23433439918E+04 0.  0.
        5    1    3    3  502    0 -0.10746475536E+04 -0.46612233297E+03 -0.11640269980E+04  0.16513989027E+04  0.46999998093E+01 0. -1.
       -5    1    3    3    0  502  0.10746475536E+04  0.46612233297E+03 -0.10929186669E+04  0.16020707526E+04  0.46999998093E+01 0.  1.
</event>
<event>
 5   0  0.2565004E-06  0.3524712E+04  0.7818609E-02  0.8107958E-01
        2   -1    0    0  501    0  0.00000000000E+00  0.00000000000E+00  0.10288267485E+04  0.10288267485E+04  0.25500000920E-02 0. -1.
       -2   -1    0    0    0  501  0.00000000000E+00  0.00000000000E+00 -0.30188739112E+04  0.30188739112E+04  0.25500000920E-02 0.  1.
    10030    2    1    2    0    0  0.00000000000E+00  0.00000000000E+00 -0.19900471628E+04  0.40477006597E+04  0.35247117500E+04 0.  0.
        3    1    3    3  502    0  0.13030376030E+04  0.97232171148E+03 -0.17760738966E+04  0.24078527783E+04  0.10100000352E+00 0.  1.
       -3    1    3    3    0  502 -0.13030376030E+04 -0.97232171148E+03 -0.21397326616E+03  0.16398478814E+04  0.10100000352E+00 0. -1.
</event>
<event>
 5   0  0.1130707E-06  0.3496751E+04  0.7818609E-02  0.8114560E-01
        1   -1    0    0  501    0  0.00000000000E+00  0.00000000000E+00  0.19065982657E+04  0.19065982657E+04  0.50400001928E-02 0.  1.
       -1   -1    0    0    0  501  0.00000000000E+00  0.00000000000E+00 -0.16032834966E+04  0.16032834966E+04  0.50400001928E-02 0. -1.
    10030    2    1    2    0    0  0.00000000000E+00  0.00000000000E+00  0.30331476910E+03  0.35098817623E+04  0.34967513689E+04 0.  0.
        3    1    3    3  502    0 -0.11015395497E+04  0.84137444327E+03  0.12212652544E+04  0.18473735857E+04  0.10100000352E+00 0.  1.
       -3    1    3    3    0  502  0.11015395497E+04 -0.84137444327E+03 -0.91795048531E+03  0.16625081766E+04  0.10100000352E+00 0. -1.
</event>
<event>
 5   0  0.1125196E-06  0.3477681E+04  0.7818609E-02  0.8119100E-01
        1   -1    0    0  501    0  0.00000000000E+00  0.00000000000E+00  0.11030576375E+04  0.11030576375E+04  0.50400001928E-02 0. -1.
       -1   -1    0    0    0  501  0.00000000000E+00  0.00000000000E+00 -0.27410778709E+04  0.27410778709E+04  0.50400001928E-02 0.  1.
    10030    2    1    2    0    0  0.00000000000E+00  0.00000000000E+00 -0.16380202334E+04  0.38441355084E+04  0.34776813427E+04 0.  0.
        4    1    3    3  502    0 -0.11938963661E+04  0.22599971814E+03 -0.21939009520E+04  0.25079209329E+04  0.12699999809E+01 0.  1.
       -4    1    3    3    0  502  0.11938963661E+04 -0.22599971814E+03  0.55588071859E+03  0.13362145755E+04  0.12699999809E+01 0. -1.
</event>
<event>
 5   0  0.1110956E-06  0.3545613E+04  0.7818609E-02  0.8103064E-01
        1   -1    0    0  501    0  0.00000000000E+00  0.00000000000E+00  0.18347166230E+04  0.18347166230E+04  0.50400001928E-02 0. -1.
       -1   -1    0    0    0  501  0.00000000000E+00  0.00000000000E+00 -0.17129857836E+04  0.17129857836E+04  0.50400001928E-02 0.  1.
    10030    2    1    2    0    0  0.00000000000E+00  0.00000000000E+00  0.12173083940E+03  0.35477024067E+04  0.35456133417E+04 0.  0.
        1    1    3    3  502    0 -0.11179509095E+04 -0.84785077347E+03 -0.10233681228E+04  0.17366483481E+04  0.50400001928E-02 0.  1.
       -1    1    3    3    0  502  0.11179509095E+04  0.84785077347E+03  0.11450989622E+04  0.18110540586E+04  0.50400001928E-02 0. -1.
</event>
<event>
 5   0  0.1089337E-06  0.3466440E+04  0.7818609E-02  0.8121790E-01
        1   -1    0    0  501    0  0.00000000000E+00  0.00000000000E+00  0.17410574961E+04  0.17410574961E+04  0.50400001928E-02 0.  1.
       -1   -1    0    0    0  501  0.00000000000E+00  0.00000000000E+00 -0.17254177558E+04  0.17254177558E+04  0.50400001928E-02 0. -1.
    10030    2    1    2    0    0  0.00000000000E+00  0.00000000000E+00  0.15639740328E+02  0.34664752519E+04  0.34664399707E+04 0.  0.
        2    1    3    3  502    0  0.69846603203E+03  0.14416916563E+04 -0.65379240154E+03  0.17302526215E+04  0.25500000920E-02 0. -1.
       -2    1    3    3    0  502 -0.69846603203E+03 -0.14416916563E+04  0.66943214187E+03  0.17362226304E+04  0.25500000920E-02 0.  1.
</event>
<event>
 5   0  0.3041329E-06  0.3360327E+04  0.7818609E-02  0.8147713E-01
        2   -1    0    0  501    0  0.00000000000E+00  0.00000000000E+00  0.12583236619E+04  0.12583236619E+04  0.25500000920E-02 0.  1.
       -2   -1    0    0    0  501  0.00000000000E+00  0.00000000000E+00 -0.22434207174E+04  0.22434207174E+04  0.25500000920E-02 0. -1.
    10030    2    1    2    0    0  0.00000000000E+00  0.00000000000E+00 -0.98509705550E+03  0.35017443794E+04  0.33603269915E+04 0.  0.
        2    1    3    3  502    0  0.14123055194E+04 -0.66757511026E+03 -0.11371987948E+04  0.19322226857E+04  0.25500000920E-02 0.  1.
       -2    1    3    3    0  502 -0.14123055194E+04  0.66757511026E+03  0.15210173932E+03  0.15695216937E+04  0.25500000920E-02 0. -1.
</event>
<event>
 5   0  0.1042825E-06  0.3383448E+04  0.7818609E-02  0.8141981E-01
       -3   -1    0    0    0  501  0.00000000000E+00  0.00000000000E+00  0.18763046352E+04  0.18763046379E+04  0.10100000352E+00 0. -1.
        3   -1    0    0  501    0  0.00000000000E+00  0.00000000000E+00 -0.15253016116E+04  0.15253016150E+04  0.10100000352E+00 0.  1.
    10030    2    1    2    0    0  0.00000000000E+00  0.00000000000E+00  0.35100302355E+03  0.34016062529E+04  0.33834482377E+04 0.  0.
        5    1    3    3  502    0 -0.10554801825E+04  0.35848241197E+03 -0.11038687601E+04  0.15687881899E+04  0.46999998093E+01 0.  1.
       -5    1    3    3    0  502  0.10554801825E+04 -0.35848241197E+03  0.14548717836E+04  0.18328180630E+04  0.46999998093E+01 0. -1.
</event>
<event>
 5   0  0.1782660E-06  0.2459928E+04  0.7818609E-02  0.8417402E-01
        2   -1    0    0  501    0  0.00000000000E+00  0.00000000000E+00  0.18596690223E+04  0.18596690223E+04  0.25500000920E-02 0.  1.
       -2   -1    0    0    0  501  0.00000000000E+00  0.00000000000E+00 -0.81348406516E+03  0.81348406516E+03  0.25500000920E-02 0. -1.
    10030    2    1    2    0    0  0.00000000000E+00  0.00000000000E+00  0.10461849571E+04  0.26731530875E+04  0.24599277356E+04 0.  0.
        4    1    3    3  502    0  0.93219321273E+03  0.10510202670E+03  0.13875177797E+04  0.16748844210E+04  0.12699999809E+01 0.  1.
       -4    1    3    3    0  502 -0.93219321273E+03 -0.10510202670E+03 -0.34133282252E+03  0.99826866649E+03  0.12699999809E+01 0. -1.
</event>
<event>
 5   0  0.1130707E-06  0.3455044E+04  0.7818609E-02  0.8124527E-01
        1   -1    0    0  501    0  0.00000000000E+00  0.00000000000E+00  0.26547208280E+04  0.26547208280E+04  0.50400001928E-02 0.  1.
       -1   -1    0    0    0  501  0.00000000000E+00  0.00000000000E+00 -0.11241604656E+04  0.11241604656E+04  0.50400001928E-02 0. -1.
    10030    2    1    2    0    0  0.00000000000E+00  0.00000000000E+00  0.15305603624E+04  0.37788812936E+04  0.34550439662E+04 0.  0.
        3    1    3    3  502    0  0.16646928412E+04 -0.85201567607E+02  0.12615374343E+04  0.20904397315E+04  0.10100000352E+00 0.  1.
       -3    1    3    3    0  502 -0.16646928412E+04  0.85201567607E+02  0.26902292803E+03  0.16884415621E+04  0.10100000352E+00 0. -1.
</event>
<event>
 5   0  0.1908726E-06  0.3034178E+04  0.7818609E-02  0.8234038E-01
       -2   -1    0    0    0  501  0.00000000000E+00  0.00000000000E+00  0.12457100672E+04  0.12457100672E+04  0.25500000920E-02 0. -1.
        2   -1    0    0  501    0  0.00000000000E+00  0.00000000000E+00 -0.18475874535E+04  0.18475874535E+04  0.25500000920E-02 0.  1.
    10030    2    1    2    0    0  0.00000000000E+00  0.00000000000E+00 -0.60187738630E+03  0.30932975208E+04  0.30341775103E+04 0.  0.
        5    1    3    3  502    0  0.69729914287E+03  0.79942248278E+03 -0.14066138104E+04  0.17617851465E+04  0.46999998093E+01 0.  1.
       -5    1    3    3    0  502 -0.69729914287E+03 -0.79942248278E+03  0.80473642413E+03  0.13315123743E+04  0.46999998093E+01 0. -1.
</event>
<event>
 5   0  0.1125196E-06  0.3343105E+04  0.7818609E-02  0.8152013E-01
       -1   -1    0    0    0  501  0.00000000000E+00  0.00000000000E+00  0.19601868344E+04  0.19601868344E+04  0.50400001928E-02 0. -1.
        1   -1    0    0  501    0  0.00000000000E+00  0.00000000000E+00 -0.14254188555E+04  0.14254188555E+04  0.50400001928E-02 0.  1.
    10030    2    1    2    0    0  0.00000000000E+00  0.00000000000E+00  0.53476797891E+03  0.33856056899E+04  0.33431047091E+04 0.  0.
        4    1    3    3  502    0  0.74671707786E+03 -0.96285332246E+03  0.14262271947E+04  0.18758460861E+04  0.12699999809E+01 0. -1.
       -4    1    3    3    0  502 -0.74671707786E+03  0.96285332246E+03 -0.89145921576E+03  0.15097596038E+04  0.12699999809E+01 0.  1.
</event>
<event>
 5   0  0.3041329E-06  0.2150041E+04  0.7818609E-02  0.8539515E-01
       -2   -1    0    0    0  501  0.00000000000E+00  0.00000000000E+00  0.10313444628E+04  0.10313444628E+04  0.25500000920E-02 0. -1.
        2   -1    0    0  501    0  0.00000000000E+00  0.00000000000E+00 -0.11205464227E+04  0.11205464227E+04  0.25500000920E-02 0.  1.
    10030    2    1    2    0    0  0.00000000000E+00  0.00000000000E+00 -0.89201959896E+02  0.21518908856E+04  0.21500412540E+04 0.  0.
        2    1    3    3  502    0 -0.40205964112E+02  0.98490178009E+03 -0.47394707268E+03  0.10937430519E+04  0.25500000920E-02 0.  1.
       -2    1    3    3    0  502  0.40205964112E+02 -0.98490178009E+03  0.38474511278E+03  0.10581478336E+04  0.25500000920E-02 0. -1.
</event>
<event>
 5   0  0.3378848E-06  0.3355741E+04  0.7818609E-02  0.8148855E-01
       -2   -1    0    0    0  501  0.00000000000E+00  0.00000000000E+00  0.11726043272E+04  0.11726043272E+04  0.25500000920E-02 0.  1.
        2   -1    0    0  501    0  0.00000000000E+00  0.00000000000E+00 -0.24008520084E+04  0.24008520084E+04  0.25500000920E-02 0. -1.
    10030    2    1    2    0    0  0.00000000000E+00  0.00000000000E+00 -0.12282476813E+04  0.35734563356E+04  0.33557410234E+04 0.  0.
        1    1    3    3  502    0  0.14293438042E+04 -0.34198807735E+03  0.24788188714E+03  0.14904445597E+04  0.50400001928E-02 0.  1.
       -1    1    3    3    0  502 -0.14293438042E+04  0.34198807735E+03 -0.14761295684E+04  0.20830117759E+04  0.50400001928E-02 0. -1.
</event>
<event>
 5   0  0.1089337E-06  0.3498087E+04  0.7818609E-02  0.8114244E-01
        1   -1    0    0  501    0  0.00000000000E+00  0.00000000000E+00  0.23372902487E+04  0.23372902487E+04  0.50400001928E-02 0.  1.
       -1   -1    0    0    0  501  0.00000000000E+00  0.00000000000E+00 -0.13088458552E+04  0.13088458552E+04  0.50400001928E-02 0. -1.
    10030    2    1    2    0    0  0.00000000000E+00  0.00000000000E+00  0.10284443935E+04  0.36461361039E+04  0.34980867081E+04 0.  0.
        2    1    3    3  502    0  0.56855379460E+03  0.11762852033E+04 -0.69785750815E+03  0.14811837829E+04  0.25500000920E-02 0. -1.
       -2    1    3    3    0  502 -0.56855379460E+03 -0.11762852033E+04  0.17263019016E+04  0.21649523210E+04  0.25500000920E-02 0.  1.
</event>
<event>
 5   0  0.3041329E-06  0.2334610E+04  0.7818609E-02  0.8464398E-01
       -2   -1    0    0    0  501  0.00000000000E+00  0.00000000000E+00  0.12515722464E+04  0.12515722464E+04  0.25500000920E-02 0.  1.
        2   -1    0    0  501    0  0.00000000000E+00  0.00000000000E+00 -0.10887115966E+04  0.10887115966E+04  0.25500000920E-02 0. -1.
    10030    2    1    2    0    0  0.00000000000E+00  0.00000000000E+00  0.16286064981E+03  0.23402838431E+04  0.23346102190E+04 0.  0.
        2    1    3    3  502    0 -0.89087134444E+03 -0.10710303081E+03  0.82988960474E+03  0.12222272979E+04  0.25500000920E-02 0.  1.
       -2    1    3    3    0  502  0.89087134444E+03  0.10710303081E+03 -0.66702895493E+03  0.11180565452E+04  0.25500000920E-02 0. -1.
</event>
<event>
 5   0  0.1908726E-06  0.3542112E+04  0.7818609E-02  0.8103882E-01
        2   -1    0    0  501    0  0.00000000000E+00  0.00000000000E+00  0.29797689015E+04  0.29797689015E+04  0.25500000920E-02 0. -1.
       -2   -1    0    0    0  501  0.00000000000E+00  0.00000000000E+00 -0.10526454240E+04  0.10526454240E+04  0.25500000920E-02 0.  1.
    10030    2    1    2    0    0  0.00000000000E+00  0.00000000000E+00  0.19271234775E+04  0.40324143255E+04  0.35421124198E+04 0.  0.
        5    1    3    3  502    0 -0.63536372224E+03  0.66209135848E+02  0.28440410145E+04  0.29149034446E+04  0.46999998093E+01 0. -1.
       -5    1    3    3    0  502  0.63536372224E+03 -0.66209135848E+02 -0.91691753701E+03  0.11175108809E+04  0.46999998093E+01 0.  1.
</event>
<event>
 5   0  0.1130707E-06  0.2201872E+04  0.7818609E-02  0.8517649E-01
        1   -1    0    0  501    0  0.00000000000E+00  0.00000000000E+00  0.17588665492E+04  0.17588665492E+04  0.50400001928E-02 0. -1.
       -1   -1    0    0    0  501  0.00000000000E+00  0.00000000000E+00 -0.68911422997E+03  0.68911422999E+03  0.50400001928E-02 0.  1.
    10030    2    1    2    0    0  0.00000000000E+00  0.00000000000E+00  0.10697523192E+04  0.24479807792E+04  0.22018719015E+04 0.  0.
        3    1    3    3  502    0 -0.64464701184E+03 -0.65443627793E+03 -0.13974478345E+03  0.92918524873E+03  0.10100000352E+00 0.  1.
       -3    1    3    3    0  502  0.64464701184E+03  0.65443627793E+03  0.12094971026E+04  0.15187955304E+04  0.10100000352E+00 0. -1.
</event>
<event>
 5   0  0.1125196E-06  0.3138582E+04  0.7818609E-02  0.8205229E-01
       -1   -1    0    0    0  501  0.00000000000E+00  0.00000000000E+00  0.13676709696E+04  0.13676709696E+04  0.50400001928E-02 0. -1.
        1   -1    0    0  501    0  0.00000000000E+00  0.00000000000E+00 -0.18006334548E+04  0.18006334548E+04  0.50400001928E-02 0.  1.
    10030    2    1    2    0    0  0.00000000000E+00  0.00000000000E+00 -0.43296248519E+03  0.31683044244E+04  0.31385819110E+04 0.  0.
        4    1    3    3  502    0  0.13684377950E+04  0.52951381323E+03  0.34526467792E+03  0.15073872057E+04  0.12699999809E+01 0. -1.
       -4    1    3    3    0  502 -0.13684377950E+04 -0.52951381323E+03 -0.77822716311E+03  0.16609172187E+04  0.12699999809E+01 0.  1.
</event>
<event>
 5   0  0.2565004E-06  0.3164909E+04  0.7818609E-02  0.8198147E-01
       -2   -1    0    0    0  501  0.00000000000E+00  0.00000000000E+00  0.19978368332E+04  0.19978368332E+04  0.25500000920E-02 0.  1.
        2   -1    0    0  501    0  0.00000000000E+00  0.00000000000E+00 -0.12534364991E+04  0.12534364991E+04  0.25500000920E-02 0. -1.
    10030    2    1    2    0    0  0.00000000000E+00  0.00000000000E+00  0.74440033415E+03  0.32512733323E+04  0.31649085965E+04 0.  0.
        3    1    3    3  502    0  0.11985800974E+04  0.35898011167E+02 -0.68858557181E+03  0.13827628202E+04  0.10100000352E+00 0. -1.
       -3    1    3    3    0  502 -0.11985800974E+04 -0.35898011167E+02  0.14329859060E+04  0.18685105121E+04  0.10100000352E+00 0.  1.
</event>
<event>
 5   0  0.3041329E-06  0.1818319E+04  0.7818609E-02  0.8696618E-01
        2   -1    0    0  501    0  0.00000000000E+00  0.00000000000E+00  0.20322061943E+04  0.20322061943E+04  0.25500000920E-02 0.  1.
       -2   -1    0    0    0  501  0.00000000000E+00  0.00000000000E+00 -0.40673590007E+03  0.40673590008E+03  0.25500000920E-02 0. -1.
    10030    2    1    2    0    0  0.00000000000E+00  0.00000000000E+00  0.16254702942E+04  0.24389420944E+04  0.18183192410E+04 0.  0.
        2    1    3    3  502    0 -0.81308694325E+03  0.35521639261E+03  0.54688984208E+03  0.10422943741E+04  0.25500000920E-02 0.  1.
       -2    1    3    3    0  502  0.81308694325E+03 -0.35521639261E+03  0.10785804521E+04  0.13966477203E+04  0.25500000920E-02 0. -1.
</event>
<event>
 5   0  0.1130707E-06  0.3514381E+04  0.7818609E-02  0.8110390E-01
       -1   -1    0    0    0  501  0.00000000000E+00  0.00000000000E+00  0.13915589108E+04  0.13915589108E+04  0.50400001928E-02 0.  1.
        1   -1    0    0  501    0  0.00000000000E+00  0.00000000000E+00 -0.22188914011E+04  0.22188914011E+04  0.50400001928E-02 0. -1.
    10030    2    1    2    0    0  0.00000000000E+00  0.00000000000E+00 -0.82733249028E+03  0.36104503119E+04  0.35143807997E+04 0.  0.
        3    1    3    3  502    0 -0.12179041868E+03  0.14737208024E+03  0.13808422544E+04  0.13940146261E+04  0.10100000352E+00 0.  1.
       -3    1    3    3    0  502  0.12179041868E+03 -0.14737208024E+03 -0.22081747447E+04  0.22164356858E+04  0.10100000352E+00 0. -1.
</event>
<event>
 5   0  0.1102175E-06  0.2875772E+04  0.7818609E-02  0.8280123E-01
        1   -1    0    0  501    0  0.00000000000E+00  0.00000000000E+00  0.12814227452E+04  0.12814227452E+04  0.50400001928E-02 0. -1.
       -1   -1    0    0    0  501  0.00000000000E+00  0.00000000000E+00 -0.16134531668E+04  0.16134531668E+04  0.50400001928E-02 0.  1.
    10030    2    1    2    0    0  0.00000000000E+00  0.00000000000E+00 -0.33203042163E+03  0.28948759120E+04  0.28757716087E+04 0.  0.
        5    1    3    3  502    0  0.92547644427E+03 -0.62301158049E+03 -0.10791484681E+04  0.15521706042E+04  0.46999998093E+01 0.  1.
       -5    1    3    3    0  502 -0.92547644427E+03  0.62301158049E+03  0.74711804648E+03  0.13427053078E+04  0.46999998093E+01 0. -1.
</event>
<event>
 5   0  0.1130707E-06  0.2891486E+04  0.7818609E-02  0.8275415E-01
        1   -1    0    0  501    0  0.00000000000E+00  0.00000000000E+00  0.11355272650E+04  0.11355272650E+04  0.50400001928E-02 0. -1.
       -1   -1    0    0    0  501  0.00000000000E+00  0.00000000000E+00 -0.18407065458E+04  0.18407065458E+04  0.50400001928E-02 0.  1.
    10030    2    1    2    0    0  0.00000000000E+00  0.00000000000E+00 -0.70517928080E+03  0.29762338109E+04  0.28914857563E+04 0.  0.
        3    1    3    3  502    0 -0.65720546491E+03 -0.26501180080E+03  0.94451278392E+03  0.11807856227E+04  0.10100000352E+00 0. -1.
       -3    1    3    3    0  502  0.65720546491E+03  0.26501180080E+03 -0.16496920647E+04  0.17954481881E+04  0.10100000352E+00 0.  1.
</event>
<event>
 5   0  0.1908726E-06  0.1819919E+04  0.7818609E-02  0.8695778E-01
        2   -1    0    0  501    0  0.00000000000E+00  0.00000000000E+00  0.26677056493E+04  0.26677056493E+04  0.25500000920E-02 0. -1.
       -2   -1    0    0    0  501  0.00000000000E+00  0.00000000000E+00 -0.31038880085E+03  0.31038880086E+03  0.25500000920E-02 0.  1.
    10030    2    1    2    0    0  0.00000000000E+00  0.00000000000E+00  0.23573168485E+04  0.29780944502E+04  0.18199186328E+04 0.  0.
        5    1    3    3  502    0 -0.54241239937E+03 -0.25166719878E+03  0.56262373758E+02  0.60061229977E+03  0.46999998093E+01 0. -1.
       -5    1    3    3    0  502  0.54241239937E+03  0.25166719878E+03  0.23010544747E+04  0.23774821504E+04  0.46999998093E+01 0.  1.
</event>
<event>
 5   0  0.1089337E-06  0.3540042E+04  0.7818609E-02  0.8104366E-01
       -1   -1    0    0    0  501  0.00000000000E+00  0.00000000000E+00  0.11405163756E+04  0.11405163756E+04  0.50400001928E-02 0.  1.
        1   -1    0    0  501    0  0.00000000000E+00  0.00000000000E+00 -0.27469782805E+04  0.27469782805E+04  0.50400001928E-02 0. -1.
    10030    2    1    2    0    0  0.00000000000E+00  0.00000000000E+00 -0.16064619049E+04  0.38874946561E+04  0.35400416451E+04 0.  0.
        2    1    3    3  502    0 -0.11177318164E+04 -0.27198203886E+03 -0.22805072702E+04  0.25542145666E+04  0.25500000920E-02 0. -1.
       -2    1    3    3    0  502  0.11177318164E+04  0.27198203886E+03  0.67404536524E+03  0.13332800895E+04  0.25500000920E-02 0.  1.
</event>
<event>
 5   0  0.3041329E-06  0.2193416E+04  0.7818609E-02  0.8521173E-01
        2   -1    0    0  501    0  0.00000000000E+00  0.00000000000E+00  0.16652089398E+04  0.16652089398E+04  0.25500000920E-02 0. -1.
       -2   -1    0    0    0  501  0.00000000000E+00  0.00000000000E+00 -0.72229286431E+03  0.72229286431E+03  0.25500000920E-02 0.  1.
    10030    2    1    2    0    0  0.00000000000E+00  0.00000000000E+00  0.94291607554E+03  0.23875018042E+04  0.21934160890E+04 0.  0.
        2    1    3    3  502    0 -0.80818894425E+02  0.37036680218E+03  0.15916283219E+04  0.16361491304E+04  0.25500000920E-02 0. -1.
       -2    1    3    3    0  502  0.80818894425E+02 -0.37036680218E+03 -0.64871224633E+03  0.75135267378E+03  0.25500000920E-02 0.  1.
</event>
<event>
 5   0  0.1089337E-06  0.3519479E+04  0.7818609E-02  0.8109189E-01
       -1   -1    0    0    0  501  0.00000000000E+00  0.00000000000E+00  0.19124918625E+04  0.19124918625E+04  0.50400001928E-02 0.  1.
        1   -1    0    0  501    0  0.00000000000E+00  0.00000000000E+00 -0.16191875567E+04  0.16191875567E+04  0.50400001928E-02 0. -1.
    10030    2    1    2    0    0  0.00000000000E+00  0.00000000000E+00  0.29330430575E+03  0.35316794192E+04  0.35194789535E+04 0.  0.
        2    1    3    3  502    0 -0.55566915125E+03  0.10723953410E+04  0.14308866943E+04  0.18724947810E+04  0.25500000920E-02 0.  1.
       -2    1    3    3    0  502  0.55566915125E+03 -0.10723953410E+04 -0.11375823885E+04  0.16591846382E+04  0.25500000920E-02 0. -1.
</event>
<event>
 5   0  0.1130707E-06  0.3502103E+04  0.7818609E-02  0.8113292E-01
       -1   -1    0    0    0  501  0.00000000000E+00  0.00000000000E+00  0.16740766301E+04  0.16740766301E+04  0.50400001928E-02 0. -1.
        1   -1    0    0  501    0  0.00000000000E+00  0.00000000000E+00 -0.18315655622E+04  0.18315655622E+04  0.50400001928E-02 0.  1.
    10030    2    1    2    0    0  0.00000000000E+00  0.00000000000E+00 -0.15748893215E+03  0.35056421923E+04  0.35021028564E+04 0.  0.
        3    1    3    3  502    0 -0.89913556047E+03 -0.22158201210E+03  0.14089061125E+04  0.16859892610E+04  0.10100000352E+00 0. -1.
       -3    1    3    3    0  502  0.89913556047E+03  0.22158201210E+03 -0.15663950447E+04  0.18196529313E+04  0.10100000352E+00 0.  1.
</event>
<event>
 5   0  0.1102175E-06  0.2178339E+04  0.7818609E-02  0.8527498E-01
       -1   -1    0    0    0  501  0.00000000000E+00  0.00000000000E+00  0.66769004525E+03  0.66769004527E+03  0.50400001928E-02 0.  1.
        1   -1    0    0  501    0  0.00000000000E+00  0.00000000000E+00 -0.17767086483E+04  0.17767086484E+04  0.50400001928E-02 0. -1.
    10030    2    1    2    0    0  0.00000000000E+00  0.00000000000E+00 -0.11090186031E+04  0.24443986936E+04  0.21783394390E+04 0.  0.
        5    1    3    3  502    0  0.10030905383E+04  0.98973811274E+02 -0.91455937220E+02  0.10121129985E+04  0.46999998093E+01 0.  1.
       -5    1    3    3    0  502 -0.10030905383E+04 -0.98973811274E+02 -0.10175626659E+04  0.14322856951E+04  0.46999998093E+01 0. -1.
</event>
<event>
 5   0  0.2565004E-06  0.2016171E+04  0.7818609E-02  0.8599097E-01
        2   -1    0    0  501    0  0.00000000000E+00  0.00000000000E+00  0.12835703305E+04  0.12835703305E+04  0.25500000920E-02 0. -1.
       -2   -1    0    0    0  501  0.00000000000E+00  0.00000000000E+00 -0.79172667512E+03  0.79172667513E+03  0.25500000920E-02 0.  1.
    10030    2    1    2    0    0  0.00000000000E+00  0.00000000000E+00  0.49184365542E+03  0.20752970057E+04  0.20161714908E+04 0.  0.
        3    1    3    3  502    0  0.55506403850E+03  0.83358092645E+03  0.12728736087E+03  0.10095322334E+04  0.10100000352E+00 0.  1.
       -3    1    3    3    0  502 -0.55506403850E+03 -0.83358092645E+03  0.36455629455E+03  0.10657647723E+04  0.10100000352E+00 0. -1.
</event>
<event>
 5   0  0.1125196E-06  0.3597636E+04  0.7818609E-02  0.8091033E-01
       -1   -1    0    0    0  501  0.00000000000E+00  0.00000000000E+00  0.14717551813E+04  0.14717551813E+04  0.50400001928E-02 0.  1.
        1   -1    0    0  501    0  0.00000000000E+00  0.00000000000E+00 -0.21985627984E+04  0.21985627984E+04  0.50400001928E-02 0. -1.
    10030    2    1    2    0    0  0.00000000000E+00  0.00000000000E+00 -0.72680761713E+03  0.36703179797E+04  0.35976359960E+04 0.  0.
        4    1    3    3  502    0  0.38367169916E+03  0.20166258473E+03 -0.21444898122E+04  0.21878550999E+04  0.12699999809E+01 0. -1.
       -4    1    3    3    0  502 -0.38367169916E+03 -0.20166258473E+03  0.14176821951E+04  0.14824628798E+04  0.12699999809E+01 0.  1.
</event>
<event>
 5   0  0.1130707E-06  0.2007428E+04  0.7818609E-02  0.8603156E-01
        1   -1    0    0  501    0  0.00000000000E+00  0.00000000000E+00  0.21851034120E+04  0.21851034120E+04  0.50400001928E-02 0. -1.
       -1   -1    0    0    0  501  0.00000000000E+00  0.00000000000E+00 -0.46105002484E+03  0.46105002486E+03  0.50400001928E-02 0.  1.
    10030    2    1    2    0    0  0.00000000000E+00  0.00000000000E+00  0.17240533871E+04  0.26461534369E+04  0.20074281879E+04 0.  0.
        3    1    3    3  502    0  0.25734568701E+03  0.84039909597E+03  0.22309023067E+03  0.90678922818E+03  0.10100000352E+00 0.  1.
       -3    1    3    3    0  502 -0.25734568701E+03 -0.84039909597E+03  0.15009631565E+04  0.17393642087E+04  0.10100000352E+00 0. -1.
</event>
<event>
 5   0  0.1110956E-06  0.2440850E+04  0.7818609E-02  0.8424366E-01
       -1   -1    0    0    0  501  0.00000000000E+00  0.00000000000E+00  0.11339449044E+04  0.11339449044E+04  0.50400001928E-02 0.  1.
        1   -1    0    0  501    0  0.00000000000E+00  0.00000000000E+00 -0.13135006161E+04  0.13135006161E+04  0.50400001928E-02 0. -1.
    10030    2    1    2    0    0  0.00000000000E+00  0.00000000000E+00 -0.17955571171E+03  0.24474455205E+04  0.24408501228E+04 0.  0.
        1    1    3    3  502    0  0.10912296374E+03  0.94149207886E+02  0.11253818425E+04  0.11345731295E+04  0.50400001928E-02 0.  1.
       -1    1    3    3    0  502 -0.10912296374E+03 -0.94149207886E+02 -0.13049375543E+04  0.13128723910E+04  0.50400001928E-02 0. -1.
</event>
<event>
 5   0  0.3041329E-06  0.3524392E+04  0.7818609E-02  0.8108034E-01
       -2   -1    0    0    0  501  0.00000000000E+00  0.00000000000E+00  0.17496479553E+04  0.17496479554E+04  0.25500000920E-02 0. -1.
        2   -1    0    0  501    0  0.00000000000E+00  0.00000000000E+00 -0.17748340015E+04  0.17748340015E+04  0.25500000920E-02 0.  1.
    10030    2    1    2    0    0  0.00000000000E+00  0.00000000000E+00 -0.25186046165E+02  0.35244819569E+04  0.35243919656E+04 0.  0.
        2    1    3    3  502    0  0.86538408457E+03  0.15135811984E+04  0.24337644748E+03  0.17604118135E+04  0.25500000920E-02 0.  1.
       -2    1    3    3    0  502 -0.86538408457E+03 -0.15135811984E+04 -0.26856249364E+03  0.17640701434E+04  0.25500000920E-02 0. -1.
</event>
<event>
 5   0  0.1130707E-06  0.3508768E+04  0.7818609E-02  0.8111715E-01
        1   -1    0    0  501    0  0.00000000000E+00  0.00000000000E+00  0.19536561022E+04  0.19536561022E+04  0.50400001928E-02 0.  1.
       -1   -1    0    0    0  501  0.00000000000E+00  0.00000000000E+00 -0.15754376618E+04  0.15754376618E+04  0.50400001928E-02 0. -1.
    10030    2    1    2    0    0  0.00000000000E+00  0.00000000000E+00  0.37821844041E+03  0.35290937640E+04  0.35087681038E+04 0.  0.
        3    1    3    3  502    0  0.95055238500E+03  0.92333128832E+02 -0.12910775465E+04  0.16059129754E+04  0.10100000352E+00 0. -1.
       -3    1    3    3    0  502 -0.95055238500E+03 -0.92333128832E+02  0.16692959869E+04  0.19231807885E+04  0.10100000352E+00 0.  1.
</event>
<event>
 5   0  0.1125196E-06  0.2855123E+04  0.7818609E-02  0.8286356E-01
        1   -1    0    0  501    0  0.00000000000E+00  0.00000000000E+00  0.16372025822E+04  0.16372025822E+04  0.50400001928E-02 0. -1.
       -1   -1    0    0    0  501  0.00000000000E+00  0.00000000000E+00 -0.12447642720E+04  0.12447642720E+04  0.50400001928E-02 0.  1.
    10030    2    1    2    0    0  0.00000000000E+00  0.00000000000E+00  0.39243831024E+03  0.28819668542E+04  0.28551226106E+04 0.  0.
        4    1    3    3  502    0 -0.34575661337E+03  0.23449748557E+03 -0.11816768582E+04  0.12533549045E+04  0.12699999809E+01 0.  1.
       -4    1    3    3    0  502  0.34575661337E+03 -0.23449748557E+03  0.15741151685E+04  0.16286119498E+04  0.12699999809E+01 0. -1.
</event>
<event>
 5   0  0.3041329E-06  0.2975979E+04  0.7818609E-02  0.8250624E-01
        2   -1    0    0  501    0  0.00000000000E+00  0.00000000000E+00  0.18212940303E+04  0.18212940303E+04  0.25500000920E-02 0. -1.
       -2   -1    0    0    0  501  0.00000000000E+00  0.00000000000E+00 -0.12156813215E+04  0.12156813215E+04  0.25500000920E-02 0.  1.
    10030    2    1    2    0    0  0.00000000000E+00  0.00000000000E+00  0.60561270874E+03  0.30369753518E+04  0.29759792564E+04 0.  0.
        2    1    3    3  502    0 -0.14558320459E+04  0.29731092463E+03  0.38362811495E+03  0.15346045948E+04  0.25500000920E-02 0.  1.
       -2    1    3    3    0  502  0.14558320459E+04 -0.29731092463E+03  0.22198459379E+03  0.15023707570E+04  0.25500000920E-02 0. -1.
</event>
<event>
 5   0  0.1908726E-06  0.1905684E+04  0.7818609E-02  0.8652032E-01
        2   -1    0    0  501    0  0.00000000000E+00  0.00000000000E+00  0.10150158979E+04  0.10150158979E+04  0.25500000920E-02 0. -1.
       -2   -1    0    0    0  501  0.00000000000E+00  0.00000000000E+00 -0.89447671301E+03  0.89447671301E+03  0.25500000920E-02 0.  1.
    10030    2    1    2    0    0  0.00000000000E+00  0.00000000000E+00  0.12053918488E+03  0.19094926109E+04  0.19056842173E+04 0.  0.
        5    1    3    3  502    0  0.24245093185E+03  0.11961166977E+03 -0.85522836067E+03  0.89695431589E+03  0.46999998093E+01 0.  1.
       -5    1    3    3    0  502 -0.24245093185E+03 -0.11961166977E+03  0.97576754555E+03  0.10125382950E+04  0.46999998093E+01 0. -1.
</event>
<event>
 5   0  0.1908726E-06  0.2386629E+04  0.7818609E-02  0.8444527E-01
       -2   -1    0    0    0  501  0.00000000000E+00  0.00000000000E+00  0.11423481987E+04  0.11423481987E+04  0.25500000920E-02 0. -1.
        2   -1    0    0  501    0  0.00000000000E+00  0.00000000000E+00 -0.12465544646E+04  0.12465544646E+04  0.25500000920E-02 0.  1.
    10030    2    1    2    0    0  0.00000000000E+00  0.00000000000E+00 -0.10420626583E+03  0.23889026633E+04  0.23866287916E+04 0.  0.
        5    1    3    3  502    0 -0.80558862456E+03  0.54705797583E+03  0.63828707508E+03  0.11643358369E+04  0.46999998093E+01 0. -1.
       -5    1    3    3    0  502  0.80558862456E+03 -0.54705797583E+03 -0.74249334092E+03  0.12245668264E+04  0.46999998093E+01 0.  1.
</event>
<event>
 5   0  0.1908726E-06  0.3444713E+04  0.7818609E-02  0.8127019E-01
       -2   -1    0    0    0  501  0.00000000000E+00  0.00000000000E+00  0.14476124953E+04  0.14476124953E+04  0.25500000920E-02 0.  1.
        2   -1    0    0  501    0  0.00000000000E+00  0.00000000000E+00 -0.20492448439E+04  0.20492448439E+04  0.25500000920E-02 0. -1.
    10030    2    1    2    0    0  0.00000000000E+00  0.00000000000E+00 -0.60163234852E+03  0.34968573392E+04  0.34447133071E+04 0.  0.
        5    1    3    3  502    0  0.14398595102E+04 -0.81331440098E+03  0.18794336966E+03  0.16643378636E+04  0.46999998093E+01 0. -1.
       -5    1    3    3    0  502 -0.14398595102E+04  0.81331440098E+03 -0.78957571818E+03  0.18325194756E+04  0.46999998093E+01 0.  1.
</event>
<event>
 5   0  0.1908726E-06  0.3471319E+04  0.7818609E-02  0.8120621E-01
        2   -1    0    0  501    0  0.00000000000E+00  0.00000000000E+00  0.18204054025E+04  0.18204054025E+04  0.25500000920E-02 0. -1.
       -2   -1    0    0    0  501  0.00000000000E+00  0.00000000000E+00 -0.16548591282E+04  0.16548591282E+04  0.25500000920E-02 0.  1.
    10030    2    1    2    0    0  0.00000000000E+00  0.00000000000E+00  0.16554627434E+03  0.34752645307E+04  0.34713193442E+04 0.  0.
        5    1    3    3  502    0 -0.17383074055E+03 -0.47800043753E+03  0.17441141128E+04  0.18167712220E+04  0.46999998093E+01 0. -1.
       -5    1    3    3    0  502  0.17383074055E+03  0.47800043753E+03 -0.15785678384E+04  0.16584933087E+04  0.46999998093E+01 0.  1.
</event>
<event>
 5   0  0.1110956E-06  0.3483447E+04  0.7818609E-02  0.8117724E-01
       -1   -1    0    0    0  501  0.00000000000E+00  0.00000000000E+00  0.13940518015E+04  0.13940518015E+04  0.50400001928E-02 0. -1.
        1   -1    0    0  501    0  0.00000000000E+00  0.00000000000E+00 -0.21761036257E+04  0.21761036257E+04  0.50400001928E-02 0.  1.
    10030    2    1    2    0    0  0.00000000000E+00  0.00000000000E+00 -0.78205182422E+03  0.35701554272E+04  0.34834472464E+04 0.  0.
        1    1    3    3  502    0 -0.51586848173E+03  0.32148455871E+03 -0.20638700370E+04  0.21515185664E+04  0.50400001928E-02 0.  1.
       -1    1    3    3    0  502  0.51586848173E+03 -0.32148455871E+03  0.12818182128E+04  0.14186368607E+04  0.50400001928E-02 0. -1.
</event>
<event>
 5   0  0.1125196E-06  0.2874249E+04  0.7818609E-02  0.8280581E-01
       -1   -1    0    0    0  501  0.00000000000E+00  0.00000000000E+00  0.11722460952E+04  0.11722460952E+04  0.50400001928E-02 0.  1.
        1   -1    0    0  501    0  0.00000000000E+00  0.00000000000E+00 -0.17618545561E+04  0.17618545561E+04  0.50400001928E-02 0. -1.
    10030    2    1    2    0    0  0.00000000000E+00  0.00000000000E+00 -0.58960846097E+03  0.29341006513E+04  0.28742492054E+04 0.  0.
        4    1    3    3  502    0  0.69646242016E+03  0.12292369651E+04 -0.26185880305E+02  0.14130713826E+04  0.12699999809E+01 0.  1.
       -4    1    3    3    0  502 -0.69646242016E+03 -0.12292369651E+04 -0.56342258066E+03  0.15210292687E+04  0.12699999809E+01 0. -1.
</event>
<event>
 5   0  0.2565004E-06  0.3441694E+04  0.7818609E-02  0.8127748E-01
        2   -1    0    0  501    0  0.00000000000E+00  0.00000000000E+00  0.21027301204E+04  0.21027301204E+04  0.25500000920E-02 0. -1.
       -2   -1    0    0    0  501  0.00000000000E+00  0.00000000000E+00 -0.14083186692E+04  0.14083186692E+04  0.25500000920E-02 0.  1.
    10030    2    1    2    0    0  0.00000000000E+00  0.00000000000E+00  0.69441145120E+03  0.35110487897E+04  0.34416938184E+04 0.  0.
        3    1    3    3  502    0 -0.21416762681E+03 -0.54302237147E+03  0.19986455914E+04  0.20821443943E+04  0.10100000352E+00 0. -1.
       -3    1    3    3    0  502  0.21416762681E+03  0.54302237147E+03 -0.13042341402E+04  0.14289043954E+04  0.10100000352E+00 0.  1.
</event>
<event>
 5   0  0.1110956E-06  0.3042259E+04  0.7818609E-02  0.8231765E-01
       -1   -1    0    0    0  501  0.00000000000E+00  0.00000000000E+00  0.12270848654E+04  0.12270848654E+04  0.50400001928E-02 0. -1.
        1   -1    0    0  501    0  0.00000000000E+00  0.00000000000E+00 -0.18856360260E+04  0.18856360260E+04  0.50400001928E-02 0.  1.
    10030    2    1    2    0    0  0.00000000000E+00  0.00000000000E+00 -0.65855116054E+03  0.31127208914E+04  0.30422593112E+04 0.  0.
        1    1    3    3  502    0 -0.41928418405E+03  0.42285189265E+03 -0.17614204030E+04  0.18593560139E+04  0.50400001928E-02 0.  1.
       -1    1    3    3    0  502  0.41928418405E+03 -0.42285189265E+03  0.11028692425E+04  0.12533648775E+04  0.50400001928E-02 0. -1.
</event>
<event>
 5   0  0.1782660E-06  0.2530626E+04  0.7818609E-02  0.8392155E-01
        2   -1    0    0  501    0  0.00000000000E+00  0.00000000000E+00  0.64179635698E+03  0.64179635699E+03  0.25500000920E-02 0.  1.
       -2   -1    0    0    0  501  0.00000000000E+00  0.00000000000E+00 -0.24945877207E+04  0.24945877207E+04  0.25500000920E-02 0. -1.
    10030    2    1    2    0    0  0.00000000000E+00  0.00000000000E+00 -0.18527913637E+04  0.31363840777E+04  0.25306262556E+04 0.  0.
        4    1    3    3  502    0 -0.71515234999E+02  0.17395129434E+03  0.62437468104E+03  0.65208805913E+03  0.12699999809E+01 0.  1.
       -4    1    3    3    0  502  0.71515234999E+02 -0.17395129434E+03 -0.24771660448E+04  0.24842960186E+04  0.12699999809E+01 0. -1.
</event>
<event>
 5   0  0.1125196E-06  0.2704935E+04  0.7818609E-02  0.8333405E-01
       -1   -1    0    0    0  501  0.00000000000E+00  0.00000000000E+00  0.10979987883E+04  0.10979987883E+04  0.50400001928E-02 0. -1.
        1   -1    0    0  501    0  0.00000000000E+00  0.00000000000E+00 -0.16659113325E+04  0.16659113325E+04  0.50400001928E-02 0.  1.
    10030    2    1    2    0    0  0.00000000000E+00  0.00000000000E+00 -0.56791254419E+03  0.27639101207E+04  0.27049352114E+04 0.  0.
        4    1    3    3  502    0 -0.51787445173E+03 -0.11422417197E+04 -0.80121145104E+03  0.14882377150E+04  0.12699999809E+01 0.  1.
       -4    1    3    3    0  502  0.51787445173E+03  0.11422417197E+04  0.23329890685E+03  0.12756724058E+04  0.12699999809E+01 0. -1.
</event>
<event>
 5   0  0.1102175E-06  0.3085101E+04  0.7818609E-02  0.8219839E-01
       -1   -1    0    0    0  501  0.00000000000E+00  0.00000000000E+00  0.11782479655E+04  0.11782479655E+04  0.50400001928E-02 0. -1.
        1   -1    0    0  501    0  0.00000000000E+00  0.00000000000E+00 -0.20194913822E+04  0.20194913822E+04  0.50400001928E-02 0.  1.
    10030    2    1    2    0    0  0.00000000000E+00  0.00000000000E+00 -0.84124341663E+03  0.31977393477E+04  0.30851007196E+04 0.  0.
        5    1    3    3  502    0  0.98764435605E+03 -0.10693691095E+04  0.10835202496E+03  0.14597102170E+04  0.46999998093E+01 0. -1.
       -5    1    3    3    0  502 -0.98764435605E+03  0.10693691095E+04 -0.94959544158E+03  0.17380291307E+04  0.46999998093E+01 0.  1.
</event>
<event>
 5   0  0.1908726E-06  0.1922842E+04  0.7818609E-02  0.8643570E-01
        2   -1    0    0  501    0  0.00000000000E+00  0.00000000000E+00  0.81485048736E+03  0.81485048736E+03  0.25500000920E-02 0.  1.
       -2   -1    0    0    0  501  0.00000000000E+00  0.00000000000E+00 -0.11343551798E+04  0.11343551799E+04  0.25500000920E-02 0. -1.
    10030    2    1    2    0    0  0.00000000000E+00  0.00000000000E+00 -0.31950469249E+03  0.19492056672E+04  0.19228415131E+04 0.  0.
        5    1    3    3  502    0  0.36213368355E+02 -0.37792497416E+03 -0.10551347282E+04  0.11213697333E+04  0.46999998093E+01 0. -1.
       -5    1    3    3    0  502 -0.36213368355E+02  0.37792497416E+03  0.73563003567E+03  0.82783593394E+03  0.46999998093E+01 0.  1.
</event>
<event>
 5   0  0.1130707E-06  0.3431140E+04  0.7818609E-02  0.8130306E-01
       -1   -1    0    0    0  501  0.00000000000E+00  0.00000000000E+00  0.17322403066E+04  0.17322403066E+04  0.50400001928E-02 0.  1.
        1   -1    0    0  501    0  0.00000000000E+00  0.00000000000E+00 -0.16990603816E+04  0.16990603816E+04  0.50400001928E-02 0. -1.
    10030    2    1    2    0    0  0.00000000000E+00  0.00000000000E+00  0.33179925008E+02  0.34313006882E+04  0.34311402631E+04 0.  0.
        3    1    3    3  502    0  0.10183488368E+04  0.50832533790E+03  0.13002978539E+04  0.17280635178E+04  0.10100000352E+00 0.  1.
       -3    1    3    3    0  502 -0.10183488368E+04 -0.50832533790E+03 -0.12671179288E+04  0.17032371704E+04  0.10100000352E+00 0. -1.
</event>
<event>
 5   0  0.1782660E-06  0.2908372E+04  0.7818609E-02  0.8270391E-01
        2   -1    0    0  501    0  0.00000000000E+00  0.00000000000E+00  0.26656414061E+04  0.26656414061E+04  0.25500000920E-02 0. -1.
       -2   -1    0    0    0  501  0.00000000000E+00  0.00000000000E+00 -0.79330149156E+03  0.79330149157E+03  0.25500000920E-02 0.  1.
    10030    2    1    2    0    0  0.00000000000E+00  0.00000000000E+00  0.18723399146E+04  0.34589428977E+04  0.29083722619E+04 0.  0.
        4    1    3    3  502    0 -0.13616208398E+03  0.71513150368E+03 -0.56098678823E+03  0.91905438910E+03  0.12699999809E+01 0.  1.
       -4    1    3    3    0  502  0.13616208398E+03 -0.71513150368E+03  0.24333267028E+04  0.25398885086E+04  0.12699999809E+01 0. -1.
</event>
<event>
 5   0  0.1102175E-06  0.2629626E+04  0.7818609E-02  0.8358207E-01
       -1   -1    0    0    0  501  0.00000000000E+00  0.00000000000E+00  0.10978133835E+04  0.10978133835E+04  0.50400001928E-02 0. -1.
        1   -1    0    0  501    0  0.00000000000E+00  0.00000000000E+00 -0.15747063716E+04  0.15747063716E+04  0.50400001928E-02 0.  1.
    10030    2    1    2    0    0  0.00000000000E+00  0.00000000000E+00 -0.47689298809E+03  0.26725197550E+04  0.26296263839E+04 0.  0.
        5    1    3    3  502    0  0.65949079503E+03 -0.33347718323E+03  0.86675508762E+03  0.11390441661E+04  0.46999998093E+01 0. -1.
       -5    1    3    3    0  502 -0.65949079503E+03  0.33347718323E+03 -0.13436480757E+04  0.15334755889E+04  0.46999998093E+01 0.  1.
</event>
<event>
 5   0  0.2565004E-06  0.3452921E+04  0.7818609E-02  0.8125039E-01
       -2   -1    0    0    0  501  0.00000000000E+00  0.00000000000E+00  0.18664375736E+04  0.18664375736E+04  0.25500000920E-02 0. -1.
        2   -1    0    0  501    0  0.00000000000E+00  0.00000000000E+00 -0.15969813142E+04  0.15969813142E+04  0.25500000920E-02 0.  1.
    10030    2    1    2    0    0  0.00000000000E+00  0.00000000000E+00  0.26945625948E+03  0.34634188878E+04  0.34529210412E+04 0.  0.
        3    1    3    3  502    0  0.99525044301E+03  0.57337263433E+03 -0.11581383802E+04  0.16311235821E+04  0.10100000352E+00 0.  1.
       -3    1    3    3    0  502 -0.99525044301E+03 -0.57337263433E+03  0.14275946396E+04  0.18322953057E+04  0.10100000352E+00 0. -1.
</event>
<event>
 5   0  0.1102175E-06  0.2328052E+04  0.7818609E-02  0.8466942E-01
        1   -1    0    0  501    0  0.00000000000E+00  0.00000000000E+00  0.84548774630E+03  0.84548774632E+03  0.50400001928E-02 0.  1.
       -1   -1    0    0    0  501  0.00000000000E+00  0.00000000000E+00 -0.16025741104E+04  0.16025741104E+04  0.50400001928E-02 0. -1.
    10030    2    1    2    0    0  0.00000000000E+00  0.00000000000E+00 -0.75708636406E+03  0.24480618567E+04  0.23280522098E+04 0.  0.
        5    1    3    3  502    0 -0.75751990878E+03  0.67703359581E+03 -0.97591558554E+03  0.14087740139E+04  0.46999998093E+01 0. -1.
       -5    1    3    3    0  502  0.75751990878E+03 -0.67703359581E+03  0.21882922148E+03  0.10392878428E+04  0.46999998093E+01 0.  1.
</event>
<event>
 5   0  0.1782660E-06  0.3573051E+04  0.7818609E-02  0.8096693E-01
        2   -1    0    0  501    0  0.00000000000E+00  0.00000000000E+00  0.23161071276E+04  0.23161071276E+04  0.25500000920E-02 0.  1.
       -2   -1    0    0    0  501  0.00000000000E+00  0.00000000000E+00 -0.13780336387E+04  0.13780336387E+04  0.25500000920E-02 0. -1.
    10030    2    1    2    0    0  0.00000000000E+00  0.00000000000E+00  0.93807348893E+03  0.36941407663E+04  0.35730510954E+04 0.  0.
        4    1    3    3  502    0 -0.46491886364E+03 -0.16728439215E+03  0.22440595703E+04  0.22978116950E+04  0.12699999809E+01 0.  1.
       -4    1    3    3    0  502  0.46491886364E+03  0.16728439215E+03 -0.13059860814E+04  0.13963290713E+04  0.12699999809E+01 0. -1.
</event>
<event>
 5   0  0.3378848E-06  0.3549666E+04  0.7818609E-02  0.8102120E-01
        2   -1    0    0  501    0  0.00000000000E+00  0.00000000000E+00  0.13700867899E+04  0.13700867899E+04  0.25500000920E-02 0. -1.
       -2   -1    0    0    0  501  0.00000000000E+00  0.00000000000E+00 -0.22991474903E+04  0.22991474903E+04  0.25500000920E-02 0.  1.
    10030    2    1    2    0    0  0.00000000000E+00  0.00000000000E+00 -0.92906070037E+03  0.36692342803E+04  0.35496656770E+04 0.  0.
        1    1    3    3  502    0  0.81277775246E+03  0.14976884691E+01  0.11664067999E+04  0.14216591507E+04  0.50400001928E-02 0. -1.
       -1    1    3    3    0  502 -0.81277775246E+03 -0.14976884691E+01 -0.20954675003E+04  0.22475751295E+04  0.50400001928E-02 0.  1.
</event>
<event>
 5   0  0.3041329E-06  0.3218572E+04  0.7818609E-02  0.8183929E-01
        2   -1    0    0  501    0  0.00000000000E+00  0.00000000000E+00  0.22183454404E+04  0.22183454404E+04  0.25500000920E-02 0.  1.
       -2   -1    0    0    0  501  0.00000000000E+00  0.00000000000E+00 -0.11674473772E+04  0.11674473772E+04  0.25500000920E-02 0. -1.
    10030    2    1    2    0    0  0.00000000000E+00  0.00000000000E+00  0.10508980632E+04  0.33857928176E+04  0.32185720847E+04 0.  0.
        2    1    3    3  502    0 -0.14794541645E+04 -0.62795918206E+03  0.43944435238E+03  0.16662018779E+04  0.25500000920E-02 0.  1.
       -2    1    3    3    0  502  0.14794541645E+04  0.62795918206E+03  0.61145371086E+03  0.17195909397E+04  0.25500000920E-02 0. -1.
</event>
<event>
 5   0  0.1782660E-06  0.3412717E+04  0.7818609E-02  0.8134792E-01
        2   -1    0    0  501    0  0.00000000000E+00  0.00000000000E+00  0.22629613801E+04  0.22629613801E+04  0.25500000920E-02 0.  1.
       -2   -1    0    0    0  501  0.00000000000E+00  0.00000000000E+00 -0.12866591275E+04  0.12866591275E+04  0.25500000920E-02 0. -1.
    10030    2    1    2    0    0  0.00000000000E+00  0.00000000000E+00  0.97630225263E+03  0.35496205077E+04  0.34127173425E+04 0.  0.
        4    1    3    3  502    0  0.88994870204E+03  0.10164699330E+04 -0.59598589751E+03  0.14766247390E+04  0.12699999809E+01 0. -1.
       -4    1    3    3    0  502 -0.88994870204E+03 -0.10164699330E+04  0.15722881501E+04  0.20729957687E+04  0.12699999809E+01 0.  1.
</event>
<event>
 5   0  0.1110956E-06  0.1909647E+04  0.7818609E-02  0.8650069E-01
        1   -1    0    0  501    0  0.00000000000E+00  0.00000000000E+00  0.85948149051E+03  0.85948149052E+03  0.50400001928E-02 0.  1.
       -1   -1    0    0    0  501  0.00000000000E+00  0.00000000000E+00 -0.10607419051E+04  0.10607419051E+04  0.50400001928E-02 0. -1.
    10030    2    1    2    0    0  0.00000000000E+00  0.00000000000E+00 -0.20126041458E+03  0.19202233956E+04  0.19096471231E+04 0.  0.
        1    1    3    3  502    0 -0.51911889104E+03  0.69785000704E+03  0.29551741521E+03  0.91859109405E+03  0.50400001928E-02 0.  1.
       -1    1    3    3    0  502  0.51911889104E+03 -0.69785000704E+03 -0.49677782980E+03  0.10016323016E+04  0.50400001928E-02 0. -1.
</event>
<event>
 5   0  0.1110956E-06  0.3436519E+04  0.7818609E-02  0.8129001E-01
        1   -1    0    0  501    0  0.00000000000E+00  0.00000000000E+00  0.17454412316E+04  0.17454412316E+04  0.50400001928E-02 0. -1.
       -1   -1    0    0    0  501  0.00000000000E+00  0.00000000000E+00 -0.16915007674E+04  0.16915007674E+04  0.50400001928E-02 0.  1.
    10030    2    1    2    0    0  0.00000000000E+00  0.00000000000E+00  0.53940464236E+02  0.34369419990E+04  0.34365186935E+04 0.  0.
        1    1    3    3  502    0 -0.82057081299E+03 -0.19464971368E+03  0.15242151619E+04  0.17419692391E+04  0.50400001928E-02 0. -1.
       -1    1    3    3    0  502  0.82057081299E+03  0.19464971368E+03 -0.14702746977E+04  0.16949727599E+04  0.50400001928E-02 0.  1.
</event>
<event>
 5   0  0.3041329E-06  0.3550921E+04  0.7818609E-02  0.8101827E-01
        2   -1    0    0  501    0  0.00000000000E+00  0.00000000000E+00  0.21285402715E+04  0.21285402715E+04  0.25500000920E-02 0.  1.
       -2   -1    0    0    0  501  0.00000000000E+00  0.00000000000E+00 -0.14809493673E+04  0.14809493673E+04  0.25500000920E-02 0. -1.
    10030    2    1    2    0    0  0.00000000000E+00  0.00000000000E+00  0.64759090424E+03  0.36094896388E+04  0.35509212147E+04 0.  0.
        2    1    3    3  502    0  0.59208111639E+03  0.14238511239E+04  0.12182801938E+04  0.19652273919E+04  0.25500000920E-02 0.  1.
       -2    1    3    3    0  502 -0.59208111639E+03 -0.14238511239E+04 -0.57068928954E+03  0.16442622469E+04  0.25500000920E-02 0. -1.
</event>
<event>
 5   0  0.1125196E-06  0.3314597E+04  0.7818609E-02  0.8159191E-01
       -1   -1    0    0    0  501  0.00000000000E+00  0.00000000000E+00  0.19073997826E+04  0.19073997826E+04  0.50400001928E-02 0.  1.
        1   -1    0    0  501    0  0.00000000000E+00  0.00000000000E+00 -0.14399909049E+04  0.14399909049E+04  0.50400001928E-02 0. -1.
    10030    2    1    2    0    0  0.00000000000E+00  0.00000000000E+00  0.46740887767E+03  0.33473906875E+04  0.33145970126E+04 0.  0.
        4    1    3    3  502    0 -0.80390786079E+03  0.13358574019E+04  0.80127358239E+03  0.17529471793E+04  0.12699999809E+01 0.  1.
       -4    1    3    3    0  502  0.80390786079E+03 -0.13358574019E+04 -0.33386470472E+03  0.15944435082E+04  0.12699999809E+01 0. -1.
</event>
<event>
 5   0  0.1110956E-06  0.3771660E+04  0.7818609E-02  0.8052264E-01
       -1   -1    0    0    0  501  0.00000000000E+00  0.00000000000E+00  0.13433278636E+04  0.13433278636E+04  0.50400001928E-02 0.  1.
        1   -1    0    0  501    0  0.00000000000E+00  0.00000000000E+00 -0.26474219899E+04  0.26474219899E+04  0.50400001928E-02 0. -1.
    10030    2    1    2    0    0  0.00000000000E+00  0.00000000000E+00 -0.13040941263E+04  0.39907498536E+04  0.37716604968E+04 0.  0.
        1    1    3    3  502    0  0.75874752143E+03 -0.76479985164E+03 -0.22897746882E+04  0.25305502835E+04  0.50400001928E-02 0. -1.
       -1    1    3    3    0  502 -0.75874752143E+03  0.76479985164E+03  0.98568056189E+03  0.14601995701E+04  0.50400001928E-02 0.  1.
</event>
<event>
 5   0  0.1042825E-06  0.3534631E+04  0.7818609E-02  0.8105631E-01
        3   -1    0    0  501    0  0.00000000000E+00  0.00000000000E+00  0.18084065363E+04  0.18084065391E+04  0.10100000352E+00 0.  1.
       -3   -1    0    0    0  501  0.00000000000E+00  0.00000000000E+00 -0.17271583562E+04  0.17271583592E+04  0.10100000352E+00 0. -1.
    10030    2    1    2    0    0  0.00000000000E+00  0.00000000000E+00  0.81248180109E+02  0.35355648983E+04  0.35346312231E+04 0.  0.
        2    1    3    3  502    0 -0.64867472982E+03  0.12006667375E+04  0.11638743917E+04  0.17935950266E+04  0.25500000920E-02 0.  1.
       -2    1    3    3    0  502  0.64867472982E+03 -0.12006667375E+04 -0.10826262116E+04  0.17419698717E+04  0.25500000920E-02 0. -1.
</event>
<event>
 5   0  0.2565004E-06  0.3521330E+04  0.7818609E-02  0.8108754E-01
       -2   -1    0    0    0  501  0.00000000000E+00  0.00000000000E+00  0.15777873271E+04  0.15777873271E+04  0.25500000920E-02 0. -1.
        2   -1    0    0  501    0  0.00000000000E+00  0.00000000000E+00 -0.19647396686E+04  0.19647396686E+04  0.25500000920E-02 0.  1.
    10030    2    1    2    0    0  0.00000000000E+00  0.00000000000E+00 -0.38695234156E+03  0.35425269957E+04  0.35213300613E+04 0.  0.
        3    1    3    3  502    0  0.20579973916E+03  0.76278013546E+03 -0.17764006772E+04  0.19441672880E+04  0.10100000352E+00 0.  1.
       -3    1    3    3    0  502 -0.20579973916E+03 -0.76278013546E+03  0.13894483356E+04  0.15983597077E+04  0.10100000352E+00 0. -1.
</event>
<event>
 5   0  0.3378848E-06  0.3471818E+04  0.7818609E-02  0.8120501E-01
        2   -1    0    0  501    0  0.00000000000E+00  0.00000000000E+00  0.16261434631E+04  0.16261434631E+04  0.25500000920E-02 0.  1.
       -2   -1    0    0    0  501  0.00000000000E+00  0.00000000000E+00 -0.18530838566E+04  0.18530838566E+04  0.25500000920E-02 0. -1.
    10030    2    1    2    0    0  0.00000000000E+00  0.00000000000E+00 -0.22694039347E+03  0.34792273197E+04  0.34718180828E+04 0.  0.
        1    1    3    3  502    0 -0.49365853395E+03 -0.11252852428E+04 -0.13422249816E+04  0.18197619424E+04  0.50400001928E-02 0. -1.
       -1    1    3    3    0  502  0.49365853395E+03  0.11252852428E+04  0.11152845882E+04  0.16594653773E+04  0.50400001928E-02 0.  1.
</event>
<event>
 5   0  0.1102175E-06  0.2506584E+04  0.7818609E-02  0.8400644E-01
        1   -1    0    0  501    0  0.00000000000E+00  0.00000000000E+00  0.14468379729E+04  0.14468379729E+04  0.50400001928E-02 0.  1.
       -1   -1    0    0    0  501  0.00000000000E+00  0.00000000000E+00 -0.10856368023E+04  0.10856368023E+04  0.50400001928E-02 0. -1.
    10030    2    1    2    0    0  0.00000000000E+00  0.00000000000E+00  0.36120117052E+03  0.25324747752E+04  0.25065837711E+04 0.  0.
        5    1    3    3  502    0  0.10883090746E+04  0.42524275545E+03 -0.27736996997E+03  0.12009180793E+04  0.46999998093E+01 0. -1.
       -5    1    3    3    0  502 -0.10883090746E+04 -0.42524275545E+03  0.63857114050E+03  0.13315566959E+04  0.46999998093E+01 0.  1.
</event>
<event>
 5   0  0.1130707E-06  0.3507239E+04  0.7818609E-02  0.8112077E-01
       -1   -1    0    0    0  501  0.00000000000E+00  0.00000000000E+00  0.18235154906E+04  0.18235154906E+04  0.50400001928E-02 0. -1.
        1   -1    0    0  501    0  0.00000000000E+00  0.00000000000E+00 -0.16864027020E+04  0.16864027020E+04  0.50400001928E-02 0.  1.
    10030    2    1    2    0    0  0.00000000000E+00  0.00000000000E+00  0.13711278859E+03  0.35099181927E+04  0.35072390569E+04 0.  0.
        3    1    3    3  502    0 -0.21612347583E+03  0.10768321352E+04  0.14366795584E+04  0.18084039836E+04  0.10100000352E+00 0. -1.
       -3    1    3    3    0  502  0.21612347583E+03 -0.10768321352E+04 -0.12995667698E+04  0.17015142090E+04  0.10100000352E+00 0.  1.
</event>
<event>
 5   0  0.3041329E-06  0.2974052E+04  0.7818609E-02  0.8251179E-01
        2   -1    0    0  501    0  0.00000000000E+00  0.00000000000E+00  0.15677250757E+04  0.15677250757E+04  0.25500000920E-02 0. -1.
       -2   -1    0    0    0  501  0.00000000000E+00  0.00000000000E+00 -0.14104811897E+04  0.14104811897E+04  0.25500000920E-02 0.  1.
    10030    2    1    2    0    0  0.00000000000E+00  0.00000000000E+00  0.15724388602E+03  0.29782062654E+04  0.29740522725E+04 0.  0.
        2    1    3    3  502    0  0.52355662583E+03  0.13824561591E+04 -0.82693585442E+02  0.14805859656E+04  0.25500000920E-02 0. -1.
       -2    1    3    3    0  502 -0.52355662583E+03 -0.13824561591E+04  0.23993747146E+03  0.14976202999E+04  0.25500000920E-02 0.  1.
</event>
<event>
 5   0  0.1125196E-06  0.3481996E+04  0.7818609E-02  0.8118070E-01
        1   -1    0    0  501    0  0.00000000000E+00  0.00000000000E+00  0.28791918122E+04  0.28791918122E+04  0.50400001928E-02 0. -1.
       -1   -1    0    0    0  501  0.00000000000E+00  0.00000000000E+00 -0.10527517033E+04  0.10527517033E+04  0.50400001928E-02 0.  1.
    10030    2    1    2    0    0  0.00000000000E+00  0.00000000000E+00  0.18264401090E+04  0.39319435155E+04  0.34819960278E+04 0.  0.
        4    1    3    3  502    0  0.14776253476E+04 -0.14068275525E+03  0.19406897771E+04  0.24432451226E+04  0.12699999809E+01 0. -1.
       -4    1    3    3    0  502 -0.14776253476E+04  0.14068275525E+03 -0.11424966815E+03  0.14886983929E+04  0.12699999809E+01 0.  1.
</event>
<event>
 5   0  0.1130707E-06  0.2084392E+04  0.7818609E-02  0.8568150E-01
       -1   -1    0    0    0  501  0.00000000000E+00  0.00000000000E+00  0.99190233054E+03  0.99190233055E+03  0.50400001928E-02 0.  1.
        1   -1    0    0  501    0  0.00000000000E+00  0.00000000000E+00 -0.10950392667E+04  0.10950392667E+04  0.50400001928E-02 0. -1.
    10030    2    1    2    0    0  0.00000000000E+00  0.00000000000E+00 -0.10313693612E+03  0.20869415972E+04  0.20843915186E+04 0.  0.
        3    1    3    3  502    0 -0.65204668483E+03  0.38480481896E+03 -0.76863763485E+03  0.10789084539E+04  0.10100000352E+00 0. -1.
       -3    1    3    3    0  502  0.65204668483E+03 -0.38480481896E+03  0.66550069874E+03  0.10080331434E+04  0.10100000352E+00 0.  1.
</event>
<event>
 5   0  0.3378848E-06  0.3672319E+04  0.7818609E-02  0.8074124E-01
        2   -1    0    0  501    0  0.00000000000E+00  0.00000000000E+00  0.24603146967E+04  0.24603146967E+04  0.25500000920E-02 0. -1.
       -2   -1    0    0    0  501  0.00000000000E+00  0.00000000000E+00 -0.13703458785E+04  0.13703458785E+04  0.25500000920E-02 0.  1.
    10030    2    1    2    0    0  0.00000000000E+00  0.00000000000E+00  0.10899688183E+04  0.38306605752E+04  0.36723192151E+04 0.  0.
        1    1    3    3  502    0  0.46252875288E+03  0.82190403456E+03  0.21883574154E+04  0.23829324931E+04  0.50400001928E-02 0. -1.
       -1    1    3    3    0  502 -0.46252875288E+03 -0.82190403456E+03 -0.10983885971E+04  0.14477280821E+04  0.50400001928E-02 0.  1.
</event>
<event>
 5   0  0.1102175E-06  0.2047871E+04  0.7818609E-02  0.8584561E-01
        1   -1    0    0  501    0  0.00000000000E+00  0.00000000000E+00  0.10219636760E+04  0.10219636760E+04  0.50400001928E-02 0. -1.
       -1   -1    0    0    0  501  0.00000000000E+00  0.00000000000E+00 -0.10259107580E+04  0.10259107580E+04  0.50400001928E-02 0.  1.
    10030    2    1    2    0    0  0.00000000000E+00  0.00000000000E+00 -0.39470820149E+01  0.20478744341E+04  0.20478706302E+04 0.  0.
        5    1    3    3  502    0 -0.34514686095E+03  0.76404069988E+03 -0.58979849497E+03  0.10250701934E+04  0.46999998093E+01 0.  1.
       -5    1    3    3    0  502  0.34514686095E+03 -0.76404069988E+03  0.58585141296E+03  0.10228042407E+04  0.46999998093E+01 0. -1.
</event>
<event>
 5   0  0.1908726E-06  0.3539675E+04  0.7818609E-02  0.8104451E-01
        2   -1    0    0  501    0  0.00000000000E+00  0.00000000000E+00  0.21982052116E+04  0.21982052116E+04  0.25500000920E-02 0.  1.
       -2   -1    0    0    0  501  0.00000000000E+00  0.00000000000E+00 -0.14249464637E+04  0.14249464637E+04  0.25500000920E-02 0. -1.
    10030    2    1    2    0    0  0.00000000000E+00  0.00000000000E+00  0.77325874789E+03  0.36231516753E+04  0.35396749810E+04 0.  0.
        5    1    3    3  502    0  0.61580680384E+02  0.17653495105E+04  0.27426074304E+03  0.17875939471E+04  0.46999998093E+01 0. -1.
       -5    1    3    3    0  502 -0.61580680384E+02 -0.17653495105E+04  0.49899800485E+03  0.18355577282E+04  0.46999998093E+01 0.  1.
</event>
<event>
 5   0  0.1110956E-06  0.2978411E+04  0.7818609E-02  0.8249923E-01
        1   -1    0    0  501    0  0.00000000000E+00  0.00000000000E+00  0.22186580612E+04  0.22186580612E+04  0.50400001928E-02 0. -1.
       -1   -1    0    0    0  501  0.00000000000E+00  0.00000000000E+00 -0.99958276910E+03  0.99958276911E+03  0.50400001928E-02 0.  1.
    10030    2    1    2    0    0  0.00000000000E+00  0.00000000000E+00  0.12190752921E+04  0.32182408304E+04  0.29784105617E+04 0.  0.
        1    1    3    3  502    0 -0.89494312560E+03  0.11794108448E+04  0.43598255937E+03  0.15433774428E+04  0.50400001928E-02 0.  1.
       -1    1    3    3    0  502  0.89494312560E+03 -0.11794108448E+04  0.78309273277E+03  0.16748633876E+04  0.50400001928E-02 0. -1.
</event>
<event>
 5   0  0.1110956E-06  0.3532693E+04  0.7818609E-02  0.8106086E-01
       -1   -1    0    0    0  501  0.00000000000E+00  0.00000000000E+00  0.18909077533E+04  0.18909077533E+04  0.50400001928E-02 0.  1.
        1   -1    0    0  501    0  0.00000000000E+00  0.00000000000E+00 -0.16499906531E+04  0.16499906532E+04  0.50400001928E-02 0. -1.
    10030    2    1    2    0    0  0.00000000000E+00  0.00000000000E+00  0.24091710011E+03  0.35408984064E+04  0.35326930910E+04 0.  0.
        1    1    3    3  502    0 -0.26004529989E+03 -0.11178524624E+04 -0.12253299322E+04  0.16788838937E+04  0.50400001928E-02 0. -1.
       -1    1    3    3    0  502  0.26004529989E+03  0.11178524624E+04  0.14662470323E+04  0.18620145127E+04  0.50400001928E-02 0.  1.
</event>
<event>
 5   0  0.1908726E-06  0.3443050E+04  0.7818609E-02  0.8127420E-01
       -2   -1    0    0    0  501  0.00000000000E+00  0.00000000000E+00  0.19469803908E+04  0.19469803908E+04  0.25500000920E-02 0.  1.
        2   -1    0    0  501    0  0.00000000000E+00  0.00000000000E+00 -0.15221769452E+04  0.15221769452E+04  0.25500000920E-02 0. -1.
    10030    2    1    2    0    0  0.00000000000E+00  0.00000000000E+00  0.42480344561E+03  0.34691573360E+04  0.34430501963E+04 0.  0.
        5    1    3    3  502    0  0.56031342673E+03 -0.93518086151E+03 -0.11300341411E+04  0.15701954114E+04  0.46999998093E+01 0. -1.
       -5    1    3    3    0  502 -0.56031342673E+03  0.93518086151E+03  0.15548375867E+04  0.18989619246E+04  0.46999998093E+01 0.  1.
</event>
<event>
 5   0  0.1102175E-06  0.3478309E+04  0.7818609E-02  0.8118950E-01
        1   -1    0    0  501    0  0.00000000000E+00  0.00000000000E+00  0.11587897327E+04  0.11587897327E+04  0.50400001928E-02 0. -1.
       -1   -1    0    0    0  501  0.00000000000E+00  0.00000000000E+00 -0.26101877071E+04  0.26101877071E+04  0.50400001928E-02 0.  1.
    10030    2    1    2    0    0  0.00000000000E+00  0.00000000000E+00 -0.14513979744E+04  0.37689774398E+04  0.34783091958E+04 0.  0.
        5    1    3    3  502    0  0.96821971019E+03 -0.14333077696E+04 -0.92198915363E+03  0.19600782278E+04  0.46999998093E+01 0.  1.
       -5    1    3    3    0  502 -0.96821971019E+03  0.14333077696E+04 -0.52940882082E+03  0.18088992120E+04  0.46999998093E+01 0. -1.
</event>
<event>
 5   0  0.1130707E-06  0.2069891E+04  0.7818609E-02  0.8574624E-01
       -1   -1    0    0    0  501  0.00000000000E+00  0.00000000000E+00  0.36815640553E+03  0.36815640556E+03  0.50400001928E-02 0.  1.
        1   -1    0    0  501    0  0.00000000000E+00  0.00000000000E+00 -0.29093949726E+04  0.29093949726E+04  0.50400001928E-02 0. -1.
    10030    2    1    2    0    0  0.00000000000E+00  0.00000000000E+00 -0.25412385671E+04  0.32775513782E+04  0.20698912005E+04 0.  0.
        3    1    3    3  502    0 -0.55451503677E+03  0.36895348712E+03 -0.25249395351E+04  0.26113087270E+04  0.10100000352E+00 0. -1.
       -3    1    3    3    0  502  0.55451503677E+03 -0.36895348712E+03 -0.16299032046E+02  0.66624265122E+03  0.10100000352E+00 0.  1.
</event>
<event>
 5   0  0.1782660E-06  0.3462377E+04  0.7818609E-02  0.8122764E-01
       -2   -1    0    0    0  501  0.00000000000E+00  0.00000000000E+00  0.13173532609E+04  0.13173532609E+04  0.25500000920E-02 0.  1.
        2   -1    0    0  501    0  0.00000000000E+00  0.00000000000E+00 -0.22750267138E+04  0.22750267138E+04  0.25500000920E-02 0. -1.
    10030    2    1    2    0    0  0.00000000000E+00  0.00000000000E+00 -0.95767345288E+03  0.35923799747E+04  0.34623771372E+04 0.  0.
        4    1    3    3  502    0  0.10017936829E+04  0.14107697000E+04 -0.53707370768E+03  0.18117150741E+04  0.12699999809E+01 0.  1.
       -4    1    3    3    0  502 -0.10017936829E+04 -0.14107697000E+04 -0.42059974521E+03  0.17806649005E+04  0.12699999809E+01 0. -1.
</event>
<event>
 5   0  0.1042825E-06  0.1971457E+04  0.7818609E-02  0.8620083E-01
        4   -1    0    0  501    0  0.00000000000E+00  0.00000000000E+00  0.56690244384E+03  0.56690386639E+03  0.12699999809E+01 0.  1.
       -4   -1    0    0    0  501  0.00000000000E+00  0.00000000000E+00 -0.17139787339E+04  0.17139792044E+04  0.12699999809E+01 0. -1.
    10030    2    1    2    0    0  0.00000000000E+00  0.00000000000E+00 -0.11470762901E+04  0.22808830708E+04  0.19714572193E+04 0.  0.
        1    1    3    3  502    0  0.49120328046E+03 -0.11280853064E+03  0.40656855931E+03  0.64753719643E+03  0.50400001928E-02 0.  1.
       -1    1    3    3    0  502 -0.49120328046E+03  0.11280853064E+03 -0.15536448494E+04  0.16333458744E+04  0.50400001928E-02 0. -1.
</event>
<event>
 5   0  0.1110956E-06  0.3259506E+04  0.7818609E-02  0.8173276E-01
        1   -1    0    0  501    0  0.00000000000E+00  0.00000000000E+00  0.21915029157E+04  0.21915029157E+04  0.50400001928E-02 0. -1.
       -1   -1    0    0    0  501  0.00000000000E+00  0.00000000000E+00 -0.12119965852E+04  0.12119965852E+04  0.50400001928E-02 0.  1.
    10030    2    1    2    0    0  0.00000000000E+00  0.00000000000E+00  0.97950633045E+03  0.34034995009E+04  0.32595055149E+04 0.  0.
        1    1    3    3  502    0 -0.55679491130E+03 -0.40941656698E+03  0.20309138585E+04  0.21452863677E+04  0.50400001928E-02 0. -1.
       -1    1    3    3    0  502  0.55679491130E+03  0.40941656698E+03 -0.10514075281E+04  0.12582131333E+04  0.50400001928E-02 0.  1.
</event>
<event>
 5   0  0.1908726E-06  0.3452416E+04  0.7818609E-02  0.8125160E-01
       -2   -1    0    0    0  501  0.00000000000E+00  0.00000000000E+00  0.19521212459E+04  0.19521212459E+04  0.25500000920E-02 0.  1.
        2   -1    0    0  501    0  0.00000000000E+00  0.00000000000E+00 -0.15264393477E+04  0.15264393477E+04  0.25500000920E-02 0. -1.
    10030    2    1    2    0    0  0.00000000000E+00  0.00000000000E+00  0.42568189825E+03  0.34785605936E+04  0.34524163603E+04 0.  0.
        5    1    3    3  502    0  0.70737193932E+03  0.76847726164E+03 -0.11719174844E+04  0.15698232519E+04  0.46999998093E+01 0. -1.
       -5    1    3    3    0  502 -0.70737193932E+03 -0.76847726164E+03  0.15975993826E+04  0.19087373417E+04  0.46999998093E+01 0.  1.
</event>
<event>
 5   0  0.1782660E-06  0.3437666E+04  0.7818609E-02  0.8128723E-01
       -2   -1    0    0    0  501  0.00000000000E+00  0.00000000000E+00  0.10937502830E+04  0.10937502830E+04  0.25500000920E-02 0. -1.
        2   -1    0    0  501    0  0.00000000000E+00  0.00000000000E+00 -0.27011527548E+04  0.27011527548E+04  0.25500000920E-02 0.  1.
    10030    2    1    2    0    0  0.00000000000E+00  0.00000000000E+00 -0.16074024719E+04  0.37949030378E+04  0.34376658302E+04 0.  0.
        4    1    3    3  502    0  0.38179057117E+03  0.10846327172E+04  0.60663529788E+03  0.13000769858E+04  0.12699999809E+01 0. -1.
       -4    1    3    3    0  502 -0.38179057117E+03 -0.10846327172E+04 -0.22140377697E+04  0.24948260521E+04  0.12699999809E+01 0.  1.
</event>
<event>
 5   0  0.2565004E-06  0.2988468E+04  0.7818609E-02  0.8247032E-01
        2   -1    0    0  501    0  0.00000000000E+00  0.00000000000E+00  0.22012999063E+04  0.22012999063E+04  0.25500000920E-02 0. -1.
       -2   -1    0    0    0  501  0.00000000000E+00  0.00000000000E+00 -0.10142805388E+04  0.10142805388E+04  0.25500000920E-02 0.  1.
    10030    2    1    2    0    0  0.00000000000E+00  0.00000000000E+00  0.11870193675E+04  0.32155804452E+04  0.29884682733E+04 0.  0.
        3    1    3    3  502    0 -0.88242926654E+03 -0.10696727003E+04  0.11924584400E+04  0.18288898921E+04  0.10100000352E+00 0. -1.
       -3    1    3    3    0  502  0.88242926654E+03  0.10696727003E+04 -0.54390724534E+01  0.13866905531E+04  0.10100000352E+00 0.  1.
</event>
<event>
 5   0  0.3378848E-06  0.1832901E+04  0.7818609E-02  0.8688996E-01
        2   -1    0    0  501    0  0.00000000000E+00  0.00000000000E+00  0.15769986470E+04  0.15769986470E+04  0.25500000920E-02 0. -1.
       -2   -1    0    0    0  501  0.00000000000E+00  0.00000000000E+00 -0.53258250867E+03  0.53258250867E+03  0.25500000920E-02 0.  1.
    10030    2    1    2    0    0  0.00000000000E+00  0.00000000000E+00  0.10444161384E+04  0.21095811557E+04  0.18329014110E+04 0.  0.
        1    1    3    3  502    0 -0.80401223898E+03  0.11022171951E+03  0.32143951220E+02  0.81216854255E+03  0.50400001928E-02 0.  1.
       -1    1    3    3    0  502  0.80401223898E+03 -0.11022171951E+03  0.10122721871E+04  0.12974126131E+04  0.50400001928E-02 0. -1.
</event>
<event>
 5   0  0.1089337E-06  0.3609522E+04  0.7818609E-02  0.8088314E-01
        1   -1    0    0  501    0  0.00000000000E+00  0.00000000000E+00  0.20382061302E+04  0.20382061303E+04  0.50400001928E-02 0. -1.
       -1   -1    0    0    0  501  0.00000000000E+00  0.00000000000E+00 -0.15980531004E+04  0.15980531004E+04  0.50400001928E-02 0.  1.
    10030    2    1    2    0    0  0.00000000000E+00  0.00000000000E+00  0.44015302988E+03  0.36362592306E+04  0.36095216446E+04 0.  0.
        2    1    3    3  502    0  0.13538992878E+04  0.11777386009E+04  0.26166577619E+02  0.17946576786E+04  0.25500000920E-02 0.  1.
       -2    1    3    3    0  502 -0.13538992878E+04 -0.11777386009E+04  0.41398645226E+03  0.18416015520E+04  0.25500000920E-02 0. -1.
</event>
<event>
 5   0  0.1782660E-06  0.3613381E+04  0.7818609E-02  0.8087434E-01
       -2   -1    0    0    0  501  0.00000000000E+00  0.00000000000E+00  0.13620977968E+04  0.13620977968E+04  0.25500000920E-02 0. -1.
        2   -1    0    0  501    0  0.00000000000E+00  0.00000000000E+00 -0.23963989288E+04  0.23963989288E+04  0.25500000920E-02 0.  1.
    10030    2    1    2    0    0  0.00000000000E+00  0.00000000000E+00 -0.10343011321E+04  0.37584967256E+04  0.36133805231E+04 0.  0.
        4    1    3    3  502    0  0.50456895943E+03 -0.17229347955E+04 -0.30644689224E+03  0.18212647954E+04  0.12699999809E+01 0.  1.
       -4    1    3    3    0  502 -0.50456895943E+03  0.17229347955E+04 -0.72785423982E+03  0.19372319302E+04  0.12699999809E+01 0. -1.
</event>
<event>
 5   0  0.1102175E-06  0.3341692E+04  0.7818609E-02  0.8152367E-01
        1   -1    0    0  501    0  0.00000000000E+00  0.00000000000E+00  0.17645371257E+04  0.17645371257E+04  0.50400001928E-02 0. -1.
       -1   -1    0    0    0  501  0.00000000000E+00  0.00000000000E+00 -0.15821299831E+04  0.15821299832E+04  0.50400001928E-02 0.  1.
    10030    2    1    2    0    0  0.00000000000E+00  0.00000000000E+00  0.18240714254E+03  0.33466671088E+04  0.33416924412E+04 0.  0.
        5    1    3    3  502    0  0.46223208550E+03 -0.23752164831E+03  0.16815316167E+04  0.17600129836E+04  0.46999998093E+01 0. -1.
       -5    1    3    3    0  502 -0.46223208550E+03  0.23752164831E+03 -0.14991244742E+04  0.15866541253E+04  0.46999998093E+01 0.  1.
</event>
<event>
 5   0  0.1908726E-06  0.1843264E+04  0.7818609E-02  0.8683624E-01
        2   -1    0    0  501    0  0.00000000000E+00  0.00000000000E+00  0.21722600386E+04  0.21722600386E+04  0.25500000920E-02 0. -1.
       -2   -1    0    0    0  501  0.00000000000E+00  0.00000000000E+00 -0.39102406229E+03  0.39102406230E+03  0.25500000920E-02 0.  1.
    10030    2    1    2    0    0  0.00000000000E+00  0.00000000000E+00  0.17812359763E+04  0.25632841009E+04  0.18432644354E+04 0.  0.
        5    1    3    3  502    0 -0.21966388016E+03  0.39071915700E+03  0.20104531586E+04  0.20598198156E+04  0.46999998093E+01 0. -1.
       -5    1    3    3    0  502  0.21966388016E+03 -0.39071915700E+03 -0.22921718230E+03  0.50346428528E+03  0.46999998093E+01 0.  1.
</event>
<event>
 5   0  0.1125196E-06  0.3012534E+04  0.7818609E-02  0.8240161E-01
        1   -1    0    0  501    0  0.00000000000E+00  0.00000000000E+00  0.15738325696E+04  0.15738325696E+04  0.50400001928E-02 0. -1.
       -1   -1    0    0    0  501  0.00000000000E+00  0.00000000000E+00 -0.14416015838E+04  0.14416015838E+04  0.50400001928E-02 0.  1.
    10030    2    1    2    0    0  0.00000000000E+00  0.00000000000E+00  0.13223098582E+03  0.30154341534E+04  0.30125335019E+04 0.  0.
        4    1    3    3  502    0 -0.12921667111E+04 -0.55391531055E+03  0.60730319736E+03  0.15314489110E+04  0.12699999809E+01 0. -1.
       -4    1    3    3    0  502  0.12921667111E+04  0.55391531055E+03 -0.47507221154E+03  0.14839852424E+04  0.12699999809E+01 0.  1.
</event>
<event>
 5   0  0.1130707E-06  0.1745329E+04  0.7818609E-02  0.8735926E-01
        1   -1    0    0  501    0  0.00000000000E+00  0.00000000000E+00  0.99012423494E+03  0.99012423496E+03  0.50400001928E-02 0. -1.
       -1   -1    0    0    0  501  0.00000000000E+00  0.00000000000E+00 -0.76913913516E+03  0.76913913518E+03  0.50400001928E-02 0.  1.
    10030    2    1    2    0    0  0.00000000000E+00  0.00000000000E+00  0.22098509978E+03  0.17592633701E+04  0.17453289636E+04 0.  0.
        3    1    3    3  502    0 -0.81316355367E+03 -0.30710169991E+03  0.18855026354E+03  0.88943669319E+03  0.10100000352E+00 0. -1.
       -3    1    3    3    0  502  0.81316355367E+03  0.30710169991E+03  0.32434836241E+02  0.86982667694E+03  0.10100000352E+00 0.  1.
</event>
<event>
 5   0  0.3041329E-06  0.3443969E+04  0.7818609E-02  0.8127199E-01
       -2   -1    0    0    0  501  0.00000000000E+00  0.00000000000E+00  0.14714623250E+04  0.14714623250E+04  0.25500000920E-02 0.  1.
        2   -1    0    0  501    0  0.00000000000E+00  0.00000000000E+00 -0.20151586773E+04  0.20151586773E+04  0.25500000920E-02 0. -1.
    10030    2    1    2    0    0  0.00000000000E+00  0.00000000000E+00 -0.54369635229E+03  0.34866210024E+04  0.34439686832E+04 0.  0.
        2    1    3    3  502    0  0.12178045647E+04  0.38530522042E+02  0.96006108977E+03  0.15512091590E+04  0.25500000920E-02 0.  1.
       -2    1    3    3    0  502 -0.12178045647E+04 -0.38530522042E+02 -0.15037574421E+04  0.19354118434E+04  0.25500000920E-02 0. -1.
</event>
<event>
 5   0  0.1782660E-06  0.3523570E+04  0.7818609E-02  0.8108227E-01
       -2   -1    0    0    0  501  0.00000000000E+00  0.00000000000E+00  0.16974636421E+04  0.16974636421E+04  0.25500000920E-02 0.  1.
        2   -1    0    0  501    0  0.00000000000E+00  0.00000000000E+00 -0.18285431810E+04  0.18285431810E+04  0.25500000920E-02 0. -1.
    10030    2    1    2    0    0  0.00000000000E+00  0.00000000000E+00 -0.13107953890E+03  0.35260068231E+04  0.35235695354E+04 0.  0.
        4    1    3    3  502    0  0.80884324280E+03 -0.14501593752E+04 -0.65475461961E+03  0.17849075129E+04  0.12699999809E+01 0. -1.
       -4    1    3    3    0  502 -0.80884324280E+03  0.14501593752E+04  0.52367508070E+03  0.17410993102E+04  0.12699999809E+01 0.  1.
</event>
<event>
 5   0  0.2565004E-06  0.3403120E+04  0.7818609E-02  0.8137141E-01
       -2   -1    0    0    0  501  0.00000000000E+00  0.00000000000E+00  0.28740415567E+04  0.28740415568E+04  0.25500000920E-02 0. -1.
        2   -1    0    0  501    0  0.00000000000E+00  0.00000000000E+00 -0.10073987639E+04  0.10073987639E+04  0.25500000920E-02 0.  1.
    10030    2    1    2    0    0  0.00000000000E+00  0.00000000000E+00  0.18666427929E+04  0.38814403206E+04  0.34031196932E+04 0.  0.
        3    1    3    3  502    0  0.97741941079E+03  0.13858933082E+04  0.77504750804E+03  0.18646038765E+04  0.10100000352E+00 0. -1.
       -3    1    3    3    0  502 -0.97741941079E+03 -0.13858933082E+04  0.10915952849E+04  0.20168364441E+04  0.10100000352E+00 0.  1.
</event>
<event>
 5   0  0.1130707E-06  0.2919283E+04  0.7818609E-02  0.8267163E-01
        1   -1    0    0  501    0  0.00000000000E+00  0.00000000000E+00  0.17720473443E+04  0.17720473443E+04  0.50400001928E-02 0.  1.
       -1   -1    0    0    0  501  0.00000000000E+00  0.00000000000E+00 -0.12023116068E+04  0.12023116068E+04  0.50400001928E-02 0. -1.
    10030    2    1    2    0    0  0.00000000000E+00  0.00000000000E+00  0.56973573752E+03  0.29743589511E+04  0.29192828502E+04 0.  0.
        3    1    3    3  502    0  0.77907718449E+02  0.61926025523E+03  0.16292310626E+04  0.17446910161E+04  0.10100000352E+00 0.  1.
       -3    1    3    3    0  502 -0.77907718449E+02 -0.61926025523E+03 -0.10594953251E+04  0.12296679350E+04  0.10100000352E+00 0. -1.
</event>
<event>
 5   0  0.1908726E-06  0.3516847E+04  0.7818609E-02  0.8109809E-01
       -2   -1    0    0    0  501  0.00000000000E+00  0.00000000000E+00  0.16655354692E+04  0.16655354692E+04  0.25500000920E-02 0. -1.
        2   -1    0    0  501    0  0.00000000000E+00  0.00000000000E+00 -0.18564924532E+04  0.18564924532E+04  0.25500000920E-02 0.  1.
    10030    2    1    2    0    0  0.00000000000E+00  0.00000000000E+00 -0.19095698400E+03  0.35220279224E+04  0.35168474684E+04 0.  0.
        5    1    3    3  502    0  0.15996853109E+03  0.33628320603E+03 -0.18165429413E+04  0.18543264742E+04  0.46999998093E+01 0.  1.
       -5    1    3    3    0  502 -0.15996853109E+03 -0.33628320603E+03  0.16255859573E+04  0.16677014481E+04  0.46999998093E+01 0. -1.
</event>
<event>
 5   0  0.1782660E-06  0.3565891E+04  0.7818609E-02  0.8098350E-01
       -2   -1    0    0    0  501  0.00000000000E+00  0.00000000000E+00  0.19014418463E+04  0.19014418463E+04  0.25500000920E-02 0.  1.
        2   -1    0    0  501    0  0.00000000000E+00  0.00000000000E+00 -0.16718333434E+04  0.16718333434E+04  0.25500000920E-02 0. -1.
    10030    2    1    2    0    0  0.00000000000E+00  0.00000000000E+00  0.22960850293E+03  0.35732751897E+04  0.35658905644E+04 0.  0.
        4    1    3    3  502    0 -0.15504092211E+04 -0.87836942681E+03  0.54758011889E+02  0.17827791943E+04  0.12699999809E+01 0.  1.
       -4    1    3    3    0  502  0.15504092211E+04  0.87836942681E+03  0.17485049104E+03  0.17904959955E+04  0.12699999809E+01 0. -1.
</event>
<event>
 5   0  0.1782660E-06  0.2544535E+04  0.7818609E-02  0.8387289E-01
        2   -1    0    0  501    0  0.00000000000E+00  0.00000000000E+00  0.19214902162E+04  0.19214902162E+04  0.25500000920E-02 0. -1.
       -2   -1    0    0    0  501  0.00000000000E+00  0.00000000000E+00 -0.84240036940E+03  0.84240036940E+03  0.25500000920E-02 0.  1.
    10030    2    1    2    0    0  0.00000000000E+00  0.00000000000E+00  0.10790898468E+04  0.27638905856E+04  0.25445345885E+04 0.  0.
        4    1    3    3  502    0  0.12458464394E+04  0.11156216415E+03  0.28693940884E+03  0.12833219799E+04  0.12699999809E+01 0.  1.
       -4    1    3    3    0  502 -0.12458464394E+04 -0.11156216415E+03  0.79215043801E+03  0.14805686057E+04  0.12699999809E+01 0. -1.
</event>
<event>
 5   0  0.1089337E-06  0.1825349E+04  0.7818609E-02  0.8692934E-01
       -1   -1    0    0    0  501  0.00000000000E+00  0.00000000000E+00  0.41683524228E+03  0.41683524231E+03  0.50400001928E-02 0.  1.
        1   -1    0    0  501    0  0.00000000000E+00  0.00000000000E+00 -0.19983311772E+04  0.19983311772E+04  0.50400001928E-02 0. -1.
    10030    2    1    2    0    0  0.00000000000E+00  0.00000000000E+00 -0.15814959350E+04  0.24151664196E+04  0.18253491288E+04 0.  0.
        2    1    3    3  502    0 -0.43321486859E+03  0.82070167637E+02  0.26656464037E+03  0.51523523005E+03  0.25500000920E-02 0.  1.
       -2    1    3    3    0  502  0.43321486859E+03 -0.82070167637E+02 -0.18480605753E+04  0.18999311895E+04  0.25500000920E-02 0. -1.
</event>
<event>
 5   0  0.1110956E-06  0.3442798E+04  0.7818609E-02  0.8127481E-01
        1   -1    0    0  501    0  0.00000000000E+00  0.00000000000E+00  0.15406062511E+04  0.15406062511E+04  0.50400001928E-02 0.  1.
       -1   -1    0    0    0  501  0.00000000000E+00  0.00000000000E+00 -0.19234083426E+04  0.19234083426E+04  0.50400001928E-02 0. -1.
    10030    2    1    2    0    0  0.00000000000E+00  0.00000000000E+00 -0.38280209151E+03  0.34640145936E+04  0.34427982316E+04 0.  0.
        1    1    3    3  502    0  0.12109335295E+04 -0.53326258934E+03 -0.12993161743E+04  0.18544410271E+04  0.50400001928E-02 0. -1.
       -1    1    3    3    0  502 -0.12109335295E+04  0.53326258934E+03  0.91651408280E+03  0.16095735665E+04  0.50400001928E-02 0.  1.
</event>
<event>
 5   0  0.2565004E-06  0.1723731E+04  0.7818609E-02  0.8747944E-01
        2   -1    0    0  501    0  0.00000000000E+00  0.00000000000E+00  0.90588219425E+03  0.90588219426E+03  0.25500000920E-02 0. -1.
       -2   -1    0    0    0  501  0.00000000000E+00  0.00000000000E+00 -0.81998799354E+03  0.81998799354E+03  0.25500000920E-02 0.  1.
    10030    2    1    2    0    0  0.00000000000E+00  0.00000000000E+00  0.85894200720E+02  0.17258701878E+04  0.17237314441E+04 0.  0.
        3    1    3    3  502    0  0.75591763901E+03 -0.35565895377E+03 -0.16923030944E+03  0.85237531417E+03  0.10100000352E+00 0. -1.
       -3    1    3    3    0  502 -0.75591763901E+03  0.35565895377E+03  0.25512451016E+03  0.87349487363E+03  0.10100000352E+00 0.  1.
</event>
<event>
 5   0  0.2565004E-06  0.3463104E+04  0.7818609E-02  0.8122590E-01
        2   -1    0    0  501    0  0.00000000000E+00  0.00000000000E+00  0.17073645441E+04  0.17073645441E+04  0.25500000920E-02 0. -1.
       -2   -1    0    0    0  501  0.00000000000E+00  0.00000000000E+00 -0.17560821349E+04  0.17560821349E+04  0.25500000920E-02 0.  1.
    10030    2    1    2    0    0  0.00000000000E+00  0.00000000000E+00 -0.48717590809E+02  0.34634466791E+04  0.34631040260E+04 0.  0.
        3    1    3    3  502    0 -0.23650747498E+03  0.14474947744E+04  0.89611015793E+03  0.17187758240E+04  0.10100000352E+00 0. -1.
       -3    1    3    3    0  502  0.23650747498E+03 -0.14474947744E+04 -0.94482774874E+03  0.17446708551E+04  0.10100000352E+00 0.  1.
</event>
<event>
 5   0  0.2565004E-06  0.3429821E+04  0.7818609E-02  0.8130626E-01
       -2   -1    0    0    0  501  0.00000000000E+00  0.00000000000E+00  0.17601230611E+04  0.17601230611E+04  0.25500000920E-02 0. -1.
        2   -1    0    0  501    0  0.00000000000E+00  0.00000000000E+00 -0.16708592152E+04  0.16708592152E+04  0.25500000920E-02 0.  1.
    10030    2    1    2    0    0  0.00000000000E+00  0.00000000000E+00  0.89263845872E+02  0.34309822763E+04  0.34298208913E+04 0.  0.
        3    1    3    3  502    0  0.15018962427E+04 -0.59320648792E+03  0.62217615910E+03  0.17305171032E+04  0.10100000352E+00 0.  1.
       -3    1    3    3    0  502 -0.15018962427E+04  0.59320648792E+03 -0.53291231323E+03  0.17004651731E+04  0.10100000352E+00 0. -1.
</event>
<event>
 5   0  0.1782660E-06  0.2680961E+04  0.7818609E-02  0.8341209E-01
       -2   -1    0    0    0  501  0.00000000000E+00  0.00000000000E+00  0.11495492264E+04  0.11495492264E+04  0.25500000920E-02 0.  1.
        2   -1    0    0  501    0  0.00000000000E+00  0.00000000000E+00 -0.15631243147E+04  0.15631243147E+04  0.25500000920E-02 0. -1.
    10030    2    1    2    0    0  0.00000000000E+00  0.00000000000E+00 -0.41357508830E+03  0.27126735411E+04  0.26809612803E+04 0.  0.
        4    1    3    3  502    0 -0.10832352429E+04  0.78917087287E+03 -0.23350970405E+03  0.13604108397E+04  0.12699999809E+01 0. -1.
       -4    1    3    3    0  502  0.10832352429E+04 -0.78917087287E+03 -0.18006538425E+03  0.13522627014E+04  0.12699999809E+01 0.  1.
</event>
<event>
 5   0  0.1782660E-06  0.3485721E+04  0.7818609E-02  0.8117182E-01
        2   -1    0    0  501    0  0.00000000000E+00  0.00000000000E+00  0.26914337601E+04  0.26914337601E+04  0.25500000920E-02 0.  1.
       -2   -1    0    0    0  501  0.00000000000E+00  0.00000000000E+00 -0.11286038847E+04  0.11286038847E+04  0.25500000920E-02 0. -1.
    10030    2    1    2    0    0  0.00000000000E+00  0.00000000000E+00  0.15628298754E+04  0.38200376448E+04  0.34857209281E+04 0.  0.
        4    1    3    3  502    0  0.82563683393E+03  0.51396482674E+03  0.23664078268E+04  0.25584611860E+04  0.12699999809E+01 0.  1.
       -4    1    3    3    0  502 -0.82563683393E+03 -0.51396482674E+03 -0.80357795136E+03  0.12615764588E+04  0.12699999809E+01 0. -1.
</event>
<event>
 5   0  0.1110956E-06  0.3555928E+04  0.7818609E-02  0.8100662E-01
        1   -1    0    0  501    0  0.00000000000E+00  0.00000000000E+00  0.12577161207E+04  0.12577161207E+04  0.50400001928E-02 0.  1.
       -1   -1    0    0    0  501  0.00000000000E+00  0.00000000000E+00 -0.25134101828E+04  0.25134101828E+04  0.50400001928E-02 0. -1.
    10030    2    1    2    0    0  0.00000000000E+00  0.00000000000E+00 -0.12556940621E+04  0.37711263035E+04  0.35559282923E+04 0.  0.
        1    1    3    3  502    0  0.11170984603E+04  0.12025896588E+03 -0.20892029935E+04  0.23721594248E+04  0.50400001928E-02 0. -1.
       -1    1    3    3    0  502 -0.11170984603E+04 -0.12025896588E+03  0.83350893139E+03  0.13989668787E+04  0.50400001928E-02 0.  1.
</event>
<event>
 5   0  0.3378848E-06  0.3455576E+04  0.7818609E-02  0.8124399E-01
       -2   -1    0    0    0  501  0.00000000000E+00  0.00000000000E+00  0.13174727953E+04  0.13174727953E+04  0.25500000920E-02 0. -1.
        2   -1    0    0  501    0  0.00000000000E+00  0.00000000000E+00 -0.22658921325E+04  0.22658921325E+04  0.25500000920E-02 0.  1.
    10030    2    1    2    0    0  0.00000000000E+00  0.00000000000E+00 -0.94841933716E+03  0.35833649278E+04  0.34555759240E+04 0.  0.
        1    1    3    3  502    0  0.11345759233E+04  0.10103247936E+03 -0.18213990958E+04  0.21482469025E+04  0.50400001928E-02 0.  1.
       -1    1    3    3    0  502 -0.11345759233E+04 -0.10103247936E+03  0.87297975869E+03  0.14351180253E+04  0.50400001928E-02 0. -1.
</event>
<event>
 5   0  0.3041329E-06  0.3731140E+04  0.7818609E-02  0.8061096E-01
       -2   -1    0    0    0  501  0.00000000000E+00  0.00000000000E+00  0.15546105238E+04  0.15546105238E+04  0.25500000920E-02 0. -1.
        2   -1    0    0  501    0  0.00000000000E+00  0.00000000000E+00 -0.22387282637E+04  0.22387282637E+04  0.25500000920E-02 0.  1.
    10030    2    1    2    0    0  0.00000000000E+00  0.00000000000E+00 -0.68411773995E+03  0.37933387875E+04  0.37311395143E+04 0.  0.
        2    1    3    3  502    0 -0.60104900547E+03  0.16336935798E+04  0.34004728489E+03  0.17736535106E+04  0.25500000920E-02 0. -1.
       -2    1    3    3    0  502  0.60104900547E+03 -0.16336935798E+04 -0.10241650248E+04  0.20196852769E+04  0.25500000920E-02 0.  1.
</event>
<event>
 5   0  0.1125196E-06  0.1995980E+04  0.7818609E-02  0.8608503E-01
        1   -1    0    0  501    0  0.00000000000E+00  0.00000000000E+00  0.15402536132E+04  0.15402536132E+04  0.50400001928E-02 0.  1.
       -1   -1    0    0    0  501  0.00000000000E+00  0.00000000000E+00 -0.64663624132E+03  0.64663624134E+03  0.50400001928E-02 0. -1.
    10030    2    1    2    0    0  0.00000000000E+00  0.00000000000E+00  0.89361737192E+03  0.21868898546E+04  0.19959797666E+04 0.  0.
        4    1    3    3  502    0  0.25718885705E+03  0.87832729153E+03  0.10777872492E+02  0.91527193482E+03  0.12699999809E+01 0.  1.
       -4    1    3    3    0  502 -0.25718885705E+03 -0.87832729153E+03  0.88283949943E+03  0.12716179198E+04  0.12699999809E+01 0. -1.
</event>
<event>
 5   0  0.2565004E-06  0.3608673E+04  0.7818609E-02  0.8088508E-01
        2   -1    0    0  501    0  0.00000000000E+00  0.00000000000E+00  0.30753142029E+04  0.30753142029E+04  0.25500000920E-02 0.  1.
       -2   -1    0    0    0  501  0.00000000000E+00  0.00000000000E+00 -0.10586334986E+04  0.10586334986E+04  0.25500000920E-02 0. -1.
    10030    2    1    2    0    0  0.00000000000E+00  0.00000000000E+00  0.20166807042E+04  0.41339477015E+04  0.36086732376E+04 0.  0.
        3    1    3    3  502    0 -0.40175296746E+03 -0.17209282892E+04  0.59114453861E+03  0.18634515017E+04  0.10100000352E+00 0. -1.
       -3    1    3    3    0  502  0.40175296746E+03  0.17209282892E+04  0.14255361656E+04  0.22704961998E+04  0.10100000352E+00 0.  1.
</event>
<event>
 5   0  0.3041329E-06  0.2235860E+04  0.7818609E-02  0.8503649E-01
        2   -1    0    0  501    0  0.00000000000E+00  0.00000000000E+00  0.74423449118E+03  0.74423449118E+03  0.25500000920E-02 0. -1.
       -2   -1    0    0    0  501  0.00000000000E+00  0.00000000000E+00 -0.16792658228E+04  0.16792658228E+04  0.25500000920E-02 0.  1.
    10030    2    1    2    0    0  0.00000000000E+00  0.00000000000E+00 -0.93503133162E+03  0.24235003140E+04  0.22358600539E+04 0.  0.
        2    1    3    3  502    0 -0.63370273206E+03  0.55466125239E+03 -0.12644308392E+04  0.15192147987E+04  0.25500000920E-02 0.  1.
       -2    1    3    3    0  502  0.63370273206E+03 -0.55466125239E+03  0.32939950758E+03  0.90428551526E+03  0.25500000920E-02 0. -1.
</event>
<event>
 5   0  0.1125196E-06  0.3134500E+04  0.7818609E-02  0.8206333E-01
       -1   -1    0    0    0  501  0.00000000000E+00  0.00000000000E+00  0.16168017516E+04  0.16168017516E+04  0.50400001928E-02 0. -1.
        1   -1    0    0  501    0  0.00000000000E+00  0.00000000000E+00 -0.15192168397E+04  0.15192168398E+04  0.50400001928E-02 0.  1.
    10030    2    1    2    0    0  0.00000000000E+00  0.00000000000E+00  0.97584911827E+02  0.31360185913E+04  0.31344999267E+04 0.  0.
        4    1    3    3  502    0 -0.13694626293E+04 -0.76144589870E+03  0.16479982006E+02  0.15670038138E+04  0.12699999809E+01 0.  1.
       -4    1    3    3    0  502  0.13694626293E+04  0.76144589870E+03  0.81104929821E+02  0.15690147776E+04  0.12699999809E+01 0. -1.
</event>
<event>
 5   0  0.2565004E-06  0.3428324E+04  0.7818609E-02  0.8130989E-01
       -2   -1    0    0    0  501  0.00000000000E+00  0.00000000000E+00  0.18415406981E+04  0.18415406981E+04  0.25500000920E-02 0.  1.
        2   -1    0    0  501    0  0.00000000000E+00  0.00000000000E+00 -0.15955939692E+04  0.15955939692E+04  0.25500000920E-02 0. -1.
    10030    2    1    2    0    0  0.00000000000E+00  0.00000000000E+00  0.24594672893E+03  0.34371346673E+04  0.34283239239E+04 0.  0.
        3    1    3    3  502    0  0.15351622536E+04  0.46827875610E+03 -0.48052303949E+03  0.16753836993E+04  0.10100000352E+00 0. -1.
       -3    1    3    3    0  502 -0.15351622536E+04 -0.46827875610E+03  0.72646976843E+03  0.17617509679E+04  0.10100000352E+00 0.  1.
</event>
<event>
 5   0  0.2565004E-06  0.3854835E+04  0.7818609E-02  0.8034489E-01
       -2   -1    0    0    0  501  0.00000000000E+00  0.00000000000E+00  0.19891442686E+04  0.19891442686E+04  0.25500000920E-02 0. -1.
        2   -1    0    0  501    0  0.00000000000E+00  0.00000000000E+00 -0.18676057484E+04  0.18676057484E+04  0.25500000920E-02 0.  1.
    10030    2    1    2    0    0  0.00000000000E+00  0.00000000000E+00  0.12153852021E+03  0.38567500170E+04  0.38548345077E+04 0.  0.
        3    1    3    3  502    0 -0.11209331200E+04 -0.15675904074E+04  0.94050112916E+02  0.19294237945E+04  0.10100000352E+00 0.  1.
       -3    1    3    3    0  502  0.11209331200E+04  0.15675904074E+04  0.27488407298E+02  0.19273262225E+04  0.10100000352E+00 0. -1.
</event>
<event>
 5   0  0.1102175E-06  0.3464672E+04  0.7818609E-02  0.8122214E-01
       -1   -1    0    0    0  501  0.00000000000E+00  0.00000000000E+00  0.10744190642E+04  0.10744190642E+04  0.50400001928E-02 0. -1.
        1   -1    0    0  501    0  0.00000000000E+00  0.00000000000E+00 -0.27931259265E+04  0.27931259265E+04  0.50400001928E-02 0.  1.
    10030    2    1    2    0    0  0.00000000000E+00  0.00000000000E+00 -0.17187068623E+04  0.38675449907E+04  0.34646718426E+04 0.  0.
        5    1    3    3  502    0  0.56823590420E+03 -0.10814298035E+04  0.51171111338E+03  0.13244820936E+04  0.46999998093E+01 0. -1.
       -5    1    3    3    0  502 -0.56823590420E+03  0.10814298035E+04 -0.22304179757E+04  0.25430628972E+04  0.46999998093E+01 0.  1.
</event>
<event>
 5   0  0.3378848E-06  0.1936957E+04  0.7818609E-02  0.8636676E-01
       -2   -1    0    0    0  501  0.00000000000E+00  0.00000000000E+00  0.73643783072E+03  0.73643783073E+03  0.25500000920E-02 0. -1.
        2   -1    0    0  501    0  0.00000000000E+00  0.00000000000E+00 -0.12736321956E+04  0.12736321956E+04  0.25500000920E-02 0.  1.
    10030    2    1    2    0    0  0.00000000000E+00  0.00000000000E+00 -0.53719436491E+03  0.20100700264E+04  0.19369573370E+04 0.  0.
        1    1    3    3  502    0 -0.58015469398E+03  0.77528349951E+03 -0.25041565304E+03  0.10001759710E+04  0.50400001928E-02 0.  1.
       -1    1    3    3    0  502  0.58015469398E+03 -0.77528349951E+03 -0.28677871187E+03  0.10098940554E+04  0.50400001928E-02 0. -1.
</event>
<event>
 5   0  0.1908726E-06  0.3798945E+04  0.7818609E-02  0.8046381E-01
        2   -1    0    0  501    0  0.00000000000E+00  0.00000000000E+00  0.24629932955E+04  0.24629932955E+04  0.25500000920E-02 0. -1.
       -2   -1    0    0    0  501  0.00000000000E+00  0.00000000000E+00 -0.14648826347E+04  0.14648826347E+04  0.25500000920E-02 0.  1.
    10030    2    1    2    0    0  0.00000000000E+00  0.00000000000E+00  0.99811066085E+03  0.39278759302E+04  0.37989451735E+04 0.  0.
        5    1    3    3  502    0 -0.44283172837E+03 -0.10770102563E+04  0.20506257897E+04  0.23582067872E+04  0.46999998093E+01 0. -1.
       -5    1    3    3    0  502  0.44283172837E+03  0.10770102563E+04 -0.10525151289E+04  0.15696691430E+04  0.46999998093E+01 0.  1.
</event>
<event>
 5   0  0.1110956E-06  0.2362692E+04  0.7818609E-02  0.8453605E-01
        1   -1    0    0  501    0  0.00000000000E+00  0.00000000000E+00  0.18380892254E+04  0.18380892254E+04  0.50400001928E-02 0.  1.
       -1   -1    0    0    0  501  0.00000000000E+00  0.00000000000E+00 -0.75925487257E+03  0.75925487258E+03  0.50400001928E-02 0. -1.
    10030    2    1    2    0    0  0.00000000000E+00  0.00000000000E+00  0.10788343528E+04  0.25973440980E+04  0.23626918552E+04 0.  0.
        1    1    3    3  502    0  0.10461302860E+04 -0.13306195221E+03 -0.45893963557E+02  0.10555568740E+04  0.50400001928E-02 0. -1.
       -1    1    3    3    0  502 -0.10461302860E+04  0.13306195221E+03  0.11247283164E+04  0.15417872240E+04  0.50400001928E-02 0.  1.
</event>
<event>
 5   0  0.3041329E-06  0.3593168E+04  0.7818609E-02  0.8092059E-01
       -2   -1    0    0    0  501  0.00000000000E+00  0.00000000000E+00  0.12907407879E+04  0.12907407880E+04  0.25500000920E-02 0.  1.
        2   -1    0    0  501    0  0.00000000000E+00  0.00000000000E+00 -0.25006673910E+04  0.25006673910E+04  0.25500000920E-02 0. -1.
    10030    2    1    2    0    0  0.00000000000E+00  0.00000000000E+00 -0.12099266031E+04  0.37914081790E+04  0.35931676269E+04 0.  0.
        2    1    3    3  502    0 -0.13202061850E+04  0.11907804355E+04 -0.87770214390E+03  0.19827414027E+04  0.25500000920E-02 0. -1.
       -2    1    3    3    0  502  0.13202061850E+04 -0.11907804355E+04 -0.33222445917E+03  0.18086667763E+04  0.25500000920E-02 0.  1.
</event>
<event>
 5   0  0.1782660E-06  0.2844807E+04  0.7818609E-02  0.8289491E-01
       -2   -1    0    0    0  501  0.00000000000E+00  0.00000000000E+00  0.10956179801E+04  0.10956179801E+04  0.25500000920E-02 0.  1.
        2   -1    0    0  501    0  0.00000000000E+00  0.00000000000E+00 -0.18466577094E+04  0.18466577094E+04  0.25500000920E-02 0. -1.
    10030    2    1    2    0    0  0.00000000000E+00  0.00000000000E+00 -0.75103972934E+03  0.29422756895E+04  0.28448067699E+04 0.  0.
        4    1    3    3  502    0  0.53433972486E+02 -0.13705651507E+04 -0.76515776762E+03  0.15705960792E+04  0.12699999809E+01 0.  1.
       -4    1    3    3    0  502 -0.53433972486E+02  0.13705651507E+04  0.14118038283E+02  0.13716796104E+04  0.12699999809E+01 0. -1.
</event>
<event>
 5   0  0.1908726E-06  0.3501850E+04  0.7818609E-02  0.8113352E-01
       -2   -1    0    0    0  501  0.00000000000E+00  0.00000000000E+00  0.15035092968E+04  0.15035092968E+04  0.25500000920E-02 0.  1.
        2   -1    0    0  501    0  0.00000000000E+00  0.00000000000E+00 -0.20390551346E+04  0.20390551346E+04  0.25500000920E-02 0. -1.
    10030    2    1    2    0    0  0.00000000000E+00  0.00000000000E+00 -0.53554583788E+03  0.35425644314E+04  0.35018499977E+04 0.  0.
        5    1    3    3  502    0 -0.32581330574E+03  0.17091585777E+04 -0.69693166060E+02  0.17413375840E+04  0.46999998093E+01 0. -1.
       -5    1    3    3    0  502  0.32581330574E+03 -0.17091585777E+04 -0.46585267182E+03  0.18012268474E+04  0.46999998093E+01 0.  1.
</event>
<event>
 5   0  0.1125196E-06  0.3827942E+04  0.7818609E-02  0.8040185E-01
       -1   -1    0    0    0  501  0.00000000000E+00  0.00000000000E+00  0.21330813654E+04  0.21330813654E+04  0.50400001928E-02 0. -1.
        1   -1    0    0  501    0  0.00000000000E+00  0.00000000000E+00 -0.17173672668E+04  0.17173672668E+04  0.50400001928E-02 0.  1.
    10030    2    1    2    0    0  0.00000000000E+00  0.00000000000E+00  0.41571409862E+03  0.38504486322E+04  0.38279415431E+04 0.  0.
        4    1    3    3  502    0 -0.87078720793E+03 -0.16143927652E+04 -0.34193523628E+03  0.18658659331E+04  0.12699999809E+01 0.  1.
       -4    1    3    3    0  502  0.87078720793E+03  0.16143927652E+04  0.75764933490E+03  0.19845826990E+04  0.12699999809E+01 0. -1.
</event>
<event>
 5   0  0.1042825E-06  0.2830007E+04  0.7818609E-02  0.8294013E-01
       -3   -1    0    0    0  501  0.00000000000E+00  0.00000000000E+00  0.90551777740E+03  0.90551778303E+03  0.10100000352E+00 0.  1.
        3   -1    0    0  501    0  0.00000000000E+00  0.00000000000E+00 -0.22111488913E+04  0.22111488936E+04  0.10100000352E+00 0. -1.
    10030    2    1    2    0    0  0.00000000000E+00  0.00000000000E+00 -0.13056311139E+04  0.31166666766E+04  0.28300068141E+04 0.  0.
        3    1    3    3  502    0  0.12082384828E+04  0.31320868845E+03  0.81256092275E+02  0.12508167238E+04  0.10100000352E+00 0.  1.
       -3    1    3    3    0  502 -0.12082384828E+04 -0.31320868845E+03 -0.13868872062E+04  0.18658499528E+04  0.10100000352E+00 0. -1.
</event>
<event>
 5   0  0.3041329E-06  0.3424508E+04  0.7818609E-02  0.8131917E-01
       -2   -1    0    0    0  501  0.00000000000E+00  0.00000000000E+00  0.12569904865E+04  0.12569904865E+04  0.25500000920E-02 0.  1.
        2   -1    0    0  501    0  0.00000000000E+00  0.00000000000E+00 -0.23324066923E+04  0.23324066923E+04  0.25500000920E-02 0. -1.
    10030    2    1    2    0    0  0.00000000000E+00  0.00000000000E+00 -0.10754162057E+04  0.35893971788E+04  0.34245075692E+04 0.  0.
        2    1    3    3  502    0 -0.21070212766E+03 -0.22554311192E+03 -0.23030078162E+04  0.23235985203E+04  0.25500000920E-02 0. -1.
       -2    1    3    3    0  502  0.21070212766E+03  0.22554311192E+03  0.12275916105E+04  0.12657986586E+04  0.25500000920E-02 0.  1.
</event>
<event>
 5   0  0.1102175E-06  0.3157572E+04  0.7818609E-02  0.8200113E-01
       -1   -1    0    0    0  501  0.00000000000E+00  0.00000000000E+00  0.15707837047E+04  0.15707837047E+04  0.50400001928E-02 0. -1.
        1   -1    0    0  501    0  0.00000000000E+00  0.00000000000E+00 -0.15868290923E+04  0.15868290923E+04  0.50400001928E-02 0.  1.
    10030    2    1    2    0    0  0.00000000000E+00  0.00000000000E+00 -0.16045387638E+02  0.31576127970E+04  0.31575720295E+04 0.  0.
        5    1    3    3  502    0 -0.37168652309E+03 -0.10312745572E+04  0.11281544224E+04  0.15730329223E+04  0.46999998093E+01 0. -1.
       -5    1    3    3    0  502  0.37168652309E+03  0.10312745572E+04 -0.11441998101E+04  0.15845798747E+04  0.46999998093E+01 0.  1.
</event>
<event>
 5   0  0.1125196E-06  0.2806857E+04  0.7818609E-02  0.8301143E-01
       -1   -1    0    0    0  501  0.00000000000E+00  0.00000000000E+00  0.98317855588E+03  0.98317855589E+03  0.50400001928E-02 0.  1.
        1   -1    0    0  501    0  0.00000000000E+00  0.00000000000E+00 -0.20033096500E+04  0.20033096500E+04  0.50400001928E-02 0. -1.
    10030    2    1    2    0    0  0.00000000000E+00  0.00000000000E+00 -0.10201310941E+04  0.29864882059E+04  0.28068566680E+04 0.  0.
        4    1    3    3  502    0 -0.38308698167E+03 -0.17845280276E+03 -0.19339979860E+04  0.19796340221E+04  0.12699999809E+01 0. -1.
       -4    1    3    3    0  502  0.38308698167E+03  0.17845280276E+03  0.91386689196E+03  0.10068541838E+04  0.12699999809E+01 0.  1.
</event>
<event>
 5   0  0.1089337E-06  0.3388221E+04  0.7818609E-02  0.8140803E-01
        1   -1    0    0  501    0  0.00000000000E+00  0.00000000000E+00  0.23076974549E+04  0.23076974549E+04  0.50400001928E-02 0. -1.
       -1   -1    0    0    0  501  0.00000000000E+00  0.00000000000E+00 -0.12436681423E+04  0.12436681423E+04  0.50400001928E-02 0.  1.
    10030    2    1    2    0    0  0.00000000000E+00  0.00000000000E+00  0.10640293127E+04  0.35513655972E+04  0.33882206580E+04 0.  0.
        2    1    3    3  502    0 -0.21982681306E+02  0.92496592629E+03  0.20194894463E+04  0.22213470748E+04  0.25500000920E-02 0. -1.
       -2    1    3    3    0  502  0.21982681306E+02 -0.92496592629E+03 -0.95546013363E+03  0.13300185224E+04  0.25500000920E-02 0.  1.
</event>
<event>
 5   0  0.1908726E-06  0.3546760E+04  0.7818609E-02  0.8102797E-01
       -2   -1    0    0    0  501  0.00000000000E+00  0.00000000000E+00  0.19181523996E+04  0.19181523996E+04  0.25500000920E-02 0. -1.
        2   -1    0    0  501    0  0.00000000000E+00  0.00000000000E+00 -0.16395343839E+04  0.16395343839E+04  0.25500000920E-02 0.  1.
    10030    2    1    2    0    0  0.00000000000E+00  0.00000000000E+00  0.27861801566E+03  0.35576867835E+04  0.35467601062E+04 0.  0.
        5    1    3    3  502    0 -0.11729677661E+04  0.11772745659E+04 -0.48148853363E+03  0.17302260205E+04  0.46999998093E+01 0.  1.
       -5    1    3    3    0  502  0.11729677661E+04 -0.11772745659E+04  0.76010654929E+03  0.18274607630E+04  0.46999998093E+01 0. -1.
</event>
<event>
 5   0  0.1782660E-06  0.3334966E+04  0.7818609E-02  0.8154055E-01
       -2   -1    0    0    0  501  0.00000000000E+00  0.00000000000E+00  0.15951957762E+04  0.15951957762E+04  0.25500000920E-02 0. -1.
        2   -1    0    0  501    0  0.00000000000E+00  0.00000000000E+00 -0.17430458708E+04  0.17430458708E+04  0.25500000920E-02 0.  1.
    10030    2    1    2    0    0  0.00000000000E+00  0.00000000000E+00 -0.14785009464E+03  0.33382416470E+04  0.33349659133E+04 0.  0.
        4    1    3    3  502    0  0.12230354097E+04 -0.51971811976E+03 -0.10821756858E+04  0.17137760546E+04  0.12699999809E+01 0.  1.
       -4    1    3    3    0  502 -0.12230354097E+04  0.51971811976E+03  0.93432559120E+03  0.16244655924E+04  0.12699999809E+01 0. -1.
</event>
<event>
 5   0  0.1908726E-06  0.3454903E+04  0.7818609E-02  0.8124561E-01
       -2   -1    0    0    0  501  0.00000000000E+00  0.00000000000E+00  0.11739195842E+04  0.11739195842E+04  0.25500000920E-02 0.  1.
        2   -1    0    0  501    0  0.00000000000E+00  0.00000000000E+00 -0.25419874265E+04  0.25419874265E+04  0.25500000920E-02 0. -1.
    10030    2    1    2    0    0  0.00000000000E+00  0.00000000000E+00 -0.13680678423E+04  0.37159070106E+04  0.34549030797E+04 0.  0.
        5    1    3    3  502    0 -0.64617279702E+03  0.10248950067E+04 -0.20083615025E+04  0.23455249035E+04  0.46999998093E+01 0. -1.
       -5    1    3    3    0  502  0.64617279702E+03 -0.10248950067E+04  0.64029366017E+03  0.13703821071E+04  0.46999998093E+01 0.  1.
</event>
<event>
 5   0  0.1782660E-06  0.3532803E+04  0.7818609E-02  0.8106060E-01
        2   -1    0    0  501    0  0.00000000000E+00  0.00000000000E+00  0.20400404381E+04  0.20400404381E+04  0.25500000920E-02 0.  1.
       -2   -1    0    0    0  501  0.00000000000E+00  0.00000000000E+00 -0.15294671904E+04  0.15294671904E+04  0.25500000920E-02 0. -1.
    10030    2    1    2    0    0  0.00000000000E+00  0.00000000000E+00  0.51057324767E+03  0.35695076285E+04  0.35328033725E+04 0.  0.
        4    1    3    3  502    0 -0.98538807817E+03  0.14596298845E+04  0.39332314395E+03  0.18044982053E+04  0.12699999809E+01 0.  1.
       -4    1    3    3    0  502  0.98538807817E+03 -0.14596298845E+04  0.11725010373E+03  0.17650094232E+04  0.12699999809E+01 0. -1.
</event>
<event>
 5   0  0.1782660E-06  0.3525870E+04  0.7818609E-02  0.8107686E-01
        2   -1    0    0  501    0  0.00000000000E+00  0.00000000000E+00  0.18059548194E+04  0.18059548194E+04  0.25500000920E-02 0.  1.
       -2   -1    0    0    0  501  0.00000000000E+00  0.00000000000E+00 -0.17209404436E+04  0.17209404436E+04  0.25500000920E-02 0. -1.
    10030    2    1    2    0    0  0.00000000000E+00  0.00000000000E+00  0.85014375797E+02  0.35268952629E+04  0.35258704956E+04 0.  0.
        4    1    3    3  502    0 -0.45047094617E+03 -0.25494999167E+03 -0.16432171671E+04  0.17228139315E+04  0.12699999809E+01 0. -1.
       -4    1    3    3    0  502  0.45047094617E+03  0.25494999167E+03  0.17282315429E+04  0.18040813314E+04  0.12699999809E+01 0.  1.
</event>
<event>
 5   0  0.2565004E-06  0.3521545E+04  0.7818609E-02  0.8108703E-01
        2   -1    0    0  501    0  0.00000000000E+00  0.00000000000E+00  0.23452380931E+04  0.23452380931E+04  0.25500000920E-02 0. -1.
       -2   -1    0    0    0  501  0.00000000000E+00  0.00000000000E+00 -0.13219638523E+04  0.13219638523E+04  0.25500000920E-02 0.  1.
    10030    2    1    2    0    0  0.00000000000E+00  0.00000000000E+00  0.10232742408E+04  0.36672019453E+04  0.35215451063E+04 0.  0.
        3    1    3    3  502    0  0.17501007401E+04 -0.17815014666E+03  0.59046412619E+03  0.18555963920E+04  0.10100000352E+00 0. -1.
       -3    1    3    3    0  502 -0.17501007401E+04  0.17815014666E+03  0.43281011465E+03  0.18116055534E+04  0.10100000352E+00 0.  1.
</event>
<event>
 5   0  0.3378848E-06  0.2029937E+04  0.7818609E-02  0.8592751E-01
       -2   -1    0    0    0  501  0.00000000000E+00  0.00000000000E+00  0.41311778560E+03  0.41311778561E+03  0.25500000920E-02 0. -1.
        2   -1    0    0  501    0  0.00000000000E+00  0.00000000000E+00 -0.24936254433E+04  0.24936254433E+04  0.25500000920E-02 0.  1.
    10030    2    1    2    0    0  0.00000000000E+00  0.00000000000E+00 -0.20805076577E+04  0.29067432289E+04  0.20299369658E+04 0.  0.
        1    1    3    3  502    0  0.32811226753E+03  0.20613301844E+03  0.30303235392E+03  0.49191166782E+03  0.50400001928E-02 0. -1.
       -1    1    3    3    0  502 -0.32811226753E+03 -0.20613301844E+03 -0.23835400117E+04  0.24148315611E+04  0.50400001928E-02 0.  1.
</event>
<event>
 5   0  0.1782660E-06  0.3095381E+04  0.7818609E-02  0.8217007E-01
        2   -1    0    0  501    0  0.00000000000E+00  0.00000000000E+00  0.26669043011E+04  0.26669043011E+04  0.25500000920E-02 0. -1.
       -2   -1    0    0    0  501  0.00000000000E+00  0.00000000000E+00 -0.89817469556E+03  0.89817469556E+03  0.25500000920E-02 0.  1.
    10030    2    1    2    0    0  0.00000000000E+00  0.00000000000E+00  0.17687296056E+04  0.35650789967E+04  0.30953810484E+04 0.  0.
        4    1    3    3  502    0  0.46622214364E+03  0.14525066497E+04  0.58357345089E+03  0.16333089849E+04  0.12699999809E+01 0. -1.
       -4    1    3    3    0  502 -0.46622214364E+03 -0.14525066497E+04  0.11851561547E+04  0.19317700118E+04  0.12699999809E+01 0.  1.
</event>
<event>
 5   0  0.1125196E-06  0.3425204E+04  0.7818609E-02  0.8131748E-01
        1   -1    0    0  501    0  0.00000000000E+00  0.00000000000E+00  0.14364994913E+04  0.14364994913E+04  0.50400001928E-02 0. -1.
       -1   -1    0    0    0  501  0.00000000000E+00  0.00000000000E+00 -0.20417729671E+04  0.20417729671E+04  0.50400001928E-02 0.  1.
    10030    2    1    2    0    0  0.00000000000E+00  0.00000000000E+00 -0.60527347581E+03  0.34782724584E+04  0.34252041274E+04 0.  0.
        4    1    3    3  502    0 -0.14270330919E+04 -0.73243460227E+03  0.30676116485E+03  0.16330915213E+04  0.12699999809E+01 0. -1.
       -4    1    3    3    0  502  0.14270330919E+04  0.73243460227E+03 -0.91203464066E+03  0.18451809371E+04  0.12699999809E+01 0.  1.
</event>
<event>
 5   0  0.1908726E-06  0.3545925E+04  0.7818609E-02  0.8102992E-01
        2   -1    0    0  501    0  0.00000000000E+00  0.00000000000E+00  0.26243274353E+04  0.26243274353E+04  0.25500000920E-02 0. -1.
       -2   -1    0    0    0  501  0.00000000000E+00  0.00000000000E+00 -0.11977909202E+04  0.11977909202E+04  0.25500000920E-02 0.  1.
    10030    2    1    2    0    0  0.00000000000E+00  0.00000000000E+00  0.14265365151E+04  0.38221183554E+04  0.35459247446E+04 0.  0.
        5    1    3    3  502    0  0.41359950076E+03 -0.16036297841E+02 -0.11449760124E+04  0.12175031288E+04  0.46999998093E+01 0.  1.
       -5    1    3    3    0  502 -0.41359950076E+03  0.16036297841E+02  0.25715125274E+04  0.26046152266E+04  0.46999998093E+01 0. -1.
</event>
<event>
 5   0  0.1110956E-06  0.1948461E+04  0.7818609E-02  0.8631103E-01
       -1   -1    0    0    0  501  0.00000000000E+00  0.00000000000E+00  0.52294856944E+03  0.52294856946E+03  0.50400001928E-02 0.  1.
        1   -1    0    0  501    0  0.00000000000E+00  0.00000000000E+00 -0.18149489284E+04  0.18149489285E+04  0.50400001928E-02 0. -1.
    10030    2    1    2    0    0  0.00000000000E+00  0.00000000000E+00 -0.12920003590E+04  0.23378974979E+04  0.19484608754E+04 0.  0.
        1    1    3    3  502    0 -0.48650616724E+03  0.30422434805E+03  0.29868929003E+03  0.64688174864E+03  0.50400001928E-02 0.  1.
       -1    1    3    3    0  502  0.48650616724E+03 -0.30422434805E+03 -0.15906896490E+04  0.16910157493E+04  0.50400001928E-02 0. -1.
</event>
<event>
 5   0  0.1782660E-06  0.3334452E+04  0.7818609E-02  0.8154184E-01
       -2   -1    0    0    0  501  0.00000000000E+00  0.00000000000E+00  0.19566866430E+04  0.19566866430E+04  0.25500000920E-02 0. -1.
        2   -1    0    0  501    0  0.00000000000E+00  0.00000000000E+00 -0.14205868476E+04  0.14205868476E+04  0.25500000920E-02 0.  1.
    10030    2    1    2    0    0  0.00000000000E+00  0.00000000000E+00  0.53609979545E+03  0.33772734906E+04  0.33344524647E+04 0.  0.
        4    1    3    3  502    0 -0.12919304834E+04 -0.77175154521E+03  0.99487033576E+03  0.18040103712E+04  0.12699999809E+01 0. -1.
       -4    1    3    3    0  502  0.12919304834E+04  0.77175154521E+03 -0.45877054031E+03  0.15732631194E+04  0.12699999809E+01 0.  1.
</event>
<event>
 5   0  0.1089337E-06  0.3502707E+04  0.7818609E-02  0.8113149E-01
        1   -1    0    0  501    0  0.00000000000E+00  0.00000000000E+00  0.24050688550E+04  0.24050688550E+04  0.50400001928E-02 0. -1.
       -1   -1    0    0    0  501  0.00000000000E+00  0.00000000000E+00 -0.12753228473E+04  0.12753228473E+04  0.50400001928E-02 0.  1.
    10030    2    1    2    0    0  0.00000000000E+00  0.00000000000E+00  0.11297460077E+04  0.36803917024E+04  0.35027071018E+04 0.  0.
        2    1    3    3  502    0 -0.96871582677E+03 -0.89098358390E+03  0.17788966276E+04  0.22128568213E+04  0.25500000920E-02 0. -1.
       -2    1    3    3    0  502  0.96871582677E+03  0.89098358390E+03 -0.64915061992E+03  0.14675348811E+04  0.25500000920E-02 0.  1.
</event>
<event>
 5   0  0.1110956E-06  0.3271044E+04  0.7818609E-02  0.8170303E-01
       -1   -1    0    0    0  501  0.00000000000E+00  0.00000000000E+00  0.20816221458E+04  0.20816221458E+04  0.50400001928E-02 0. -1.
        1   -1    0    0  501    0  0.00000000000E+00  0.00000000000E+00 -0.12850227906E+04  0.12850227906E+04  0.50400001928E-02 0.  1.
    10030    2    1    2    0    0  0.00000000000E+00  0.00000000000E+00  0.79659935520E+03  0.33666449363E+04  0.32710438081E+04 0.  0.
        1    1    3    3  502    0  0.13843803594E+04  0.81529049016E+03  0.83207848685E+02  0.16087669530E+04  0.50400001928E-02 0. -1.
       -1    1    3    3    0  502 -0.13843803594E+04 -0.81529049016E+03  0.71339150651E+03  0.17578779834E+04  0.50400001928E-02 0.  1.
</event>
<event>
 5   0  0.1089337E-06  0.3658763E+04  0.7818609E-02  0.8077162E-01
       -1   -1    0    0    0  501  0.00000000000E+00  0.00000000000E+00  0.25768954412E+04  0.25768954412E+04  0.50400001928E-02 0. -1.
        1   -1    0    0  501    0  0.00000000000E+00  0.00000000000E+00 -0.12987085457E+04  0.12987085457E+04  0.50400001928E-02 0.  1.
    10030    2    1    2    0    0  0.00000000000E+00  0.00000000000E+00  0.12781868955E+04  0.38756039869E+04  0.36587627039E+04 0.  0.
        2    1    3    3  502    0 -0.12562673566E+04  0.12668328658E+04  0.10674916283E+04  0.20790891173E+04  0.25500000920E-02 0.  1.
       -2    1    3    3    0  502  0.12562673566E+04 -0.12668328658E+04  0.21069526716E+03  0.17965148696E+04  0.25500000920E-02 0. -1.
</event>
<event>
 5   0  0.1908726E-06  0.1723182E+04  0.7818609E-02  0.8748252E-01
        2   -1    0    0  501    0  0.00000000000E+00  0.00000000000E+00  0.14920956541E+04  0.14920956541E+04  0.25500000920E-02 0.  1.
       -2   -1    0    0    0  501  0.00000000000E+00  0.00000000000E+00 -0.49751458481E+03  0.49751458481E+03  0.25500000920E-02 0. -1.
    10030    2    1    2    0    0  0.00000000000E+00  0.00000000000E+00  0.99458106930E+03  0.19896102389E+04  0.17231823465E+04 0.  0.
        5    1    3    3  502    0  0.79232953669E+03 -0.27158001544E+03  0.26414011208E+03  0.87825616326E+03  0.46999998093E+01 0.  1.
       -5    1    3    3    0  502 -0.79232953669E+03  0.27158001544E+03  0.73044095722E+03  0.11113540757E+04  0.46999998093E+01 0. -1.
</event>
<event>
 5   0  0.2565004E-06  0.3471809E+04  0.7818609E-02  0.8120504E-01
       -2   -1    0    0    0  501  0.00000000000E+00  0.00000000000E+00  0.12431148613E+04  0.12431148613E+04  0.25500000920E-02 0.  1.
        2   -1    0    0  501    0  0.00000000000E+00  0.00000000000E+00 -0.24240428211E+04  0.24240428211E+04  0.25500000920E-02 0. -1.
    10030    2    1    2    0    0  0.00000000000E+00  0.00000000000E+00 -0.11809279598E+04  0.36671576824E+04  0.34718085520E+04 0.  0.
        3    1    3    3  502    0 -0.53072207718E+03  0.10984485517E+03 -0.23323866588E+04  0.23945269578E+04  0.10100000352E+00 0. -1.
       -3    1    3    3    0  502  0.53072207718E+03 -0.10984485517E+03  0.11514586990E+04  0.12726307246E+04  0.10100000352E+00 0.  1.
</event>
<event>
 5   0  0.1782660E-06  0.3299269E+04  0.7818609E-02  0.8163081E-01
        2   -1    0    0  501    0  0.00000000000E+00  0.00000000000E+00  0.19658613327E+04  0.19658613327E+04  0.25500000920E-02 0.  1.
       -2   -1    0    0    0  501  0.00000000000E+00  0.00000000000E+00 -0.13842755423E+04  0.13842755423E+04  0.25500000920E-02 0. -1.
    10030    2    1    2    0    0  0.00000000000E+00  0.00000000000E+00  0.58158579038E+03  0.33501368750E+04  0.32992688660E+04 0.  0.
        4    1    3    3  502    0 -0.69041404797E+03 -0.81282881504E+03 -0.98715404432E+03  0.14532160749E+04  0.12699999809E+01 0. -1.
       -4    1    3    3    0  502  0.69041404797E+03  0.81282881504E+03  0.15687398347E+04  0.18969208002E+04  0.12699999809E+01 0.  1.
</event>
<event>
 5   0  0.1209495E-06  0.1881552E+04  0.7818609E-02  0.8664094E-01
        1   -1    0    0  501    0  0.00000000000E+00  0.00000000000E+00  0.15246122020E+04  0.15246122020E+04  0.50400001928E-02 0. -1.
       -1   -1    0    0    0  501  0.00000000000E+00  0.00000000000E+00 -0.58051450772E+03  0.58051450774E+03  0.50400001928E-02 0.  1.
    10030    2    1    2    0    0  0.00000000000E+00  0.00000000000E+00  0.94409769429E+03  0.21051267098E+04  0.18815520210E+04 0.  0.
        1    1    3    3  502    0 -0.66822831093E+02 -0.36155969127E+03  0.14408946312E+04  0.14870669249E+04  0.50400001928E-02 0. -1.
       -1    1    3    3    0  502  0.66822831093E+02  0.36155969127E+03 -0.49679693687E+03  0.61805978482E+03  0.50400001928E-02 0.  1.
</event>
<event>
 5   0  0.1102175E-06  0.1915211E+04  0.7818609E-02  0.8647322E-01
       -1   -1    0    0    0  501  0.00000000000E+00  0.00000000000E+00  0.52526947324E+03  0.52526947326E+03  0.50400001928E-02 0. -1.
        1   -1    0    0  501    0  0.00000000000E+00  0.00000000000E+00 -0.17457871254E+04  0.17457871255E+04  0.50400001928E-02 0.  1.
    10030    2    1    2    0    0  0.00000000000E+00  0.00000000000E+00 -0.12205176522E+04  0.22710565987E+04  0.19152114075E+04 0.  0.
        5    1    3    3  502    0  0.45392390422E+03 -0.82130128512E+03 -0.83650700240E+03  0.12571192333E+04  0.46999998093E+01 0.  1.
       -5    1    3    3    0  502 -0.45392390422E+03  0.82130128512E+03 -0.38401064981E+03  0.10139373654E+04  0.46999998093E+01 0. -1.
</event>
<event>
 5   0  0.1908726E-06  0.3471489E+04  0.7818609E-02  0.8120580E-01
        2   -1    0    0  501    0  0.00000000000E+00  0.00000000000E+00  0.17888715895E+04  0.17888715895E+04  0.25500000920E-02 0. -1.
       -2   -1    0    0    0  501  0.00000000000E+00  0.00000000000E+00 -0.16841952780E+04  0.16841952780E+04  0.25500000920E-02 0.  1.
    10030    2    1    2    0    0  0.00000000000E+00  0.00000000000E+00  0.10467631144E+03  0.34730668675E+04  0.34714890661E+04 0.  0.
        5    1    3    3  502    0  0.80135912098E+03  0.34458181314E+03  0.15536447061E+04  0.17817819815E+04  0.46999998093E+01 0. -1.
       -5    1    3    3    0  502 -0.80135912098E+03 -0.34458181314E+03 -0.14489683947E+04  0.16912848860E+04  0.46999998093E+01 0.  1.
</event>
<event>
 5   0  0.1782660E-06  0.3480910E+04  0.7818609E-02  0.8118329E-01
        2   -1    0    0  501    0  0.00000000000E+00  0.00000000000E+00  0.25557370554E+04  0.25557370554E+04  0.25500000920E-02 0.  1.
       -2   -1    0    0    0  501  0.00000000000E+00  0.00000000000E+00 -0.11852488456E+04  0.11852488456E+04  0.25500000920E-02 0. -1.
    10030    2    1    2    0    0  0.00000000000E+00  0.00000000000E+00  0.13704882098E+04  0.37409859010E+04  0.34809104525E+04 0.  0.
        4    1    3    3  502    0  0.64513786693E+02 -0.10729302793E+04  0.21564031683E+04  0.24094434316E+04  0.12699999809E+01 0.  1.
       -4    1    3    3    0  502 -0.64513786693E+02  0.10729302793E+04 -0.78591495849E+03  0.13315424694E+04  0.12699999809E+01 0. -1.
</event>
<event>
 5   0  0.1089337E-06  0.3579373E+04  0.7818609E-02  0.8095233E-01
       -1   -1    0    0    0  501  0.00000000000E+00  0.00000000000E+00  0.18249670239E+04  0.18249670239E+04  0.50400001928E-02 0.  1.
        1   -1    0    0  501    0  0.00000000000E+00  0.00000000000E+00 -0.17550880213E+04  0.17550880213E+04  0.50400001928E-02 0. -1.
    10030    2    1    2    0    0  0.00000000000E+00  0.00000000000E+00  0.69879002616E+02  0.35800550452E+04  0.35793729970E+04 0.  0.
        2    1    3    3  502    0 -0.78576980456E+03 -0.15862334263E+04  0.29844196458E+03  0.17951708204E+04  0.25500000920E-02 0.  1.
       -2    1    3    3    0  502  0.78576980456E+03  0.15862334263E+04 -0.22856296197E+03  0.17848842248E+04  0.25500000920E-02 0. -1.
</event>
<event>
 5   0  0.1782660E-06  0.3510276E+04  0.7818609E-02  0.8111359E-01
       -2   -1    0    0    0  501  0.00000000000E+00  0.00000000000E+00  0.14233389125E+04  0.14233389125E+04  0.25500000920E-02 0.  1.
        2   -1    0    0  501    0  0.00000000000E+00  0.00000000000E+00 -0.21642842104E+04  0.21642842104E+04  0.25500000920E-02 0. -1.
    10030    2    1    2    0    0  0.00000000000E+00  0.00000000000E+00 -0.74094529789E+03  0.35876231228E+04  0.35102763049E+04 0.  0.
        4    1    3    3  502    0 -0.25573514806E+03  0.21417928168E+03  0.13906427081E+04  0.14300916003E+04  0.12699999809E+01 0.  1.
       -4    1    3    3    0  502  0.25573514806E+03 -0.21417928168E+03 -0.21315880060E+04  0.21575315226E+04  0.12699999809E+01 0. -1.
</event>
<event>
 5   0  0.1042825E-06  0.3510260E+04  0.7818609E-02  0.8111363E-01
       -3   -1    0    0    0  501  0.00000000000E+00  0.00000000000E+00  0.18328430788E+04  0.18328430816E+04  0.10100000352E+00 0.  1.
        3   -1    0    0  501    0  0.00000000000E+00  0.00000000000E+00 -0.16807122639E+04  0.16807122669E+04  0.10100000352E+00 0. -1.
    10030    2    1    2    0    0  0.00000000000E+00  0.00000000000E+00  0.15213081495E+03  0.35135553486E+04  0.35102603041E+04 0.  0.
        1    1    3    3  502    0 -0.98649579415E+03  0.23075768806E+03  0.15106095319E+04  0.18188909314E+04  0.50400001928E-02 0.  1.
       -1    1    3    3    0  502  0.98649579415E+03 -0.23075768806E+03 -0.13584787169E+04  0.16946644172E+04  0.50400001928E-02 0. -1.
</event>
<event>
 5   0  0.1089337E-06  0.2482008E+04  0.7818609E-02  0.8409423E-01
       -1   -1    0    0    0  501  0.00000000000E+00  0.00000000000E+00  0.91250838065E+03  0.91250838066E+03  0.50400001928E-02 0.  1.
        1   -1    0    0  501    0  0.00000000000E+00  0.00000000000E+00 -0.16877560227E+04  0.16877560227E+04  0.50400001928E-02 0. -1.
    10030    2    1    2    0    0  0.00000000000E+00  0.00000000000E+00 -0.77524764207E+03  0.26002644034E+04  0.24820084732E+04 0.  0.
        2    1    3    3  502    0 -0.10890997564E+04  0.31296648329E+03 -0.91770045177E+03  0.14581702295E+04  0.25500000920E-02 0. -1.
       -2    1    3    3    0  502  0.10890997564E+04 -0.31296648329E+03  0.14245280970E+03  0.11420941739E+04  0.25500000920E-02 0.  1.
</event>
<event>
 5   0  0.1089337E-06  0.2415070E+04  0.7818609E-02  0.8433883E-01
        1   -1    0    0  501    0  0.00000000000E+00  0.00000000000E+00  0.20435586850E+04  0.20435586850E+04  0.50400001928E-02 0.  1.
       -1   -1    0    0    0  501  0.00000000000E+00  0.00000000000E+00 -0.71353037448E+03  0.71353037449E+03  0.50400001928E-02 0. -1.
    10030    2    1    2    0    0  0.00000000000E+00  0.00000000000E+00  0.13300283105E+04  0.27570890595E+04  0.24150703458E+04 0.  0.
        2    1    3    3  502    0  0.53854583324E+02  0.11967992947E+04  0.49220943650E+03  0.12951829976E+04  0.25500000920E-02 0. -1.
       -2    1    3    3    0  502 -0.53854583324E+02 -0.11967992947E+04  0.83781887398E+03  0.14619060618E+04  0.25500000920E-02 0.  1.
</event>
<event>
 5   0  0.2565004E-06  0.3498981E+04  0.7818609E-02  0.8114031E-01
        2   -1    0    0  501    0  0.00000000000E+00  0.00000000000E+00  0.16851990590E+04  0.16851990590E+04  0.25500000920E-02 0. -1.
       -2   -1    0    0    0  501  0.00000000000E+00  0.00000000000E+00 -0.18162346583E+04  0.18162346583E+04  0.25500000920E-02 0.  1.
    10030    2    1    2    0    0  0.00000000000E+00  0.00000000000E+00 -0.13103559933E+03  0.35014337173E+04  0.34989809585E+04 0.  0.
        3    1    3    3  502    0 -0.16768619407E+03  0.10116212974E+04  0.13529456300E+04  0.16976331162E+04  0.10100000352E+00 0. -1.
       -3    1    3    3    0  502  0.16768619407E+03 -0.10116212974E+04 -0.14839812294E+04  0.18038006011E+04  0.10100000352E+00 0.  1.
</event>
<event>
 5   0  0.1130707E-06  0.2071898E+04  0.7818609E-02  0.8573724E-01
        1   -1    0    0  501    0  0.00000000000E+00  0.00000000000E+00  0.11990705109E+04  0.11990705109E+04  0.50400001928E-02 0. -1.
       -1   -1    0    0    0  501  0.00000000000E+00  0.00000000000E+00 -0.89501881669E+03  0.89501881670E+03  0.50400001928E-02 0.  1.
    10030    2    1    2    0    0  0.00000000000E+00  0.00000000000E+00  0.30405169425E+03  0.20940893276E+04  0.20718983275E+04 0.  0.
        3    1    3    3  502    0 -0.16911010737E+03 -0.70321346932E+03 -0.59759382168E+03  0.93820349486E+03  0.10100000352E+00 0.  1.
       -3    1    3    3    0  502  0.16911010737E+03  0.70321346932E+03  0.90164551593E+03  0.11558858328E+04  0.10100000352E+00 0. -1.
</event>
<event>
 5   0  0.3378848E-06  0.3443312E+04  0.7818609E-02  0.8127357E-01
        2   -1    0    0  501    0  0.00000000000E+00  0.00000000000E+00  0.23027833318E+04  0.23027833318E+04  0.25500000920E-02 0. -1.
       -2   -1    0    0    0  501  0.00000000000E+00  0.00000000000E+00 -0.12871814085E+04  0.12871814085E+04  0.25500000920E-02 0.  1.
    10030    2    1    2    0    0  0.00000000000E+00  0.00000000000E+00  0.10156019233E+04  0.35899647403E+04  0.34433122963E+04 0.  0.
        1    1    3    3  502    0 -0.37549552859E+03  0.11032778496E+04 -0.81340476589E+03  0.14212129392E+04  0.50400001928E-02 0.  1.
       -1    1    3    3    0  502  0.37549552859E+03 -0.11032778496E+04  0.18290066892E+04  0.21687518011E+04  0.50400001928E-02 0. -1.
</event>
<event>
 5   0  0.1782660E-06  0.3687570E+04  0.7818609E-02  0.8070722E-01
       -2   -1    0    0    0  501  0.00000000000E+00  0.00000000000E+00  0.14191992431E+04  0.14191992431E+04  0.25500000920E-02 0.  1.
        2   -1    0    0  501    0  0.00000000000E+00  0.00000000000E+00 -0.23953949182E+04  0.23953949182E+04  0.25500000920E-02 0. -1.
    10030    2    1    2    0    0  0.00000000000E+00  0.00000000000E+00 -0.97619567506E+03  0.38145941613E+04  0.36875697444E+04 0.  0.
        4    1    3    3  502    0 -0.95069042441E+03 -0.20837621541E+03 -0.21080254716E+04  0.23218539859E+04  0.12699999809E+01 0. -1.
       -4    1    3    3    0  502  0.95069042441E+03  0.20837621541E+03  0.11318297965E+04  0.14927401754E+04  0.12699999809E+01 0.  1.
</event>
<event>
 5   0  0.3378848E-06  0.3481487E+04  0.7818609E-02  0.8118191E-01
        2   -1    0    0  501    0  0.00000000000E+00  0.00000000000E+00  0.17612671851E+04  0.17612671851E+04  0.25500000920E-02 0.  1.
       -2   -1    0    0    0  501  0.00000000000E+00  0.00000000000E+00 -0.17204593795E+04  0.17204593795E+04  0.25500000920E-02 0. -1.
    10030    2    1    2    0    0  0.00000000000E+00  0.00000000000E+00  0.40807805596E+02  0.34817265646E+04  0.34814874111E+04 0.  0.
        1    1    3    3  502    0 -0.56791960316E+03 -0.85145936982E+03  0.14285748139E+04  0.17573678423E+04  0.50400001928E-02 0.  1.
       -1    1    3    3    0  502  0.56791960316E+03  0.85145936982E+03 -0.13877670083E+04  0.17243587224E+04  0.50400001928E-02 0. -1.
</event>
<event>
 5   0  0.1782660E-06  0.2552710E+04  0.7818609E-02  0.8384444E-01
        2   -1    0    0  501    0  0.00000000000E+00  0.00000000000E+00  0.18468223828E+04  0.18468223828E+04  0.25500000920E-02 0. -1.
       -2   -1    0    0    0  501  0.00000000000E+00  0.00000000000E+00 -0.88210014727E+03  0.88210014727E+03  0.25500000920E-02 0.  1.
    10030    2    1    2    0    0  0.00000000000E+00  0.00000000000E+00  0.96472223557E+03  0.27289225301E+04  0.25527101644E+04 0.  0.
        4    1    3    3  502    0  0.46796061887E+03 -0.21611645775E+03  0.17306046040E+04  0.18057373487E+04  0.12699999809E+01 0. -1.
       -4    1    3    3    0  502 -0.46796061887E+03  0.21611645775E+03 -0.76588236841E+03  0.92318518146E+03  0.12699999809E+01 0.  1.
</event>
<event>
 5   0  0.1908726E-06  0.3578925E+04  0.7818609E-02  0.8095336E-01
       -2   -1    0    0    0  501  0.00000000000E+00  0.00000000000E+00  0.12563063607E+04  0.12563063607E+04  0.25500000920E-02 0. -1.
        2   -1    0    0  501    0  0.00000000000E+00  0.00000000000E+00 -0.25488817803E+04  0.25488817803E+04  0.25500000920E-02 0.  1.
    10030    2    1    2    0    0  0.00000000000E+00  0.00000000000E+00 -0.12925754196E+04  0.38051881410E+04  0.35789251981E+04 0.  0.
        5    1    3    3  502    0  0.10166451642E+04 -0.66511284903E+03  0.75062913745E+03  0.14280786686E+04  0.46999998093E+01 0. -1.
       -5    1    3    3    0  502 -0.10166451642E+04  0.66511284903E+03 -0.20432045571E+04  0.23771094724E+04  0.46999998093E+01 0.  1.
</event>
<event>
 5   0  0.1908726E-06  0.1736282E+04  0.7818609E-02  0.8740938E-01
       -2   -1    0    0    0  501  0.00000000000E+00  0.00000000000E+00  0.57042983775E+03  0.57042983775E+03  0.25500000920E-02 0. -1.
        2   -1    0    0  501    0  0.00000000000E+00  0.00000000000E+00 -0.13212292823E+04  0.13212292823E+04  0.25500000920E-02 0.  1.
    10030    2    1    2    0    0  0.00000000000E+00  0.00000000000E+00 -0.75079944457E+03  0.18916591201E+04  0.17362817803E+04 0.  0.
        5    1    3    3  502    0  0.42817367545E+03  0.48021927341E+03 -0.10103979792E+04  0.11978603480E+04  0.46999998093E+01 0.  1.
       -5    1    3    3    0  502 -0.42817367545E+03 -0.48021927341E+03  0.25959853466E+03  0.69379877206E+03  0.46999998093E+01 0. -1.
</event>
<event>
 5   0  0.2565004E-06  0.2253893E+04  0.7818609E-02  0.8496326E-01
       -2   -1    0    0    0  501  0.00000000000E+00  0.00000000000E+00  0.55099144555E+03  0.55099144555E+03  0.25500000920E-02 0.  1.
        2   -1    0    0  501    0  0.00000000000E+00  0.00000000000E+00 -0.23049510083E+04  0.23049510083E+04  0.25500000920E-02 0. -1.
    10030    2    1    2    0    0  0.00000000000E+00  0.00000000000E+00 -0.17539595627E+04  0.28559424538E+04  0.22538928883E+04 0.  0.
        3    1    3    3  502    0  0.66210697344E+03 -0.87417769337E+03 -0.54792965609E+03  0.12258871082E+04  0.10100000352E+00 0. -1.
       -3    1    3    3    0  502 -0.66210697344E+03  0.87417769337E+03 -0.12060299066E+04  0.16300553456E+04  0.10100000352E+00 0.  1.
</event>
<event>
 5   0  0.1089337E-06  0.3496961E+04  0.7818609E-02  0.8114511E-01
       -1   -1    0    0    0  501  0.00000000000E+00  0.00000000000E+00  0.14455914665E+04  0.14455914665E+04  0.50400001928E-02 0. -1.
        1   -1    0    0  501    0  0.00000000000E+00  0.00000000000E+00 -0.21148326790E+04  0.21148326790E+04  0.50400001928E-02 0.  1.
    10030    2    1    2    0    0  0.00000000000E+00  0.00000000000E+00 -0.66924121254E+03  0.35604241455E+04  0.34969610086E+04 0.  0.
        2    1    3    3  502    0 -0.12449915245E+03  0.79937068222E+03 -0.19128127153E+04  0.20768596511E+04  0.25500000920E-02 0.  1.
       -2    1    3    3    0  502  0.12449915245E+03 -0.79937068222E+03  0.12435715028E+04  0.14835644944E+04  0.25500000920E-02 0. -1.
</event>
<event>
 5   0  0.1102175E-06  0.3312734E+04  0.7818609E-02  0.8159663E-01
       -1   -1    0    0    0  501  0.00000000000E+00  0.00000000000E+00  0.19946583102E+04  0.19946583102E+04  0.50400001928E-02 0.  1.
        1   -1    0    0  501    0  0.00000000000E+00  0.00000000000E+00 -0.13754496722E+04  0.13754496723E+04  0.50400001928E-02 0. -1.
    10030    2    1    2    0    0  0.00000000000E+00  0.00000000000E+00  0.61920863797E+03  0.33701079825E+04  0.33127342900E+04 0.  0.
        5    1    3    3  502    0 -0.22565778100E+03  0.13175725359E+04 -0.68539995371E+03  0.15022363356E+04  0.46999998093E+01 0. -1.
       -5    1    3    3    0  502  0.22565778100E+03 -0.13175725359E+04  0.13046085917E+04  0.18678716468E+04  0.46999998093E+01 0.  1.
</event>
<event>
 5   0  0.1089337E-06  0.2916501E+04  0.7818609E-02  0.8267985E-01
        1   -1    0    0  501    0  0.00000000000E+00  0.00000000000E+00  0.12702034155E+04  0.12702034155E+04  0.50400001928E-02 0. -1.
       -1   -1    0    0    0  501  0.00000000000E+00  0.00000000000E+00 -0.16741367167E+04  0.16741367167E+04  0.50400001928E-02 0.  1.
    10030    2    1    2    0    0  0.00000000000E+00  0.00000000000E+00 -0.40393330118E+03  0.29443401322E+04  0.29165007633E+04 0.  0.
        2    1    3    3  502    0 -0.13395944188E+04  0.10347220833E+03  0.37025461375E+03  0.13936671711E+04  0.25500000920E-02 0. -1.
       -2    1    3    3    0  502  0.13395944188E+04 -0.10347220833E+03 -0.77418791493E+03  0.15506729611E+04  0.25500000920E-02 0.  1.
</event>
<event>
 5   0  0.1110956E-06  0.2445270E+04  0.7818609E-02  0.8422747E-01
        1   -1    0    0  501    0  0.00000000000E+00  0.00000000000E+00  0.16944798701E+04  0.16944798701E+04  0.50400001928E-02 0.  1.
       -1   -1    0    0    0  501  0.00000000000E+00  0.00000000000E+00 -0.88217994091E+03  0.88217994093E+03  0.50400001928E-02 0. -1.
    10030    2    1    2    0    0  0.00000000000E+00  0.00000000000E+00  0.81229992921E+03  0.25766598111E+04  0.24452698434E+04 0.  0.
        1    1    3    3  502    0  0.55168761511E+03  0.10640326567E+04  0.15169721562E+03  0.12081128939E+04  0.50400001928E-02 0. -1.
       -1    1    3    3    0  502 -0.55168761511E+03 -0.10640326567E+04  0.66060271359E+03  0.13685469171E+04  0.50400001928E-02 0.  1.
</event>
<event>
 5   0  0.1782660E-06  0.3560168E+04  0.7818609E-02  0.8099677E-01
       -2   -1    0    0    0  501  0.00000000000E+00  0.00000000000E+00  0.16554725809E+04  0.16554725809E+04  0.25500000920E-02 0.  1.
        2   -1    0    0  501    0  0.00000000000E+00  0.00000000000E+00 -0.19140747979E+04  0.19140747979E+04  0.25500000920E-02 0. -1.
    10030    2    1    2    0    0  0.00000000000E+00  0.00000000000E+00 -0.25860221707E+03  0.35695473788E+04  0.35601676060E+04 0.  0.
        4    1    3    3  502    0 -0.12724791073E+04  0.82103870366E+03 -0.10673884468E+04  0.18527350973E+04  0.12699999809E+01 0. -1.
       -4    1    3    3    0  502  0.12724791073E+04 -0.82103870366E+03  0.80878622977E+03  0.17168122815E+04  0.12699999809E+01 0.  1.
</event>
<event>
 5   0  0.1089337E-06  0.1938738E+04  0.7818609E-02  0.8635811E-01
       -1   -1    0    0    0  501  0.00000000000E+00  0.00000000000E+00  0.97306295941E+03  0.97306295942E+03  0.50400001928E-02 0.  1.
        1   -1    0    0  501    0  0.00000000000E+00  0.00000000000E+00 -0.96568909406E+03  0.96568909408E+03  0.50400001928E-02 0. -1.
    10030    2    1    2    0    0  0.00000000000E+00  0.00000000000E+00  0.73738653452E+01  0.19387520535E+04  0.19387380305E+04 0.  0.
        2    1    3    3  502    0  0.71453186689E+03  0.60195377188E+03 -0.25471802358E+03  0.96839320724E+03  0.25500000920E-02 0. -1.
       -2    1    3    3    0  502 -0.71453186689E+03 -0.60195377188E+03  0.26209188893E+03  0.97035884627E+03  0.25500000920E-02 0.  1.
</event>
<event>
 5   0  0.3041329E-06  0.3125053E+04  0.7818609E-02  0.8208896E-01
        2   -1    0    0  501    0  0.00000000000E+00  0.00000000000E+00  0.23769099622E+04  0.23769099622E+04  0.25500000920E-02 0. -1.
       -2   -1    0    0    0  501  0.00000000000E+00  0.00000000000E+00 -0.10271694760E+04  0.10271694760E+04  0.25500000920E-02 0.  1.
    10030    2    1    2    0    0  0.00000000000E+00  0.00000000000E+00  0.13497404862E+04  0.34040794381E+04  0.31250531901E+04 0.  0.
        2    1    3    3  502    0  0.95513684108E+03  0.83015950791E+03 -0.32350035318E+03  0.13061790353E+04  0.25500000920E-02 0.  1.
       -2    1    3    3    0  502 -0.95513684108E+03 -0.83015950791E+03  0.16732408393E+04  0.20979004028E+04  0.25500000920E-02 0. -1.
</event>
<event>
 5   0  0.1042825E-06  0.2817917E+04  0.7818609E-02  0.8297727E-01
       -3   -1    0    0    0  501  0.00000000000E+00  0.00000000000E+00  0.12171087666E+04  0.12171087708E+04  0.10100000352E+00 0. -1.
        3   -1    0    0  501    0  0.00000000000E+00  0.00000000000E+00 -0.16310488986E+04  0.16310489018E+04  0.10100000352E+00 0.  1.
    10030    2    1    2    0    0  0.00000000000E+00  0.00000000000E+00 -0.41394013207E+03  0.28481576725E+04  0.28179169070E+04 0.  0.
        3    1    3    3  502    0  0.40158806977E+03 -0.52528192989E+03  0.10505562759E+04  0.12413148604E+04  0.10100000352E+00 0. -1.
       -3    1    3    3    0  502 -0.40158806977E+03  0.52528192989E+03 -0.14644964080E+04  0.16068428121E+04  0.10100000352E+00 0.  1.
</event>
<event>
 5   0  0.2565004E-06  0.3524108E+04  0.7818609E-02  0.8108100E-01
        2   -1    0    0  501    0  0.00000000000E+00  0.00000000000E+00  0.21724460929E+04  0.21724460929E+04  0.25500000920E-02 0.  1.
       -2   -1    0    0    0  501  0.00000000000E+00  0.00000000000E+00 -0.14291883871E+04  0.14291883871E+04  0.25500000920E-02 0. -1.
    10030    2    1    2    0    0  0.00000000000E+00  0.00000000000E+00  0.74325770589E+03  0.36016344800E+04  0.35241082433E+04 0.  0.
        3    1    3    3  502    0 -0.11034978023E+04 -0.79029504137E+03  0.15199849809E+04  0.20377997950E+04  0.10100000352E+00 0.  1.
       -3    1    3    3    0  502  0.11034978023E+04  0.79029504137E+03 -0.77672727500E+03  0.15638346850E+04  0.10100000352E+00 0. -1.
</event>
<event>
 5   0  0.1125196E-06  0.2073030E+04  0.7818609E-02  0.8573218E-01
        1   -1    0    0  501    0  0.00000000000E+00  0.00000000000E+00  0.80123368365E+03  0.80123368367E+03  0.50400001928E-02 0.  1.
       -1   -1    0    0    0  501  0.00000000000E+00  0.00000000000E+00 -0.13408864015E+04  0.13408864015E+04  0.50400001928E-02 0. -1.
    10030    2    1    2    0    0  0.00000000000E+00  0.00000000000E+00 -0.53965271782E+03  0.21421200851E+04  0.20730300054E+04 0.  0.
        4    1    3    3  502    0 -0.89001781582E+03  0.32028192482E+01  0.27912256730E+03  0.93276631104E+03  0.12699999809E+01 0.  1.
       -4    1    3    3    0  502  0.89001781582E+03 -0.32028192482E+01 -0.81877528513E+03  0.12093537741E+04  0.12699999809E+01 0. -1.
</event>
<event>
 5   0  0.1130707E-06  0.3404879E+04  0.7818609E-02  0.8136710E-01
       -1   -1    0    0    0  501  0.00000000000E+00  0.00000000000E+00  0.26981486702E+04  0.26981486702E+04  0.50400001928E-02 0. -1.
        1   -1    0    0  501    0  0.00000000000E+00  0.00000000000E+00 -0.10741809771E+04  0.10741809771E+04  0.50400001928E-02 0.  1.
    10030    2    1    2    0    0  0.00000000000E+00  0.00000000000E+00  0.16239676931E+04  0.37723296474E+04  0.34048788378E+04 0.  0.
        3    1    3    3  502    0  0.83164044338E+03 -0.74168160712E+03  0.22379673892E+04  0.25000430954E+04  0.10100000352E+00 0. -1.
       -3    1    3    3    0  502 -0.83164044338E+03  0.74168160712E+03 -0.61399969610E+03  0.12722865520E+04  0.10100000352E+00 0.  1.
</event>
<event>
 5   0  0.1110956E-06  0.2435906E+04  0.7818609E-02  0.8426182E-01
       -1   -1    0    0    0  501  0.00000000000E+00  0.00000000000E+00  0.68760957761E+03  0.68760957763E+03  0.50400001928E-02 0. -1.
        1   -1    0    0  501    0  0.00000000000E+00  0.00000000000E+00 -0.21573422788E+04  0.21573422788E+04  0.50400001928E-02 0.  1.
    10030    2    1    2    0    0  0.00000000000E+00  0.00000000000E+00 -0.14697327012E+04  0.28449518564E+04  0.24359057561E+04 0.  0.
        1    1    3    3  502    0 -0.78449426960E+03 -0.22499356950E+02  0.35291624483E+03  0.86051575000E+03  0.50400001928E-02 0. -1.
       -1    1    3    3    0  502  0.78449426960E+03  0.22499356950E+02 -0.18226489460E+04  0.19844361064E+04  0.50400001928E-02 0.  1.
</event>
<event>
 5   0  0.3041329E-06  0.3474478E+04  0.7818609E-02  0.8119865E-01
       -2   -1    0    0    0  501  0.00000000000E+00  0.00000000000E+00  0.20629885052E+04  0.20629885052E+04  0.25500000920E-02 0.  1.
        2   -1    0    0  501    0  0.00000000000E+00  0.00000000000E+00 -0.14629262677E+04  0.14629262677E+04  0.25500000920E-02 0. -1.
    10030    2    1    2    0    0  0.00000000000E+00  0.00000000000E+00  0.60006223750E+03  0.35259147728E+04  0.34744784208E+04 0.  0.
        2    1    3    3  502    0  0.78707224302E+02 -0.73009114114E+03 -0.12976882415E+04  0.14910475088E+04  0.25500000920E-02 0. -1.
       -2    1    3    3    0  502 -0.78707224302E+02  0.73009114114E+03  0.18977504790E+04  0.20348672640E+04  0.25500000920E-02 0.  1.
</event>
<event>
 5   0  0.1908726E-06  0.3382553E+04  0.7818609E-02  0.8142202E-01
       -2   -1    0    0    0  501  0.00000000000E+00  0.00000000000E+00  0.12026650591E+04  0.12026650591E+04  0.25500000920E-02 0.  1.
        2   -1    0    0  501    0  0.00000000000E+00  0.00000000000E+00 -0.23783984934E+04  0.23783984934E+04  0.25500000920E-02 0. -1.
    10030    2    1    2    0    0  0.00000000000E+00  0.00000000000E+00 -0.11757334343E+04  0.35810635524E+04  0.33825533341E+04 0.  0.
        5    1    3    3  502    0  0.35283692310E+03 -0.11958251804E+04  0.62195902662E+03  0.13933222445E+04  0.46999998093E+01 0.  1.
       -5    1    3    3    0  502 -0.35283692310E+03  0.11958251804E+04 -0.17976924609E+04  0.21877413079E+04  0.46999998093E+01 0. -1.
</event>
<event>
 5   0  0.3378848E-06  0.3382136E+04  0.7818609E-02  0.8142305E-01
       -2   -1    0    0    0  501  0.00000000000E+00  0.00000000000E+00  0.12833957445E+04  0.12833957445E+04  0.25500000920E-02 0. -1.
        2   -1    0    0  501    0  0.00000000000E+00  0.00000000000E+00 -0.22282372029E+04  0.22282372029E+04  0.25500000920E-02 0.  1.
    10030    2    1    2    0    0  0.00000000000E+00  0.00000000000E+00 -0.94484145845E+03  0.35116329474E+04  0.33821355052E+04 0.  0.
        1    1    3    3  502    0  0.14716045455E+04 -0.63322920427E+03 -0.10345473536E+04  0.19070625030E+04  0.50400001928E-02 0.  1.
       -1    1    3    3    0  502 -0.14716045455E+04  0.63322920427E+03  0.89705895145E+02  0.16045704444E+04  0.50400001928E-02 0. -1.
</event>
<event>
 5   0  0.2565004E-06  0.3472019E+04  0.7818609E-02  0.8120453E-01
        2   -1    0    0  501    0  0.00000000000E+00  0.00000000000E+00  0.12091017403E+04  0.12091017403E+04  0.25500000920E-02 0. -1.
       -2   -1    0    0    0  501  0.00000000000E+00  0.00000000000E+00 -0.24925348448E+04  0.24925348448E+04  0.25500000920E-02 0.  1.
    10030    2    1    2    0    0  0.00000000000E+00  0.00000000000E+00 -0.12834331045E+04  0.37016365851E+04  0.34720185591E+04 0.  0.
        3    1    3    3  502    0  0.45655463943E+03  0.57280942213E+03 -0.23197094692E+04  0.24326127527E+04  0.10100000352E+00 0.  1.
       -3    1    3    3    0  502 -0.45655463943E+03 -0.57280942213E+03  0.10362763647E+04  0.12690238324E+04  0.10100000352E+00 0. -1.
</event>
<event>
 5   0  0.1782660E-06  0.3518364E+04  0.7818609E-02  0.8109452E-01
       -2   -1    0    0    0  501  0.00000000000E+00  0.00000000000E+00  0.31237155968E+04  0.31237155968E+04  0.25500000920E-02 0. -1.
        2   -1    0    0  501    0  0.00000000000E+00  0.00000000000E+00 -0.99071801475E+03  0.99071801475E+03  0.25500000920E-02 0.  1.
    10030    2    1    2    0    0  0.00000000000E+00  0.00000000000E+00  0.21329975821E+04  0.41144336116E+04  0.35183640032E+04 0.  0.
        4    1    3    3  502    0  0.68152519593E+03 -0.15898398546E+04  0.69182464176E+03  0.18629788790E+04  0.12699999809E+01 0.  1.
       -4    1    3    3    0  502 -0.68152519593E+03  0.15898398546E+04  0.14411729403E+04  0.22514547325E+04  0.12699999809E+01 0. -1.
</event>
<event>
 5   0  0.1089337E-06  0.2603618E+04  0.7818609E-02  0.8366973E-01
        1   -1    0    0  501    0  0.00000000000E+00  0.00000000000E+00  0.16116818556E+04  0.16116818556E+04  0.50400001928E-02 0. -1.
       -1   -1    0    0    0  501  0.00000000000E+00  0.00000000000E+00 -0.10515143161E+04  0.10515143161E+04  0.50400001928E-02 0.  1.
    10030    2    1    2    0    0  0.00000000000E+00  0.00000000000E+00  0.56016753951E+03  0.26631961717E+04  0.26036179014E+04 0.  0.
        2    1    3    3  502    0 -0.55983967900E+03  0.10006964203E+04 -0.35037459754E+03  0.11989896373E+04  0.25500000920E-02 0.  1.
       -2    1    3    3    0  502  0.55983967900E+03 -0.10006964203E+04  0.91054213705E+03  0.14642065343E+04  0.25500000920E-02 0. -1.
</event>
<event>
 5   0  0.1782660E-06  0.3507991E+04  0.7818609E-02  0.8111899E-01
        2   -1    0    0  501    0  0.00000000000E+00  0.00000000000E+00  0.22848619157E+04  0.22848619157E+04  0.25500000920E-02 0.  1.
       -2   -1    0    0    0  501  0.00000000000E+00  0.00000000000E+00 -0.13464712654E+04  0.13464712655E+04  0.25500000920E-02 0. -1.
    10030    2    1    2    0    0  0.00000000000E+00  0.00000000000E+00  0.93839065029E+03  0.36313331812E+04  0.35079913997E+04 0.  0.
        4    1    3    3  502    0 -0.38685275030E+03  0.20819909351E+03 -0.12885961719E+04  0.13614270528E+04  0.12699999809E+01 0. -1.
       -4    1    3    3    0  502  0.38685275030E+03 -0.20819909351E+03  0.22269868221E+04  0.22699061284E+04  0.12699999809E+01 0.  1.
</event>
<event>
 5   0  0.1089337E-06  0.2460765E+04  0.7818609E-02  0.8417098E-01
        1   -1    0    0  501    0  0.00000000000E+00  0.00000000000E+00  0.91755566971E+03  0.91755566972E+03  0.50400001928E-02 0. -1.
       -1   -1    0    0    0  501  0.00000000000E+00  0.00000000000E+00 -0.16498633197E+04  0.16498633197E+04  0.50400001928E-02 0.  1.
    10030    2    1    2    0    0  0.00000000000E+00  0.00000000000E+00 -0.73230765001E+03  0.25674189894E+04  0.24607652820E+04 0.  0.
        2    1    3    3  502    0 -0.27729993432E+03  0.49411333910E+03  0.77333493422E+03  0.95869190355E+03  0.25500000920E-02 0. -1.
       -2    1    3    3    0  502  0.27729993432E+03 -0.49411333910E+03 -0.15056425842E+04  0.16087270859E+04  0.25500000920E-02 0.  1.
</event>
<event>
 5   0  0.1042825E-06  0.2314127E+04  0.7818609E-02  0.8472372E-01
        3   -1    0    0  501    0  0.00000000000E+00  0.00000000000E+00  0.22175444118E+04  0.22175444141E+04  0.10100000352E+00 0. -1.
       -3   -1    0    0    0  501  0.00000000000E+00  0.00000000000E+00 -0.60372886315E+03  0.60372887159E+03  0.10100000352E+00 0.  1.
    10030    2    1    2    0    0  0.00000000000E+00  0.00000000000E+00  0.16138155486E+04  0.28212732857E+04  0.23141266879E+04 0.  0.
        5    1    3    3  502    0  0.34439412291E+03  0.94290821734E+03  0.10540202119E+03  0.10093636086E+04  0.46999998093E+01 0. -1.
       -5    1    3    3    0  502 -0.34439412291E+03 -0.94290821734E+03  0.15084135274E+04  0.18119096771E+04  0.46999998093E+01 0.  1.
</event>
<event>
 5   0  0.1782660E-06  0.3158349E+04  0.7818609E-02  0.8199905E-01
       -2   -1    0    0    0  501  0.00000000000E+00  0.00000000000E+00  0.29995598898E+04  0.29995598898E+04  0.25500000920E-02 0. -1.
        2   -1    0    0  501    0  0.00000000000E+00  0.00000000000E+00 -0.83138591105E+03  0.83138591106E+03  0.25500000920E-02 0.  1.
    10030    2    1    2    0    0  0.00000000000E+00  0.00000000000E+00  0.21681739787E+04  0.38309458008E+04  0.31583488292E+04 0.  0.
        4    1    3    3  502    0 -0.82348464000E+03  0.27899561676E+03 -0.51491460725E+03  0.10104969926E+04  0.12699999809E+01 0.  1.
       -4    1    3    3    0  502  0.82348464000E+03 -0.27899561676E+03  0.26830885860E+04  0.28204488082E+04  0.12699999809E+01 0. -1.
</event>
<event>
 5   0  0.1089337E-06  0.2901507E+04  0.7818609E-02  0.8272429E-01
       -1   -1    0    0    0  501  0.00000000000E+00  0.00000000000E+00  0.16528137156E+04  0.16528137156E+04  0.50400001928E-02 0.  1.
        1   -1    0    0  501    0  0.00000000000E+00  0.00000000000E+00 -0.12733956891E+04  0.12733956892E+04  0.50400001928E-02 0. -1.
    10030    2    1    2    0    0  0.00000000000E+00  0.00000000000E+00  0.37941802647E+03  0.29262094048E+04  0.29015070984E+04 0.  0.
        2    1    3    3  502    0  0.20101098439E+03  0.42488963843E+03  0.15738913705E+04  0.16425804902E+04  0.25500000920E-02 0.  1.
       -2    1    3    3    0  502 -0.20101098439E+03 -0.42488963843E+03 -0.11944733440E+04  0.12836289146E+04  0.25500000920E-02 0. -1.
</event>
<event>
 5   0  0.2565004E-06  0.3301345E+04  0.7818609E-02  0.8162553E-01
       -2   -1    0    0    0  501  0.00000000000E+00  0.00000000000E+00  0.98319157042E+03  0.98319157042E+03  0.25500000920E-02 0. -1.
        2   -1    0    0  501    0  0.00000000000E+00  0.00000000000E+00 -0.27713009406E+04  0.27713009406E+04  0.25500000920E-02 0.  1.
    10030    2    1    2    0    0  0.00000000000E+00  0.00000000000E+00 -0.17881093702E+04  0.37544925110E+04  0.33013450131E+04 0.  0.
        3    1    3    3  502    0 -0.76005410620E+03  0.82589833444E+03 -0.22705307945E+04  0.25328048488E+04  0.10100000352E+00 0.  1.
       -3    1    3    3    0  502  0.76005410620E+03 -0.82589833444E+03  0.48242142431E+03  0.12216876622E+04  0.10100000352E+00 0. -1.
</event>
<event>
 5   0  0.2565004E-06  0.3263242E+04  0.7818609E-02  0.8172312E-01
        2   -1    0    0  501    0  0.00000000000E+00  0.00000000000E+00  0.30837795959E+04  0.30837795959E+04  0.25500000920E-02 0.  1.
       -2   -1    0    0    0  501  0.00000000000E+00  0.00000000000E+00 -0.86328694104E+03  0.86328694105E+03  0.25500000920E-02 0. -1.
    10030    2    1    2    0    0  0.00000000000E+00  0.00000000000E+00  0.22204926549E+04  0.39470665370E+04  0.32632417344E+04 0.  0.
        3    1    3    3  502    0 -0.12239787966E+04  0.70412490295E+03  0.12146239332E+03  0.14172752367E+04  0.10100000352E+00 0. -1.
       -3    1    3    3    0  502  0.12239787966E+04 -0.70412490295E+03  0.20990302615E+04  0.25297913002E+04  0.10100000352E+00 0.  1.
</event>
<event>
 5   0  0.3041329E-06  0.2481084E+04  0.7818609E-02  0.8409756E-01
        2   -1    0    0  501    0  0.00000000000E+00  0.00000000000E+00  0.11914904506E+04  0.11914904506E+04  0.25500000920E-02 0.  1.
       -2   -1    0    0    0  501  0.00000000000E+00  0.00000000000E+00 -0.12916127001E+04  0.12916127001E+04  0.25500000920E-02 0. -1.
    10030    2    1    2    0    0  0.00000000000E+00  0.00000000000E+00 -0.10012224952E+03  0.24831031507E+04  0.24810837939E+04 0.  0.
        2    1    3    3  502    0  0.98232073719E+03 -0.38222401125E+03  0.60460809277E+03  0.12151543817E+04  0.25500000920E-02 0.  1.
       -2    1    3    3    0  502 -0.98232073719E+03  0.38222401125E+03 -0.70473034229E+03  0.12679487690E+04  0.25500000920E-02 0. -1.
</event>
<event>
 5   0  0.3041329E-06  0.3499508E+04  0.7818609E-02  0.8113907E-01
        2   -1    0    0  501    0  0.00000000000E+00  0.00000000000E+00  0.17349576990E+04  0.17349576990E+04  0.25500000920E-02 0.  1.
       -2   -1    0    0    0  501  0.00000000000E+00  0.00000000000E+00 -0.17646761197E+04  0.17646761197E+04  0.25500000920E-02 0. -1.
    10030    2    1    2    0    0  0.00000000000E+00  0.00000000000E+00 -0.29718420675E+02  0.34996338187E+04  0.34995076340E+04 0.  0.
        2    1    3    3  502    0  0.69678628392E+03 -0.12752266538E+04  0.95981652122E+03  0.17415400938E+04  0.25500000920E-02 0.  1.
       -2    1    3    3    0  502 -0.69678628392E+03  0.12752266538E+04 -0.98953494189E+03  0.17580937248E+04  0.25500000920E-02 0. -1.
</event>
<event>
 5   0  0.1782660E-06  0.3469699E+04  0.7818609E-02  0.8121009E-01
       -2   -1    0    0    0  501  0.00000000000E+00  0.00000000000E+00  0.13670348231E+04  0.13670348231E+04  0.25500000920E-02 0.  1.
        2   -1    0    0  501    0  0.00000000000E+00  0.00000000000E+00 -0.22016287380E+04  0.22016287380E+04  0.25500000920E-02 0. -1.
    10030    2    1    2    0    0  0.00000000000E+00  0.00000000000E+00 -0.83459391491E+03  0.35686635612E+04  0.34696992103E+04 0.  0.
        4    1    3    3  502    0 -0.62257825781E+01 -0.17333482595E+04 -0.34336779202E+03  0.17670421621E+04  0.12699999809E+01 0. -1.
       -4    1    3    3    0  502  0.62257825781E+01  0.17333482595E+04 -0.49122612289E+03  0.18016213991E+04  0.12699999809E+01 0.  1.
</event>
<event>
 5   0  0.1110956E-06  0.1954913E+04  0.7818609E-02  0.8627995E-01
       -1   -1    0    0    0  501  0.00000000000E+00  0.00000000000E+00  0.76180542738E+03  0.76180542739E+03  0.50400001928E-02 0. -1.
        1   -1    0    0  501    0  0.00000000000E+00  0.00000000000E+00 -0.12541542062E+04  0.12541542062E+04  0.50400001928E-02 0.  1.
    10030    2    1    2    0    0  0.00000000000E+00  0.00000000000E+00 -0.49234877881E+03  0.20159596336E+04  0.19549132779E+04 0.  0.
        1    1    3    3  502    0 -0.39827210131E+03  0.11168306545E+03  0.66710385871E+03  0.78493396673E+03  0.50400001928E-02 0. -1.
       -1    1    3    3    0  502  0.39827210131E+03 -0.11168306545E+03 -0.11594526375E+04  0.12310256669E+04  0.50400001928E-02 0.  1.
</event>
<event>
 5   0  0.1125196E-06  0.3483914E+04  0.7818609E-02  0.8117613E-01
        1   -1    0    0  501    0  0.00000000000E+00  0.00000000000E+00  0.12693979369E+04  0.12693979369E+04  0.50400001928E-02 0.  1.
       -1   -1    0    0    0  501  0.00000000000E+00  0.00000000000E+00 -0.23904351288E+04  0.23904351288E+04  0.50400001928E-02 0. -1.
    10030    2    1    2    0    0  0.00000000000E+00  0.00000000000E+00 -0.11210371919E+04  0.36598330657E+04  0.34839135585E+04 0.  0.
        4    1    3    3  502    0 -0.16436868505E+04 -0.40363249036E+03 -0.12766099691E+03  0.16973286638E+04  0.12699999809E+01 0.  1.
       -4    1    3    3    0  502  0.16436868505E+04  0.40363249036E+03 -0.99337619502E+03  0.19625044019E+04  0.12699999809E+01 0. -1.
</event>
<event>
 5   0  0.1130707E-06  0.2126237E+04  0.7818609E-02  0.8549773E-01
       -1   -1    0    0    0  501  0.00000000000E+00  0.00000000000E+00  0.13693736975E+04  0.13693736975E+04  0.50400001928E-02 0.  1.
        1   -1    0    0  501    0  0.00000000000E+00  0.00000000000E+00 -0.82535598522E+03  0.82535598524E+03  0.50400001928E-02 0. -1.
    10030    2    1    2    0    0  0.00000000000E+00  0.00000000000E+00  0.54401771223E+03  0.21947296827E+04  0.21262368422E+04 0.  0.
        3    1    3    3  502    0 -0.52373670742E+02  0.87385591254E+03 -0.35062501456E+03  0.94302972821E+03  0.10100000352E+00 0. -1.
       -3    1    3    3    0  502  0.52373670742E+02 -0.87385591254E+03  0.89464272680E+03  0.12516999545E+04  0.10100000352E+00 0.  1.
</event>
<event>
 5   0  0.1102175E-06  0.3436742E+04  0.7818609E-02  0.8128947E-01
        1   -1    0    0  501    0  0.00000000000E+00  0.00000000000E+00  0.21410861335E+04  0.21410861335E+04  0.50400001928E-02 0. -1.
       -1   -1    0    0    0  501  0.00000000000E+00  0.00000000000E+00 -0.13791127311E+04  0.13791127311E+04  0.50400001928E-02 0.  1.
    10030    2    1    2    0    0  0.00000000000E+00  0.00000000000E+00  0.76197340243E+03  0.35201988646E+04  0.34367421464E+04 0.  0.
        5    1    3    3  502    0 -0.95412942848E+03 -0.19691542180E+03 -0.10688861688E+04  0.14462635934E+04  0.46999998093E+01 0.  1.
       -5    1    3    3    0  502  0.95412942848E+03  0.19691542180E+03  0.18308595713E+04  0.20739352713E+04  0.46999998093E+01 0. -1.
</event>
<event>
 5   0  0.3378848E-06  0.3515479E+04  0.7818609E-02  0.8110131E-01
       -2   -1    0    0    0  501  0.00000000000E+00  0.00000000000E+00  0.21998371696E+04  0.21998371696E+04  0.25500000920E-02 0.  1.
        2   -1    0    0  501    0  0.00000000000E+00  0.00000000000E+00 -0.14044896145E+04  0.14044896145E+04  0.25500000920E-02 0. -1.
    10030    2    1    2    0    0  0.00000000000E+00  0.00000000000E+00  0.79534755518E+03  0.36043267841E+04  0.35154791755E+04 0.  0.
        1    1    3    3  502    0  0.14026817139E+04  0.44898664518E+03 -0.58602419875E+03  0.15850960096E+04  0.50400001928E-02 0. -1.
       -1    1    3    3    0  502 -0.14026817139E+04 -0.44898664518E+03  0.13813717539E+04  0.20192307745E+04  0.50400001928E-02 0.  1.
</event>
<event>
 5   0  0.1102175E-06  0.3508201E+04  0.7818609E-02  0.8111849E-01
       -1   -1    0    0    0  501  0.00000000000E+00  0.00000000000E+00  0.11171752124E+04  0.11171752124E+04  0.50400001928E-02 0.  1.
        1   -1    0    0  501    0  0.00000000000E+00  0.00000000000E+00 -0.27541506591E+04  0.27541506591E+04  0.50400001928E-02 0. -1.
    10030    2    1    2    0    0  0.00000000000E+00  0.00000000000E+00 -0.16369754467E+04  0.38713258715E+04  0.35082011616E+04 0.  0.
        5    1    3    3  502    0  0.60216917858E+03  0.94827073458E+03 -0.23051630951E+04  0.25642979723E+04  0.46999998093E+01 0. -1.
       -5    1    3    3    0  502 -0.60216917858E+03 -0.94827073458E+03  0.66818764845E+03  0.13070278992E+04  0.46999998093E+01 0.  1.
</event>
<event>
 5   0  0.1089337E-06  0.2652843E+04  0.7818609E-02  0.8350470E-01
        1   -1    0    0  501    0  0.00000000000E+00  0.00000000000E+00  0.13417609508E+04  0.13417609508E+04  0.50400001928E-02 0.  1.
       -1   -1    0    0    0  501  0.00000000000E+00  0.00000000000E+00 -0.13112575341E+04  0.13112575341E+04  0.50400001928E-02 0. -1.
    10030    2    1    2    0    0  0.00000000000E+00  0.00000000000E+00  0.30503416716E+02  0.26530184849E+04  0.26528431206E+04 0.  0.
        2    1    3    3  502    0 -0.80728437121E+03 -0.92631252118E+03 -0.48441239603E+03  0.13207642910E+04  0.25500000920E-02 0. -1.
       -2    1    3    3    0  502  0.80728437121E+03  0.92631252118E+03  0.51491581275E+03  0.13322541939E+04  0.25500000920E-02 0.  1.
</event>
<event>
 5   0  0.3041329E-06  0.3448558E+04  0.7818609E-02  0.8126090E-01
        2   -1    0    0  501    0  0.00000000000E+00  0.00000000000E+00  0.16806709781E+04  0.16806709781E+04  0.25500000920E-02 0.  1.
       -2   -1    0    0    0  501  0.00000000000E+00  0.00000000000E+00 -0.17690182704E+04  0.17690182704E+04  0.25500000920E-02 0. -1.
    10030    2    1    2    0    0  0.00000000000E+00  0.00000000000E+00 -0.88347292342E+02  0.34496892485E+04  0.34485577662E+04 0.  0.
        2    1    3    3  502    0 -0.13662308300E+04  0.56308236757E+03  0.84464995049E+03  0.17020816585E+04  0.25500000920E-02 0.  1.
       -2    1    3    3    0  502  0.13662308300E+04 -0.56308236757E+03 -0.93299724283E+03  0.17476075900E+04  0.25500000920E-02 0. -1.
</event>
<event>
 5   0  0.1908726E-06  0.3304293E+04  0.7818609E-02  0.8161804E-01
        2   -1    0    0  501    0  0.00000000000E+00  0.00000000000E+00  0.13040769409E+04  0.13040769409E+04  0.25500000920E-02 0. -1.
       -2   -1    0    0    0  501  0.00000000000E+00  0.00000000000E+00 -0.20931195021E+04  0.20931195021E+04  0.25500000920E-02 0.  1.
    10030    2    1    2    0    0  0.00000000000E+00  0.00000000000E+00 -0.78904256126E+03  0.33971964430E+04  0.33042934962E+04 0.  0.
        5    1    3    3  502    0  0.72040089590E+03 -0.26678128600E+03 -0.18983202216E+04  0.20478748642E+04  0.46999998093E+01 0.  1.
       -5    1    3    3    0  502 -0.72040089590E+03  0.26678128600E+03  0.11092776604E+04  0.13493215789E+04  0.46999998093E+01 0. -1.
</event>
<event>
 5   0  0.1089337E-06  0.3408283E+04  0.7818609E-02  0.8135876E-01
       -1   -1    0    0    0  501  0.00000000000E+00  0.00000000000E+00  0.11310415176E+04  0.11310415176E+04  0.50400001928E-02 0.  1.
        1   -1    0    0  501    0  0.00000000000E+00  0.00000000000E+00 -0.25676321884E+04  0.25676321884E+04  0.50400001928E-02 0. -1.
    10030    2    1    2    0    0  0.00000000000E+00  0.00000000000E+00 -0.14365906708E+04  0.36986737060E+04  0.34082832083E+04 0.  0.
        2    1    3    3  502    0  0.10670515648E+04  0.61994852682E+03 -0.19936555766E+04  0.23446956681E+04  0.25500000920E-02 0. -1.
       -2    1    3    3    0  502 -0.10670515648E+04 -0.61994852682E+03  0.55706490578E+03  0.13539780379E+04  0.25500000920E-02 0.  1.
</event>
<event>
 5   0  0.1908726E-06  0.2554347E+04  0.7818609E-02  0.8383876E-01
       -2   -1    0    0    0  501  0.00000000000E+00  0.00000000000E+00  0.12207290547E+04  0.12207290547E+04  0.25500000920E-02 0. -1.
        2   -1    0    0  501    0  0.00000000000E+00  0.00000000000E+00 -0.13362277097E+04  0.13362277097E+04  0.25500000920E-02 0.  1.
    10030    2    1    2    0    0  0.00000000000E+00  0.00000000000E+00 -0.11549865502E+03  0.25569567645E+04  0.25543468746E+04 0.  0.
        5    1    3    3  502    0 -0.56214536268E+03  0.76644510011E+03  0.79617819537E+03  0.12399061695E+04  0.46999998093E+01 0. -1.
       -5    1    3    3    0  502  0.56214536268E+03 -0.76644510011E+03 -0.91167685039E+03  0.13170505950E+04  0.46999998093E+01 0.  1.
</event>
<event>
 5   0  0.1110956E-06  0.3473315E+04  0.7818609E-02  0.8120143E-01
       -1   -1    0    0    0  501  0.00000000000E+00  0.00000000000E+00  0.14630656273E+04  0.14630656273E+04  0.50400001928E-02 0.  1.
        1   -1    0    0  501    0  0.00000000000E+00  0.00000000000E+00 -0.20614111265E+04  0.20614111265E+04  0.50400001928E-02 0. -1.
    10030    2    1    2    0    0  0.00000000000E+00  0.00000000000E+00 -0.59834549919E+03  0.35244767539E+04  0.34733152826E+04 0.  0.
        1    1    3    3  502    0 -0.62101514227E+03  0.73395592106E+03 -0.17667221707E+04  0.20113821938E+04  0.50400001928E-02 0. -1.
       -1    1    3    3    0  502  0.62101514227E+03 -0.73395592106E+03  0.11683766715E+04  0.15130945600E+04  0.50400001928E-02 0.  1.
</event>
<event>
 5   0  0.1782660E-06  0.3451872E+04  0.7818609E-02  0.8125291E-01
       -2   -1    0    0    0  501  0.00000000000E+00  0.00000000000E+00  0.12425442531E+04  0.12425442531E+04  0.25500000920E-02 0.  1.
        2   -1    0    0  501    0  0.00000000000E+00  0.00000000000E+00 -0.23973840200E+04  0.23973840200E+04  0.25500000920E-02 0. -1.
    10030    2    1    2    0    0  0.00000000000E+00  0.00000000000E+00 -0.11548397669E+04  0.36399282732E+04  0.34518723827E+04 0.  0.
        4    1    3    3  502    0 -0.44454943175E+03 -0.16004969189E+04 -0.83230562616E+02  0.16631727283E+04  0.12699999809E+01 0.  1.
       -4    1    3    3    0  502  0.44454943175E+03  0.16004969189E+04 -0.10716092043E+04  0.19767555449E+04  0.12699999809E+01 0. -1.
</event>
<event>
 5   0  0.1782660E-06  0.3476403E+04  0.7818609E-02  0.8119405E-01
        2   -1    0    0  501    0  0.00000000000E+00  0.00000000000E+00  0.18217238049E+04  0.18217238049E+04  0.25500000920E-02 0. -1.
       -2   -1    0    0    0  501  0.00000000000E+00  0.00000000000E+00 -0.16585089488E+04  0.16585089488E+04  0.25500000920E-02 0.  1.
    10030    2    1    2    0    0  0.00000000000E+00  0.00000000000E+00  0.16321485616E+03  0.34802327537E+04  0.34764034476E+04 0.  0.
        4    1    3    3  502    0 -0.11635505812E+04 -0.12874937053E+04  0.18098218998E+03  0.17447768230E+04  0.12699999809E+01 0.  1.
       -4    1    3    3    0  502  0.11635505812E+04  0.12874937053E+04 -0.17767333820E+02  0.17354559306E+04  0.12699999809E+01 0. -1.
</event>
<event>
 5   0  0.1908726E-06  0.3452782E+04  0.7818609E-02  0.8125072E-01
       -2   -1    0    0    0  501  0.00000000000E+00  0.00000000000E+00  0.12971032211E+04  0.12971032211E+04  0.25500000920E-02 0.  1.
        2   -1    0    0  501    0  0.00000000000E+00  0.00000000000E+00 -0.22977555003E+04  0.22977555003E+04  0.25500000920E-02 0. -1.
    10030    2    1    2    0    0  0.00000000000E+00  0.00000000000E+00 -0.10006522792E+04  0.35948587214E+04  0.34527821019E+04 0.  0.
        5    1    3    3  502    0 -0.16569970798E+04 -0.32600016679E+03 -0.12712337548E+03  0.16935459468E+04  0.46999998093E+01 0.  1.
       -5    1    3    3    0  502  0.16569970798E+04  0.32600016679E+03 -0.87352890371E+03  0.19013127746E+04  0.46999998093E+01 0. -1.
</event>
<event>
 5   0  0.1782660E-06  0.3541772E+04  0.7818609E-02  0.8103961E-01
       -2   -1    0    0    0  501  0.00000000000E+00  0.00000000000E+00  0.12717220533E+04  0.12717220533E+04  0.25500000920E-02 0.  1.
        2   -1    0    0  501    0  0.00000000000E+00  0.00000000000E+00 -0.24659774551E+04  0.24659774551E+04  0.25500000920E-02 0. -1.
    10030    2    1    2    0    0  0.00000000000E+00  0.00000000000E+00 -0.11942554018E+04  0.37376995084E+04  0.35417723883E+04 0.  0.
        4    1    3    3  502    0 -0.71331526653E+03  0.66048381916E+03  0.96495066904E+03  0.13697404686E+04  0.12699999809E+01 0.  1.
       -4    1    3    3    0  502  0.71331526653E+03 -0.66048381916E+03 -0.21592060708E+04  0.23679590398E+04  0.12699999809E+01 0. -1.
</event>
<event>
 5   0  0.1782660E-06  0.3375045E+04  0.7818609E-02  0.8144058E-01
        2   -1    0    0  501    0  0.00000000000E+00  0.00000000000E+00  0.19985692012E+04  0.19985692012E+04  0.25500000920E-02 0.  1.
       -2   -1    0    0    0  501  0.00000000000E+00  0.00000000000E+00 -0.14248853940E+04  0.14248853940E+04  0.25500000920E-02 0. -1.
    10030    2    1    2    0    0  0.00000000000E+00  0.00000000000E+00  0.57368380726E+03  0.34234545952E+04  0.33750449263E+04 0.  0.
        4    1    3    3  502    0  0.99628332746E+03  0.54426279955E+03 -0.97963723639E+03  0.14994976463E+04  0.12699999809E+01 0. -1.
       -4    1    3    3    0  502 -0.99628332746E+03 -0.54426279955E+03  0.15533210436E+04  0.19239569489E+04  0.12699999809E+01 0.  1.
</event>
<event>
 5   0  0.1130707E-06  0.3517993E+04  0.7818609E-02  0.8109539E-01
       -1   -1    0    0    0  501  0.00000000000E+00  0.00000000000E+00  0.13792229603E+04  0.13792229603E+04  0.50400001928E-02 0. -1.
        1   -1    0    0  501    0  0.00000000000E+00  0.00000000000E+00 -0.22433418629E+04  0.22433418629E+04  0.50400001928E-02 0.  1.
    10030    2    1    2    0    0  0.00000000000E+00  0.00000000000E+00 -0.86411890264E+03  0.36225648232E+04  0.35179929535E+04 0.  0.
        3    1    3    3  502    0 -0.11310812588E+04  0.11267195870E+04 -0.11924028491E+04  0.19926531074E+04  0.10100000352E+00 0. -1.
       -3    1    3    3    0  502  0.11310812588E+04 -0.11267195870E+04  0.32828394650E+03  0.16299117158E+04  0.10100000352E+00 0.  1.
</event>
<event>
 5   0  0.1782660E-06  0.3468268E+04  0.7818609E-02  0.8121352E-01
       -2   -1    0    0    0  501  0.00000000000E+00  0.00000000000E+00  0.17015024560E+04  0.17015024560E+04  0.25500000920E-02 0.  1.
        2   -1    0    0  501    0  0.00000000000E+00  0.00000000000E+00 -0.17673910610E+04  0.17673910610E+04  0.25500000920E-02 0. -1.
    10030    2    1    2    0    0  0.00000000000E+00  0.00000000000E+00 -0.65888605064E+02  0.34688935170E+04  0.34682677123E+04 0.  0.
        4    1    3    3  502    0  0.16178234151E+04  0.37201268547E+02  0.59045146835E+03  0.17226058999E+04  0.12699999809E+01 0.  1.
       -4    1    3    3    0  502 -0.16178234151E+04 -0.37201268547E+02 -0.65634007341E+03  0.17462876171E+04  0.12699999809E+01 0. -1.
</event>
<event>
 5   0  0.1110956E-06  0.2180501E+04  0.7818609E-02  0.8526588E-01
        1   -1    0    0  501    0  0.00000000000E+00  0.00000000000E+00  0.58724880835E+03  0.58724880837E+03  0.50400001928E-02 0. -1.
       -1   -1    0    0    0  501  0.00000000000E+00  0.00000000000E+00 -0.20240925896E+04  0.20240925896E+04  0.50400001928E-02 0.  1.
    10030    2    1    2    0    0  0.00000000000E+00  0.00000000000E+00 -0.14368437813E+04  0.26113413980E+04  0.21805008244E+04 0.  0.
        1    1    3    3  502    0  0.49838225403E+03  0.96600786336E+03 -0.61758315452E+03  0.12501859926E+04  0.50400001928E-02 0.  1.
       -1    1    3    3    0  502 -0.49838225403E+03 -0.96600786336E+03 -0.81926062678E+03  0.13611554055E+04  0.50400001928E-02 0. -1.
</event>
<event>
 5   0  0.2565004E-06  0.2353943E+04  0.7818609E-02  0.8456951E-01
        2   -1    0    0  501    0  0.00000000000E+00  0.00000000000E+00  0.24614896861E+04  0.24614896861E+04  0.25500000920E-02 0. -1.
       -2   -1    0    0    0  501  0.00000000000E+00  0.00000000000E+00 -0.56277400972E+03  0.56277400972E+03  0.25500000920E-02 0.  1.
    10030    2    1    2    0    0  0.00000000000E+00  0.00000000000E+00  0.18987156763E+04  0.30242636958E+04  0.23539434322E+04 0.  0.
        3    1    3    3  502    0  0.22013751124E+03  0.10867311938E+04  0.14565018834E+04  0.18305307858E+04  0.10100000352E+00 0.  1.
       -3    1    3    3    0  502 -0.22013751124E+03 -0.10867311938E+04  0.44221379296E+03  0.11937329099E+04  0.10100000352E+00 0. -1.
</event>
<event>
 5   0  0.1110956E-06  0.2422067E+04  0.7818609E-02  0.8431288E-01
        1   -1    0    0  501    0  0.00000000000E+00  0.00000000000E+00  0.21600033823E+04  0.21600033823E+04  0.50400001928E-02 0. -1.
       -1   -1    0    0    0  501  0.00000000000E+00  0.00000000000E+00 -0.67898124998E+03  0.67898125000E+03  0.50400001928E-02 0.  1.
    10030    2    1    2    0    0  0.00000000000E+00  0.00000000000E+00  0.14810221323E+04  0.28389846323E+04  0.24220667179E+04 0.  0.
        1    1    3    3  502    0  0.91213093299E+03 -0.79054966527E+03  0.62536615627E+03  0.13594243052E+04  0.50400001928E-02 0.  1.
       -1    1    3    3    0  502 -0.91213093299E+03  0.79054966527E+03  0.85565597608E+03  0.14795603271E+04  0.50400001928E-02 0. -1.
</event>
<event>
 5   0  0.1125196E-06  0.1789795E+04  0.7818609E-02  0.8711745E-01
       -1   -1    0    0    0  501  0.00000000000E+00  0.00000000000E+00  0.39480519639E+03  0.39480519642E+03  0.50400001928E-02 0. -1.
        1   -1    0    0  501    0  0.00000000000E+00  0.00000000000E+00 -0.20284476995E+04  0.20284476995E+04  0.50400001928E-02 0.  1.
    10030    2    1    2    0    0  0.00000000000E+00  0.00000000000E+00 -0.16336425031E+04  0.24232528959E+04  0.17897951753E+04 0.  0.
        4    1    3    3  502    0  0.51403800638E+03  0.46608018697E+03 -0.15819691110E+04  0.17274529498E+04  0.12699999809E+01 0.  1.
       -4    1    3    3    0  502 -0.51403800638E+03 -0.46608018697E+03 -0.51673392097E+02  0.69579994613E+03  0.12699999809E+01 0. -1.
</event>
<event>
 5   0  0.2565004E-06  0.3563534E+04  0.7818609E-02  0.8098896E-01
        2   -1    0    0  501    0  0.00000000000E+00  0.00000000000E+00  0.35381952518E+04  0.35381952518E+04  0.25500000920E-02 0.  1.
       -2   -1    0    0    0  501  0.00000000000E+00  0.00000000000E+00 -0.89726355899E+03  0.89726355899E+03  0.25500000920E-02 0. -1.
    10030    2    1    2    0    0  0.00000000000E+00  0.00000000000E+00  0.26409316928E+04  0.44354588108E+04  0.35635340122E+04 0.  0.
        3    1    3    3  502    0 -0.80134460654E+03  0.14576361502E+04  0.21153450400E+04  0.26910111433E+04  0.10100000352E+00 0. -1.
       -3    1    3    3    0  502  0.80134460654E+03 -0.14576361502E+04  0.52558665276E+03  0.17444476675E+04  0.10100000352E+00 0.  1.
</event>
<event>
 5   0  0.1102175E-06  0.3571770E+04  0.7818609E-02  0.8096989E-01
        1   -1    0    0  501    0  0.00000000000E+00  0.00000000000E+00  0.23417928283E+04  0.23417928283E+04  0.50400001928E-02 0. -1.
       -1   -1    0    0    0  501  0.00000000000E+00  0.00000000000E+00 -0.13619417413E+04  0.13619417413E+04  0.50400001928E-02 0.  1.
    10030    2    1    2    0    0  0.00000000000E+00  0.00000000000E+00  0.97985108697E+03  0.37037345696E+04  0.35717700947E+04 0.  0.
        5    1    3    3  502    0 -0.15964710370E+04  0.75753621738E+03  0.22195476733E+03  0.17809735824E+04  0.46999998093E+01 0. -1.
       -5    1    3    3    0  502  0.15964710370E+04 -0.75753621738E+03  0.75789631964E+03  0.19227609872E+04  0.46999998093E+01 0.  1.
</event>
<event>
 5   0  0.1089337E-06  0.3521965E+04  0.7818609E-02  0.8108604E-01
       -1   -1    0    0    0  501  0.00000000000E+00  0.00000000000E+00  0.23785696961E+04  0.23785696961E+04  0.50400001928E-02 0.  1.
        1   -1    0    0  501    0  0.00000000000E+00  0.00000000000E+00 -0.13037494853E+04  0.13037494853E+04  0.50400001928E-02 0. -1.
    10030    2    1    2    0    0  0.00000000000E+00  0.00000000000E+00  0.10748202108E+04  0.36823191814E+04  0.35219648022E+04 0.  0.
        2    1    3    3  502    0 -0.10638296399E+04 -0.89378808600E+03 -0.59372963338E+03  0.15109948786E+04  0.25500000920E-02 0. -1.
       -2    1    3    3    0  502  0.10638296399E+04  0.89378808600E+03  0.16685498442E+04  0.21713243028E+04  0.25500000920E-02 0.  1.
</event>
<event>
 5   0  0.1042825E-06  0.2531489E+04  0.7818609E-02  0.8391852E-01
        4   -1    0    0  501    0  0.00000000000E+00  0.00000000000E+00  0.18613505043E+04  0.18613509376E+04  0.12699999809E+01 0. -1.
       -4   -1    0    0    0  501  0.00000000000E+00  0.00000000000E+00 -0.86072321073E+03  0.86072414767E+03  0.12699999809E+01 0.  1.
    10030    2    1    2    0    0  0.00000000000E+00  0.00000000000E+00  0.10006272936E+04  0.27220750852E+04  0.25314892433E+04 0.  0.
        2    1    3    3  502    0  0.84023028431E+03  0.33818041057E+03  0.14510492813E+04  0.17105253396E+04  0.25500000920E-02 0. -1.
       -2    1    3    3    0  502 -0.84023028431E+03 -0.33818041057E+03 -0.45042198774E+03  0.10115497456E+04  0.25500000920E-02 0.  1.
</event>
<event>
 5   0  0.1110956E-06  0.3150194E+04  0.7818609E-02  0.8202096E-01
       -1   -1    0    0    0  501  0.00000000000E+00  0.00000000000E+00  0.16063518431E+04  0.16063518432E+04  0.50400001928E-02 0.  1.
        1   -1    0    0  501    0  0.00000000000E+00  0.00000000000E+00 -0.15444499103E+04  0.15444499103E+04  0.50400001928E-02 0. -1.
    10030    2    1    2    0    0  0.00000000000E+00  0.00000000000E+00  0.61901932887E+02  0.31508017534E+04  0.31501936195E+04 0.  0.
        1    1    3    3  502    0  0.19468181764E+03 -0.60956190056E+03 -0.14085847553E+04  0.15471191724E+04  0.50400001928E-02 0. -1.
       -1    1    3    3    0  502 -0.19468181764E+03  0.60956190056E+03  0.14704866881E+04  0.16036825811E+04  0.50400001928E-02 0.  1.
</event>
<event>
 5   0  0.1130707E-06  0.3511792E+04  0.7818609E-02  0.8111001E-01
       -1   -1    0    0    0  501  0.00000000000E+00  0.00000000000E+00  0.16410104117E+04  0.16410104117E+04  0.50400001928E-02 0. -1.
        1   -1    0    0  501    0  0.00000000000E+00  0.00000000000E+00 -0.18788244507E+04  0.18788244507E+04  0.50400001928E-02 0.  1.
    10030    2    1    2    0    0  0.00000000000E+00  0.00000000000E+00 -0.23781403895E+03  0.35198348624E+04  0.35117918419E+04 0.  0.
        3    1    3    3  502    0  0.12002845726E+04  0.10642656777E+04  0.59674929457E+03  0.17115648450E+04  0.10100000352E+00 0. -1.
       -3    1    3    3    0  502 -0.12002845726E+04 -0.10642656777E+04 -0.83456333352E+03  0.18082700174E+04  0.10100000352E+00 0.  1.
</event>
<event>
 5   0  0.1089337E-06  0.2532356E+04  0.7818609E-02  0.8391548E-01
       -1   -1    0    0    0  501  0.00000000000E+00  0.00000000000E+00  0.94736077707E+03  0.94736077708E+03  0.50400001928E-02 0. -1.
        1   -1    0    0  501    0  0.00000000000E+00  0.00000000000E+00 -0.16922876153E+04  0.16922876153E+04  0.50400001928E-02 0.  1.
    10030    2    1    2    0    0  0.00000000000E+00  0.00000000000E+00 -0.74492683826E+03  0.26396483924E+04  0.25323561442E+04 0.  0.
        2    1    3    3  502    0  0.68675257059E+03  0.58854063637E+03 -0.12961206137E+04  0.15804865767E+04  0.25500000920E-02 0.  1.
       -2    1    3    3    0  502 -0.68675257059E+03 -0.58854063637E+03  0.55119377541E+03  0.10591618157E+04  0.25500000920E-02 0. -1.
</event>
<event>
 5   0  0.1089337E-06  0.2826717E+04  0.7818609E-02  0.8295022E-01
       -1   -1    0    0    0  501  0.00000000000E+00  0.00000000000E+00  0.11917940680E+04  0.11917940680E+04  0.50400001928E-02 0. -1.
        1   -1    0    0  501    0  0.00000000000E+00  0.00000000000E+00 -0.16761132843E+04  0.16761132843E+04  0.50400001928E-02 0.  1.
    10030    2    1    2    0    0  0.00000000000E+00  0.00000000000E+00 -0.48431921629E+03  0.28679073523E+04  0.28267167311E+04 0.  0.
        2    1    3    3  502    0  0.84429255702E+03 -0.10122971686E+04  0.27517893849E+03  0.13465878834E+04  0.25500000920E-02 0. -1.
       -2    1    3    3    0  502 -0.84429255702E+03  0.10122971686E+04 -0.75949815477E+03  0.15213194689E+04  0.25500000920E-02 0.  1.
</event>
<event>
 5   0  0.1782660E-06  0.3492301E+04  0.7818609E-02  0.8115617E-01
       -2   -1    0    0    0  501  0.00000000000E+00  0.00000000000E+00  0.14389622963E+04  0.14389622963E+04  0.25500000920E-02 0. -1.
        2   -1    0    0  501    0  0.00000000000E+00  0.00000000000E+00 -0.21189168273E+04  0.21189168273E+04  0.25500000920E-02 0.  1.
    10030    2    1    2    0    0  0.00000000000E+00  0.00000000000E+00 -0.67995453106E+03  0.35578791236E+04  0.34923009169E+04 0.  0.
        4    1    3    3  502    0  0.10201804957E+04 -0.13783717245E+04 -0.46105536571E+01  0.17148468517E+04  0.12699999809E+01 0. -1.
       -4    1    3    3    0  502 -0.10201804957E+04  0.13783717245E+04 -0.67534397740E+03  0.18430322719E+04  0.12699999809E+01 0.  1.
</event>
<event>
 5   0  0.1908726E-06  0.3482112E+04  0.7818609E-02  0.8118042E-01
       -2   -1    0    0    0  501  0.00000000000E+00  0.00000000000E+00  0.22719020060E+04  0.22719020060E+04  0.25500000920E-02 0. -1.
        2   -1    0    0  501    0  0.00000000000E+00  0.00000000000E+00 -0.13342457444E+04  0.13342457444E+04  0.25500000920E-02 0.  1.
    10030    2    1    2    0    0  0.00000000000E+00  0.00000000000E+00  0.93765626158E+03  0.36061477503E+04  0.34821117633E+04 0.  0.
        5    1    3    3  502    0  0.14502687387E+04  0.48858894535E+03  0.13286148808E+04  0.20266322221E+04  0.46999998093E+01 0.  1.
       -5    1    3    3    0  502 -0.14502687387E+04 -0.48858894535E+03 -0.39095861922E+03  0.15795155283E+04  0.46999998093E+01 0. -1.
</event>
<event>
 5   0  0.1089337E-06  0.3513479E+04  0.7818609E-02  0.8110603E-01
       -1   -1    0    0    0  501  0.00000000000E+00  0.00000000000E+00  0.15397055255E+04  0.15397055255E+04  0.50400001928E-02 0. -1.
        1   -1    0    0  501    0  0.00000000000E+00  0.00000000000E+00 -0.20043662107E+04  0.20043662107E+04  0.50400001928E-02 0.  1.
    10030    2    1    2    0    0  0.00000000000E+00  0.00000000000E+00 -0.46466068522E+03  0.35440717361E+04  0.35134790335E+04 0.  0.
        2    1    3    3  502    0  0.19880655670E+03 -0.23999162081E+03 -0.19762605117E+04  0.20006812928E+04  0.25500000920E-02 0.  1.
       -2    1    3    3    0  502 -0.19880655670E+03  0.23999162081E+03  0.15115998265E+04  0.15433904433E+04  0.25500000920E-02 0. -1.
</event>
<event>
 5   0  0.1125196E-06  0.3714422E+04  0.7818609E-02  0.8064773E-01
       -1   -1    0    0    0  501  0.00000000000E+00  0.00000000000E+00  0.20104489745E+04  0.20104489745E+04  0.50400001928E-02 0. -1.
        1   -1    0    0  501    0  0.00000000000E+00  0.00000000000E+00 -0.17156526596E+04  0.17156526596E+04  0.50400001928E-02 0.  1.
    10030    2    1    2    0    0  0.00000000000E+00  0.00000000000E+00  0.29479631496E+03  0.37261016341E+04  0.37144216939E+04 0.  0.
        4    1    3    3  502    0 -0.14229114890E+04  0.92302243904E+03 -0.61167338491E+03  0.18029956936E+04  0.12699999809E+01 0.  1.
       -4    1    3    3    0  502  0.14229114890E+04 -0.92302243904E+03  0.90646969988E+03  0.19231059405E+04  0.12699999809E+01 0. -1.
</event>
<event>
 5   0  0.1110956E-06  0.2145107E+04  0.7818609E-02  0.8541629E-01
        1   -1    0    0  501    0  0.00000000000E+00  0.00000000000E+00  0.13714605291E+04  0.13714605292E+04  0.50400001928E-02 0.  1.
       -1   -1    0    0    0  501  0.00000000000E+00  0.00000000000E+00 -0.83879303975E+03  0.83879303977E+03  0.50400001928E-02 0. -1.
    10030    2    1    2    0    0  0.00000000000E+00  0.00000000000E+00  0.53266748939E+03  0.22102535689E+04  0.21451074996E+04 0.  0.
        1    1    3    3  502    0 -0.88376811562E+02 -0.64181656139E+03  0.11470632754E+04  0.13173811586E+04  0.50400001928E-02 0.  1.
       -1    1    3    3    0  502  0.88376811562E+02  0.64181656139E+03 -0.61439578597E+03  0.89287241034E+03  0.50400001928E-02 0. -1.
</event>
<event>
 5   0  0.1130707E-06  0.3673791E+04  0.7818609E-02  0.8073795E-01
       -1   -1    0    0    0  501  0.00000000000E+00  0.00000000000E+00  0.16192973610E+04  0.16192973610E+04  0.50400001928E-02 0. -1.
        1   -1    0    0  501    0  0.00000000000E+00  0.00000000000E+00 -0.20837344207E+04  0.20837344207E+04  0.50400001928E-02 0.  1.
    10030    2    1    2    0    0  0.00000000000E+00  0.00000000000E+00 -0.46443705972E+03  0.37030317817E+04  0.36737913106E+04 0.  0.
        3    1    3    3  502    0 -0.33372601994E+03  0.15682379294E+04 -0.11357022358E+04  0.19648315037E+04  0.10100000352E+00 0.  1.
       -3    1    3    3    0  502  0.33372601994E+03 -0.15682379294E+04  0.67126517604E+03  0.17382002780E+04  0.10100000352E+00 0. -1.
</event>
<event>
 5   0  0.1782660E-06  0.3417008E+04  0.7818609E-02  0.8133745E-01
        2   -1    0    0  501    0  0.00000000000E+00  0.00000000000E+00  0.25777819674E+04  0.25777819674E+04  0.25500000920E-02 0.  1.
       -2   -1    0    0    0  501  0.00000000000E+00  0.00000000000E+00 -0.11323632975E+04  0.11323632975E+04  0.25500000920E-02 0. -1.
    10030    2    1    2    0    0  0.00000000000E+00  0.00000000000E+00  0.14454186698E+04  0.37101452649E+04  0.34170078659E+04 0.  0.
        4    1    3    3  502    0 -0.91088466645E+03 -0.85603317859E+03  0.19873050229E+04  0.23477407321E+04  0.12699999809E+01 0.  1.
       -4    1    3    3    0  502  0.91088466645E+03  0.85603317859E+03 -0.54188635304E+03  0.13624045328E+04  0.12699999809E+01 0. -1.
</event>
<event>
 5   0  0.1908726E-06  0.3459460E+04  0.7818609E-02  0.8123465E-01
       -2   -1    0    0    0  501  0.00000000000E+00  0.00000000000E+00  0.18527954804E+04  0.18527954804E+04  0.25500000920E-02 0.  1.
        2   -1    0    0  501    0  0.00000000000E+00  0.00000000000E+00 -0.16148388107E+04  0.16148388107E+04  0.25500000920E-02 0. -1.
    10030    2    1    2    0    0  0.00000000000E+00  0.00000000000E+00  0.23795666971E+03  0.34676342911E+04  0.34594601024E+04 0.  0.
        5    1    3    3  502    0 -0.28754212470E+03 -0.89703966837E+02  0.18262987992E+04  0.18509772200E+04  0.46999998093E+01 0.  1.
       -5    1    3    3    0  502  0.28754212470E+03  0.89703966837E+02 -0.15883421295E+04  0.16166570711E+04  0.46999998093E+01 0. -1.
</event>
<event>
 5   0  0.1089337E-06  0.2701768E+04  0.7818609E-02  0.8334432E-01
       -1   -1    0    0    0  501  0.00000000000E+00  0.00000000000E+00  0.85055282026E+03  0.85055282027E+03  0.50400001928E-02 0. -1.
        1   -1    0    0  501    0  0.00000000000E+00  0.00000000000E+00 -0.21455306136E+04  0.21455306136E+04  0.50400001928E-02 0.  1.
    10030    2    1    2    0    0  0.00000000000E+00  0.00000000000E+00 -0.12949777933E+04  0.29960834339E+04  0.27017676542E+04 0.  0.
        2    1    3    3  502    0  0.98377809391E+03 -0.70647698169E+03  0.15982145600E+02  0.12112739132E+04  0.25500000920E-02 0. -1.
       -2    1    3    3    0  502 -0.98377809391E+03  0.70647698169E+03 -0.13109599389E+04  0.17848095207E+04  0.25500000920E-02 0.  1.
</event>
<event>
 5   0  0.1782660E-06  0.3329393E+04  0.7818609E-02  0.8155456E-01
       -2   -1    0    0    0  501  0.00000000000E+00  0.00000000000E+00  0.13396205524E+04  0.13396205524E+04  0.25500000920E-02 0. -1.
        2   -1    0    0  501    0  0.00000000000E+00  0.00000000000E+00 -0.20686568518E+04  0.20686568518E+04  0.25500000920E-02 0.  1.
    10030    2    1    2    0    0  0.00000000000E+00  0.00000000000E+00 -0.72903629939E+03  0.34082774043E+04  0.33293934791E+04 0.  0.
        4    1    3    3  502    0 -0.89450948378E+03  0.13564568573E+04 -0.73516181278E+03  0.17834200083E+04  0.12699999809E+01 0. -1.
       -4    1    3    3    0  502  0.89450948378E+03 -0.13564568573E+04  0.61255133926E+01  0.16248573959E+04  0.12699999809E+01 0.  1.
</event>
<event>
 5   0  0.2565004E-06  0.3569992E+04  0.7818609E-02  0.8097400E-01
       -2   -1    0    0    0  501  0.00000000000E+00  0.00000000000E+00  0.11597415901E+04  0.11597415901E+04  0.25500000920E-02 0. -1.
        2   -1    0    0  501    0  0.00000000000E+00  0.00000000000E+00 -0.27473449964E+04  0.27473449964E+04  0.25500000920E-02 0.  1.
    10030    2    1    2    0    0  0.00000000000E+00  0.00000000000E+00 -0.15876034063E+04  0.39070865865E+04  0.35699917393E+04 0.  0.
        3    1    3    3  502    0  0.97972846163E+02  0.10980933722E+04  0.74260919226E+03  0.13292389383E+04  0.10100000352E+00 0. -1.
       -3    1    3    3    0  502 -0.97972846163E+02 -0.10980933722E+04 -0.23302125985E+04  0.25778476482E+04  0.10100000352E+00 0.  1.
</event>
<event>
 5   0  0.1908726E-06  0.3512498E+04  0.7818609E-02  0.8110835E-01
        2   -1    0    0  501    0  0.00000000000E+00  0.00000000000E+00  0.21206314382E+04  0.21206314382E+04  0.25500000920E-02 0. -1.
       -2   -1    0    0    0  501  0.00000000000E+00  0.00000000000E+00 -0.14544772091E+04  0.14544772091E+04  0.25500000920E-02 0.  1.
    10030    2    1    2    0    0  0.00000000000E+00  0.00000000000E+00  0.66615422912E+03  0.35751086473E+04  0.35124977414E+04 0.  0.
        5    1    3    3  502    0  0.40585066083E+03 -0.15609846035E+04  0.10404475389E+04  0.19193594927E+04  0.46999998093E+01 0. -1.
       -5    1    3    3    0  502 -0.40585066083E+03  0.15609846035E+04 -0.37429330980E+03  0.16557491546E+04  0.46999998093E+01 0.  1.
</event>
<event>
 5   0  0.1782660E-06  0.3496092E+04  0.7818609E-02  0.8114717E-01
        2   -1    0    0  501    0  0.00000000000E+00  0.00000000000E+00  0.20105698817E+04  0.20105698817E+04  0.25500000920E-02 0. -1.
       -2   -1    0    0    0  501  0.00000000000E+00  0.00000000000E+00 -0.15198005032E+04  0.15198005032E+04  0.25500000920E-02 0.  1.
    10030    2    1    2    0    0  0.00000000000E+00  0.00000000000E+00  0.49076937852E+03  0.35303703848E+04  0.34960921714E+04 0.  0.
        4    1    3    3  502    0 -0.96928243245E+03  0.11845302880E+04 -0.60731337761E+03  0.16466485929E+04  0.12699999809E+01 0.  1.
       -4    1    3    3    0  502  0.96928243245E+03 -0.11845302880E+04  0.10980827561E+04  0.18837217919E+04  0.12699999809E+01 0. -1.
</event>
<event>
 5   0  0.2565004E-06  0.3474894E+04  0.7818609E-02  0.8119766E-01
       -2   -1    0    0    0  501  0.00000000000E+00  0.00000000000E+00  0.20357017539E+04  0.20357017539E+04  0.25500000920E-02 0.  1.
        2   -1    0    0  501    0  0.00000000000E+00  0.00000000000E+00 -0.14828901811E+04  0.14828901811E+04  0.25500000920E-02 0. -1.
    10030    2    1    2    0    0  0.00000000000E+00  0.00000000000E+00  0.55281157276E+03  0.35185919350E+04  0.34748940372E+04 0.  0.
        3    1    3    3  502    0  0.12831407511E+04 -0.11698914811E+04  0.21543338361E+03  0.17497164964E+04  0.10100000352E+00 0. -1.
       -3    1    3    3    0  502 -0.12831407511E+04  0.11698914811E+04  0.33737818915E+03  0.17688754386E+04  0.10100000352E+00 0.  1.
</event>
<event>
 5   0  0.1042825E-06  0.2883836E+04  0.7818609E-02  0.8277703E-01
       -3   -1    0    0    0  501  0.00000000000E+00  0.00000000000E+00  0.14328120938E+04  0.14328120974E+04  0.10100000352E+00 0.  1.
        3   -1    0    0  501    0  0.00000000000E+00  0.00000000000E+00 -0.14510819094E+04  0.14510819129E+04  0.10100000352E+00 0. -1.
    10030    2    1    2    0    0  0.00000000000E+00  0.00000000000E+00 -0.18269815573E+02  0.28838940103E+04  0.28838361390E+04 0.  0.
        3    1    3    3  502    0 -0.32098104191E+03 -0.12018288994E+04  0.72006157913E+03  0.14373274577E+04  0.10100000352E+00 0.  1.
       -3    1    3    3    0  502  0.32098104191E+03  0.12018288994E+04 -0.73833139470E+03  0.14465665526E+04  0.10100000352E+00 0. -1.
</event>
<event>
 5   0  0.1110956E-06  0.3533532E+04  0.7818609E-02  0.8105889E-01
        1   -1    0    0  501    0  0.00000000000E+00  0.00000000000E+00  0.16924726739E+04  0.16924726739E+04  0.50400001928E-02 0. -1.
       -1   -1    0    0    0  501  0.00000000000E+00  0.00000000000E+00 -0.18443204643E+04  0.18443204643E+04  0.50400001928E-02 0.  1.
    10030    2    1    2    0    0  0.00000000000E+00  0.00000000000E+00 -0.15184779042E+03  0.35367931382E+04  0.35335319371E+04 0.  0.
        1    1    3    3  502    0 -0.40486004117E+03 -0.11983681342E+04  0.11586909654E+04  0.17153899240E+04  0.50400001928E-02 0. -1.
       -1    1    3    3    0  502  0.40486004117E+03  0.11983681342E+04 -0.13105387558E+04  0.18214032142E+04  0.50400001928E-02 0.  1.
</event>
<event>
 5   0  0.3041329E-06  0.1874495E+04  0.7818609E-02  0.8667657E-01
        2   -1    0    0  501    0  0.00000000000E+00  0.00000000000E+00  0.12034962356E+04  0.12034962356E+04  0.25500000920E-02 0.  1.
       -2   -1    0    0    0  501  0.00000000000E+00  0.00000000000E+00 -0.72990095819E+03  0.72990095820E+03  0.25500000920E-02 0. -1.
    10030    2    1    2    0    0  0.00000000000E+00  0.00000000000E+00  0.47359527739E+03  0.19333971938E+04  0.18744951913E+04 0.  0.
        2    1    3    3  502    0 -0.31847294988E+03  0.87269604009E+03  0.10876130072E+03  0.93533545786E+03  0.25500000920E-02 0. -1.
       -2    1    3    3    0  502  0.31847294988E+03 -0.87269604009E+03  0.36483397667E+03  0.99806173593E+03  0.25500000920E-02 0.  1.
</event>
<event>
 5   0  0.1130707E-06  0.3477346E+04  0.7818609E-02  0.8119180E-01
       -1   -1    0    0    0  501  0.00000000000E+00  0.00000000000E+00  0.12709273110E+04  0.12709273110E+04  0.50400001928E-02 0. -1.
        1   -1    0    0  501    0  0.00000000000E+00  0.00000000000E+00 -0.23785660311E+04  0.23785660311E+04  0.50400001928E-02 0.  1.
    10030    2    1    2    0    0  0.00000000000E+00  0.00000000000E+00 -0.11076387202E+04  0.36494933421E+04  0.34773464193E+04 0.  0.
        3    1    3    3  502    0  0.97407568721E+03  0.20370976166E+03  0.94247607935E+03  0.13706138339E+04  0.10100000352E+00 0. -1.
       -3    1    3    3    0  502 -0.97407568721E+03 -0.20370976166E+03 -0.20501147995E+04  0.22788795082E+04  0.10100000352E+00 0.  1.
</event>
<event>
 5   0  0.3041329E-06  0.3514334E+04  0.7818609E-02  0.8110401E-01
        2   -1    0    0  501    0  0.00000000000E+00  0.00000000000E+00  0.20297146344E+04  0.20297146344E+04  0.25500000920E-02 0. -1.
       -2   -1    0    0    0  501  0.00000000000E+00  0.00000000000E+00 -0.15212166414E+04  0.15212166414E+04  0.25500000920E-02 0.  1.
    10030    2    1    2    0    0  0.00000000000E+00  0.00000000000E+00  0.50849799300E+03  0.35509312759E+04  0.35143338938E+04 0.  0.
        2    1    3    3  502    0 -0.24157439983E+03 -0.38385642709E+03 -0.14610549646E+04  0.15298318721E+04  0.25500000920E-02 0.  1.
       -2    1    3    3    0  502  0.24157439983E+03  0.38385642709E+03  0.19695529576E+04  0.20210994038E+04  0.25500000920E-02 0. -1.
</event>
<event>
 5   0  0.1110956E-06  0.3529305E+04  0.7818609E-02  0.8106880E-01
        1   -1    0    0  501    0  0.00000000000E+00  0.00000000000E+00  0.21214010618E+04  0.21214010618E+04  0.50400001928E-02 0.  1.
       -1   -1    0    0    0  501  0.00000000000E+00  0.00000000000E+00 -0.14678970242E+04  0.14678970242E+04  0.50400001928E-02 0. -1.
    10030    2    1    2    0    0  0.00000000000E+00  0.00000000000E+00  0.65350403754E+03  0.35892980860E+04  0.35293049207E+04 0.  0.
        1    1    3    3  502    0  0.14025827219E+04  0.10562551256E+04  0.14744526593E+03  0.17620026358E+04  0.50400001928E-02 0. -1.
       -1    1    3    3    0  502 -0.14025827219E+04 -0.10562551256E+04  0.50605877161E+03  0.18272954502E+04  0.50400001928E-02 0.  1.
</event>
<event>
 5   0  0.3378848E-06  0.2756328E+04  0.7818609E-02  0.8316957E-01
        2   -1    0    0  501    0  0.00000000000E+00  0.00000000000E+00  0.24824890106E+04  0.24824890106E+04  0.25500000920E-02 0. -1.
       -2   -1    0    0    0  501  0.00000000000E+00  0.00000000000E+00 -0.76509315374E+03  0.76509315374E+03  0.25500000920E-02 0.  1.
    10030    2    1    2    0    0  0.00000000000E+00  0.00000000000E+00  0.17173958568E+04  0.32475821643E+04  0.27563275177E+04 0.  0.
        1    1    3    3  502    0  0.12407323228E+04 -0.58583977789E+03  0.70638989776E+03  0.15432471059E+04  0.50400001928E-02 0. -1.
       -1    1    3    3    0  502 -0.12407323228E+04  0.58583977789E+03  0.10110059591E+04  0.17043350584E+04  0.50400001928E-02 0.  1.
</event>
<event>
 5   0  0.1102175E-06  0.2382638E+04  0.7818609E-02  0.8446032E-01
       -1   -1    0    0    0  501  0.00000000000E+00  0.00000000000E+00  0.13974555286E+04  0.13974555286E+04  0.50400001928E-02 0.  1.
        1   -1    0    0  501    0  0.00000000000E+00  0.00000000000E+00 -0.10155890420E+04  0.10155890421E+04  0.50400001928E-02 0. -1.
    10030    2    1    2    0    0  0.00000000000E+00  0.00000000000E+00  0.38186648657E+03  0.24130445707E+04  0.23826376322E+04 0.  0.
        5    1    3    3  502    0  0.96129845433E+03 -0.29384084327E+03 -0.45658624263E+03  0.11040517408E+04  0.46999998093E+01 0. -1.
       -5    1    3    3    0  502 -0.96129845433E+03  0.29384084327E+03  0.83845272920E+03  0.13089928298E+04  0.46999998093E+01 0.  1.
</event>
<event>
 5   0  0.1908726E-06  0.1823528E+04  0.7818609E-02  0.8693887E-01
        2   -1    0    0  501    0  0.00000000000E+00  0.00000000000E+00  0.81588014630E+03  0.81588014630E+03  0.25500000920E-02 0. -1.
       -2   -1    0    0    0  501  0.00000000000E+00  0.00000000000E+00 -0.10189160167E+04  0.10189160167E+04  0.25500000920E-02 0.  1.
    10030    2    1    2    0    0  0.00000000000E+00  0.00000000000E+00 -0.20303587040E+03  0.18347961630E+04  0.18235277336E+04 0.  0.
        5    1    3    3  502    0  0.57149315112E+03  0.42113757820E+03 -0.67718096699E+03  0.98110011396E+03  0.46999998093E+01 0.  1.
       -5    1    3    3    0  502 -0.57149315112E+03 -0.42113757820E+03  0.47414509659E+03  0.85369604905E+03  0.46999998093E+01 0. -1.
</event>
<event>
 5   0  0.1125196E-06  0.3459708E+04  0.7818609E-02  0.8123406E-01
       -1   -1    0    0    0  501  0.00000000000E+00  0.00000000000E+00  0.11587480368E+04  0.11587480368E+04  0.50400001928E-02 0.  1.
        1   -1    0    0  501    0  0.00000000000E+00  0.00000000000E+00 -0.25824376393E+04  0.25824376393E+04  0.50400001928E-02 0. -1.
    10030    2    1    2    0    0  0.00000000000E+00  0.00000000000E+00 -0.14236896025E+04  0.37411856761E+04  0.34597078169E+04 0.  0.
        4    1    3    3  502    0 -0.16250223526E+04  0.38336407001E+03 -0.12011250596E+04  0.20567860070E+04  0.12699999809E+01 0. -1.
       -4    1    3    3    0  502  0.16250223526E+04 -0.38336407001E+03 -0.22256454288E+03  0.16843996691E+04  0.12699999809E+01 0.  1.
</event>
<event>
 5   0  0.3041329E-06  0.3487766E+04  0.7818609E-02  0.8116695E-01
       -2   -1    0    0    0  501  0.00000000000E+00  0.00000000000E+00  0.11678947609E+04  0.11678947609E+04  0.25500000920E-02 0. -1.
        2   -1    0    0  501    0  0.00000000000E+00  0.00000000000E+00 -0.26039403938E+04  0.26039403938E+04  0.25500000920E-02 0.  1.
    10030    2    1    2    0    0  0.00000000000E+00  0.00000000000E+00 -0.14360456329E+04  0.37718351548E+04  0.34877662443E+04 0.  0.
        2    1    3    3  502    0  0.68436254734E+02  0.16024647591E+04  0.22236716363E+02  0.16040795793E+04  0.25500000920E-02 0. -1.
       -2    1    3    3    0  502 -0.68436254734E+02 -0.16024647591E+04 -0.14582823493E+04  0.21677555755E+04  0.25500000920E-02 0.  1.
</event>
<event>
 5   0  0.1110956E-06  0.2486422E+04  0.7818609E-02  0.8407839E-01
        1   -1    0    0  501    0  0.00000000000E+00  0.00000000000E+00  0.14117805667E+04  0.14117805667E+04  0.50400001928E-02 0. -1.
       -1   -1    0    0    0  501  0.00000000000E+00  0.00000000000E+00 -0.10947690906E+04  0.10947690906E+04  0.50400001928E-02 0.  1.
    10030    2    1    2    0    0  0.00000000000E+00  0.00000000000E+00  0.31701147609E+03  0.25065496573E+04  0.24864221099E+04 0.  0.
        1    1    3    3  502    0 -0.95556559566E+03 -0.79324634701E+03  0.10122720006E+03  0.12460306259E+04  0.50400001928E-02 0.  1.
       -1    1    3    3    0  502  0.95556559566E+03  0.79324634701E+03  0.21578427603E+03  0.12605190314E+04  0.50400001928E-02 0. -1.
</event>
<event>
 5   0  0.1782660E-06  0.3497740E+04  0.7818609E-02  0.8114326E-01
       -2   -1    0    0    0  501  0.00000000000E+00  0.00000000000E+00  0.12928162984E+04  0.12928162984E+04  0.25500000920E-02 0.  1.
        2   -1    0    0  501    0  0.00000000000E+00  0.00000000000E+00 -0.23658009403E+04  0.23658009403E+04  0.25500000920E-02 0. -1.
    10030    2    1    2    0    0  0.00000000000E+00  0.00000000000E+00 -0.10729846419E+04  0.36586172387E+04  0.34977398499E+04 0.  0.
        4    1    3    3  502    0 -0.53511571010E+02 -0.94042279350E+03 -0.20777951506E+04  0.22813357533E+04  0.12699999809E+01 0. -1.
       -4    1    3    3    0  502  0.53511571010E+02  0.94042279350E+03  0.10048105087E+04  0.13772814854E+04  0.12699999809E+01 0.  1.
</event>
<event>
 5   0  0.1042825E-06  0.3410967E+04  0.7818609E-02  0.8135220E-01
       -3   -1    0    0    0  501  0.00000000000E+00  0.00000000000E+00  0.17359383054E+04  0.17359383083E+04  0.10100000352E+00 0. -1.
        3   -1    0    0  501    0  0.00000000000E+00  0.00000000000E+00 -0.16755632646E+04  0.16755632676E+04  0.10100000352E+00 0.  1.
    10030    2    1    2    0    0  0.00000000000E+00  0.00000000000E+00  0.60375040812E+02  0.34115015759E+04  0.34109672905E+04 0.  0.
        4    1    3    3  502    0 -0.59074529597E+02 -0.20025253982E+03  0.17231079558E+04  0.17357112432E+04  0.12699999809E+01 0. -1.
       -4    1    3    3    0  502  0.59074529597E+02  0.20025253982E+03 -0.16627329150E+04  0.16757903327E+04  0.12699999809E+01 0.  1.
</event>
<event>
 5   0  0.3378848E-06  0.3457109E+04  0.7818609E-02  0.8124030E-01
       -2   -1    0    0    0  501  0.00000000000E+00  0.00000000000E+00  0.11822893468E+04  0.11822893468E+04  0.25500000920E-02 0. -1.
        2   -1    0    0  501    0  0.00000000000E+00  0.00000000000E+00 -0.25272158993E+04  0.25272158993E+04  0.25500000920E-02 0.  1.
    10030    2    1    2    0    0  0.00000000000E+00  0.00000000000E+00 -0.13449265524E+04  0.37095052461E+04  0.34571088701E+04 0.  0.
        1    1    3    3  502    0  0.51439512439E+03 -0.15936920264E+04 -0.11320362392E+04  0.20213764286E+04  0.50400001928E-02 0.  1.
       -1    1    3    3    0  502 -0.51439512439E+03  0.15936920264E+04 -0.21289031320E+03  0.16881288175E+04  0.50400001928E-02 0. -1.
</event>
<event>
 5   0  0.2565004E-06  0.3500776E+04  0.7818609E-02  0.8113606E-01
        2   -1    0    0  501    0  0.00000000000E+00  0.00000000000E+00  0.13403164309E+04  0.13403164309E+04  0.25500000920E-02 0. -1.
       -2   -1    0    0    0  501  0.00000000000E+00  0.00000000000E+00 -0.22859210655E+04  0.22859210655E+04  0.25500000920E-02 0.  1.
    10030    2    1    2    0    0  0.00000000000E+00  0.00000000000E+00 -0.94560463466E+03  0.36262374964E+04  0.35007756648E+04 0.  0.
        3    1    3    3  502    0  0.84769486069E+03 -0.24789638545E+02 -0.20589059925E+04  0.22267229282E+04  0.10100000352E+00 0.  1.
       -3    1    3    3    0  502 -0.84769486069E+03  0.24789638545E+02  0.11133013578E+04  0.13995145682E+04  0.10100000352E+00 0. -1.
</event>
<event>
 5   0  0.1089337E-06  0.1845101E+04  0.7818609E-02  0.8682676E-01
        1   -1    0    0  501    0  0.00000000000E+00  0.00000000000E+00  0.17516124595E+04  0.17516124595E+04  0.50400001928E-02 0. -1.
       -1   -1    0    0    0  501  0.00000000000E+00  0.00000000000E+00 -0.48589473290E+03  0.48589473293E+03  0.50400001928E-02 0.  1.
    10030    2    1    2    0    0  0.00000000000E+00  0.00000000000E+00  0.12657177266E+04  0.22375071924E+04  0.18451008300E+04 0.  0.
        2    1    3    3  502    0  0.42463292356E+03  0.81712178357E+03  0.56536025781E+03  0.10805708445E+04  0.25500000920E-02 0.  1.
       -2    1    3    3    0  502 -0.42463292356E+03 -0.81712178357E+03  0.70035746875E+03  0.11569363479E+04  0.25500000920E-02 0. -1.
</event>
<event>
 5   0  0.1125196E-06  0.1835929E+04  0.7818609E-02  0.8687423E-01
       -1   -1    0    0    0  501  0.00000000000E+00  0.00000000000E+00  0.95687503256E+03  0.95687503257E+03  0.50400001928E-02 0.  1.
        1   -1    0    0  501    0  0.00000000000E+00  0.00000000000E+00 -0.88063666219E+03  0.88063666221E+03  0.50400001928E-02 0. -1.
    10030    2    1    2    0    0  0.00000000000E+00  0.00000000000E+00  0.76238370364E+02  0.18375116948E+04  0.18359294484E+04 0.  0.
        4    1    3    3  502    0 -0.75676407418E+03 -0.15424179839E+03 -0.45846890110E+03  0.89815240495E+03  0.12699999809E+01 0. -1.
       -4    1    3    3    0  502  0.75676407418E+03  0.15424179839E+03  0.53470727146E+03  0.93935928983E+03  0.12699999809E+01 0.  1.
</event>
<event>
 5   0  0.1110956E-06  0.3567323E+04  0.7818609E-02  0.8098018E-01
       -1   -1    0    0    0  501  0.00000000000E+00  0.00000000000E+00  0.15920551848E+04  0.15920551848E+04  0.50400001928E-02 0. -1.
        1   -1    0    0  501    0  0.00000000000E+00  0.00000000000E+00 -0.19983283798E+04  0.19983283799E+04  0.50400001928E-02 0.  1.
    10030    2    1    2    0    0  0.00000000000E+00  0.00000000000E+00 -0.40627319506E+03  0.35903835646E+04  0.35673233989E+04 0.  0.
        1    1    3    3  502    0  0.28027829753E+03  0.15031025534E+04 -0.11275376543E+04  0.18997932446E+04  0.50400001928E-02 0.  1.
       -1    1    3    3    0  502 -0.28027829753E+03 -0.15031025534E+04  0.72126445924E+03  0.16905903201E+04  0.50400001928E-02 0. -1.
</event>
<event>
 5   0  0.3041329E-06  0.1820218E+04  0.7818609E-02  0.8695621E-01
       -2   -1    0    0    0  501  0.00000000000E+00  0.00000000000E+00  0.81281060603E+03  0.81281060603E+03  0.25500000920E-02 0.  1.
        2   -1    0    0  501    0  0.00000000000E+00  0.00000000000E+00 -0.10190548798E+04  0.10190548798E+04  0.25500000920E-02 0. -1.
    10030    2    1    2    0    0  0.00000000000E+00  0.00000000000E+00 -0.20624427380E+03  0.18318654859E+04  0.18202182446E+04 0.  0.
        2    1    3    3  502    0 -0.18062510544E+03  0.17590258833E+03 -0.98320709222E+03  0.10150188843E+04  0.25500000920E-02 0. -1.
       -2    1    3    3    0  502  0.18062510544E+03 -0.17590258833E+03  0.77696281841E+03  0.81684660157E+03  0.25500000920E-02 0.  1.
</event>
<event>
 5   0  0.1782660E-06  0.3441084E+04  0.7818609E-02  0.8127896E-01
       -2   -1    0    0    0  501  0.00000000000E+00  0.00000000000E+00  0.16474715446E+04  0.16474715446E+04  0.25500000920E-02 0.  1.
        2   -1    0    0  501    0  0.00000000000E+00  0.00000000000E+00 -0.17968534540E+04  0.17968534540E+04  0.25500000920E-02 0. -1.
    10030    2    1    2    0    0  0.00000000000E+00  0.00000000000E+00 -0.14938190942E+03  0.34443249986E+04  0.34410840939E+04 0.  0.
        4    1    3    3  502    0 -0.91871998341E+03  0.30798094378E+03 -0.14977770365E+04  0.17838823766E+04  0.12699999809E+01 0. -1.
       -4    1    3    3    0  502  0.91871998341E+03 -0.30798094378E+03  0.13483951270E+04  0.16604426221E+04  0.12699999809E+01 0.  1.
</event>
<event>
 5   0  0.2565004E-06  0.2459307E+04  0.7818609E-02  0.8417628E-01
       -2   -1    0    0    0  501  0.00000000000E+00  0.00000000000E+00  0.12578125596E+04  0.12578125596E+04  0.25500000920E-02 0. -1.
        2   -1    0    0  501    0  0.00000000000E+00  0.00000000000E+00 -0.12021252161E+04  0.12021252161E+04  0.25500000920E-02 0.  1.
    10030    2    1    2    0    0  0.00000000000E+00  0.00000000000E+00  0.55687343507E+02  0.24599377757E+04  0.24593073781E+04 0.  0.
        3    1    3    3  502    0 -0.84602124414E+03  0.85195635223E+03 -0.23767985525E+03  0.12239580448E+04  0.10100000352E+00 0.  1.
       -3    1    3    3    0  502  0.84602124414E+03 -0.85195635223E+03  0.29336719876E+03  0.12359797309E+04  0.10100000352E+00 0. -1.
</event>
<event>
 5   0  0.1782660E-06  0.3314044E+04  0.7818609E-02  0.8159331E-01
        2   -1    0    0  501    0  0.00000000000E+00  0.00000000000E+00  0.21669382648E+04  0.21669382648E+04  0.25500000920E-02 0.  1.
       -2   -1    0    0    0  501  0.00000000000E+00  0.00000000000E+00 -0.12670977621E+04  0.12670977621E+04  0.25500000920E-02 0. -1.
    10030    2    1    2    0    0  0.00000000000E+00  0.00000000000E+00  0.89984050268E+03  0.34340360268E+04  0.33140444329E+04 0.  0.
        4    1    3    3  502    0 -0.59750828840E+03  0.24833637186E+03  0.20306145092E+04  0.21312165554E+04  0.12699999809E+01 0.  1.
       -4    1    3    3    0  502  0.59750828840E+03 -0.24833637186E+03 -0.11307740065E+04  0.13028194714E+04  0.12699999809E+01 0. -1.
</event>
<event>
 5   0  0.3041329E-06  0.3477634E+04  0.7818609E-02  0.8119111E-01
       -2   -1    0    0    0  501  0.00000000000E+00  0.00000000000E+00  0.23871344393E+04  0.23871344393E+04  0.25500000920E-02 0. -1.
        2   -1    0    0  501    0  0.00000000000E+00  0.00000000000E+00 -0.12665750387E+04  0.12665750387E+04  0.25500000920E-02 0.  1.
    10030    2    1    2    0    0  0.00000000000E+00  0.00000000000E+00  0.11205594006E+04  0.36537094780E+04  0.34776341929E+04 0.  0.
        2    1    3    3  502    0  0.93398540274E+03 -0.32116691144E+03 -0.94326358852E+03  0.13657317141E+04  0.25500000920E-02 0. -1.
       -2    1    3    3    0  502 -0.93398540274E+03  0.32116691144E+03  0.20638229892E+04  0.22879777639E+04  0.25500000920E-02 0.  1.
</event>
<event>
 5   0  0.2565004E-06  0.3345647E+04  0.7818609E-02  0.8151377E-01
        2   -1    0    0  501    0  0.00000000000E+00  0.00000000000E+00  0.19813614622E+04  0.19813614622E+04  0.25500000920E-02 0.  1.
       -2   -1    0    0    0  501  0.00000000000E+00  0.00000000000E+00 -0.14123314885E+04  0.14123314885E+04  0.25500000920E-02 0. -1.
    10030    2    1    2    0    0  0.00000000000E+00  0.00000000000E+00  0.56902997369E+03  0.33936929506E+04  0.33456474309E+04 0.  0.
        3    1    3    3  502    0 -0.68088728067E+03  0.10838194038E+04 -0.80801645573E+03  0.15136586775E+04  0.10100000352E+00 0. -1.
       -3    1    3    3    0  502  0.68088728067E+03 -0.10838194038E+04  0.13770464294E+04  0.18800342731E+04  0.10100000352E+00 0.  1.
</event>
<event>
 5   0  0.2565004E-06  0.1988874E+04  0.7818609E-02  0.8611840E-01
       -2   -1    0    0    0  501  0.00000000000E+00  0.00000000000E+00  0.39403483136E+03  0.39403483137E+03  0.25500000920E-02 0. -1.
        2   -1    0    0  501    0  0.00000000000E+00  0.00000000000E+00 -0.25096891240E+04  0.25096891240E+04  0.25500000920E-02 0.  1.
    10030    2    1    2    0    0  0.00000000000E+00  0.00000000000E+00 -0.21156542927E+04  0.29037239554E+04  0.19888739837E+04 0.  0.
        3    1    3    3  502    0  0.43314809261E+03  0.48069914832E+03  0.44645320921E+02  0.64860015126E+03  0.10100000352E+00 0. -1.
       -3    1    3    3    0  502 -0.43314809261E+03 -0.48069914832E+03 -0.21602996136E+04  0.22551238041E+04  0.10100000352E+00 0.  1.
</event>
<event>
 5   0  0.1908726E-06  0.3451876E+04  0.7818609E-02  0.8125290E-01
       -2   -1    0    0    0  501  0.00000000000E+00  0.00000000000E+00  0.19384249238E+04  0.19384249238E+04  0.25500000920E-02 0.  1.
        2   -1    0    0  501    0  0.00000000000E+00  0.00000000000E+00 -0.15367435945E+04  0.15367435945E+04  0.25500000920E-02 0. -1.
    10030    2    1    2    0    0  0.00000000000E+00  0.00000000000E+00  0.40168132926E+03  0.34751685183E+04  0.34518760610E+04 0.  0.
        5    1    3    3  502    0  0.89316942250E+03  0.14461285133E+04  0.50253040265E+03  0.17724554127E+04  0.46999998093E+01 0.  1.
       -5    1    3    3    0  502 -0.89316942250E+03 -0.14461285133E+04 -0.10084907339E+03  0.17027131056E+04  0.46999998093E+01 0. -1.
</event>
<event>
 5   0  0.1908726E-06  0.3592912E+04  0.7818609E-02  0.8092117E-01
        2   -1    0    0  501    0  0.00000000000E+00  0.00000000000E+00  0.22199866692E+04  0.22199866692E+04  0.25500000920E-02 0. -1.
       -2   -1    0    0    0  501  0.00000000000E+00  0.00000000000E+00 -0.14537270089E+04  0.14537270089E+04  0.25500000920E-02 0.  1.
    10030    2    1    2    0    0  0.00000000000E+00  0.00000000000E+00  0.76625966027E+03  0.36737136781E+04  0.35929122341E+04 0.  0.
        5    1    3    3  502    0 -0.85338816589E+02 -0.20944517243E+03 -0.14391060086E+04  0.14567766431E+04  0.46999998093E+01 0.  1.
       -5    1    3    3    0  502  0.85338816589E+02  0.20944517243E+03  0.22053656689E+04  0.22169370350E+04  0.46999998093E+01 0. -1.
</event>
<event>
 5   0  0.1908726E-06  0.3516196E+04  0.7818609E-02  0.8109962E-01
       -2   -1    0    0    0  501  0.00000000000E+00  0.00000000000E+00  0.15970860303E+04  0.15970860303E+04  0.25500000920E-02 0. -1.
        2   -1    0    0  501    0  0.00000000000E+00  0.00000000000E+00 -0.19353422522E+04  0.19353422522E+04  0.25500000920E-02 0.  1.
    10030    2    1    2    0    0  0.00000000000E+00  0.00000000000E+00 -0.33825622185E+03  0.35324282825E+04  0.35161957140E+04 0.  0.
        5    1    3    3  502    0  0.11375423561E+04 -0.13296147814E+04 -0.34023145737E+03  0.17825985564E+04  0.46999998093E+01 0. -1.
       -5    1    3    3    0  502 -0.11375423561E+04  0.13296147814E+04  0.19752355151E+01  0.17498297261E+04  0.46999998093E+01 0.  1.
</event>
<event>
 5   0  0.1110956E-06  0.3505858E+04  0.7818609E-02  0.8112403E-01
       -1   -1    0    0    0  501  0.00000000000E+00  0.00000000000E+00  0.20559942009E+04  0.20559942009E+04  0.50400001928E-02 0.  1.
        1   -1    0    0  501    0  0.00000000000E+00  0.00000000000E+00 -0.14945372424E+04  0.14945372424E+04  0.50400001928E-02 0. -1.
    10030    2    1    2    0    0  0.00000000000E+00  0.00000000000E+00  0.56145695850E+03  0.35505314433E+04  0.35058578998E+04 0.  0.
        1    1    3    3  502    0 -0.16140647377E+04  0.38271189985E+02 -0.41067897772E+03  0.16659312363E+04  0.50400001928E-02 0. -1.
       -1    1    3    3    0  502  0.16140647377E+04 -0.38271189985E+02  0.97213593622E+03  0.18846002069E+04  0.50400001928E-02 0.  1.
</event>
<event>
 5   0  0.2565004E-06  0.3540592E+04  0.7818609E-02  0.8104237E-01
        2   -1    0    0  501    0  0.00000000000E+00  0.00000000000E+00  0.22709585508E+04  0.22709585508E+04  0.25500000920E-02 0. -1.
       -2   -1    0    0    0  501  0.00000000000E+00  0.00000000000E+00 -0.13800113694E+04  0.13800113694E+04  0.25500000920E-02 0.  1.
    10030    2    1    2    0    0  0.00000000000E+00  0.00000000000E+00  0.89094718142E+03  0.36509699202E+04  0.35405923908E+04 0.  0.
        3    1    3    3  502    0  0.24317039158E+03 -0.11705725345E+04  0.17917697242E+04  0.21540219713E+04  0.10100000352E+00 0. -1.
       -3    1    3    3    0  502 -0.24317039158E+03  0.11705725345E+04 -0.90082254282E+03  0.14969479489E+04  0.10100000352E+00 0.  1.
</event>
<event>
 5   0  0.1102175E-06  0.3552133E+04  0.7818609E-02  0.8101545E-01
       -1   -1    0    0    0  501  0.00000000000E+00  0.00000000000E+00  0.14349357954E+04  0.14349357954E+04  0.50400001928E-02 0.  1.
        1   -1    0    0  501    0  0.00000000000E+00  0.00000000000E+00 -0.21982949115E+04  0.21982949115E+04  0.50400001928E-02 0. -1.
    10030    2    1    2    0    0  0.00000000000E+00  0.00000000000E+00 -0.76335911608E+03  0.36332307069E+04  0.35521329127E+04 0.  0.
        5    1    3    3  502    0  0.38784361932E+03 -0.16632186868E+04 -0.88032490206E+03  0.19213831207E+04  0.46999998093E+01 0. -1.
       -5    1    3    3    0  502 -0.38784361932E+03  0.16632186868E+04  0.11696578597E+03  0.17118475862E+04  0.46999998093E+01 0.  1.
</event>
<event>
 5   0  0.1125196E-06  0.3495671E+04  0.7818609E-02  0.8114817E-01
       -1   -1    0    0    0  501  0.00000000000E+00  0.00000000000E+00  0.11139550419E+04  0.11139550419E+04  0.50400001928E-02 0. -1.
        1   -1    0    0  501    0  0.00000000000E+00  0.00000000000E+00 -0.27424163465E+04  0.27424163465E+04  0.50400001928E-02 0.  1.
    10030    2    1    2    0    0  0.00000000000E+00  0.00000000000E+00 -0.16284613046E+04  0.38563713885E+04  0.34956707604E+04 0.  0.
        4    1    3    3  502    0 -0.81596494338E+03  0.11291931711E+04  0.35016572737E+03  0.14364865666E+04  0.12699999809E+01 0. -1.
       -4    1    3    3    0  502  0.81596494338E+03 -0.11291931711E+04 -0.19786270320E+04  0.24198848219E+04  0.12699999809E+01 0.  1.
</event>
<event>
 5   0  0.1908726E-06  0.2192063E+04  0.7818609E-02  0.8521739E-01
        2   -1    0    0  501    0  0.00000000000E+00  0.00000000000E+00  0.11654710074E+04  0.11654710074E+04  0.25500000920E-02 0. -1.
       -2   -1    0    0    0  501  0.00000000000E+00  0.00000000000E+00 -0.10307290445E+04  0.10307290445E+04  0.25500000920E-02 0.  1.
    10030    2    1    2    0    0  0.00000000000E+00  0.00000000000E+00  0.13474196294E+03  0.21962000519E+04  0.21920627891E+04 0.  0.
        5    1    3    3  502    0  0.86731708689E+01  0.63986714577E+03 -0.82411601235E+03  0.10434052328E+04  0.46999998093E+01 0.  1.
       -5    1    3    3    0  502 -0.86731708689E+01 -0.63986714577E+03  0.95885797529E+03  0.11527948191E+04  0.46999998093E+01 0. -1.
</event>
<event>
 5   0  0.1110956E-06  0.3475602E+04  0.7818609E-02  0.8119596E-01
        1   -1    0    0  501    0  0.00000000000E+00  0.00000000000E+00  0.14076190376E+04  0.14076190376E+04  0.50400001928E-02 0. -1.
       -1   -1    0    0    0  501  0.00000000000E+00  0.00000000000E+00 -0.21454327507E+04  0.21454327507E+04  0.50400001928E-02 0.  1.
    10030    2    1    2    0    0  0.00000000000E+00  0.00000000000E+00 -0.73781371307E+03  0.35530517883E+04  0.34756018091E+04 0.  0.
        1    1    3    3  502    0 -0.44988720917E+03 -0.94891066729E+03  0.10465492350E+04  0.14825974696E+04  0.50400001928E-02 0. -1.
       -1    1    3    3    0  502  0.44988720917E+03  0.94891066729E+03 -0.17843629481E+04  0.20704543187E+04  0.50400001928E-02 0.  1.
</event>
<event>
 5   0  0.3041329E-06  0.3484214E+04  0.7818609E-02  0.8117541E-01
       -2   -1    0    0    0  501  0.00000000000E+00  0.00000000000E+00  0.12843919126E+04  0.12843919127E+04  0.25500000920E-02 0. -1.
        2   -1    0    0  501    0  0.00000000000E+00  0.00000000000E+00 -0.23629371059E+04  0.23629371059E+04  0.25500000920E-02 0.  1.
    10030    2    1    2    0    0  0.00000000000E+00  0.00000000000E+00 -0.10785451932E+04  0.36473290185E+04  0.34842142924E+04 0.  0.
        2    1    3    3  502    0  0.50043344292E+03  0.14957755410E+04 -0.13136041212E+04  0.20526407106E+04  0.25500000920E-02 0.  1.
       -2    1    3    3    0  502 -0.50043344292E+03 -0.14957755410E+04  0.23505892794E+03  0.15946883079E+04  0.25500000920E-02 0. -1.
</event>
<event>
 5   0  0.1782660E-06  0.3531582E+04  0.7818609E-02  0.8106346E-01
       -2   -1    0    0    0  501  0.00000000000E+00  0.00000000000E+00  0.13919911318E+04  0.13919911318E+04  0.25500000920E-02 0.  1.
        2   -1    0    0  501    0  0.00000000000E+00  0.00000000000E+00 -0.22399692555E+04  0.22399692555E+04  0.25500000920E-02 0. -1.
    10030    2    1    2    0    0  0.00000000000E+00  0.00000000000E+00 -0.84797812366E+03  0.36319603874E+04  0.35315817075E+04 0.  0.
        4    1    3    3  502    0 -0.89516357821E+03  0.70966809875E+03  0.96078532077E+03  0.14926676414E+04  0.12699999809E+01 0.  1.
       -4    1    3    3    0  502  0.89516357821E+03 -0.70966809875E+03 -0.18087634444E+04  0.21392927460E+04  0.12699999809E+01 0. -1.
</event>
<event>
 5   0  0.1102175E-06  0.3480285E+04  0.7818609E-02  0.8118478E-01
       -1   -1    0    0    0  501  0.00000000000E+00  0.00000000000E+00  0.14215403019E+04  0.14215403019E+04  0.50400001928E-02 0. -1.
        1   -1    0    0  501    0  0.00000000000E+00  0.00000000000E+00 -0.21301512309E+04  0.21301512309E+04  0.50400001928E-02 0.  1.
    10030    2    1    2    0    0  0.00000000000E+00  0.00000000000E+00 -0.70861092901E+03  0.35516915327E+04  0.34802849445E+04 0.  0.
        5    1    3    3  502    0 -0.11042171568E+03 -0.15789510943E+04 -0.10921856121E+04  0.19230629253E+04  0.46999998093E+01 0.  1.
       -5    1    3    3    0  502  0.11042171568E+03  0.15789510943E+04  0.38357468308E+03  0.16286286074E+04  0.46999998093E+01 0. -1.
</event>
<event>
 5   0  0.1125196E-06  0.3318359E+04  0.7818609E-02  0.8158240E-01
       -1   -1    0    0    0  501  0.00000000000E+00  0.00000000000E+00  0.14228266537E+04  0.14228266537E+04  0.50400001928E-02 0.  1.
        1   -1    0    0  501    0  0.00000000000E+00  0.00000000000E+00 -0.19347939789E+04  0.19347939789E+04  0.50400001928E-02 0. -1.
    10030    2    1    2    0    0  0.00000000000E+00  0.00000000000E+00 -0.51196732521E+03  0.33576206327E+04  0.33183588972E+04 0.  0.
        4    1    3    3  502    0  0.20715331974E+03  0.16057450138E+04  0.11099930552E+03  0.16228530450E+04  0.12699999809E+01 0.  1.
       -4    1    3    3    0  502 -0.20715331974E+03 -0.16057450138E+04 -0.62296663074E+03  0.17347675876E+04  0.12699999809E+01 0. -1.
</event>
<event>
 5   0  0.3041329E-06  0.1797044E+04  0.7818609E-02  0.8707873E-01
       -2   -1    0    0    0  501  0.00000000000E+00  0.00000000000E+00  0.45180850442E+03  0.45180850443E+03  0.25500000920E-02 0. -1.
        2   -1    0    0  501    0  0.00000000000E+00  0.00000000000E+00 -0.17869110484E+04  0.17869110484E+04  0.25500000920E-02 0.  1.
    10030    2    1    2    0    0  0.00000000000E+00  0.00000000000E+00 -0.13351025440E+04  0.22387195528E+04  0.17970438040E+04 0.  0.
        2    1    3    3  502    0 -0.83891334805E+02 -0.62850719732E+03  0.12553418146E+03  0.64638833828E+03  0.25500000920E-02 0.  1.
       -2    1    3    3    0  502  0.83891334805E+02  0.62850719732E+03 -0.14606367255E+04  0.15923312146E+04  0.25500000920E-02 0. -1.
</event>
<event>
 5   0  0.1110956E-06  0.3460921E+04  0.7818609E-02  0.8123114E-01
       -1   -1    0    0    0  501  0.00000000000E+00  0.00000000000E+00  0.14528835647E+04  0.14528835647E+04  0.50400001928E-02 0.  1.
        1   -1    0    0  501    0  0.00000000000E+00  0.00000000000E+00 -0.20610697380E+04  0.20610697380E+04  0.50400001928E-02 0. -1.
    10030    2    1    2    0    0  0.00000000000E+00  0.00000000000E+00 -0.60818617329E+03  0.35139533028E+04  0.34609214658E+04 0.  0.
        1    1    3    3  502    0 -0.31754246932E+03 -0.47769758317E+03 -0.19617354105E+04  0.20438772032E+04  0.50400001928E-02 0. -1.
       -1    1    3    3    0  502  0.31754246932E+03  0.47769758317E+03  0.13535492372E+04  0.14700760996E+04  0.50400001928E-02 0.  1.
</event>
<event>
 5   0  0.1130707E-06  0.3483014E+04  0.7818609E-02  0.8117827E-01
       -1   -1    0    0    0  501  0.00000000000E+00  0.00000000000E+00  0.13560307818E+04  0.13560307818E+04  0.50400001928E-02 0. -1.
        1   -1    0    0  501    0  0.00000000000E+00  0.00000000000E+00 -0.22365621086E+04  0.22365621086E+04  0.50400001928E-02 0.  1.
    10030    2    1    2    0    0  0.00000000000E+00  0.00000000000E+00 -0.88053132686E+03  0.35925928904E+04  0.34830142490E+04 0.  0.
        3    1    3    3  502    0 -0.17300594194E+03  0.16665936120E+04  0.49414047298E+02  0.16762777460E+04  0.10100000352E+00 0. -1.
       -3    1    3    3    0  502  0.17300594194E+03 -0.16665936120E+04 -0.92994537415E+03  0.19163151444E+04  0.10100000352E+00 0.  1.
</event>
<event>
 5   0  0.1089337E-06  0.3468195E+04  0.7818609E-02  0.8121369E-01
        1   -1    0    0  501    0  0.00000000000E+00  0.00000000000E+00  0.16244883429E+04  0.16244883429E+04  0.50400001928E-02 0.  1.
       -1   -1    0    0    0  501  0.00000000000E+00  0.00000000000E+00 -0.18511026656E+04  0.18511026656E+04  0.50400001928E-02 0. -1.
    10030    2    1    2    0    0  0.00000000000E+00  0.00000000000E+00 -0.22661432273E+03  0.34755910085E+04  0.34681953243E+04 0.  0.
        2    1    3    3  502    0 -0.14399243405E+04  0.94390722271E+03 -0.32051303722E+03  0.17513056725E+04  0.25500000920E-02 0.  1.
       -2    1    3    3    0  502  0.14399243405E+04 -0.94390722271E+03  0.93898714486E+02  0.17242853360E+04  0.25500000920E-02 0. -1.
</event>
<event>
 5   0  0.1908726E-06  0.3170388E+04  0.7818609E-02  0.8196682E-01
       -2   -1    0    0    0  501  0.00000000000E+00  0.00000000000E+00  0.13186667647E+04  0.13186667647E+04  0.25500000920E-02 0.  1.
        2   -1    0    0  501    0  0.00000000000E+00  0.00000000000E+00 -0.19055910754E+04  0.19055910754E+04  0.25500000920E-02 0. -1.
    10030    2    1    2    0    0  0.00000000000E+00  0.00000000000E+00 -0.58692431067E+03  0.32242578402E+04  0.31703877481E+04 0.  0.
        5    1    3    3  502    0  0.12041267491E+04  0.53852678813E+03 -0.11875390646E+04  0.17748812494E+04  0.46999998093E+01 0. -1.
       -5    1    3    3    0  502 -0.12041267491E+04 -0.53852678813E+03  0.60061475393E+03  0.14493765908E+04  0.46999998093E+01 0.  1.
</event>
<event>
 5   0  0.1130707E-06  0.3457299E+04  0.7818609E-02  0.8123985E-01
       -1   -1    0    0    0  501  0.00000000000E+00  0.00000000000E+00  0.10880004689E+04  0.10880004689E+04  0.50400001928E-02 0.  1.
        1   -1    0    0  501    0  0.00000000000E+00  0.00000000000E+00 -0.27465333855E+04  0.27465333855E+04  0.50400001928E-02 0. -1.
    10030    2    1    2    0    0  0.00000000000E+00  0.00000000000E+00 -0.16585329166E+04  0.38345338544E+04  0.34572992993E+04 0.  0.
        3    1    3    3  502    0  0.16140331751E+04  0.10995002900E+03 -0.15048584640E+04  0.22094775640E+04  0.10100000352E+00 0. -1.
       -3    1    3    3    0  502 -0.16140331751E+04 -0.10995002900E+03 -0.15367445261E+03  0.16250562903E+04  0.10100000352E+00 0.  1.
</event>
<event>
 5   0  0.1125196E-06  0.3384008E+04  0.7818609E-02  0.8141843E-01
       -1   -1    0    0    0  501  0.00000000000E+00  0.00000000000E+00  0.11602658782E+04  0.11602658782E+04  0.50400001928E-02 0. -1.
        1   -1    0    0  501    0  0.00000000000E+00  0.00000000000E+00 -0.24674320578E+04  0.24674320578E+04  0.50400001928E-02 0.  1.
    10030    2    1    2    0    0  0.00000000000E+00  0.00000000000E+00 -0.13071661796E+04  0.36276979360E+04  0.33840078152E+04 0.  0.
        4    1    3    3  502    0  0.29099673240E+03 -0.15429931107E+03  0.11255659799E+04  0.11727692713E+04  0.12699999809E+01 0. -1.
       -4    1    3    3    0  502 -0.29099673240E+03  0.15429931107E+03 -0.24327321595E+04  0.24549286647E+04  0.12699999809E+01 0.  1.
</event>
<event>
 5   0  0.3378848E-06  0.1866177E+04  0.7818609E-02  0.8671878E-01
       -2   -1    0    0    0  501  0.00000000000E+00  0.00000000000E+00  0.54102503618E+03  0.54102503618E+03  0.25500000920E-02 0.  1.
        2   -1    0    0  501    0  0.00000000000E+00  0.00000000000E+00 -0.16092681556E+04  0.16092681556E+04  0.25500000920E-02 0. -1.
    10030    2    1    2    0    0  0.00000000000E+00  0.00000000000E+00 -0.10682431194E+04  0.21502931917E+04  0.18661772286E+04 0.  0.
        1    1    3    3  502    0  0.67229790162E+03 -0.64572255880E+03 -0.48644213650E+03  0.10514599582E+04  0.50400001928E-02 0.  1.
       -1    1    3    3    0  502 -0.67229790162E+03  0.64572255880E+03 -0.58180098288E+03  0.10988332336E+04  0.50400001928E-02 0. -1.
</event>
<event>
 5   0  0.3378848E-06  0.3477976E+04  0.7818609E-02  0.8119029E-01
       -2   -1    0    0    0  501  0.00000000000E+00  0.00000000000E+00  0.12765349904E+04  0.12765349904E+04  0.25500000920E-02 0.  1.
        2   -1    0    0  501    0  0.00000000000E+00  0.00000000000E+00 -0.23689749928E+04  0.23689749928E+04  0.25500000920E-02 0. -1.
    10030    2    1    2    0    0  0.00000000000E+00  0.00000000000E+00 -0.10924400024E+04  0.36455099833E+04  0.34779761183E+04 0.  0.
        1    1    3    3  502    0  0.39616799900E+03 -0.94813715689E+02  0.12258199215E+04  0.12917326364E+04  0.50400001928E-02 0.  1.
       -1    1    3    3    0  502 -0.39616799900E+03  0.94813715689E+02 -0.23182599239E+04  0.23537773469E+04  0.50400001928E-02 0. -1.
</event>
<event>
 5   0  0.1110956E-06  0.3767489E+04  0.7818609E-02  0.8053168E-01
        1   -1    0    0  501    0  0.00000000000E+00  0.00000000000E+00  0.29222453619E+04  0.29222453620E+04  0.50400001928E-02 0.  1.
       -1   -1    0    0    0  501  0.00000000000E+00  0.00000000000E+00 -0.12143035223E+04  0.12143035223E+04  0.50400001928E-02 0. -1.
    10030    2    1    2    0    0  0.00000000000E+00  0.00000000000E+00  0.17079418396E+04  0.41365488843E+04  0.37674887319E+04 0.  0.
        1    1    3    3  502    0  0.11699980224E+04  0.55586848340E+03 -0.64770963448E+03  0.14482447700E+04  0.50400001928E-02 0. -1.
       -1    1    3    3    0  502 -0.11699980224E+04 -0.55586848340E+03  0.23556514741E+04  0.26883041143E+04  0.50400001928E-02 0.  1.
</event>
<event>
 5   0  0.1125196E-06  0.3151552E+04  0.7818609E-02  0.8201731E-01
        1   -1    0    0  501    0  0.00000000000E+00  0.00000000000E+00  0.77940478055E+03  0.77940478057E+03  0.50400001928E-02 0.  1.
       -1   -1    0    0    0  501  0.00000000000E+00  0.00000000000E+00 -0.31858534276E+04  0.31858534276E+04  0.50400001928E-02 0. -1.
    10030    2    1    2    0    0  0.00000000000E+00  0.00000000000E+00 -0.24064486470E+04  0.39652582081E+04  0.31515516125E+04 0.  0.
        4    1    3    3  502    0  0.14497097708E+04 -0.55505360686E+03 -0.86252391983E+03  0.17758637480E+04  0.12699999809E+01 0.  1.
       -4    1    3    3    0  502 -0.14497097708E+04  0.55505360686E+03 -0.15439247272E+04  0.21893944602E+04  0.12699999809E+01 0. -1.
</event>
<event>
 5   0  0.1125196E-06  0.3428212E+04  0.7818609E-02  0.8131017E-01
       -1   -1    0    0    0  501  0.00000000000E+00  0.00000000000E+00  0.15001429168E+04  0.15001429168E+04  0.50400001928E-02 0.  1.
        1   -1    0    0  501    0  0.00000000000E+00  0.00000000000E+00 -0.19585862664E+04  0.19585862664E+04  0.50400001928E-02 0. -1.
    10030    2    1    2    0    0  0.00000000000E+00  0.00000000000E+00 -0.45844334962E+03  0.34587291832E+04  0.34282119622E+04 0.  0.
        4    1    3    3  502    0  0.12848711348E+04 -0.55098761697E+03  0.77141183715E+03  0.15967338609E+04  0.12699999809E+01 0.  1.
       -4    1    3    3    0  502 -0.12848711348E+04  0.55098761697E+03 -0.12298551868E+04  0.18619953223E+04  0.12699999809E+01 0. -1.
</event>
<event>
 5   0  0.3041329E-06  0.2705224E+04  0.7818609E-02  0.8333312E-01
       -2   -1    0    0    0  501  0.00000000000E+00  0.00000000000E+00  0.99599239941E+03  0.99599239942E+03  0.25500000920E-02 0. -1.
        2   -1    0    0  501    0  0.00000000000E+00  0.00000000000E+00 -0.18369210122E+04  0.18369210122E+04  0.25500000920E-02 0.  1.
    10030    2    1    2    0    0  0.00000000000E+00  0.00000000000E+00 -0.84092861275E+03  0.28329134116E+04  0.27052241064E+04 0.  0.
        2    1    3    3  502    0 -0.18789639073E+03  0.12234525375E+04 -0.99156649302E+03  0.15859840085E+04  0.25500000920E-02 0.  1.
       -2    1    3    3    0  502  0.18789639073E+03 -0.12234525375E+04  0.15063788027E+03  0.12469294031E+04  0.25500000920E-02 0. -1.
</event>
<event>
 5   0  0.3041329E-06  0.3113251E+04  0.7818609E-02  0.8212111E-01
        2   -1    0    0  501    0  0.00000000000E+00  0.00000000000E+00  0.15351607575E+04  0.15351607575E+04  0.25500000920E-02 0. -1.
       -2   -1    0    0    0  501  0.00000000000E+00  0.00000000000E+00 -0.15783899493E+04  0.15783899493E+04  0.25500000920E-02 0.  1.
    10030    2    1    2    0    0  0.00000000000E+00  0.00000000000E+00 -0.43229191781E+02  0.31135507069E+04  0.31132505908E+04 0.  0.
        2    1    3    3  502    0 -0.48233300852E+03  0.14581699248E+04  0.23174290544E+03  0.15532576847E+04  0.25500000920E-02 0. -1.
       -2    1    3    3    0  502  0.48233300852E+03 -0.14581699248E+04 -0.27497209723E+03  0.15602930222E+04  0.25500000920E-02 0.  1.
</event>
<event>
 5   0  0.1089337E-06  0.2152830E+04  0.7818609E-02  0.8538322E-01
       -1   -1    0    0    0  501  0.00000000000E+00  0.00000000000E+00  0.14601504218E+04  0.14601504219E+04  0.50400001928E-02 0. -1.
        1   -1    0    0  501    0  0.00000000000E+00  0.00000000000E+00 -0.79352704910E+03  0.79352704911E+03  0.50400001928E-02 0.  1.
    10030    2    1    2    0    0  0.00000000000E+00  0.00000000000E+00  0.66662337275E+03  0.22536774710E+04  0.21528296315E+04 0.  0.
        2    1    3    3  502    0 -0.24524960949E+03 -0.99018573285E+03 -0.26372960709E+02  0.10204463188E+04  0.25500000920E-02 0.  1.
       -2    1    3    3    0  502  0.24524960949E+03  0.99018573285E+03  0.69299633346E+03  0.12332311522E+04  0.25500000920E-02 0. -1.
</event>
<event>
 5   0  0.3378848E-06  0.2101798E+04  0.7818609E-02  0.8560452E-01
        2   -1    0    0  501    0  0.00000000000E+00  0.00000000000E+00  0.13103330360E+04  0.13103330360E+04  0.25500000920E-02 0. -1.
       -2   -1    0    0    0  501  0.00000000000E+00  0.00000000000E+00 -0.84283035099E+03  0.84283035100E+03  0.25500000920E-02 0.  1.
    10030    2    1    2    0    0  0.00000000000E+00  0.00000000000E+00  0.46750268500E+03  0.21531633870E+04  0.21017977568E+04 0.  0.
        1    1    3    3  502    0 -0.40925727336E+03  0.80067202900E+03 -0.32343535308E+03  0.95560328665E+03  0.50400001928E-02 0.  1.
       -1    1    3    3    0  502  0.40925727336E+03 -0.80067202900E+03  0.79093803808E+03  0.11975601003E+04  0.50400001928E-02 0. -1.
</event>
<event>
 5   0  0.1130707E-06  0.3558879E+04  0.7818609E-02  0.8099976E-01
        1   -1    0    0  501    0  0.00000000000E+00  0.00000000000E+00  0.22936496181E+04  0.22936496181E+04  0.50400001928E-02 0. -1.
       -1   -1    0    0    0  501  0.00000000000E+00  0.00000000000E+00 -0.13805095871E+04  0.13805095871E+04  0.50400001928E-02 0.  1.
    10030    2    1    2    0    0  0.00000000000E+00  0.00000000000E+00  0.91314003106E+03  0.36741592052E+04  0.35588791984E+04 0.  0.
        3    1    3    3  502    0 -0.12526881547E+04  0.12153009564E+04  0.81453071058E+03  0.19260436953E+04  0.10100000352E+00 0. -1.
       -3    1    3    3    0  502  0.12526881547E+04 -0.12153009564E+04  0.98609320474E+02  0.17481155099E+04  0.10100000352E+00 0.  1.
</event>
<event>
 5   0  0.2565004E-06  0.1790869E+04  0.7818609E-02  0.8711170E-01
        2   -1    0    0  501    0  0.00000000000E+00  0.00000000000E+00  0.70219734185E+03  0.70219734186E+03  0.25500000920E-02 0. -1.
       -2   -1    0    0    0  501  0.00000000000E+00  0.00000000000E+00 -0.11418487049E+04  0.11418487049E+04  0.25500000920E-02 0.  1.
    10030    2    1    2    0    0  0.00000000000E+00  0.00000000000E+00 -0.43965136302E+03  0.18440460467E+04  0.17908692028E+04 0.  0.
        3    1    3    3  502    0 -0.73087420989E+03  0.36551145391E+03 -0.59679383289E+03  0.10118985240E+04  0.10100000352E+00 0.  1.
       -3    1    3    3    0  502  0.73087420989E+03 -0.36551145391E+03  0.15714246987E+03  0.83214752277E+03  0.10100000352E+00 0. -1.
</event>
<event>
 5   0  0.2565004E-06  0.3562474E+04  0.7818609E-02  0.8099142E-01
        2   -1    0    0  501    0  0.00000000000E+00  0.00000000000E+00  0.16797997068E+04  0.16797997068E+04  0.25500000920E-02 0.  1.
       -2   -1    0    0    0  501  0.00000000000E+00  0.00000000000E+00 -0.18887993338E+04  0.18887993338E+04  0.25500000920E-02 0. -1.
    10030    2    1    2    0    0  0.00000000000E+00  0.00000000000E+00 -0.20899962696E+03  0.35685990406E+04  0.35624736165E+04 0.  0.
        3    1    3    3  502    0 -0.91562939817E+03  0.92373892513E+03 -0.13236107809E+04  0.18556983338E+04  0.10100000352E+00 0. -1.
       -3    1    3    3    0  502  0.91562939817E+03 -0.92373892513E+03  0.11146111539E+04  0.17129007068E+04  0.10100000352E+00 0.  1.
</event>
<event>
 5   0  0.1130707E-06  0.3543027E+04  0.7818609E-02  0.8103668E-01
        1   -1    0    0  501    0  0.00000000000E+00  0.00000000000E+00  0.15036692149E+04  0.15036692150E+04  0.50400001928E-02 0.  1.
       -1   -1    0    0    0  501  0.00000000000E+00  0.00000000000E+00 -0.20870681070E+04  0.20870681070E+04  0.50400001928E-02 0. -1.
    10030    2    1    2    0    0  0.00000000000E+00  0.00000000000E+00 -0.58339889207E+03  0.35907373220E+04  0.35430269895E+04 0.  0.
        3    1    3    3  502    0  0.13591083901E+04  0.14170279938E+03  0.85087041070E+03  0.16097315818E+04  0.10100000352E+00 0.  1.
       -3    1    3    3    0  502 -0.13591083901E+04 -0.14170279938E+03 -0.14342693028E+04  0.19810057402E+04  0.10100000352E+00 0. -1.
</event>
<event>
 5   0  0.3041329E-06  0.3806156E+04  0.7818609E-02  0.8044835E-01
       -2   -1    0    0    0  501  0.00000000000E+00  0.00000000000E+00  0.16612893474E+04  0.16612893474E+04  0.25500000920E-02 0. -1.
        2   -1    0    0  501    0  0.00000000000E+00  0.00000000000E+00 -0.21800575304E+04  0.21800575304E+04  0.25500000920E-02 0.  1.
    10030    2    1    2    0    0  0.00000000000E+00  0.00000000000E+00 -0.51876818308E+03  0.38413468778E+04  0.38061562511E+04 0.  0.
        2    1    3    3  502    0  0.20817345539E+03  0.97731158071E+03 -0.18939983529E+04  0.21414256639E+04  0.25500000920E-02 0.  1.
       -2    1    3    3    0  502 -0.20817345539E+03 -0.97731158071E+03  0.13752301698E+04  0.16999212139E+04  0.25500000920E-02 0. -1.
</event>
<event>
 5   0  0.1130707E-06  0.2237221E+04  0.7818609E-02  0.8503094E-01
        1   -1    0    0  501    0  0.00000000000E+00  0.00000000000E+00  0.45223274800E+03  0.45223274803E+03  0.50400001928E-02 0. -1.
       -1   -1    0    0    0  501  0.00000000000E+00  0.00000000000E+00 -0.27669149463E+04  0.27669149463E+04  0.50400001928E-02 0.  1.
    10030    2    1    2    0    0  0.00000000000E+00  0.00000000000E+00 -0.23146821983E+04  0.32191476944E+04  0.22372210885E+04 0.  0.
        3    1    3    3  502    0 -0.49109304269E+02  0.60651228040E+03 -0.25079358169E+04  0.25806997001E+04  0.10100000352E+00 0.  1.
       -3    1    3    3    0  502  0.49109304269E+02 -0.60651228040E+03  0.19325361863E+03  0.63844799425E+03  0.10100000352E+00 0. -1.
</event>
<event>
 5   0  0.2565004E-06  0.3529436E+04  0.7818609E-02  0.8106849E-01
        2   -1    0    0  501    0  0.00000000000E+00  0.00000000000E+00  0.25165774994E+04  0.25165774994E+04  0.25500000920E-02 0.  1.
       -2   -1    0    0    0  501  0.00000000000E+00  0.00000000000E+00 -0.12374861957E+04  0.12374861957E+04  0.25500000920E-02 0. -1.
    10030    2    1    2    0    0  0.00000000000E+00  0.00000000000E+00  0.12790913038E+04  0.37540636951E+04  0.35294361679E+04 0.  0.
        3    1    3    3  502    0  0.41525366920E+02 -0.11736192013E+04 -0.76152973445E+03  0.13996549333E+04  0.10100000352E+00 0. -1.
       -3    1    3    3    0  502 -0.41525366920E+02  0.11736192013E+04  0.20406210382E+04  0.23544087618E+04  0.10100000352E+00 0.  1.
</event>
<event>
 5   0  0.1125196E-06  0.1910736E+04  0.7818609E-02  0.8649531E-01
       -1   -1    0    0    0  501  0.00000000000E+00  0.00000000000E+00  0.39757590273E+03  0.39757590276E+03  0.50400001928E-02 0.  1.
        1   -1    0    0  501    0  0.00000000000E+00  0.00000000000E+00 -0.22957338096E+04  0.22957338097E+04  0.50400001928E-02 0. -1.
    10030    2    1    2    0    0  0.00000000000E+00  0.00000000000E+00 -0.18981579069E+04  0.26933097124E+04  0.19107364463E+04 0.  0.
        4    1    3    3  502    0  0.74749116494E+03  0.19481157686E+02 -0.11088550674E+03  0.75592312153E+03  0.12699999809E+01 0.  1.
       -4    1    3    3    0  502 -0.74749116494E+03 -0.19481157686E+02 -0.17872724002E+04  0.19373865909E+04  0.12699999809E+01 0. -1.
</event>
<event>
 5   0  0.1782660E-06  0.3580514E+04  0.7818609E-02  0.8094970E-01
       -2   -1    0    0    0  501  0.00000000000E+00  0.00000000000E+00  0.13954573960E+04  0.13954573960E+04  0.25500000920E-02 0. -1.
        2   -1    0    0  501    0  0.00000000000E+00  0.00000000000E+00 -0.22967523364E+04  0.22967523364E+04  0.25500000920E-02 0.  1.
    10030    2    1    2    0    0  0.00000000000E+00  0.00000000000E+00 -0.90129494043E+03  0.36922097324E+04  0.35805139489E+04 0.  0.
        4    1    3    3  502    0  0.14210627263E+03 -0.12449717755E+04 -0.17691547731E+04  0.21679619781E+04  0.12699999809E+01 0.  1.
       -4    1    3    3    0  502 -0.14210627263E+03  0.12449717755E+04  0.86785983265E+03  0.15242477543E+04  0.12699999809E+01 0. -1.
</event>
<event>
 5   0  0.1908726E-06  0.3464465E+04  0.7818609E-02  0.8122263E-01
       -2   -1    0    0    0  501  0.00000000000E+00  0.00000000000E+00  0.12673294136E+04  0.12673294136E+04  0.25500000920E-02 0. -1.
        2   -1    0    0  501    0  0.00000000000E+00  0.00000000000E+00 -0.23676794405E+04  0.23676794405E+04  0.25500000920E-02 0.  1.
    10030    2    1    2    0    0  0.00000000000E+00  0.00000000000E+00 -0.11003500269E+04  0.36350088541E+04  0.34644652095E+04 0.  0.
        5    1    3    3  502    0  0.75348217411E+03  0.15618130912E+03  0.10781487667E+04  0.13245961049E+04  0.46999998093E+01 0. -1.
       -5    1    3    3    0  502 -0.75348217411E+03 -0.15618130912E+03 -0.21784987936E+04  0.23104127492E+04  0.46999998093E+01 0.  1.
</event>
<event>
 5   0  0.1125196E-06  0.2040774E+04  0.7818609E-02  0.8587791E-01
       -1   -1    0    0    0  501  0.00000000000E+00  0.00000000000E+00  0.89414616893E+03  0.89414616894E+03  0.50400001928E-02 0.  1.
        1   -1    0    0  501    0  0.00000000000E+00  0.00000000000E+00 -0.11644511481E+04  0.11644511481E+04  0.50400001928E-02 0. -1.
    10030    2    1    2    0    0  0.00000000000E+00  0.00000000000E+00 -0.27030497913E+03  0.20585973170E+04  0.20407739051E+04 0.  0.
        4    1    3    3  502    0 -0.97776568314E+03 -0.18928741896E+03 -0.35920143539E+03  0.10587174988E+04  0.12699999809E+01 0. -1.
       -4    1    3    3    0  502  0.97776568314E+03  0.18928741896E+03  0.88896456258E+02  0.99987981825E+03  0.12699999809E+01 0.  1.
</event>
<event>
 5   0  0.1102175E-06  0.3465596E+04  0.7818609E-02  0.8121992E-01
        1   -1    0    0  501    0  0.00000000000E+00  0.00000000000E+00  0.21402658716E+04  0.21402658716E+04  0.50400001928E-02 0. -1.
       -1   -1    0    0    0  501  0.00000000000E+00  0.00000000000E+00 -0.14029045293E+04  0.14029045293E+04  0.50400001928E-02 0.  1.
    10030    2    1    2    0    0  0.00000000000E+00  0.00000000000E+00  0.73736134230E+03  0.35431704010E+04  0.34655958710E+04 0.  0.
        5    1    3    3  502    0  0.14358725754E+02 -0.12071240367E+04 -0.90220989337E+03  0.15071029808E+04  0.46999998093E+01 0.  1.
       -5    1    3    3    0  502 -0.14358725754E+02  0.12071240367E+04  0.16395712357E+04  0.20360674202E+04  0.46999998093E+01 0. -1.
</event>
<event>
 5   0  0.2881429E-06  0.1888288E+04  0.7818609E-02  0.8660708E-01
        2   -1    0    0  501    0  0.00000000000E+00  0.00000000000E+00  0.19373902262E+04  0.19373902262E+04  0.25500000920E-02 0. -1.
       -2   -1    0    0    0  501  0.00000000000E+00  0.00000000000E+00 -0.46010741565E+03  0.46010741566E+03  0.25500000920E-02 0.  1.
    10030    2    1    2    0    0  0.00000000000E+00  0.00000000000E+00  0.14772828106E+04  0.23974976419E+04  0.18882877007E+04 0.  0.
        3    1    3    3  502    0  0.53096674413E+03  0.26707917371E+03 -0.19277085742E+03  0.62483404363E+03  0.10100000352E+00 0.  1.
       -3    1    3    3    0  502 -0.53096674413E+03 -0.26707917371E+03  0.16700536680E+04  0.17726635983E+04  0.10100000352E+00 0. -1.
</event>
<event>
 5   0  0.1110956E-06  0.3495444E+04  0.7818609E-02  0.8114870E-01
       -1   -1    0    0    0  501  0.00000000000E+00  0.00000000000E+00  0.12857029203E+04  0.12857029203E+04  0.50400001928E-02 0.  1.
        1   -1    0    0  501    0  0.00000000000E+00  0.00000000000E+00 -0.23757683350E+04  0.23757683350E+04  0.50400001928E-02 0. -1.
    10030    2    1    2    0    0  0.00000000000E+00  0.00000000000E+00 -0.10900654147E+04  0.36614712553E+04  0.34954440555E+04 0.  0.
        1    1    3    3  502    0 -0.12840159204E+03 -0.29581745886E+03 -0.23443337498E+04  0.23664098690E+04  0.50400001928E-02 0. -1.
       -1    1    3    3    0  502  0.12840159204E+03  0.29581745886E+03  0.12542683351E+04  0.12950613863E+04  0.50400001928E-02 0.  1.
</event>
<event>
 5   0  0.3378848E-06  0.3565953E+04  0.7818609E-02  0.8098335E-01
        2   -1    0    0  501    0  0.00000000000E+00  0.00000000000E+00  0.21318093738E+04  0.21318093738E+04  0.25500000920E-02 0.  1.
       -2   -1    0    0    0  501  0.00000000000E+00  0.00000000000E+00 -0.14912235686E+04  0.14912235686E+04  0.25500000920E-02 0. -1.
    10030    2    1    2    0    0  0.00000000000E+00  0.00000000000E+00  0.64058580516E+03  0.36230329424E+04  0.35659525415E+04 0.  0.
        1    1    3    3  502    0  0.29561830433E+03 -0.12257424396E+04  0.16010944926E+04  0.20379740637E+04  0.50400001928E-02 0.  1.
       -1    1    3    3    0  502 -0.29561830433E+03  0.12257424396E+04 -0.96050868748E+03  0.15850588787E+04  0.50400001928E-02 0. -1.
</event>
<event>
 5   0  0.1782660E-06  0.1940056E+04  0.7818609E-02  0.8635171E-01
       -2   -1    0    0    0  501  0.00000000000E+00  0.00000000000E+00  0.89924166017E+03  0.89924166017E+03  0.25500000920E-02 0. -1.
        2   -1    0    0  501    0  0.00000000000E+00  0.00000000000E+00 -0.10463865759E+04  0.10463865760E+04  0.25500000920E-02 0.  1.
    10030    2    1    2    0    0  0.00000000000E+00  0.00000000000E+00 -0.14714491578E+03  0.19456282361E+04  0.19400560835E+04 0.  0.
        4    1    3    3  502    0  0.63844877425E+03 -0.11196515360E+03  0.65016485164E+03  0.91807896184E+03  0.12699999809E+01 0. -1.
       -4    1    3    3    0  502 -0.63844877425E+03  0.11196515360E+03 -0.79730976742E+03  0.10275492743E+04  0.12699999809E+01 0.  1.
</event>
<event>
 5   0  0.1908726E-06  0.3475082E+04  0.7818609E-02  0.8119721E-01
       -2   -1    0    0    0  501  0.00000000000E+00  0.00000000000E+00  0.23022256052E+04  0.23022256052E+04  0.25500000920E-02 0.  1.
        2   -1    0    0  501    0  0.00000000000E+00  0.00000000000E+00 -0.13113611794E+04  0.13113611794E+04  0.25500000920E-02 0. -1.
    10030    2    1    2    0    0  0.00000000000E+00  0.00000000000E+00  0.99086442573E+03  0.36135867846E+04  0.34750823213E+04 0.  0.
        5    1    3    3  502    0 -0.22035292211E+02 -0.12559687180E+04  0.17437296348E+04  0.21490830845E+04  0.46999998093E+01 0.  1.
       -5    1    3    3    0  502  0.22035292211E+02  0.12559687180E+04 -0.75286520906E+03  0.14645037001E+04  0.46999998093E+01 0. -1.
</event>
<event>
 5   0  0.1908726E-06  0.1779613E+04  0.7818609E-02  0.8717217E-01
        2   -1    0    0  501    0  0.00000000000E+00  0.00000000000E+00  0.71906188223E+03  0.71906188224E+03  0.25500000920E-02 0.  1.
       -2   -1    0    0    0  501  0.00000000000E+00  0.00000000000E+00 -0.11010957947E+04  0.11010957947E+04  0.25500000920E-02 0. -1.
    10030    2    1    2    0    0  0.00000000000E+00  0.00000000000E+00 -0.38203391244E+03  0.18201576769E+04  0.17796134576E+04 0.  0.
        5    1    3    3  502    0  0.21293540585E+03  0.80319951337E+03 -0.51648524526E+03  0.97839155961E+03  0.46999998093E+01 0. -1.
       -5    1    3    3    0  502 -0.21293540585E+03 -0.80319951337E+03  0.13445133282E+03  0.84176611730E+03  0.46999998093E+01 0.  1.
</event>
<event>
 5   0  0.3378848E-06  0.3510088E+04  0.7818609E-02  0.8111403E-01
        2   -1    0    0  501    0  0.00000000000E+00  0.00000000000E+00  0.25613551042E+04  0.25613551042E+04  0.25500000920E-02 0. -1.
       -2   -1    0    0    0  501  0.00000000000E+00  0.00000000000E+00 -0.12025587076E+04  0.12025587076E+04  0.25500000920E-02 0.  1.
    10030    2    1    2    0    0  0.00000000000E+00  0.00000000000E+00  0.13587963965E+04  0.37639138118E+04  0.35100882518E+04 0.  0.
        1    1    3    3  502    0  0.16361504679E+04  0.12900899533E+03  0.12708925426E+02  0.16412779141E+04  0.50400001928E-02 0.  1.
       -1    1    3    3    0  502 -0.16361504679E+04 -0.12900899533E+03  0.13460874711E+04  0.21226358977E+04  0.50400001928E-02 0. -1.
</event>
<event>
 5   0  0.2565004E-06  0.3626117E+04  0.7818609E-02  0.8084535E-01
       -2   -1    0    0    0  501  0.00000000000E+00  0.00000000000E+00  0.22273642733E+04  0.22273642733E+04  0.25500000920E-02 0.  1.
        2   -1    0    0  501    0  0.00000000000E+00  0.00000000000E+00 -0.14758168785E+04  0.14758168785E+04  0.25500000920E-02 0. -1.
    10030    2    1    2    0    0  0.00000000000E+00  0.00000000000E+00  0.75154739479E+03  0.37031811518E+04  0.36261173666E+04 0.  0.
        3    1    3    3  502    0 -0.51101846730E+03  0.12082146278E+04  0.16538739904E+04  0.21109764677E+04  0.10100000352E+00 0.  1.
       -3    1    3    3    0  502  0.51101846730E+03 -0.12082146278E+04 -0.90232659565E+03  0.15922046841E+04  0.10100000352E+00 0. -1.
</event>
<event>
 5   0  0.1908726E-06  0.2327926E+04  0.7818609E-02  0.8466991E-01
        2   -1    0    0  501    0  0.00000000000E+00  0.00000000000E+00  0.18231516493E+04  0.18231516493E+04  0.25500000920E-02 0.  1.
       -2   -1    0    0    0  501  0.00000000000E+00  0.00000000000E+00 -0.74311406959E+03  0.74311406960E+03  0.25500000920E-02 0. -1.
    10030    2    1    2    0    0  0.00000000000E+00  0.00000000000E+00  0.10800375797E+04  0.25662657189E+04  0.23279258077E+04 0.  0.
        5    1    3    3  502    0 -0.20223554860E+03  0.16105252401E+03  0.17910900856E+04  0.18096582322E+04  0.46999998093E+01 0.  1.
       -5    1    3    3    0  502  0.20223554860E+03 -0.16105252401E+03 -0.71105250596E+03  0.75660748664E+03  0.46999998093E+01 0. -1.
</event>
<event>
 5   0  0.1089337E-06  0.3515784E+04  0.7818609E-02  0.8110059E-01
        1   -1    0    0  501    0  0.00000000000E+00  0.00000000000E+00  0.13529977447E+04  0.13529977447E+04  0.50400001928E-02 0. -1.
       -1   -1    0    0    0  501  0.00000000000E+00  0.00000000000E+00 -0.22839538943E+04  0.22839538943E+04  0.50400001928E-02 0.  1.
    10030    2    1    2    0    0  0.00000000000E+00  0.00000000000E+00 -0.93095614960E+03  0.36369516391E+04  0.35157841049E+04 0.  0.
        2    1    3    3  502    0  0.12929982727E+04 -0.10573869989E+04 -0.10323347045E+04  0.19635749899E+04  0.25500000920E-02 0.  1.
       -2    1    3    3    0  502 -0.12929982727E+04  0.10573869989E+04  0.10137855493E+03  0.16733766492E+04  0.25500000920E-02 0. -1.
</event>
<event>
 5   0  0.1089337E-06  0.3573004E+04  0.7818609E-02  0.8096704E-01
       -1   -1    0    0    0  501  0.00000000000E+00  0.00000000000E+00  0.22003515589E+04  0.22003515589E+04  0.50400001928E-02 0.  1.
        1   -1    0    0  501    0  0.00000000000E+00  0.00000000000E+00 -0.14504907565E+04  0.14504907565E+04  0.50400001928E-02 0. -1.
    10030    2    1    2    0    0  0.00000000000E+00  0.00000000000E+00  0.74986080239E+03  0.36508423154E+04  0.35730041126E+04 0.  0.
        2    1    3    3  502    0 -0.69266691252E+03 -0.14040790564E+03  0.20514327518E+04  0.21697645418E+04  0.25500000920E-02 0.  1.
       -2    1    3    3    0  502  0.69266691252E+03  0.14040790564E+03 -0.13015719494E+04  0.14810777735E+04  0.25500000920E-02 0. -1.
</event>
<event>
 5   0  0.1089337E-06  0.3502730E+04  0.7818609E-02  0.8113143E-01
       -1   -1    0    0    0  501  0.00000000000E+00  0.00000000000E+00  0.13579292666E+04  0.13579292666E+04  0.50400001928E-02 0.  1.
        1   -1    0    0  501    0  0.00000000000E+00  0.00000000000E+00 -0.22587916322E+04  0.22587916322E+04  0.50400001928E-02 0. -1.
    10030    2    1    2    0    0  0.00000000000E+00  0.00000000000E+00 -0.90086236563E+03  0.36167208988E+04  0.35027299437E+04 0.  0.
        2    1    3    3  502    0  0.21139190918E+03 -0.94438158908E+03 -0.19576391345E+04  0.21837797751E+04  0.25500000920E-02 0. -1.
       -2    1    3    3    0  502 -0.21139190918E+03  0.94438158908E+03  0.10567767689E+04  0.14329411238E+04  0.25500000920E-02 0.  1.
</event>
<event>
 5   0  0.1908726E-06  0.3556048E+04  0.7818609E-02  0.8100634E-01
        2   -1    0    0  501    0  0.00000000000E+00  0.00000000000E+00  0.17682535279E+04  0.17682535279E+04  0.25500000920E-02 0.  1.
       -2   -1    0    0    0  501  0.00000000000E+00  0.00000000000E+00 -0.17878489036E+04  0.17878489036E+04  0.25500000920E-02 0. -1.
    10030    2    1    2    0    0  0.00000000000E+00  0.00000000000E+00 -0.19595375644E+02  0.35561024315E+04  0.35560484424E+04 0.  0.
        5    1    3    3  502    0  0.97583283039E+03 -0.12187186042E+04 -0.86058865559E+03  0.17827393734E+04  0.46999998093E+01 0. -1.
       -5    1    3    3    0  502 -0.97583283039E+03  0.12187186042E+04  0.84099327995E+03  0.17733630582E+04  0.46999998093E+01 0.  1.
</event>
<event>
 5   0  0.1102175E-06  0.3583725E+04  0.7818609E-02  0.8094230E-01
       -1   -1    0    0    0  501  0.00000000000E+00  0.00000000000E+00  0.25298041388E+04  0.25298041388E+04  0.50400001928E-02 0.  1.
        1   -1    0    0  501    0  0.00000000000E+00  0.00000000000E+00 -0.12691776577E+04  0.12691776577E+04  0.50400001928E-02 0. -1.
    10030    2    1    2    0    0  0.00000000000E+00  0.00000000000E+00  0.12606264811E+04  0.37989817965E+04  0.35837248172E+04 0.  0.
        5    1    3    3  502    0 -0.14386684939E+04 -0.97620979124E+03  0.17068457652E+03  0.17469710663E+04  0.46999998093E+01 0.  1.
       -5    1    3    3    0  502  0.14386684939E+04  0.97620979124E+03  0.10899419045E+04  0.20520107303E+04  0.46999998093E+01 0. -1.
</event>
<event>
 5   0  0.1252058E-06  0.1813767E+04  0.7818609E-02  0.8699012E-01
        1   -1    0    0  501    0  0.00000000000E+00  0.00000000000E+00  0.16048534383E+04  0.16048534383E+04  0.50400001928E-02 0. -1.
       -1   -1    0    0    0  501  0.00000000000E+00  0.00000000000E+00 -0.51246913425E+03  0.51246913427E+03  0.50400001928E-02 0.  1.
    10030    2    1    2    0    0  0.00000000000E+00  0.00000000000E+00  0.10923843041E+04  0.21173225726E+04  0.18137671870E+04 0.  0.
        1    1    3    3  502    0 -0.48903206353E+03 -0.42711065121E+03 -0.19290737246E+03  0.67733973891E+03  0.50400001928E-02 0.  1.
       -1    1    3    3    0  502  0.48903206353E+03  0.42711065121E+03  0.12852916765E+04  0.14399828337E+04  0.50400001928E-02 0. -1.
</event>
<event>
 5   0  0.1130707E-06  0.3551197E+04  0.7818609E-02  0.8101763E-01
       -1   -1    0    0    0  501  0.00000000000E+00  0.00000000000E+00  0.13675642399E+04  0.13675642399E+04  0.50400001928E-02 0. -1.
        1   -1    0    0  501    0  0.00000000000E+00  0.00000000000E+00 -0.23053761576E+04  0.23053761576E+04  0.50400001928E-02 0.  1.
    10030    2    1    2    0    0  0.00000000000E+00  0.00000000000E+00 -0.93781191770E+03  0.36729403975E+04  0.35511969772E+04 0.  0.
        3    1    3    3  502    0 -0.64888481106E+03 -0.17288377882E+03 -0.21689747523E+04  0.22705487851E+04  0.10100000352E+00 0.  1.
       -3    1    3    3    0  502  0.64888481106E+03  0.17288377882E+03  0.12311628347E+04  0.14023916124E+04  0.10100000352E+00 0. -1.
</event>
<event>
 5   0  0.1908726E-06  0.2859184E+04  0.7818609E-02  0.8285126E-01
       -2   -1    0    0    0  501  0.00000000000E+00  0.00000000000E+00  0.12311535019E+04  0.12311535019E+04  0.25500000920E-02 0. -1.
        2   -1    0    0  501    0  0.00000000000E+00  0.00000000000E+00 -0.16600153895E+04  0.16600153895E+04  0.25500000920E-02 0.  1.
    10030    2    1    2    0    0  0.00000000000E+00  0.00000000000E+00 -0.42886188761E+03  0.28911688914E+04  0.28591843312E+04 0.  0.
        5    1    3    3  502    0  0.43211838502E+03  0.15942009072E+02 -0.15922932756E+04  0.16499698215E+04  0.46999998093E+01 0.  1.
       -5    1    3    3    0  502 -0.43211838502E+03 -0.15942009072E+02  0.11634313880E+04  0.12411990698E+04  0.46999998093E+01 0. -1.
</event>
<event>
 5   0  0.1782660E-06  0.3514025E+04  0.7818609E-02  0.8110474E-01
        2   -1    0    0  501    0  0.00000000000E+00  0.00000000000E+00  0.18496390869E+04  0.18496390869E+04  0.25500000920E-02 0. -1.
       -2   -1    0    0    0  501  0.00000000000E+00  0.00000000000E+00 -0.16690249039E+04  0.16690249039E+04  0.25500000920E-02 0.  1.
    10030    2    1    2    0    0  0.00000000000E+00  0.00000000000E+00  0.18061418303E+03  0.35186639907E+04  0.35140254405E+04 0.  0.
        4    1    3    3  502    0  0.40910052567E+03  0.17078367496E+03 -0.16121023664E+04  0.16719467565E+04  0.12699999809E+01 0.  1.
       -4    1    3    3    0  502 -0.40910052567E+03 -0.17078367496E+03  0.17927165495E+04  0.18467172343E+04  0.12699999809E+01 0. -1.
</event>
<event>
 5   0  0.1782660E-06  0.3499123E+04  0.7818609E-02  0.8113998E-01
       -2   -1    0    0    0  501  0.00000000000E+00  0.00000000000E+00  0.96550884326E+03  0.96550884327E+03  0.25500000920E-02 0.  1.
        2   -1    0    0  501    0  0.00000000000E+00  0.00000000000E+00 -0.31703139178E+04  0.31703139178E+04  0.25500000920E-02 0. -1.
    10030    2    1    2    0    0  0.00000000000E+00  0.00000000000E+00 -0.22048050745E+04  0.41358227611E+04  0.34991233894E+04 0.  0.
        4    1    3    3  502    0 -0.11188381266E+04  0.13150986683E+04 -0.14360445486E+04  0.22457757722E+04  0.12699999809E+01 0. -1.
       -4    1    3    3    0  502  0.11188381266E+04 -0.13150986683E+04 -0.76876052595E+03  0.18900469888E+04  0.12699999809E+01 0.  1.
</event>
<event>
 5   0  0.3041329E-06  0.3238335E+04  0.7818609E-02  0.8178766E-01
        2   -1    0    0  501    0  0.00000000000E+00  0.00000000000E+00  0.17831316330E+04  0.17831316330E+04  0.25500000920E-02 0. -1.
       -2   -1    0    0    0  501  0.00000000000E+00  0.00000000000E+00 -0.14702799770E+04  0.14702799770E+04  0.25500000920E-02 0.  1.
    10030    2    1    2    0    0  0.00000000000E+00  0.00000000000E+00  0.31285165605E+03  0.32534116100E+04  0.32383345945E+04 0.  0.
        2    1    3    3  502    0 -0.25555104117E+03 -0.15075820795E+04  0.69143939815E+03  0.16781533012E+04  0.25500000920E-02 0. -1.
       -2    1    3    3    0  502  0.25555104117E+03  0.15075820795E+04 -0.37858774210E+03  0.15752583088E+04  0.25500000920E-02 0.  1.
</event>
<event>
 5   0  0.1908726E-06  0.3426491E+04  0.7818609E-02  0.8131435E-01
       -2   -1    0    0    0  501  0.00000000000E+00  0.00000000000E+00  0.15394665704E+04  0.15394665704E+04  0.25500000920E-02 0. -1.
        2   -1    0    0  501    0  0.00000000000E+00  0.00000000000E+00 -0.19066407758E+04  0.19066407758E+04  0.25500000920E-02 0.  1.
    10030    2    1    2    0    0  0.00000000000E+00  0.00000000000E+00 -0.36717420542E+03  0.34461073462E+04  0.34264907623E+04 0.  0.
        5    1    3    3  502    0 -0.12295926516E+03 -0.67325828668E+03 -0.17631811814E+04  0.18913555112E+04  0.46999998093E+01 0.  1.
       -5    1    3    3    0  502  0.12295926516E+03  0.67325828668E+03  0.13960069760E+04  0.15547518350E+04  0.46999998093E+01 0. -1.
</event>
<event>
 5   0  0.1908726E-06  0.3423258E+04  0.7818609E-02  0.8132221E-01
        2   -1    0    0  501    0  0.00000000000E+00  0.00000000000E+00  0.23137774631E+04  0.23137774631E+04  0.25500000920E-02 0. -1.
       -2   -1    0    0    0  501  0.00000000000E+00  0.00000000000E+00 -0.12661868389E+04  0.12661868389E+04  0.25500000920E-02 0.  1.
    10030    2    1    2    0    0  0.00000000000E+00  0.00000000000E+00  0.10475906242E+04  0.35799643020E+04  0.34232584314E+04 0.  0.
        5    1    3    3  502    0 -0.26963275777E+03 -0.84979415359E+03 -0.10041846644E+04  0.13428554865E+04  0.46999998093E+01 0.  1.
       -5    1    3    3    0  502  0.26963275777E+03  0.84979415359E+03  0.20517752886E+04  0.22371088155E+04  0.46999998093E+01 0. -1.
</event>
<event>
 5   0  0.1089337E-06  0.3463586E+04  0.7818609E-02  0.8122474E-01
       -1   -1    0    0    0  501  0.00000000000E+00  0.00000000000E+00  0.16714563143E+04  0.16714563143E+04  0.50400001928E-02 0.  1.
        1   -1    0    0  501    0  0.00000000000E+00  0.00000000000E+00 -0.17943078442E+04  0.17943078442E+04  0.50400001928E-02 0. -1.
    10030    2    1    2    0    0  0.00000000000E+00  0.00000000000E+00 -0.12285152989E+03  0.34657641585E+04  0.34635861046E+04 0.  0.
        2    1    3    3  502    0 -0.35674393979E+03 -0.27630029550E+03  0.16116002519E+04  0.16735780423E+04  0.25500000920E-02 0.  1.
       -2    1    3    3    0  502  0.35674393979E+03  0.27630029550E+03 -0.17344517818E+04  0.17921861162E+04  0.25500000920E-02 0. -1.
</event>
<event>
 5   0  0.1908726E-06  0.3526165E+04  0.7818609E-02  0.8107617E-01
       -2   -1    0    0    0  501  0.00000000000E+00  0.00000000000E+00  0.11899239326E+04  0.11899239326E+04  0.25500000920E-02 0. -1.
        2   -1    0    0  501    0  0.00000000000E+00  0.00000000000E+00 -0.26123175066E+04  0.26123175066E+04  0.25500000920E-02 0.  1.
    10030    2    1    2    0    0  0.00000000000E+00  0.00000000000E+00 -0.14223935740E+04  0.38022414392E+04  0.35261645569E+04 0.  0.
        5    1    3    3  502    0 -0.13430554670E+03 -0.13034170223E+04 -0.19831736352E+04  0.23769589124E+04  0.46999998093E+01 0.  1.
       -5    1    3    3    0  502  0.13430554670E+03  0.13034170223E+04  0.56078006118E+03  0.14252825267E+04  0.46999998093E+01 0. -1.
</event>
<event>
 5   0  0.1908726E-06  0.3542475E+04  0.7818609E-02  0.8103797E-01
       -2   -1    0    0    0  501  0.00000000000E+00  0.00000000000E+00  0.30065833913E+04  0.30065833913E+04  0.25500000920E-02 0. -1.
        2   -1    0    0  501    0  0.00000000000E+00  0.00000000000E+00 -0.10434706649E+04  0.10434706649E+04  0.25500000920E-02 0.  1.
    10030    2    1    2    0    0  0.00000000000E+00  0.00000000000E+00  0.19631127264E+04  0.40500540562E+04  0.35424745986E+04 0.  0.
        5    1    3    3  502    0  0.15770043981E+04  0.71680841417E+03  0.14039565187E+04  0.22297697573E+04  0.46999998093E+01 0. -1.
       -5    1    3    3    0  502 -0.15770043981E+04 -0.71680841417E+03  0.55915620774E+03  0.18202842989E+04  0.46999998093E+01 0.  1.
</event>
<event>
 5   0  0.3378848E-06  0.2504196E+04  0.7818609E-02  0.8401492E-01
        2   -1    0    0  501    0  0.00000000000E+00  0.00000000000E+00  0.21734599403E+04  0.21734599403E+04  0.25500000920E-02 0.  1.
       -2   -1    0    0    0  501  0.00000000000E+00  0.00000000000E+00 -0.72131506127E+03  0.72131506128E+03  0.25500000920E-02 0. -1.
    10030    2    1    2    0    0  0.00000000000E+00  0.00000000000E+00  0.14521448790E+04  0.28947750016E+04  0.25041959907E+04 0.  0.
        1    1    3    3  502    0  0.11093139580E+04 -0.38853990561E+03  0.22724946050E+03  0.11971562275E+04  0.50400001928E-02 0. -1.
       -1    1    3    3    0  502 -0.11093139580E+04  0.38853990561E+03  0.12248954185E+04  0.16976187741E+04  0.50400001928E-02 0.  1.
</event>
<event>
 5   0  0.1782660E-06  0.3505772E+04  0.7818609E-02  0.8112423E-01
       -2   -1    0    0    0  501  0.00000000000E+00  0.00000000000E+00  0.11859028311E+04  0.11859028311E+04  0.25500000920E-02 0.  1.
        2   -1    0    0  501    0  0.00000000000E+00  0.00000000000E+00 -0.25909455738E+04  0.25909455738E+04  0.25500000920E-02 0. -1.
    10030    2    1    2    0    0  0.00000000000E+00  0.00000000000E+00 -0.14050427427E+04  0.37768484049E+04  0.35057722066E+04 0.  0.
        4    1    3    3  502    0  0.14350548472E+04 -0.44452750090E+03 -0.16754703130E+04  0.22503754123E+04  0.12699999809E+01 0. -1.
       -4    1    3    3    0  502 -0.14350548472E+04  0.44452750090E+03  0.27042757032E+03  0.15264729926E+04  0.12699999809E+01 0.  1.
</event>
<event>
 5   0  0.3378848E-06  0.3432753E+04  0.7818609E-02  0.8129914E-01
        2   -1    0    0  501    0  0.00000000000E+00  0.00000000000E+00  0.20922800587E+04  0.20922800587E+04  0.25500000920E-02 0. -1.
       -2   -1    0    0    0  501  0.00000000000E+00  0.00000000000E+00 -0.14080088500E+04  0.14080088500E+04  0.25500000920E-02 0.  1.
    10030    2    1    2    0    0  0.00000000000E+00  0.00000000000E+00  0.68427120866E+03  0.35002889086E+04  0.34327533202E+04 0.  0.
        1    1    3    3  502    0  0.41241283491E+03 -0.96150565619E+03 -0.10452847680E+04  0.14789177528E+04  0.50400001928E-02 0.  1.
       -1    1    3    3    0  502 -0.41241283491E+03  0.96150565619E+03  0.17295559767E+04  0.20213711559E+04  0.50400001928E-02 0. -1.
</event>
<event>
 5   0  0.1089337E-06  0.3492889E+04  0.7818609E-02  0.8115477E-01
       -1   -1    0    0    0  501  0.00000000000E+00  0.00000000000E+00  0.14026313639E+04  0.14026313639E+04  0.50400001928E-02 0. -1.
        1   -1    0    0  501    0  0.00000000000E+00  0.00000000000E+00 -0.21745335128E+04  0.21745335128E+04  0.50400001928E-02 0.  1.
    10030    2    1    2    0    0  0.00000000000E+00  0.00000000000E+00 -0.77190214891E+03  0.35771648767E+04  0.34928892951E+04 0.  0.
        2    1    3    3  502    0  0.17161923883E+04 -0.16043107812E+02 -0.71700773702E+03  0.18600198359E+04  0.25500000920E-02 0. -1.
       -2    1    3    3    0  502 -0.17161923883E+04  0.16043107812E+02 -0.54894411885E+02  0.17171450409E+04  0.25500000920E-02 0.  1.
</event>
<event>
 5   0  0.3041329E-06  0.3073237E+04  0.7818609E-02  0.8223121E-01
       -2   -1    0    0    0  501  0.00000000000E+00  0.00000000000E+00  0.16106359370E+04  0.16106359370E+04  0.25500000920E-02 0.  1.
        2   -1    0    0  501    0  0.00000000000E+00  0.00000000000E+00 -0.14660026823E+04  0.14660026823E+04  0.25500000920E-02 0. -1.
    10030    2    1    2    0    0  0.00000000000E+00  0.00000000000E+00  0.14463325479E+03  0.30766386193E+04  0.30732371232E+04 0.  0.
        2    1    3    3  502    0 -0.62374600307E+03 -0.12210314563E+04  0.76678443759E+03  0.15709663482E+04  0.25500000920E-02 0. -1.
       -2    1    3    3    0  502  0.62374600307E+03  0.12210314563E+04 -0.62215118281E+03  0.15056722711E+04  0.25500000920E-02 0.  1.
</event>
<event>
 5   0  0.3041329E-06  0.3014227E+04  0.7818609E-02  0.8239680E-01
        2   -1    0    0  501    0  0.00000000000E+00  0.00000000000E+00  0.13953038522E+04  0.13953038522E+04  0.25500000920E-02 0. -1.
       -2   -1    0    0    0  501  0.00000000000E+00  0.00000000000E+00 -0.16278823927E+04  0.16278823927E+04  0.25500000920E-02 0.  1.
    10030    2    1    2    0    0  0.00000000000E+00  0.00000000000E+00 -0.23257854050E+03  0.30231862448E+04  0.30142266493E+04 0.  0.
        2    1    3    3  502    0  0.10024345974E+04 -0.47347146705E+03  0.90769608595E+03  0.14328162955E+04  0.25500000920E-02 0. -1.
       -2    1    3    3    0  502 -0.10024345974E+04  0.47347146705E+03 -0.11402746264E+04  0.15903699494E+04  0.25500000920E-02 0.  1.
</event>
<event>
 5   0  0.1089337E-06  0.3479038E+04  0.7818609E-02  0.8118776E-01
       -1   -1    0    0    0  501  0.00000000000E+00  0.00000000000E+00  0.14717410576E+04  0.14717410576E+04  0.50400001928E-02 0. -1.
        1   -1    0    0  501    0  0.00000000000E+00  0.00000000000E+00 -0.20560184912E+04  0.20560184912E+04  0.50400001928E-02 0.  1.
    10030    2    1    2    0    0  0.00000000000E+00  0.00000000000E+00 -0.58427743364E+03  0.35277595488E+04  0.34790382744E+04 0.  0.
        2    1    3    3  502    0  0.68211456126E+03 -0.97963367062E+03  0.99087296392E+03  0.15513837803E+04  0.25500000920E-02 0. -1.
       -2    1    3    3    0  502 -0.68211456126E+03  0.97963367062E+03 -0.15751503976E+04  0.19763757685E+04  0.25500000920E-02 0.  1.
</event>
<event>
 5   0  0.1908726E-06  0.3637019E+04  0.7818609E-02  0.8082064E-01
        2   -1    0    0  501    0  0.00000000000E+00  0.00000000000E+00  0.25516874348E+04  0.25516874348E+04  0.25500000920E-02 0.  1.
       -2   -1    0    0    0  501  0.00000000000E+00  0.00000000000E+00 -0.12959956850E+04  0.12959956850E+04  0.25500000920E-02 0. -1.
    10030    2    1    2    0    0  0.00000000000E+00  0.00000000000E+00  0.12556917498E+04  0.38476831198E+04  0.36370185070E+04 0.  0.
        5    1    3    3  502    0  0.67437461746E+03  0.65115692128E+03  0.22763616031E+04  0.24618348236E+04  0.46999998093E+01 0.  1.
       -5    1    3    3    0  502 -0.67437461746E+03 -0.65115692128E+03 -0.10206698532E+04  0.13858482962E+04  0.46999998093E+01 0. -1.
</event>
<event>
 5   0  0.1102175E-06  0.3073131E+04  0.7818609E-02  0.8223151E-01
        1   -1    0    0  501    0  0.00000000000E+00  0.00000000000E+00  0.22445665710E+04  0.22445665710E+04  0.50400001928E-02 0. -1.
       -1   -1    0    0    0  501  0.00000000000E+00  0.00000000000E+00 -0.10518885092E+04  0.10518885092E+04  0.50400001928E-02 0.  1.
    10030    2    1    2    0    0  0.00000000000E+00  0.00000000000E+00  0.11926780618E+04  0.32964550802E+04  0.30731311616E+04 0.  0.
        5    1    3    3  502    0  0.50816245250E+03 -0.10471354902E+04 -0.47969899374E+03  0.12589102540E+04  0.46999998093E+01 0.  1.
       -5    1    3    3    0  502 -0.50816245250E+03  0.10471354902E+04  0.16723770555E+04  0.20375448262E+04  0.46999998093E+01 0. -1.
</event>
<event>
 5   0  0.1130707E-06  0.3517664E+04  0.7818609E-02  0.8109617E-01
        1   -1    0    0  501    0  0.00000000000E+00  0.00000000000E+00  0.20825537704E+04  0.20825537704E+04  0.50400001928E-02 0.  1.
       -1   -1    0    0    0  501  0.00000000000E+00  0.00000000000E+00 -0.14854309350E+04  0.14854309350E+04  0.50400001928E-02 0. -1.
    10030    2    1    2    0    0  0.00000000000E+00  0.00000000000E+00  0.59712283544E+03  0.35679847054E+04  0.35176638806E+04 0.  0.
        3    1    3    3  502    0 -0.94584106389E+03 -0.12772972763E+04 -0.46546434588E+03  0.16561282311E+04  0.10100000352E+00 0. -1.
       -3    1    3    3    0  502  0.94584106389E+03  0.12772972763E+04  0.10625871813E+04  0.19118564743E+04  0.10100000352E+00 0.  1.
</event>
<event>
 5   0  0.1782660E-06  0.3102221E+04  0.7818609E-02  0.8215129E-01
        2   -1    0    0  501    0  0.00000000000E+00  0.00000000000E+00  0.11525196421E+04  0.11525196421E+04  0.25500000920E-02 0. -1.
       -2   -1    0    0    0  501  0.00000000000E+00  0.00000000000E+00 -0.20875513151E+04  0.20875513151E+04  0.25500000920E-02 0.  1.
    10030    2    1    2    0    0  0.00000000000E+00  0.00000000000E+00 -0.93503167295E+03  0.32400709572E+04  0.31022210718E+04 0.  0.
        4    1    3    3  502    0  0.75244825769E+03  0.13073211795E+04 -0.84506926856E+03  0.17289912459E+04  0.12699999809E+01 0.  1.
       -4    1    3    3    0  502 -0.75244825769E+03 -0.13073211795E+04 -0.89962404389E+02  0.15110797113E+04  0.12699999809E+01 0. -1.
</event>
<event>
 5   0  0.1110956E-06  0.3417967E+04  0.7818609E-02  0.8133511E-01
        1   -1    0    0  501    0  0.00000000000E+00  0.00000000000E+00  0.17268846799E+04  0.17268846799E+04  0.50400001928E-02 0.  1.
       -1   -1    0    0    0  501  0.00000000000E+00  0.00000000000E+00 -0.16912683313E+04  0.16912683313E+04  0.50400001928E-02 0. -1.
    10030    2    1    2    0    0  0.00000000000E+00  0.00000000000E+00  0.35616348553E+02  0.34181530112E+04  0.34179674492E+04 0.  0.
        1    1    3    3  502    0  0.12129035464E+01  0.14167551467E+04 -0.93797837987E+03  0.16991174350E+04  0.50400001928E-02 0. -1.
       -1    1    3    3    0  502 -0.12129035464E+01 -0.14167551467E+04  0.97359472842E+03  0.17190355762E+04  0.50400001928E-02 0.  1.
</event>
<event>
 5   0  0.3378848E-06  0.3417059E+04  0.7818609E-02  0.8133732E-01
        2   -1    0    0  501    0  0.00000000000E+00  0.00000000000E+00  0.14013020452E+04  0.14013020452E+04  0.25500000920E-02 0.  1.
       -2   -1    0    0    0  501  0.00000000000E+00  0.00000000000E+00 -0.20831142916E+04  0.20831142916E+04  0.25500000920E-02 0. -1.
    10030    2    1    2    0    0  0.00000000000E+00  0.00000000000E+00 -0.68181224644E+03  0.34844163369E+04  0.34170585698E+04 0.  0.
        1    1    3    3  502    0 -0.71022013166E+03  0.14792002380E+04 -0.82634304898E+03  0.18371959107E+04  0.50400001928E-02 0. -1.
       -1    1    3    3    0  502  0.71022013166E+03 -0.14792002380E+04  0.14453080254E+03  0.16472204262E+04  0.50400001928E-02 0.  1.
</event>
<event>
 5   0  0.1110956E-06  0.3494207E+04  0.7818609E-02  0.8115164E-01
       -1   -1    0    0    0  501  0.00000000000E+00  0.00000000000E+00  0.11198932443E+04  0.11198932443E+04  0.50400001928E-02 0. -1.
        1   -1    0    0  501    0  0.00000000000E+00  0.00000000000E+00 -0.27255909498E+04  0.27255909498E+04  0.50400001928E-02 0.  1.
    10030    2    1    2    0    0  0.00000000000E+00  0.00000000000E+00 -0.16056977055E+04  0.38454841940E+04  0.34942071440E+04 0.  0.
        1    1    3    3  502    0  0.11881531197E+04  0.12256276976E+04 -0.12124177420E+04  0.20937592674E+04  0.50400001928E-02 0.  1.
       -1    1    3    3    0  502 -0.11881531197E+04 -0.12256276976E+04 -0.39327996346E+03  0.17517249266E+04  0.50400001928E-02 0. -1.
</event>
<event>
 5   0  0.1125196E-06  0.3300193E+04  0.7818609E-02  0.8162846E-01
        1   -1    0    0  501    0  0.00000000000E+00  0.00000000000E+00  0.19310236941E+04  0.19310236942E+04  0.50400001928E-02 0. -1.
       -1   -1    0    0    0  501  0.00000000000E+00  0.00000000000E+00 -0.14100384879E+04  0.14100384879E+04  0.50400001928E-02 0.  1.
    10030    2    1    2    0    0  0.00000000000E+00  0.00000000000E+00  0.52098520620E+03  0.33410621821E+04  0.33001925580E+04 0.  0.
        4    1    3    3  502    0  0.46340614050E+03 -0.16467638567E+03 -0.13341174854E+04  0.14218771539E+04  0.12699999809E+01 0.  1.
       -4    1    3    3    0  502 -0.46340614050E+03  0.16467638567E+03  0.18551026916E+04  0.19191850282E+04  0.12699999809E+01 0. -1.
</event>
<event>
 5   0  0.1125196E-06  0.2177730E+04  0.7818609E-02  0.8527755E-01
        1   -1    0    0  501    0  0.00000000000E+00  0.00000000000E+00  0.71534161621E+03  0.71534161623E+03  0.50400001928E-02 0.  1.
       -1   -1    0    0    0  501  0.00000000000E+00  0.00000000000E+00 -0.16574283717E+04  0.16574283717E+04  0.50400001928E-02 0. -1.
    10030    2    1    2    0    0  0.00000000000E+00  0.00000000000E+00 -0.94208675547E+03  0.23727699879E+04  0.21777304610E+04 0.  0.
        4    1    3    3  502    0  0.83625456350E+03 -0.69702255238E+03 -0.49450675693E+03  0.11957009154E+04  0.12699999809E+01 0.  1.
       -4    1    3    3    0  502 -0.83625456350E+03  0.69702255238E+03 -0.44757999854E+03  0.11770690725E+04  0.12699999809E+01 0. -1.
</event>
<event>
 5   0  0.1130707E-06  0.2948151E+04  0.7818609E-02  0.8258694E-01
        1   -1    0    0  501    0  0.00000000000E+00  0.00000000000E+00  0.19692403182E+04  0.19692403182E+04  0.50400001928E-02 0.  1.
       -1   -1    0    0    0  501  0.00000000000E+00  0.00000000000E+00 -0.11034196351E+04  0.11034196351E+04  0.50400001928E-02 0. -1.
    10030    2    1    2    0    0  0.00000000000E+00  0.00000000000E+00  0.86582068311E+03  0.30726599534E+04  0.29481509008E+04 0.  0.
        3    1    3    3  502    0 -0.96234983473E+03  0.33948075009E+03 -0.67575023034E+03  0.12239292333E+04  0.10100000352E+00 0. -1.
       -3    1    3    3    0  502  0.96234983473E+03 -0.33948075009E+03  0.15415709134E+04  0.18487307201E+04  0.10100000352E+00 0.  1.
</event>
<event>
 5   0  0.1782660E-06  0.2657395E+04  0.7818609E-02  0.8348963E-01
       -2   -1    0    0    0  501  0.00000000000E+00  0.00000000000E+00  0.12572685709E+04  0.12572685709E+04  0.25500000920E-02 0.  1.
        2   -1    0    0  501    0  0.00000000000E+00  0.00000000000E+00 -0.14041849229E+04  0.14041849229E+04  0.25500000920E-02 0. -1.
    10030    2    1    2    0    0  0.00000000000E+00  0.00000000000E+00 -0.14691635196E+03  0.26614534938E+04  0.26573953950E+04 0.  0.
        4    1    3    3  502    0  0.85292682747E+03 -0.95277128014E+03 -0.43481197415E+03  0.13506740358E+04  0.12699999809E+01 0. -1.
       -4    1    3    3    0  502 -0.85292682747E+03  0.95277128014E+03  0.28789562219E+03  0.13107794580E+04  0.12699999809E+01 0.  1.
</event>
<event>
 5   0  0.3378848E-06  0.3548786E+04  0.7818609E-02  0.8102325E-01
       -2   -1    0    0    0  501  0.00000000000E+00  0.00000000000E+00  0.19448931592E+04  0.19448931592E+04  0.25500000920E-02 0.  1.
        2   -1    0    0  501    0  0.00000000000E+00  0.00000000000E+00 -0.16188401774E+04  0.16188401774E+04  0.25500000920E-02 0. -1.
    10030    2    1    2    0    0  0.00000000000E+00  0.00000000000E+00  0.32605298180E+03  0.35637333366E+04  0.35487863767E+04 0.  0.
        1    1    3    3  502    0 -0.73992013067E+03  0.11719718834E+04  0.12756058899E+04  0.18836587488E+04  0.50400001928E-02 0.  1.
       -1    1    3    3    0  502  0.73992013067E+03 -0.11719718834E+04 -0.94955290813E+03  0.16800745878E+04  0.50400001928E-02 0. -1.
</event>
<event>
 5   0  0.3041329E-06  0.2841864E+04  0.7818609E-02  0.8290388E-01
        2   -1    0    0  501    0  0.00000000000E+00  0.00000000000E+00  0.12543638405E+04  0.12543638405E+04  0.25500000920E-02 0.  1.
       -2   -1    0    0    0  501  0.00000000000E+00  0.00000000000E+00 -0.16096188715E+04  0.16096188715E+04  0.25500000920E-02 0. -1.
    10030    2    1    2    0    0  0.00000000000E+00  0.00000000000E+00 -0.35525503098E+03  0.28639827120E+04  0.28418639724E+04 0.  0.
        2    1    3    3  502    0 -0.22445971954E+03  0.86257393507E+03  0.93761640187E+03  0.12936539244E+04  0.25500000920E-02 0.  1.
       -2    1    3    3    0  502  0.22445971954E+03 -0.86257393507E+03 -0.12928714329E+04  0.15703287876E+04  0.25500000920E-02 0. -1.
</event>
<event>
 5   0  0.1782660E-06  0.3527703E+04  0.7818609E-02  0.8107256E-01
        2   -1    0    0  501    0  0.00000000000E+00  0.00000000000E+00  0.21760574681E+04  0.21760574681E+04  0.25500000920E-02 0. -1.
       -2   -1    0    0    0  501  0.00000000000E+00  0.00000000000E+00 -0.14297288396E+04  0.14297288396E+04  0.25500000920E-02 0.  1.
    10030    2    1    2    0    0  0.00000000000E+00  0.00000000000E+00  0.74632862854E+03  0.36057863077E+04  0.35277030026E+04 0.  0.
        4    1    3    3  502    0 -0.43344541421E+03  0.74067484632E+03 -0.12019497629E+04  0.14768747410E+04  0.12699999809E+01 0.  1.
       -4    1    3    3    0  502  0.43344541421E+03 -0.74067484632E+03  0.19482783915E+04  0.21289115667E+04  0.12699999809E+01 0. -1.
</event>
<event>
 5   0  0.2565004E-06  0.2095467E+04  0.7818609E-02  0.8563243E-01
        2   -1    0    0  501    0  0.00000000000E+00  0.00000000000E+00  0.15278770916E+04  0.15278770916E+04  0.25500000920E-02 0.  1.
       -2   -1    0    0    0  501  0.00000000000E+00  0.00000000000E+00 -0.71847735368E+03  0.71847735368E+03  0.25500000920E-02 0. -1.
    10030    2    1    2    0    0  0.00000000000E+00  0.00000000000E+00  0.80939973793E+03  0.22463544453E+04  0.20954666206E+04 0.  0.
        3    1    3    3  502    0 -0.30823647029E+03 -0.95849442671E+03  0.93958786725E+02  0.10112119221E+04  0.10100000352E+00 0. -1.
       -3    1    3    3    0  502  0.30823647029E+03  0.95849442671E+03  0.71544095120E+03  0.12351425232E+04  0.10100000352E+00 0.  1.
</event>
<event>
 5   0  0.3378848E-06  0.3488934E+04  0.7818609E-02  0.8116418E-01
       -2   -1    0    0    0  501  0.00000000000E+00  0.00000000000E+00  0.13408975951E+04  0.13408975951E+04  0.25500000920E-02 0.  1.
        2   -1    0    0  501    0  0.00000000000E+00  0.00000000000E+00 -0.22694981852E+04  0.22694981852E+04  0.25500000920E-02 0. -1.
    10030    2    1    2    0    0  0.00000000000E+00  0.00000000000E+00 -0.92860059003E+03  0.36103957803E+04  0.34889337389E+04 0.  0.
        1    1    3    3  502    0  0.33874809773E+03  0.65951756275E+03  0.11697390439E+04  0.13849198967E+04  0.50400001928E-02 0.  1.
       -1    1    3    3    0  502 -0.33874809773E+03 -0.65951756275E+03 -0.20983396339E+04  0.22254758836E+04  0.50400001928E-02 0. -1.
</event>
<event>
 5   0  0.1125196E-06  0.3270572E+04  0.7818609E-02  0.8170424E-01
       -1   -1    0    0    0  501  0.00000000000E+00  0.00000000000E+00  0.12321927177E+04  0.12321927177E+04  0.50400001928E-02 0.  1.
        1   -1    0    0  501    0  0.00000000000E+00  0.00000000000E+00 -0.21702454003E+04  0.21702454003E+04  0.50400001928E-02 0. -1.
    10030    2    1    2    0    0  0.00000000000E+00  0.00000000000E+00 -0.93805268267E+03  0.34024381180E+04  0.32705721688E+04 0.  0.
        4    1    3    3  502    0 -0.39216080353E+03  0.74191060744E+03  0.99110769405E+03  0.12986598936E+04  0.12699999809E+01 0.  1.
       -4    1    3    3    0  502  0.39216080353E+03 -0.74191060744E+03 -0.19291603767E+04  0.21037782244E+04  0.12699999809E+01 0. -1.
</event>
<event>
 5   0  0.1110956E-06  0.3330396E+04  0.7818609E-02  0.8155204E-01
        1   -1    0    0  501    0  0.00000000000E+00  0.00000000000E+00  0.21009657994E+04  0.21009657994E+04  0.50400001928E-02 0.  1.
       -1   -1    0    0    0  501  0.00000000000E+00  0.00000000000E+00 -0.13198145284E+04  0.13198145284E+04  0.50400001928E-02 0. -1.
    10030    2    1    2    0    0  0.00000000000E+00  0.00000000000E+00  0.78115127104E+03  0.34207803278E+04  0.33303964843E+04 0.  0.
        1    1    3    3  502    0 -0.43282991853E+03  0.10873009140E+04 -0.82619194595E+03  0.14325355659E+04  0.50400001928E-02 0. -1.
       -1    1    3    3    0  502  0.43282991853E+03 -0.10873009140E+04  0.16073432170E+04  0.19882447619E+04  0.50400001928E-02 0.  1.
</event>
<event>
 5   0  0.1102175E-06  0.2288086E+04  0.7818609E-02  0.8482633E-01
        1   -1    0    0  501    0  0.00000000000E+00  0.00000000000E+00  0.19150004219E+04  0.19150004219E+04  0.50400001928E-02 0. -1.
       -1   -1    0    0    0  501  0.00000000000E+00  0.00000000000E+00 -0.68346431954E+03  0.68346431956E+03  0.50400001928E-02 0.  1.
    10030    2    1    2    0    0  0.00000000000E+00  0.00000000000E+00  0.12315361024E+04  0.25984647415E+04  0.22880860651E+04 0.  0.
        5    1    3    3  502    0 -0.11053211549E+04  0.74675440250E+01  0.95077852108E+03  0.14580097756E+04  0.46999998093E+01 0.  1.
       -5    1    3    3    0  502  0.11053211549E+04 -0.74675440250E+01  0.28075758129E+03  0.11404549659E+04  0.46999998093E+01 0. -1.
</event>
<event>
 5   0  0.1110956E-06  0.3495337E+04  0.7818609E-02  0.8114896E-01
        1   -1    0    0  501    0  0.00000000000E+00  0.00000000000E+00  0.20848465645E+04  0.20848465645E+04  0.50400001928E-02 0.  1.
       -1   -1    0    0    0  501  0.00000000000E+00  0.00000000000E+00 -0.14650214921E+04  0.14650214921E+04  0.50400001928E-02 0. -1.
    10030    2    1    2    0    0  0.00000000000E+00  0.00000000000E+00  0.61982507236E+03  0.35498680566E+04  0.34953369078E+04 0.  0.
        1    1    3    3  502    0  0.19048326436E+03 -0.63249179663E+03 -0.13333587128E+04  0.14880104851E+04  0.50400001928E-02 0. -1.
       -1    1    3    3    0  502 -0.19048326436E+03  0.63249179663E+03  0.19531837851E+04  0.20618575715E+04  0.50400001928E-02 0.  1.
</event>
<event>
 5   0  0.1110956E-06  0.2277962E+04  0.7818609E-02  0.8486661E-01
        1   -1    0    0  501    0  0.00000000000E+00  0.00000000000E+00  0.22042004026E+04  0.22042004026E+04  0.50400001928E-02 0. -1.
       -1   -1    0    0    0  501  0.00000000000E+00  0.00000000000E+00 -0.58854807366E+03  0.58854807368E+03  0.50400001928E-02 0.  1.
    10030    2    1    2    0    0  0.00000000000E+00  0.00000000000E+00  0.16156523289E+04  0.27927484763E+04  0.22779621603E+04 0.  0.
        1    1    3    3  502    0  0.63881996791E+02 -0.11370661395E+04  0.78740013618E+03  0.13845574346E+04  0.50400001928E-02 0.  1.
       -1    1    3    3    0  502 -0.63881996791E+02  0.11370661395E+04  0.82825219273E+03  0.14081910417E+04  0.50400001928E-02 0. -1.
</event>
<event>
 5   0  0.3041329E-06  0.3365331E+04  0.7818609E-02  0.8146468E-01
       -2   -1    0    0    0  501  0.00000000000E+00  0.00000000000E+00  0.15471651770E+04  0.15471651770E+04  0.25500000920E-02 0.  1.
        2   -1    0    0  501    0  0.00000000000E+00  0.00000000000E+00 -0.18300326686E+04  0.18300326686E+04  0.25500000920E-02 0. -1.
    10030    2    1    2    0    0  0.00000000000E+00  0.00000000000E+00 -0.28286749156E+03  0.33771978456E+04  0.33653307817E+04 0.  0.
        2    1    3    3  502    0 -0.38078658294E+02  0.86898906778E+03  0.13040519979E+04  0.15675278618E+04  0.25500000920E-02 0.  1.
       -2    1    3    3    0  502  0.38078658294E+02 -0.86898906778E+03 -0.15869194895E+04  0.18096699838E+04  0.25500000920E-02 0. -1.
</event>
<event>
 5   0  0.3378848E-06  0.3646246E+04  0.7818609E-02  0.8079980E-01
        2   -1    0    0  501    0  0.00000000000E+00  0.00000000000E+00  0.23893509513E+04  0.23893509513E+04  0.25500000920E-02 0. -1.
       -2   -1    0    0    0  501  0.00000000000E+00  0.00000000000E+00 -0.13910793593E+04  0.13910793593E+04  0.25500000920E-02 0.  1.
    10030    2    1    2    0    0  0.00000000000E+00  0.00000000000E+00  0.99827159202E+03  0.37804303106E+04  0.36462456256E+04 0.  0.
        1    1    3    3  502    0 -0.10365170043E+04  0.91013007450E+03  0.17350930161E+04  0.22165856688E+04  0.50400001928E-02 0. -1.
       -1    1    3    3    0  502  0.10365170043E+04 -0.91013007450E+03 -0.73682142407E+03  0.15638446418E+04  0.50400001928E-02 0.  1.
</event>
<event>
 5   0  0.1125196E-06  0.2674227E+04  0.7818609E-02  0.8343416E-01
        1   -1    0    0  501    0  0.00000000000E+00  0.00000000000E+00  0.87704609697E+03  0.87704609698E+03  0.50400001928E-02 0. -1.
       -1   -1    0    0    0  501  0.00000000000E+00  0.00000000000E+00 -0.20385162576E+04  0.20385162576E+04  0.50400001928E-02 0.  1.
    10030    2    1    2    0    0  0.00000000000E+00  0.00000000000E+00 -0.11614701606E+04  0.29155623546E+04  0.26742271612E+04 0.  0.
        4    1    3    3  502    0  0.87987468674E+03 -0.28598313634E+03 -0.16332055724E+04  0.18770529756E+04  0.12699999809E+01 0.  1.
       -4    1    3    3    0  502 -0.87987468674E+03  0.28598313634E+03  0.47173541176E+03  0.10385093790E+04  0.12699999809E+01 0. -1.
</event>
<event>
 5   0  0.1908726E-06  0.3493536E+04  0.7818609E-02  0.8115324E-01
        2   -1    0    0  501    0  0.00000000000E+00  0.00000000000E+00  0.29763086437E+04  0.29763086437E+04  0.25500000920E-02 0. -1.
       -2   -1    0    0    0  501  0.00000000000E+00  0.00000000000E+00 -0.10251616933E+04  0.10251616933E+04  0.25500000920E-02 0.  1.
    10030    2    1    2    0    0  0.00000000000E+00  0.00000000000E+00  0.19511469504E+04  0.40014703370E+04  0.34935355209E+04 0.  0.
        5    1    3    3  502    0 -0.82460775351E+03  0.60933385653E+01 -0.78816792449E+03  0.11407216326E+04  0.46999998093E+01 0.  1.
       -5    1    3    3    0  502  0.82460775351E+03 -0.60933385653E+01  0.27393148749E+04  0.28607487044E+04  0.46999998093E+01 0. -1.
</event>
<event>
 5   0  0.3041329E-06  0.2632742E+04  0.7818609E-02  0.8357164E-01
        2   -1    0    0  501    0  0.00000000000E+00  0.00000000000E+00  0.20225689660E+04  0.20225689660E+04  0.25500000920E-02 0. -1.
       -2   -1    0    0    0  501  0.00000000000E+00  0.00000000000E+00 -0.85674850968E+03  0.85674850969E+03  0.25500000920E-02 0.  1.
    10030    2    1    2    0    0  0.00000000000E+00  0.00000000000E+00  0.11658204563E+04  0.28793174757E+04  0.26327422566E+04 0.  0.
        2    1    3    3  502    0 -0.52784766520E+03 -0.59849725581E+03 -0.56204533272E+03  0.97607227136E+03  0.25500000920E-02 0.  1.
       -2    1    3    3    0  502  0.52784766520E+03  0.59849725581E+03  0.17278657890E+04  0.19032452043E+04  0.25500000920E-02 0. -1.
</event>
<event>
 5   0  0.1908726E-06  0.3401036E+04  0.7818609E-02  0.8137652E-01
        2   -1    0    0  501    0  0.00000000000E+00  0.00000000000E+00  0.17574148980E+04  0.17574148980E+04  0.25500000920E-02 0. -1.
       -2   -1    0    0    0  501  0.00000000000E+00  0.00000000000E+00 -0.16454634064E+04  0.16454634064E+04  0.25500000920E-02 0.  1.
    10030    2    1    2    0    0  0.00000000000E+00  0.00000000000E+00  0.11195149166E+03  0.34028783044E+04  0.34010362565E+04 0.  0.
        5    1    3    3  502    0 -0.87794794775E+03 -0.11245669620E+04 -0.86988827148E+03  0.16709790979E+04  0.46999998093E+01 0.  1.
       -5    1    3    3    0  502  0.87794794775E+03  0.11245669620E+04  0.98183976314E+03  0.17318992065E+04  0.46999998093E+01 0. -1.
</event>
<event>
 5   0  0.1130707E-06  0.2317932E+04  0.7818609E-02  0.8470884E-01
       -1   -1    0    0    0  501  0.00000000000E+00  0.00000000000E+00  0.11103731418E+04  0.11103731419E+04  0.50400001928E-02 0. -1.
        1   -1    0    0  501    0  0.00000000000E+00  0.00000000000E+00 -0.12096853232E+04  0.12096853232E+04  0.50400001928E-02 0.  1.
    10030    2    1    2    0    0  0.00000000000E+00  0.00000000000E+00 -0.99312181312E+02  0.23200584650E+04  0.23179319170E+04 0.  0.
        3    1    3    3  502    0  0.21572930734E+03 -0.61653664554E+03 -0.10078982436E+04  0.12010476464E+04  0.10100000352E+00 0.  1.
       -3    1    3    3    0  502 -0.21572930734E+03  0.61653664554E+03  0.90858606229E+03  0.11190108186E+04  0.10100000352E+00 0. -1.
</event>
<event>
 5   0  0.1782660E-06  0.3544937E+04  0.7818609E-02  0.8103222E-01
       -2   -1    0    0    0  501  0.00000000000E+00  0.00000000000E+00  0.21900401018E+04  0.21900401018E+04  0.25500000920E-02 0.  1.
        2   -1    0    0  501    0  0.00000000000E+00  0.00000000000E+00 -0.14345149676E+04  0.14345149676E+04  0.25500000920E-02 0. -1.
    10030    2    1    2    0    0  0.00000000000E+00  0.00000000000E+00  0.75552513424E+03  0.36245550694E+04  0.35449374074E+04 0.  0.
        4    1    3    3  502    0  0.52421790825E+03 -0.53126574591E+03  0.20215379187E+04  0.21549164433E+04  0.12699999809E+01 0.  1.
       -4    1    3    3    0  502 -0.52421790825E+03  0.53126574591E+03 -0.12660127844E+04  0.14696386261E+04  0.12699999809E+01 0. -1.
</event>
<event>
 5   0  0.1908726E-06  0.2142643E+04  0.7818609E-02  0.8542688E-01
       -2   -1    0    0    0  501  0.00000000000E+00  0.00000000000E+00  0.68337549133E+03  0.68337549134E+03  0.25500000920E-02 0. -1.
        2   -1    0    0  501    0  0.00000000000E+00  0.00000000000E+00 -0.16795005973E+04  0.16795005973E+04  0.25500000920E-02 0.  1.
    10030    2    1    2    0    0  0.00000000000E+00  0.00000000000E+00 -0.99612510598E+03  0.23628760887E+04  0.21426428035E+04 0.  0.
        5    1    3    3  502    0  0.68989783011E+03  0.71490955113E+03 -0.94007579959E+03  0.13677789592E+04  0.46999998093E+01 0.  1.
       -5    1    3    3    0  502 -0.68989783011E+03 -0.71490955113E+03 -0.56049306393E+02  0.99509712945E+03  0.46999998093E+01 0. -1.
</event>
<event>
 5   0  0.1125196E-06  0.3376788E+04  0.7818609E-02  0.8143627E-01
        1   -1    0    0  501    0  0.00000000000E+00  0.00000000000E+00  0.25357781301E+04  0.25357781301E+04  0.50400001928E-02 0. -1.
       -1   -1    0    0    0  501  0.00000000000E+00  0.00000000000E+00 -0.11241813563E+04  0.11241813563E+04  0.50400001928E-02 0.  1.
    10030    2    1    2    0    0  0.00000000000E+00  0.00000000000E+00  0.14115967738E+04  0.36599594865E+04  0.33767881175E+04 0.  0.
        4    1    3    3  502    0 -0.77738060453E+03  0.14949185631E+04  0.58921045430E+03  0.17850133576E+04  0.12699999809E+01 0. -1.
       -4    1    3    3    0  502  0.77738060453E+03 -0.14949185631E+04  0.82238631951E+03  0.18749461288E+04  0.12699999809E+01 0.  1.
</event>
<event>
 5   0  0.1908726E-06  0.2523129E+04  0.7818609E-02  0.8394792E-01
       -2   -1    0    0    0  501  0.00000000000E+00  0.00000000000E+00  0.80006002214E+03  0.80006002215E+03  0.25500000920E-02 0.  1.
        2   -1    0    0  501    0  0.00000000000E+00  0.00000000000E+00 -0.19892822204E+04  0.19892822204E+04  0.25500000920E-02 0. -1.
    10030    2    1    2    0    0  0.00000000000E+00  0.00000000000E+00 -0.11892221982E+04  0.27893422425E+04  0.25231291503E+04 0.  0.
        5    1    3    3  502    0 -0.20652039191E+03 -0.68857575607E+02  0.77912844757E+03  0.80898409490E+03  0.46999998093E+01 0.  1.
       -5    1    3    3    0  502  0.20652039191E+03  0.68857575607E+02 -0.19683506458E+04  0.19803581476E+04  0.46999998093E+01 0. -1.
</event>
<event>
 5   0  0.1782660E-06  0.3570875E+04  0.7818609E-02  0.8097196E-01
       -2   -1    0    0    0  501  0.00000000000E+00  0.00000000000E+00  0.22739710935E+04  0.22739710935E+04  0.25500000920E-02 0. -1.
        2   -1    0    0  501    0  0.00000000000E+00  0.00000000000E+00 -0.14018589408E+04  0.14018589408E+04  0.25500000920E-02 0.  1.
    10030    2    1    2    0    0  0.00000000000E+00  0.00000000000E+00  0.87211215270E+03  0.36758300344E+04  0.35708747996E+04 0.  0.
        4    1    3    3  502    0  0.15722946810E+04 -0.78247502981E+03  0.76707782080E+03  0.19164518601E+04  0.12699999809E+01 0. -1.
       -4    1    3    3    0  502 -0.15722946810E+04  0.78247502981E+03  0.10503433191E+03  0.17593781742E+04  0.12699999809E+01 0.  1.
</event>
<event>
 5   0  0.2565004E-06  0.3598723E+04  0.7818609E-02  0.8090784E-01
        2   -1    0    0  501    0  0.00000000000E+00  0.00000000000E+00  0.16503982740E+04  0.16503982740E+04  0.25500000920E-02 0.  1.
       -2   -1    0    0    0  501  0.00000000000E+00  0.00000000000E+00 -0.19617695436E+04  0.19617695436E+04  0.25500000920E-02 0. -1.
    10030    2    1    2    0    0  0.00000000000E+00  0.00000000000E+00 -0.31137126963E+03  0.36121678176E+04  0.35987225893E+04 0.  0.
        3    1    3    3  502    0 -0.98571066682E+03  0.14985915094E+04 -0.12678676701E+02  0.17937566138E+04  0.10100000352E+00 0. -1.
       -3    1    3    3    0  502  0.98571066682E+03 -0.14985915094E+04 -0.29869259293E+03  0.18184112037E+04  0.10100000352E+00 0.  1.
</event>
<event>
 5   0  0.1110956E-06  0.3518038E+04  0.7818609E-02  0.8109528E-01
        1   -1    0    0  501    0  0.00000000000E+00  0.00000000000E+00  0.18778679037E+04  0.18778679037E+04  0.50400001928E-02 0. -1.
       -1   -1    0    0    0  501  0.00000000000E+00  0.00000000000E+00 -0.16476918752E+04  0.16476918752E+04  0.50400001928E-02 0.  1.
    10030    2    1    2    0    0  0.00000000000E+00  0.00000000000E+00  0.23017602854E+03  0.35255597789E+04  0.35180379121E+04 0.  0.
        1    1    3    3  502    0 -0.27018739661E+03  0.77487970699E+01 -0.16267555232E+04  0.16490587635E+04  0.50400001928E-02 0.  1.
       -1    1    3    3    0  502  0.27018739661E+03 -0.77487970699E+01  0.18569315517E+04  0.18765010155E+04  0.50400001928E-02 0. -1.
</event>
<event>
 5   0  0.1782660E-06  0.3436040E+04  0.7818609E-02  0.8129117E-01
        2   -1    0    0  501    0  0.00000000000E+00  0.00000000000E+00  0.19722409052E+04  0.19722409052E+04  0.25500000920E-02 0.  1.
       -2   -1    0    0    0  501  0.00000000000E+00  0.00000000000E+00 -0.14965676733E+04  0.14965676733E+04  0.25500000920E-02 0. -1.
    10030    2    1    2    0    0  0.00000000000E+00  0.00000000000E+00  0.47567323192E+03  0.34688085785E+04  0.34360395706E+04 0.  0.
        4    1    3    3  502    0 -0.12639385885E+04 -0.92099077212E+03 -0.48016031142E+03  0.16359462997E+04  0.12699999809E+01 0. -1.
       -4    1    3    3    0  502  0.12639385885E+04  0.92099077212E+03  0.95583354333E+03  0.18328622789E+04  0.12699999809E+01 0.  1.
</event>
<event>
 5   0  0.1089337E-06  0.2367050E+04  0.7818609E-02  0.8451944E-01
        1   -1    0    0  501    0  0.00000000000E+00  0.00000000000E+00  0.20864257329E+04  0.20864257329E+04  0.50400001928E-02 0.  1.
       -1   -1    0    0    0  501  0.00000000000E+00  0.00000000000E+00 -0.67135443647E+03  0.67135443649E+03  0.50400001928E-02 0. -1.
    10030    2    1    2    0    0  0.00000000000E+00  0.00000000000E+00  0.14150712965E+04  0.27577801694E+04  0.23670497859E+04 0.  0.
        2    1    3    3  502    0 -0.24136701354E+03 -0.17077315805E+00 -0.64237508122E+03  0.68622431418E+03  0.25500000920E-02 0. -1.
       -2    1    3    3    0  502  0.24136701354E+03  0.17077315805E+00  0.20574463777E+04  0.20715558553E+04  0.25500000920E-02 0.  1.
</event>
<event>
 5   0  0.1130707E-06  0.3528858E+04  0.7818609E-02  0.8106985E-01
        1   -1    0    0  501    0  0.00000000000E+00  0.00000000000E+00  0.19573319250E+04  0.19573319250E+04  0.50400001928E-02 0.  1.
       -1   -1    0    0    0  501  0.00000000000E+00  0.00000000000E+00 -0.15905375846E+04  0.15905375846E+04  0.50400001928E-02 0. -1.
    10030    2    1    2    0    0  0.00000000000E+00  0.00000000000E+00  0.36679434039E+03  0.35478695096E+04  0.35288581679E+04 0.  0.
        3    1    3    3  502    0  0.39544096831E+03  0.10621203638E+04  0.15429905196E+04  0.19144954898E+04  0.10100000352E+00 0.  1.
       -3    1    3    3    0  502 -0.39544096831E+03 -0.10621203638E+04 -0.11761961792E+04  0.16333740199E+04  0.10100000352E+00 0. -1.
</event>
<event>
 5   0  0.1908726E-06  0.3451097E+04  0.7818609E-02  0.8125478E-01
        2   -1    0    0  501    0  0.00000000000E+00  0.00000000000E+00  0.24100800364E+04  0.24100800364E+04  0.25500000920E-02 0. -1.
       -2   -1    0    0    0  501  0.00000000000E+00  0.00000000000E+00 -0.12354432266E+04  0.12354432266E+04  0.25500000920E-02 0.  1.
    10030    2    1    2    0    0  0.00000000000E+00  0.00000000000E+00  0.11746368098E+04  0.36455232630E+04  0.34510966700E+04 0.  0.
        5    1    3    3  502    0  0.30391564213E+03 -0.32265692088E+03  0.23489091536E+04  0.23903699522E+04  0.46999998093E+01 0. -1.
       -5    1    3    3    0  502 -0.30391564213E+03  0.32265692088E+03 -0.11742723438E+04  0.12551533108E+04  0.46999998093E+01 0.  1.
</event>
<event>
 5   0  0.1908726E-06  0.2973354E+04  0.7818609E-02  0.8251381E-01
       -2   -1    0    0    0  501  0.00000000000E+00  0.00000000000E+00  0.21088055458E+04  0.21088055458E+04  0.25500000920E-02 0.  1.
        2   -1    0    0  501    0  0.00000000000E+00  0.00000000000E+00 -0.10480857795E+04  0.10480857795E+04  0.25500000920E-02 0. -1.
    10030    2    1    2    0    0  0.00000000000E+00  0.00000000000E+00  0.10607197663E+04  0.31568913252E+04  0.29733544048E+04 0.  0.
        5    1    3    3  502    0 -0.97303200056E+03  0.89630883543E+03 -0.18975907288E+03  0.13364847168E+04  0.46999998093E+01 0.  1.
       -5    1    3    3    0  502  0.97303200056E+03 -0.89630883543E+03  0.12504788392E+04  0.18204066084E+04  0.46999998093E+01 0. -1.
</event>
<event>
 5   0  0.1042825E-06  0.3488830E+04  0.7818609E-02  0.8116442E-01
        3   -1    0    0  501    0  0.00000000000E+00  0.00000000000E+00  0.15473974673E+04  0.15473974706E+04  0.10100000352E+00 0.  1.
       -3   -1    0    0    0  501  0.00000000000E+00  0.00000000000E+00 -0.19665174459E+04  0.19665174484E+04  0.10100000352E+00 0. -1.
    10030    2    1    2    0    0  0.00000000000E+00  0.00000000000E+00 -0.41911997851E+03  0.35139149191E+04  0.34888302484E+04 0.  0.
        2    1    3    3  502    0 -0.14973267969E+04 -0.19166921840E+02 -0.11107723098E+04  0.18644489888E+04  0.25500000920E-02 0. -1.
       -2    1    3    3    0  502  0.14973267969E+04  0.19166921840E+02  0.69165233132E+03  0.16494659303E+04  0.25500000920E-02 0.  1.
</event>
<event>
 5   0  0.1314340E-06  0.1953944E+04  0.7818609E-02  0.8628461E-01
        1   -1    0    0  501    0  0.00000000000E+00  0.00000000000E+00  0.10980322276E+04  0.10980322276E+04  0.50400001928E-02 0.  1.
       -1   -1    0    0    0  501  0.00000000000E+00  0.00000000000E+00 -0.86925928551E+03  0.86925928552E+03  0.50400001928E-02 0. -1.
    10030    2    1    2    0    0  0.00000000000E+00  0.00000000000E+00  0.22877294207E+03  0.19672915131E+04  0.19539444308E+04 0.  0.
        5    1    3    3  502    0  0.33820114545E+03 -0.81110315508E+03 -0.31535964106E+03  0.93367132127E+03  0.46999998093E+01 0. -1.
       -5    1    3    3    0  502 -0.33820114545E+03  0.81110315508E+03  0.54413258313E+03  0.10336201918E+04  0.46999998093E+01 0.  1.
</event>
<event>
 5   0  0.1130707E-06  0.2252580E+04  0.7818609E-02  0.8496856E-01
        1   -1    0    0  501    0  0.00000000000E+00  0.00000000000E+00  0.19590399394E+04  0.19590399394E+04  0.50400001928E-02 0.  1.
       -1   -1    0    0    0  501  0.00000000000E+00  0.00000000000E+00 -0.64752604862E+03  0.64752604864E+03  0.50400001928E-02 0. -1.
    10030    2    1    2    0    0  0.00000000000E+00  0.00000000000E+00  0.13115138908E+04  0.26065659880E+04  0.22525802015E+04 0.  0.
        3    1    3    3  502    0  0.55242391168E+03  0.48105668739E+02 -0.47862650502E+03  0.73250916382E+03  0.10100000352E+00 0. -1.
       -3    1    3    3    0  502 -0.55242391168E+03 -0.48105668739E+02  0.17901403958E+04  0.18740568242E+04  0.10100000352E+00 0.  1.
</event>
<event>
 5   0  0.1130707E-06  0.3506715E+04  0.7818609E-02  0.8112200E-01
       -1   -1    0    0    0  501  0.00000000000E+00  0.00000000000E+00  0.19447160403E+04  0.19447160403E+04  0.50400001928E-02 0.  1.
        1   -1    0    0  501    0  0.00000000000E+00  0.00000000000E+00 -0.15808284483E+04  0.15808284483E+04  0.50400001928E-02 0. -1.
    10030    2    1    2    0    0  0.00000000000E+00  0.00000000000E+00  0.36388759194E+03  0.35255444886E+04  0.35067149530E+04 0.  0.
        3    1    3    3  502    0 -0.69442428592E+03  0.24688490072E+03  0.17814249054E+04  0.19278620145E+04  0.10100000352E+00 0.  1.
       -3    1    3    3    0  502  0.69442428592E+03 -0.24688490072E+03 -0.14175373134E+04  0.15976824742E+04  0.10100000352E+00 0. -1.
</event>
<event>
 5   0  0.1908726E-06  0.3647395E+04  0.7818609E-02  0.8079721E-01
       -2   -1    0    0    0  501  0.00000000000E+00  0.00000000000E+00  0.12190552341E+04  0.12190552341E+04  0.25500000920E-02 0. -1.
        2   -1    0    0  501    0  0.00000000000E+00  0.00000000000E+00 -0.27282374853E+04  0.27282374853E+04  0.25500000920E-02 0.  1.
    10030    2    1    2    0    0  0.00000000000E+00  0.00000000000E+00 -0.15091822512E+04  0.39472927194E+04  0.36473947887E+04 0.  0.
        5    1    3    3  502    0 -0.33886172150E+03 -0.73795484271E+03  0.10125975279E+04  0.12979909320E+04  0.46999998093E+01 0. -1.
       -5    1    3    3    0  502  0.33886172150E+03  0.73795484271E+03 -0.25217797791E+04  0.26493017873E+04  0.46999998093E+01 0.  1.
</event>
<event>
 5   0  0.1908726E-06  0.3511807E+04  0.7818609E-02  0.8110998E-01
        2   -1    0    0  501    0  0.00000000000E+00  0.00000000000E+00  0.13422970483E+04  0.13422970483E+04  0.25500000920E-02 0. -1.
       -2   -1    0    0    0  501  0.00000000000E+00  0.00000000000E+00 -0.22969553586E+04  0.22969553586E+04  0.25500000920E-02 0.  1.
    10030    2    1    2    0    0  0.00000000000E+00  0.00000000000E+00 -0.95465831035E+03  0.36392524069E+04  0.35118065994E+04 0.  0.
        5    1    3    3  502    0 -0.16833493174E+04  0.35127235070E+03 -0.10931153865E+03  0.17230868496E+04  0.46999998093E+01 0. -1.
       -5    1    3    3    0  502  0.16833493174E+04 -0.35127235070E+03 -0.84534677171E+03  0.19161655574E+04  0.46999998093E+01 0.  1.
</event>
<event>
 5   0  0.1130707E-06  0.3466842E+04  0.7818609E-02  0.8121693E-01
       -1   -1    0    0    0  501  0.00000000000E+00  0.00000000000E+00  0.13476806012E+04  0.13476806012E+04  0.50400001928E-02 0.  1.
        1   -1    0    0  501    0  0.00000000000E+00  0.00000000000E+00 -0.22295706236E+04  0.22295706236E+04  0.50400001928E-02 0. -1.
    10030    2    1    2    0    0  0.00000000000E+00  0.00000000000E+00 -0.88189002243E+03  0.35772512248E+04  0.34668424125E+04 0.  0.
        3    1    3    3  502    0 -0.24821020708E+03  0.25883913158E+03 -0.21908746323E+04  0.22200310060E+04  0.10100000352E+00 0. -1.
       -3    1    3    3    0  502  0.24821020708E+03 -0.25883913158E+03  0.13089846099E+04  0.13572202187E+04  0.10100000352E+00 0.  1.
</event>
<event>
 5   0  0.1908726E-06  0.3097788E+04  0.7818609E-02  0.8216345E-01
       -2   -1    0    0    0  501  0.00000000000E+00  0.00000000000E+00  0.11891700428E+04  0.11891700428E+04  0.25500000920E-02 0.  1.
        2   -1    0    0  501    0  0.00000000000E+00  0.00000000000E+00 -0.20174342934E+04  0.20174342934E+04  0.25500000920E-02 0. -1.
    10030    2    1    2    0    0  0.00000000000E+00  0.00000000000E+00 -0.82826425060E+03  0.32066043361E+04  0.30977878720E+04 0.  0.
        5    1    3    3  502    0 -0.10823721130E+04 -0.25035588307E+03  0.70305873549E+03  0.13147323434E+04  0.46999998093E+01 0.  1.
       -5    1    3    3    0  502  0.10823721130E+04  0.25035588307E+03 -0.15313229861E+04  0.18918719927E+04  0.46999998093E+01 0. -1.
</event>
<event>
 5   0  0.1782660E-06  0.3478615E+04  0.7818609E-02  0.8118877E-01
       -2   -1    0    0    0  501  0.00000000000E+00  0.00000000000E+00  0.18072872348E+04  0.18072872348E+04  0.25500000920E-02 0.  1.
        2   -1    0    0  501    0  0.00000000000E+00  0.00000000000E+00 -0.16738847621E+04  0.16738847621E+04  0.25500000920E-02 0. -1.
    10030    2    1    2    0    0  0.00000000000E+00  0.00000000000E+00  0.13340247269E+03  0.34811719969E+04  0.34786149905E+04 0.  0.
        4    1    3    3  502    0 -0.20890029905E+03  0.22928876447E+03  0.17793844625E+04  0.18062179688E+04  0.12699999809E+01 0.  1.
       -4    1    3    3    0  502  0.20890029905E+03 -0.22928876447E+03 -0.16459819899E+04  0.16749540281E+04  0.12699999809E+01 0. -1.
</event>
<event>
 5   0  0.1130707E-06  0.3610548E+04  0.7818609E-02  0.8088080E-01
        1   -1    0    0  501    0  0.00000000000E+00  0.00000000000E+00  0.16675748966E+04  0.16675748966E+04  0.50400001928E-02 0. -1.
       -1   -1    0    0    0  501  0.00000000000E+00  0.00000000000E+00 -0.19543432309E+04  0.19543432309E+04  0.50400001928E-02 0.  1.
    10030    2    1    2    0    0  0.00000000000E+00  0.00000000000E+00 -0.28676833426E+03  0.36219181275E+04  0.36105477209E+04 0.  0.
        3    1    3    3  502    0 -0.81164957795E+03 -0.67973859654E+03  0.13234773103E+04  0.16948191048E+04  0.10100000352E+00 0. -1.
       -3    1    3    3    0  502  0.81164957795E+03  0.67973859654E+03 -0.16102456446E+04  0.19270990226E+04  0.10100000352E+00 0.  1.
</event>
<event>
 5   0  0.1908726E-06  0.2236171E+04  0.7818609E-02  0.8503522E-01
       -2   -1    0    0    0  501  0.00000000000E+00  0.00000000000E+00  0.58311005580E+03  0.58311005580E+03  0.25500000920E-02 0.  1.
        2   -1    0    0  501    0  0.00000000000E+00  0.00000000000E+00 -0.21438750174E+04  0.21438750174E+04  0.25500000920E-02 0. -1.
    10030    2    1    2    0    0  0.00000000000E+00  0.00000000000E+00 -0.15607649616E+04  0.27269850732E+04  0.22361709067E+04 0.  0.
        5    1    3    3  502    0 -0.10054048097E+04  0.99157975999E+02 -0.19627178092E+03  0.10291821207E+04  0.46999998093E+01 0.  1.
       -5    1    3    3    0  502  0.10054048097E+04 -0.99157975999E+02 -0.13644931806E+04  0.16978029525E+04  0.46999998093E+01 0. -1.
</event>
<event>
 5   0  0.1089337E-06  0.3571265E+04  0.7818609E-02  0.8097106E-01
        1   -1    0    0  501    0  0.00000000000E+00  0.00000000000E+00  0.14730534918E+04  0.14730534918E+04  0.50400001928E-02 0. -1.
       -1   -1    0    0    0  501  0.00000000000E+00  0.00000000000E+00 -0.21645403899E+04  0.21645403899E+04  0.50400001928E-02 0.  1.
    10030    2    1    2    0    0  0.00000000000E+00  0.00000000000E+00 -0.69148689816E+03  0.36375938817E+04  0.35712651985E+04 0.  0.
        2    1    3    3  502    0  0.12588453163E+04 -0.30113313421E+03 -0.15986754900E+04  0.20569725368E+04  0.25500000920E-02 0.  1.
       -2    1    3    3    0  502 -0.12588453163E+04  0.30113313421E+03  0.90718859181E+03  0.15806213449E+04  0.25500000920E-02 0. -1.
</event>
<event>
 5   0  0.2565004E-06  0.3624846E+04  0.7818609E-02  0.8084824E-01
        2   -1    0    0  501    0  0.00000000000E+00  0.00000000000E+00  0.25403526359E+04  0.25403526359E+04  0.25500000920E-02 0.  1.
       -2   -1    0    0    0  501  0.00000000000E+00  0.00000000000E+00 -0.12930793267E+04  0.12930793267E+04  0.25500000920E-02 0. -1.
    10030    2    1    2    0    0  0.00000000000E+00  0.00000000000E+00  0.12472733093E+04  0.38334319626E+04  0.36248461904E+04 0.  0.
        3    1    3    3  502    0  0.16724060107E+04 -0.25446395137E+03  0.13115957890E+04  0.21405553698E+04  0.10100000352E+00 0.  1.
       -3    1    3    3    0  502 -0.16724060107E+04  0.25446395137E+03 -0.64322479713E+02  0.16928765929E+04  0.10100000352E+00 0. -1.
</event>
<event>
 5   0  0.2565004E-06  0.3314138E+04  0.7818609E-02  0.8159307E-01
       -2   -1    0    0    0  501  0.00000000000E+00  0.00000000000E+00  0.12966017820E+04  0.12966017820E+04  0.25500000920E-02 0.  1.
        2   -1    0    0  501    0  0.00000000000E+00  0.00000000000E+00 -0.21177488443E+04  0.21177488443E+04  0.25500000920E-02 0. -1.
    10030    2    1    2    0    0  0.00000000000E+00  0.00000000000E+00 -0.82114706235E+03  0.34143506263E+04  0.33141375501E+04 0.  0.
        3    1    3    3  502    0 -0.90670782250E+03  0.92325539960E+03 -0.14769357659E+04  0.19636340991E+04  0.10100000352E+00 0. -1.
       -3    1    3    3    0  502  0.90670782250E+03 -0.92325539960E+03  0.65578870357E+03  0.14507165272E+04  0.10100000352E+00 0.  1.
</event>
<event>
 5   0  0.1782660E-06  0.3391371E+04  0.7818609E-02  0.8140027E-01
       -2   -1    0    0    0  501  0.00000000000E+00  0.00000000000E+00  0.15043815573E+04  0.15043815573E+04  0.25500000920E-02 0. -1.
        2   -1    0    0  501    0  0.00000000000E+00  0.00000000000E+00 -0.19113169534E+04  0.19113169534E+04  0.25500000920E-02 0.  1.
    10030    2    1    2    0    0  0.00000000000E+00  0.00000000000E+00 -0.40693539612E+03  0.34156985107E+04  0.33913713892E+04 0.  0.
        4    1    3    3  502    0  0.14049763572E+04 -0.79533817014E+03 -0.72567220450E+03  0.17700630301E+04  0.12699999809E+01 0.  1.
       -4    1    3    3    0  502 -0.14049763572E+04  0.79533817014E+03  0.31873680837E+03  0.16456354806E+04  0.12699999809E+01 0. -1.
</event>
<event>
 5   0  0.1110956E-06  0.3512070E+04  0.7818609E-02  0.8110935E-01
        1   -1    0    0  501    0  0.00000000000E+00  0.00000000000E+00  0.12617043267E+04  0.12617043267E+04  0.50400001928E-02 0. -1.
       -1   -1    0    0    0  501  0.00000000000E+00  0.00000000000E+00 -0.24440428246E+04  0.24440428246E+04  0.50400001928E-02 0.  1.
    10030    2    1    2    0    0  0.00000000000E+00  0.00000000000E+00 -0.11823384979E+04  0.37057471513E+04  0.35120702763E+04 0.  0.
        1    1    3    3  502    0  0.71035019299E+03  0.12950281893E+04 -0.15932603086E+04  0.21725961012E+04  0.50400001928E-02 0.  1.
       -1    1    3    3    0  502 -0.71035019299E+03 -0.12950281893E+04  0.41092181075E+03  0.15331510501E+04  0.50400001928E-02 0. -1.
</event>
<event>
 5   0  0.3041329E-06  0.2676935E+04  0.7818609E-02  0.8342528E-01
       -2   -1    0    0    0  501  0.00000000000E+00  0.00000000000E+00  0.95580261213E+03  0.95580261213E+03  0.25500000920E-02 0. -1.
        2   -1    0    0  501    0  0.00000000000E+00  0.00000000000E+00 -0.18743358803E+04  0.18743358803E+04  0.25500000920E-02 0.  1.
    10030    2    1    2    0    0  0.00000000000E+00  0.00000000000E+00 -0.91853326817E+03  0.28301384924E+04  0.26769349117E+04 0.  0.
        2    1    3    3  502    0 -0.58591207533E+03 -0.58984741726E+02  0.81148935584E+03  0.10026400822E+04  0.25500000920E-02 0. -1.
       -2    1    3    3    0  502  0.58591207533E+03  0.58984741726E+02 -0.17300226240E+04  0.18274984102E+04  0.25500000920E-02 0.  1.
</event>
<event>
 5   0  0.1908726E-06  0.3474885E+04  0.7818609E-02  0.8119768E-01
        2   -1    0    0  501    0  0.00000000000E+00  0.00000000000E+00  0.28030502677E+04  0.28030502677E+04  0.25500000920E-02 0.  1.
       -2   -1    0    0    0  501  0.00000000000E+00  0.00000000000E+00 -0.10769359808E+04  0.10769359808E+04  0.25500000920E-02 0. -1.
    10030    2    1    2    0    0  0.00000000000E+00  0.00000000000E+00  0.17261142868E+04  0.38799862485E+04  0.34748845674E+04 0.  0.
        5    1    3    3  502    0 -0.11490542544E+04  0.12643879242E+04  0.12155872467E+04  0.20968254450E+04  0.46999998093E+01 0.  1.
       -5    1    3    3    0  502  0.11490542544E+04 -0.12643879242E+04  0.51052704011E+03  0.17831608035E+04  0.46999998093E+01 0. -1.
</event>
<event>
 5   0  0.3041329E-06  0.3599934E+04  0.7818609E-02  0.8090507E-01
       -2   -1    0    0    0  501  0.00000000000E+00  0.00000000000E+00  0.19633213433E+04  0.19633213433E+04  0.25500000920E-02 0. -1.
        2   -1    0    0  501    0  0.00000000000E+00  0.00000000000E+00 -0.16502043862E+04  0.16502043862E+04  0.25500000920E-02 0.  1.
    10030    2    1    2    0    0  0.00000000000E+00  0.00000000000E+00  0.31311695707E+03  0.36135257295E+04  0.35999341617E+04 0.  0.
        2    1    3    3  502    0 -0.11050361712E+04 -0.13883840062E+04 -0.14651923716E+03  0.17805007653E+04  0.25500000920E-02 0.  1.
       -2    1    3    3    0  502  0.11050361712E+04  0.13883840062E+04  0.45963619423E+03  0.18330249642E+04  0.25500000920E-02 0. -1.
</event>
<event>
 5   0  0.1110956E-06  0.3435726E+04  0.7818609E-02  0.8129193E-01
        1   -1    0    0  501    0  0.00000000000E+00  0.00000000000E+00  0.21090565180E+04  0.21090565180E+04  0.50400001928E-02 0.  1.
       -1   -1    0    0    0  501  0.00000000000E+00  0.00000000000E+00 -0.13992293620E+04  0.13992293620E+04  0.50400001928E-02 0. -1.
    10030    2    1    2    0    0  0.00000000000E+00  0.00000000000E+00  0.70982715602E+03  0.35082858800E+04  0.34357263023E+04 0.  0.
        1    1    3    3  502    0  0.66131302569E+03 -0.95448394268E+01  0.19738392128E+04  0.20816981674E+04  0.50400001928E-02 0.  1.
       -1    1    3    3    0  502 -0.66131302569E+03  0.95448394268E+01 -0.12640120568E+04  0.14265877126E+04  0.50400001928E-02 0. -1.
</event>
<event>
 5   0  0.1782660E-06  0.3459602E+04  0.7818609E-02  0.8123431E-01
       -2   -1    0    0    0  501  0.00000000000E+00  0.00000000000E+00  0.15336586739E+04  0.15336586739E+04  0.25500000920E-02 0. -1.
        2   -1    0    0  501    0  0.00000000000E+00  0.00000000000E+00 -0.19510284524E+04  0.19510284524E+04  0.25500000920E-02 0.  1.
    10030    2    1    2    0    0  0.00000000000E+00  0.00000000000E+00 -0.41736977847E+03  0.34846871263E+04  0.34596021211E+04 0.  0.
        4    1    3    3  502    0 -0.27010762269E+03 -0.17078127239E+04 -0.26031736086E+03  0.17485277147E+04  0.12699999809E+01 0.  1.
       -4    1    3    3    0  502  0.27010762269E+03  0.17078127239E+04 -0.15705241761E+03  0.17361594116E+04  0.12699999809E+01 0. -1.
</event>
<event>
 5   0  0.1089337E-06  0.3551759E+04  0.7818609E-02  0.8101632E-01
       -1   -1    0    0    0  501  0.00000000000E+00  0.00000000000E+00  0.13695111334E+04  0.13695111334E+04  0.50400001928E-02 0.  1.
        1   -1    0    0  501    0  0.00000000000E+00  0.00000000000E+00 -0.23028269655E+04  0.23028269656E+04  0.50400001928E-02 0. -1.
    10030    2    1    2    0    0  0.00000000000E+00  0.00000000000E+00 -0.93331583211E+03  0.36723380990E+04  0.35517585322E+04 0.  0.
        2    1    3    3  502    0 -0.49311127435E+03  0.27301061533E+03 -0.22078891403E+04  0.22786987472E+04  0.25500000920E-02 0. -1.
       -2    1    3    3    0  502  0.49311127435E+03 -0.27301061533E+03  0.12745733081E+04  0.13936393518E+04  0.25500000920E-02 0.  1.
</event>
<event>
 5   0  0.1110956E-06  0.3145596E+04  0.7818609E-02  0.8203335E-01
        1   -1    0    0  501    0  0.00000000000E+00  0.00000000000E+00  0.16120941972E+04  0.16120941972E+04  0.50400001928E-02 0. -1.
       -1   -1    0    0    0  501  0.00000000000E+00  0.00000000000E+00 -0.15344598776E+04  0.15344598776E+04  0.50400001928E-02 0.  1.
    10030    2    1    2    0    0  0.00000000000E+00  0.00000000000E+00  0.77634319568E+02  0.31465540748E+04  0.31455962007E+04 0.  0.
        1    1    3    3  502    0  0.15648965674E+04 -0.15349951862E+03  0.37280587645E+01  0.15724112908E+04  0.50400001928E-02 0.  1.
       -1    1    3    3    0  502 -0.15648965674E+04  0.15349951862E+03  0.73906260804E+02  0.15741427840E+04  0.50400001928E-02 0. -1.
</event>
<event>
 5   0  0.1089337E-06  0.3484808E+04  0.7818609E-02  0.8117400E-01
        1   -1    0    0  501    0  0.00000000000E+00  0.00000000000E+00  0.23103648571E+04  0.23103648571E+04  0.50400001928E-02 0.  1.
       -1   -1    0    0    0  501  0.00000000000E+00  0.00000000000E+00 -0.13140658857E+04  0.13140658857E+04  0.50400001928E-02 0. -1.
    10030    2    1    2    0    0  0.00000000000E+00  0.00000000000E+00  0.99629897138E+03  0.36244307429E+04  0.34848079674E+04 0.  0.
        2    1    3    3  502    0 -0.11748445788E+04 -0.36515810210E+03  0.17814290116E+04  0.21649687174E+04  0.25500000920E-02 0.  1.
       -2    1    3    3    0  502  0.11748445788E+04  0.36515810210E+03 -0.78513004022E+03  0.14594620255E+04  0.25500000920E-02 0. -1.
</event>
<event>
 5   0  0.3041329E-06  0.3310292E+04  0.7818609E-02  0.8160282E-01
        2   -1    0    0  501    0  0.00000000000E+00  0.00000000000E+00  0.15642334091E+04  0.15642334091E+04  0.25500000920E-02 0.  1.
       -2   -1    0    0    0  501  0.00000000000E+00  0.00000000000E+00 -0.17513423574E+04  0.17513423574E+04  0.25500000920E-02 0. -1.
    10030    2    1    2    0    0  0.00000000000E+00  0.00000000000E+00 -0.18710894832E+03  0.33155757666E+04  0.33102919668E+04 0.  0.
        2    1    3    3  502    0 -0.89344620028E+03  0.46764818865E+03  0.12210065575E+04  0.15836028399E+04  0.25500000920E-02 0.  1.
       -2    1    3    3    0  502  0.89344620028E+03 -0.46764818865E+03 -0.14081155058E+04  0.17319729267E+04  0.25500000920E-02 0. -1.
</event>
<event>
 5   0  0.1042825E-06  0.3707924E+04  0.7818609E-02  0.8066208E-01
       -3   -1    0    0    0  501  0.00000000000E+00  0.00000000000E+00  0.16780441163E+04  0.16780441193E+04  0.10100000352E+00 0. -1.
        3   -1    0    0  501    0  0.00000000000E+00  0.00000000000E+00 -0.20483225553E+04  0.20483225578E+04  0.10100000352E+00 0.  1.
    10030    2    1    2    0    0  0.00000000000E+00  0.00000000000E+00 -0.37027843907E+03  0.37263666771E+04  0.37079242832E+04 0.  0.
        3    1    3    3  502    0 -0.23104818671E+03  0.18394489630E+04 -0.17023777978E+03  0.18617026250E+04  0.10100000352E+00 0. -1.
       -3    1    3    3    0  502  0.23104818671E+03 -0.18394489630E+04 -0.20004065929E+03  0.18646640522E+04  0.10100000352E+00 0.  1.
</event>
<event>
 5   0  0.3378848E-06  0.3407240E+04  0.7818609E-02  0.8136132E-01
        2   -1    0    0  501    0  0.00000000000E+00  0.00000000000E+00  0.21519811571E+04  0.21519811571E+04  0.25500000920E-02 0. -1.
       -2   -1    0    0    0  501  0.00000000000E+00  0.00000000000E+00 -0.13486741512E+04  0.13486741513E+04  0.25500000920E-02 0.  1.
    10030    2    1    2    0    0  0.00000000000E+00  0.00000000000E+00  0.80330700581E+03  0.35006553083E+04  0.34072401503E+04 0.  0.
        1    1    3    3  502    0  0.75342504449E+03 -0.89525741105E+03 -0.87051330585E+03  0.14583993093E+04  0.50400001928E-02 0.  1.
       -1    1    3    3    0  502 -0.75342504449E+03  0.89525741105E+03  0.16738203117E+04  0.20422559990E+04  0.50400001928E-02 0. -1.
</event>
<event>
 5   0  0.1110956E-06  0.2191811E+04  0.7818609E-02  0.8521844E-01
        1   -1    0    0  501    0  0.00000000000E+00  0.00000000000E+00  0.14925906748E+04  0.14925906748E+04  0.50400001928E-02 0.  1.
       -1   -1    0    0    0  501  0.00000000000E+00  0.00000000000E+00 -0.80464701974E+03  0.80464701976E+03  0.50400001928E-02 0. -1.
    10030    2    1    2    0    0  0.00000000000E+00  0.00000000000E+00  0.68794365504E+03  0.22972376945E+04  0.21918107931E+04 0.  0.
        1    1    3    3  502    0  0.53801702660E+03 -0.24654266657E+03  0.13107062383E+04  0.14381225436E+04  0.50400001928E-02 0.  1.
       -1    1    3    3    0  502 -0.53801702660E+03  0.24654266657E+03 -0.62276258327E+03  0.85911515090E+03  0.50400001928E-02 0. -1.
</event>
<event>
 5   0  0.2565004E-06  0.1846368E+04  0.7818609E-02  0.8682023E-01
        2   -1    0    0  501    0  0.00000000000E+00  0.00000000000E+00  0.27015714907E+04  0.27015714907E+04  0.25500000920E-02 0. -1.
       -2   -1    0    0    0  501  0.00000000000E+00  0.00000000000E+00 -0.31547136268E+03  0.31547136269E+03  0.25500000920E-02 0.  1.
    10030    2    1    2    0    0  0.00000000000E+00  0.00000000000E+00  0.23861001280E+04  0.30170428533E+04  0.18463677202E+04 0.  0.
        3    1    3    3  502    0  0.89001555244E+03 -0.36303474072E+02  0.15893610758E+04  0.18219534202E+04  0.10100000352E+00 0.  1.
       -3    1    3    3    0  502 -0.89001555244E+03  0.36303474072E+02  0.79673905215E+03  0.11950894332E+04  0.10100000352E+00 0. -1.
</event>
<event>
 5   0  0.2565004E-06  0.3155393E+04  0.7818609E-02  0.8200698E-01
       -2   -1    0    0    0  501  0.00000000000E+00  0.00000000000E+00  0.25854730146E+04  0.25854730146E+04  0.25500000920E-02 0. -1.
        2   -1    0    0  501    0  0.00000000000E+00  0.00000000000E+00 -0.96273547256E+03  0.96273547256E+03  0.25500000920E-02 0.  1.
    10030    2    1    2    0    0  0.00000000000E+00  0.00000000000E+00  0.16227375421E+04  0.35482084872E+04  0.31553932145E+04 0.  0.
        3    1    3    3  502    0  0.26664427357E+03 -0.75809238247E+03  0.23380782597E+04  0.24723295063E+04  0.10100000352E+00 0. -1.
       -3    1    3    3    0  502 -0.26664427357E+03  0.75809238247E+03 -0.71534071765E+03  0.10758789809E+04  0.10100000352E+00 0.  1.
</event>
<event>
 5   0  0.2565004E-06  0.3588430E+04  0.7818609E-02  0.8093147E-01
       -2   -1    0    0    0  501  0.00000000000E+00  0.00000000000E+00  0.15850339211E+04  0.15850339211E+04  0.25500000920E-02 0. -1.
        2   -1    0    0  501    0  0.00000000000E+00  0.00000000000E+00 -0.20310023790E+04  0.20310023790E+04  0.25500000920E-02 0.  1.
    10030    2    1    2    0    0  0.00000000000E+00  0.00000000000E+00 -0.44596845794E+03  0.36160363001E+04  0.35884301105E+04 0.  0.
        3    1    3    3  502    0 -0.25269968515E+03  0.74922577517E+03 -0.18459681525E+04  0.20081819696E+04  0.10100000352E+00 0.  1.
       -3    1    3    3    0  502  0.25269968515E+03 -0.74922577517E+03  0.13999996945E+04  0.16078543304E+04  0.10100000352E+00 0. -1.
</event>
<event>
 5   0  0.1089337E-06  0.3793299E+04  0.7818609E-02  0.8047594E-01
        1   -1    0    0  501    0  0.00000000000E+00  0.00000000000E+00  0.11707096450E+04  0.11707096450E+04  0.50400001928E-02 0.  1.
       -1   -1    0    0    0  501  0.00000000000E+00  0.00000000000E+00 -0.30727335341E+04  0.30727335341E+04  0.50400001928E-02 0. -1.
    10030    2    1    2    0    0  0.00000000000E+00  0.00000000000E+00 -0.19020238891E+04  0.42434431790E+04  0.37932987147E+04 0.  0.
        2    1    3    3  502    0  0.16958202835E+04 -0.16776702825E+03 -0.19538944639E+02  0.17042106619E+04  0.25500000920E-02 0.  1.
       -2    1    3    3    0  502 -0.16958202835E+04  0.16776702825E+03 -0.18824849445E+04  0.25392325171E+04  0.25500000920E-02 0. -1.
</event>
<event>
 5   0  0.1782660E-06  0.3493343E+04  0.7818609E-02  0.8115369E-01
        2   -1    0    0  501    0  0.00000000000E+00  0.00000000000E+00  0.22488693987E+04  0.22488693987E+04  0.25500000920E-02 0. -1.
       -2   -1    0    0    0  501  0.00000000000E+00  0.00000000000E+00 -0.13566202275E+04  0.13566202275E+04  0.25500000920E-02 0.  1.
    10030    2    1    2    0    0  0.00000000000E+00  0.00000000000E+00  0.89224917127E+03  0.36054896262E+04  0.34933432212E+04 0.  0.
        4    1    3    3  502    0  0.13507200965E+04  0.10395188030E+04  0.84024193749E+03  0.19002768870E+04  0.12699999809E+01 0. -1.
       -4    1    3    3    0  502 -0.13507200965E+04 -0.10395188030E+04  0.52007233779E+02  0.17052127392E+04  0.12699999809E+01 0.  1.
</event>
<event>
 5   0  0.1089337E-06  0.2633132E+04  0.7818609E-02  0.8357033E-01
        1   -1    0    0  501    0  0.00000000000E+00  0.00000000000E+00  0.21202712522E+04  0.21202712522E+04  0.50400001928E-02 0. -1.
       -1   -1    0    0    0  501  0.00000000000E+00  0.00000000000E+00 -0.81751140299E+03  0.81751140300E+03  0.50400001928E-02 0.  1.
    10030    2    1    2    0    0  0.00000000000E+00  0.00000000000E+00  0.13027598492E+04  0.29377826552E+04  0.26331319193E+04 0.  0.
        2    1    3    3  502    0 -0.91482223116E+03 -0.94561898352E+03  0.59844650911E+03  0.14454180021E+04  0.25500000920E-02 0. -1.
       -2    1    3    3    0  502  0.91482223116E+03  0.94561898352E+03  0.70431334006E+03  0.14923646530E+04  0.25500000920E-02 0.  1.
</event>
<event>
 5   0  0.1130707E-06  0.3623457E+04  0.7818609E-02  0.8085140E-01
       -1   -1    0    0    0  501  0.00000000000E+00  0.00000000000E+00  0.25469834076E+04  0.25469834076E+04  0.50400001928E-02 0.  1.
        1   -1    0    0  501    0  0.00000000000E+00  0.00000000000E+00 -0.12887248210E+04  0.12887248210E+04  0.50400001928E-02 0. -1.
    10030    2    1    2    0    0  0.00000000000E+00  0.00000000000E+00  0.12582585866E+04  0.38357082286E+04  0.36234573192E+04 0.  0.
        3    1    3    3  502    0  0.10463403140E+04  0.32756323568E+03  0.21559168564E+04  0.24186986642E+04  0.10100000352E+00 0.  1.
       -3    1    3    3    0  502 -0.10463403140E+04 -0.32756323568E+03 -0.89765826984E+03  0.14170095644E+04  0.10100000352E+00 0. -1.
</event>
<event>
 5   0  0.1125196E-06  0.3546210E+04  0.7818609E-02  0.8102925E-01
        1   -1    0    0  501    0  0.00000000000E+00  0.00000000000E+00  0.13136651041E+04  0.13136651041E+04  0.50400001928E-02 0.  1.
       -1   -1    0    0    0  501  0.00000000000E+00  0.00000000000E+00 -0.23932289808E+04  0.23932289808E+04  0.50400001928E-02 0. -1.
    10030    2    1    2    0    0  0.00000000000E+00  0.00000000000E+00 -0.10795638768E+04  0.37068940849E+04  0.35462100323E+04 0.  0.
        4    1    3    3  502    0 -0.88486089333E+03  0.75256584250E+03  0.86053195277E+03  0.14456316967E+04  0.12699999809E+01 0.  1.
       -4    1    3    3    0  502  0.88486089333E+03 -0.75256584250E+03 -0.19400958295E+04  0.22612623882E+04  0.12699999809E+01 0. -1.
</event>
<event>
 5   0  0.1908726E-06  0.3453762E+04  0.7818609E-02  0.8124836E-01
        2   -1    0    0  501    0  0.00000000000E+00  0.00000000000E+00  0.25247328766E+04  0.25247328766E+04  0.25500000920E-02 0. -1.
       -2   -1    0    0    0  501  0.00000000000E+00  0.00000000000E+00 -0.11811616157E+04  0.11811616157E+04  0.25500000920E-02 0.  1.
    10030    2    1    2    0    0  0.00000000000E+00  0.00000000000E+00  0.13435712608E+04  0.37058944923E+04  0.34537617543E+04 0.  0.
        5    1    3    3  502    0 -0.59248512027E+03  0.62007958671E+03 -0.93648639603E+03  0.12698685647E+04  0.46999998093E+01 0.  1.
       -5    1    3    3    0  502  0.59248512027E+03 -0.62007958671E+03  0.22800576569E+04  0.24360259277E+04  0.46999998093E+01 0. -1.
</event>
<event>
 5   0  0.1042825E-06  0.3441451E+04  0.7818609E-02  0.8127807E-01
        3   -1    0    0  501    0  0.00000000000E+00  0.00000000000E+00  0.16190002728E+04  0.16190002760E+04  0.10100000352E+00 0.  1.
       -3   -1    0    0    0  501  0.00000000000E+00  0.00000000000E+00 -0.18288419512E+04  0.18288419539E+04  0.10100000352E+00 0. -1.
    10030    2    1    2    0    0  0.00000000000E+00  0.00000000000E+00 -0.20984167835E+03  0.34478422299E+04  0.34414506407E+04 0.  0.
        3    1    3    3  502    0  0.11523417989E+04  0.65966831865E+03 -0.12014130594E+04  0.17906555397E+04  0.10100000352E+00 0. -1.
       -3    1    3    3    0  502 -0.11523417989E+04 -0.65966831865E+03  0.99157138108E+03  0.16571866902E+04  0.10100000352E+00 0.  1.
</event>
<event>
 5   0  0.1782660E-06  0.3396263E+04  0.7818609E-02  0.8138824E-01
       -2   -1    0    0    0  501  0.00000000000E+00  0.00000000000E+00  0.16235432416E+04  0.16235432416E+04  0.25500000920E-02 0. -1.
        2   -1    0    0  501    0  0.00000000000E+00  0.00000000000E+00 -0.17761468049E+04  0.17761468049E+04  0.25500000920E-02 0.  1.
    10030    2    1    2    0    0  0.00000000000E+00  0.00000000000E+00 -0.15260356330E+03  0.33996900465E+04  0.33962633238E+04 0.  0.
        4    1    3    3  502    0  0.15272459019E+04  0.73930781114E+03 -0.84584493002E+01  0.16967997061E+04  0.12699999809E+01 0. -1.
       -4    1    3    3    0  502 -0.15272459019E+04 -0.73930781114E+03 -0.14414511400E+03  0.17028903404E+04  0.12699999809E+01 0.  1.
</event>
<event>
 5   0  0.1908726E-06  0.2337563E+04  0.7818609E-02  0.8463256E-01
        2   -1    0    0  501    0  0.00000000000E+00  0.00000000000E+00  0.13863175605E+04  0.13863175605E+04  0.25500000920E-02 0.  1.
       -2   -1    0    0    0  501  0.00000000000E+00  0.00000000000E+00 -0.98538001649E+03  0.98538001649E+03  0.25500000920E-02 0. -1.
    10030    2    1    2    0    0  0.00000000000E+00  0.00000000000E+00  0.40093754402E+03  0.23716975770E+04  0.23375625088E+04 0.  0.
        5    1    3    3  502    0 -0.34458648128E+03 -0.93763439663E+03 -0.41512801359E+03  0.10817816150E+04  0.46999998093E+01 0. -1.
       -5    1    3    3    0  502  0.34458648128E+03  0.93763439663E+03  0.81606555761E+03  0.12899159620E+04  0.46999998093E+01 0.  1.
</event>
<event>
 5   0  0.1125196E-06  0.3166913E+04  0.7818609E-02  0.8197610E-01
        1   -1    0    0  501    0  0.00000000000E+00  0.00000000000E+00  0.18880472424E+04  0.18880472424E+04  0.50400001928E-02 0.  1.
       -1   -1    0    0    0  501  0.00000000000E+00  0.00000000000E+00 -0.13280038463E+04  0.13280038463E+04  0.50400001928E-02 0. -1.
    10030    2    1    2    0    0  0.00000000000E+00  0.00000000000E+00  0.56004339611E+03  0.32160510887E+04  0.31669126921E+04 0.  0.
        4    1    3    3  502    0 -0.52240069204E+03  0.77103050459E+03 -0.10204505085E+04  0.13815612093E+04  0.12699999809E+01 0. -1.
       -4    1    3    3    0  502  0.52240069204E+03 -0.77103050459E+03  0.15804939046E+04  0.18344898793E+04  0.12699999809E+01 0.  1.
</event>
<event>
 5   0  0.1782660E-06  0.2801841E+04  0.7818609E-02  0.8302697E-01
        2   -1    0    0  501    0  0.00000000000E+00  0.00000000000E+00  0.14126375268E+04  0.14126375268E+04  0.25500000920E-02 0. -1.
       -2   -1    0    0    0  501  0.00000000000E+00  0.00000000000E+00 -0.13893006874E+04  0.13893006874E+04  0.25500000920E-02 0.  1.
    10030    2    1    2    0    0  0.00000000000E+00  0.00000000000E+00  0.23336839368E+02  0.28019382142E+04  0.28018410283E+04 0.  0.
        4    1    3    3  502    0  0.83801504343E+03 -0.10478373982E+04 -0.39126521065E+03  0.13976131454E+04  0.12699999809E+01 0.  1.
       -4    1    3    3    0  502 -0.83801504343E+03  0.10478373982E+04  0.41460205002E+03  0.14043250688E+04  0.12699999809E+01 0. -1.
</event>
<event>
 5   0  0.1102175E-06  0.2223574E+04  0.7818609E-02  0.8508680E-01
        1   -1    0    0  501    0  0.00000000000E+00  0.00000000000E+00  0.11671824623E+04  0.11671824624E+04  0.50400001928E-02 0. -1.
       -1   -1    0    0    0  501  0.00000000000E+00  0.00000000000E+00 -0.10590208237E+04  0.10590208237E+04  0.50400001928E-02 0.  1.
    10030    2    1    2    0    0  0.00000000000E+00  0.00000000000E+00  0.10816163866E+03  0.22262032861E+04  0.22235741793E+04 0.  0.
        5    1    3    3  502    0 -0.92018088377E+03  0.43202239084E+03  0.50480445048E+03  0.11350003649E+04  0.46999998093E+01 0. -1.
       -5    1    3    3    0  502  0.92018088377E+03 -0.43202239084E+03 -0.39664281182E+03  0.10912029212E+04  0.46999998093E+01 0.  1.
</event>
<event>
 5   0  0.2565004E-06  0.3552490E+04  0.7818609E-02  0.8101462E-01
        2   -1    0    0  501    0  0.00000000000E+00  0.00000000000E+00  0.24677118572E+04  0.24677118572E+04  0.25500000920E-02 0.  1.
       -2   -1    0    0    0  501  0.00000000000E+00  0.00000000000E+00 -0.12785308089E+04  0.12785308089E+04  0.25500000920E-02 0. -1.
    10030    2    1    2    0    0  0.00000000000E+00  0.00000000000E+00  0.11891810482E+04  0.37462426661E+04  0.35524896267E+04 0.  0.
        3    1    3    3  502    0 -0.13399847634E+04 -0.73040394572E+03 -0.36382138255E+03  0.15688897663E+04  0.10100000352E+00 0.  1.
       -3    1    3    3    0  502  0.13399847634E+04  0.73040394572E+03  0.15530024308E+04  0.21773528998E+04  0.10100000352E+00 0. -1.
</event>
<event>
 5   0  0.1102175E-06  0.3221839E+04  0.7818609E-02  0.8183073E-01
       -1   -1    0    0    0  501  0.00000000000E+00  0.00000000000E+00  0.13080579335E+04  0.13080579336E+04  0.50400001928E-02 0. -1.
        1   -1    0    0  501    0  0.00000000000E+00  0.00000000000E+00 -0.19839045369E+04  0.19839045369E+04  0.50400001928E-02 0.  1.
    10030    2    1    2    0    0  0.00000000000E+00  0.00000000000E+00 -0.67584660339E+03  0.32919624705E+04  0.32218392691E+04 0.  0.
        5    1    3    3  502    0  0.70467891440E+03  0.55378139413E+02 -0.18169791215E+04  0.19496344090E+04  0.46999998093E+01 0.  1.
       -5    1    3    3    0  502 -0.70467891440E+03 -0.55378139413E+02  0.11411325181E+04  0.13423280615E+04  0.46999998093E+01 0. -1.
</event>
<event>
 5   0  0.1908726E-06  0.2428841E+04  0.7818609E-02  0.8428784E-01
       -2   -1    0    0    0  501  0.00000000000E+00  0.00000000000E+00  0.12963650028E+04  0.12963650028E+04  0.25500000920E-02 0.  1.
        2   -1    0    0  501    0  0.00000000000E+00  0.00000000000E+00 -0.11376558448E+04  0.11376558448E+04  0.25500000920E-02 0. -1.
    10030    2    1    2    0    0  0.00000000000E+00  0.00000000000E+00  0.15870915796E+03  0.24340208476E+04  0.24288410590E+04 0.  0.
        5    1    3    3  502    0  0.48144333392E+03  0.84650800733E+03  0.80645800418E+03  0.12644208527E+04  0.46999998093E+01 0.  1.
       -5    1    3    3    0  502 -0.48144333392E+03 -0.84650800733E+03 -0.64774884622E+03  0.11695999949E+04  0.46999998093E+01 0. -1.
</event>
<event>
 5   0  0.1102175E-06  0.3472773E+04  0.7818609E-02  0.8120273E-01
        1   -1    0    0  501    0  0.00000000000E+00  0.00000000000E+00  0.14614104122E+04  0.14614104123E+04  0.50400001928E-02 0.  1.
       -1   -1    0    0    0  501  0.00000000000E+00  0.00000000000E+00 -0.20631011564E+04  0.20631011564E+04  0.50400001928E-02 0. -1.
    10030    2    1    2    0    0  0.00000000000E+00  0.00000000000E+00 -0.60169074417E+03  0.35245115687E+04  0.34727726741E+04 0.  0.
        5    1    3    3  502    0  0.13872415786E+04  0.92609263302E+03 -0.79066259115E+03  0.18458754523E+04  0.46999998093E+01 0.  1.
       -5    1    3    3    0  502 -0.13872415786E+04 -0.92609263302E+03  0.18897184697E+03  0.16786361164E+04  0.46999998093E+01 0. -1.
</event>
<event>
 5   0  0.1782660E-06  0.3452848E+04  0.7818609E-02  0.8125056E-01
        2   -1    0    0  501    0  0.00000000000E+00  0.00000000000E+00  0.14847568990E+04  0.14847568990E+04  0.25500000920E-02 0.  1.
       -2   -1    0    0    0  501  0.00000000000E+00  0.00000000000E+00 -0.20074258743E+04  0.20074258743E+04  0.25500000920E-02 0. -1.
    10030    2    1    2    0    0  0.00000000000E+00  0.00000000000E+00 -0.52266897531E+03  0.34921827733E+04  0.34528477616E+04 0.  0.
        4    1    3    3  502    0  0.19458224712E+03  0.16934439972E+04 -0.53817335188E+03  0.17875253822E+04  0.12699999809E+01 0.  1.
       -4    1    3    3    0  502 -0.19458224712E+03 -0.16934439972E+04  0.15504376570E+02  0.17046573911E+04  0.12699999809E+01 0. -1.
</event>
<event>
 5   0  0.3041329E-06  0.3477809E+04  0.7818609E-02  0.8119069E-01
       -2   -1    0    0    0  501  0.00000000000E+00  0.00000000000E+00  0.14384679345E+04  0.14384679345E+04  0.25500000920E-02 0.  1.
        2   -1    0    0  501    0  0.00000000000E+00  0.00000000000E+00 -0.21020894509E+04  0.21020894509E+04  0.25500000920E-02 0. -1.
    10030    2    1    2    0    0  0.00000000000E+00  0.00000000000E+00 -0.66362151635E+03  0.35405573854E+04  0.34778086609E+04 0.  0.
        2    1    3    3  502    0 -0.13106720929E+03 -0.15014323558E+04  0.55119701321E+03  0.16047728436E+04  0.25500000920E-02 0.  1.
       -2    1    3    3    0  502  0.13106720929E+03  0.15014323558E+04 -0.12148185296E+04  0.19357845417E+04  0.25500000920E-02 0. -1.
</event>
<event>
 5   0  0.1102175E-06  0.3462160E+04  0.7818609E-02  0.8122816E-01
        1   -1    0    0  501    0  0.00000000000E+00  0.00000000000E+00  0.85400507350E+03  0.85400507351E+03  0.50400001928E-02 0. -1.
       -1   -1    0    0    0  501  0.00000000000E+00  0.00000000000E+00 -0.35089239074E+04  0.35089239074E+04  0.50400001928E-02 0.  1.
    10030    2    1    2    0    0  0.00000000000E+00  0.00000000000E+00 -0.26549188339E+04  0.43629289809E+04  0.34621604928E+04 0.  0.
        5    1    3    3  502    0 -0.67387633041E+03 -0.19244614707E+02 -0.33366930016E+04  0.34041183794E+04  0.46999998093E+01 0.  1.
       -5    1    3    3    0  502  0.67387633041E+03  0.19244614707E+02  0.68177416770E+03  0.95881060154E+03  0.46999998093E+01 0. -1.
</event>
<event>
 5   0  0.1125196E-06  0.1897617E+04  0.7818609E-02  0.8656044E-01
        1   -1    0    0  501    0  0.00000000000E+00  0.00000000000E+00  0.52234649162E+03  0.52234649164E+03  0.50400001928E-02 0. -1.
       -1   -1    0    0    0  501  0.00000000000E+00  0.00000000000E+00 -0.17234486423E+04  0.17234486423E+04  0.50400001928E-02 0.  1.
    10030    2    1    2    0    0  0.00000000000E+00  0.00000000000E+00 -0.12011021507E+04  0.22457951340E+04  0.18976167704E+04 0.  0.
        4    1    3    3  502    0 -0.49229665454E+03 -0.14481557994E+03 -0.15450469028E+04  0.16280353476E+04  0.12699999809E+01 0.  1.
       -4    1    3    3    0  502  0.49229665454E+03  0.14481557994E+03  0.34394475210E+03  0.61775978637E+03  0.12699999809E+01 0. -1.
</event>
<event>
 5   0  0.3041329E-06  0.3340344E+04  0.7818609E-02  0.8152705E-01
       -2   -1    0    0    0  501  0.00000000000E+00  0.00000000000E+00  0.13863504375E+04  0.13863504376E+04  0.25500000920E-02 0. -1.
        2   -1    0    0  501    0  0.00000000000E+00  0.00000000000E+00 -0.20120995820E+04  0.20120995820E+04  0.25500000920E-02 0.  1.
    10030    2    1    2    0    0  0.00000000000E+00  0.00000000000E+00 -0.62574914442E+03  0.33984500195E+04  0.33403443750E+04 0.  0.
        2    1    3    3  502    0 -0.85571058964E+03  0.87554207120E+03 -0.14687091196E+04  0.19120462886E+04  0.25500000920E-02 0.  1.
       -2    1    3    3    0  502  0.85571058964E+03 -0.87554207120E+03  0.84295997517E+03  0.14864037310E+04  0.25500000920E-02 0. -1.
</event>
<event>
 5   0  0.1908726E-06  0.2156107E+04  0.7818609E-02  0.8536922E-01
       -2   -1    0    0    0  501  0.00000000000E+00  0.00000000000E+00  0.16937868666E+04  0.16937868666E+04  0.25500000920E-02 0.  1.
        2   -1    0    0  501    0  0.00000000000E+00  0.00000000000E+00 -0.68615472805E+03  0.68615472805E+03  0.25500000920E-02 0. -1.
    10030    2    1    2    0    0  0.00000000000E+00  0.00000000000E+00  0.10076321386E+04  0.23799415947E+04  0.21561074805E+04 0.  0.
        5    1    3    3  502    0 -0.20543607812E+03  0.10002779967E+04  0.12237250861E+03  0.10284732246E+04  0.46999998093E+01 0. -1.
       -5    1    3    3    0  502  0.20543607812E+03 -0.10002779967E+04  0.88525962997E+03  0.13514683701E+04  0.46999998093E+01 0.  1.
</event>
<event>
 5   0  0.1089337E-06  0.3246061E+04  0.7818609E-02  0.8176757E-01
        1   -1    0    0  501    0  0.00000000000E+00  0.00000000000E+00  0.12059759166E+04  0.12059759166E+04  0.50400001928E-02 0. -1.
       -1   -1    0    0    0  501  0.00000000000E+00  0.00000000000E+00 -0.21843122695E+04  0.21843122695E+04  0.50400001928E-02 0.  1.
    10030    2    1    2    0    0  0.00000000000E+00  0.00000000000E+00 -0.97833635289E+03  0.33902881861E+04  0.32460609922E+04 0.  0.
        2    1    3    3  502    0  0.65047234192E+03  0.57707829381E+03  0.94215810432E+03  0.12821058920E+04  0.25500000920E-02 0. -1.
       -2    1    3    3    0  502 -0.65047234192E+03 -0.57707829381E+03 -0.19204944572E+04  0.21081822940E+04  0.25500000920E-02 0.  1.
</event>
<event>
 5   0  0.1102175E-06  0.3519853E+04  0.7818609E-02  0.8109101E-01
        1   -1    0    0  501    0  0.00000000000E+00  0.00000000000E+00  0.18644983804E+04  0.18644983804E+04  0.50400001928E-02 0. -1.
       -1   -1    0    0    0  501  0.00000000000E+00  0.00000000000E+00 -0.16612192182E+04  0.16612192182E+04  0.50400001928E-02 0.  1.
    10030    2    1    2    0    0  0.00000000000E+00  0.00000000000E+00  0.20327916224E+03  0.35257175986E+04  0.35198525775E+04 0.  0.
        5    1    3    3  502    0  0.28028864342E+03  0.15144724216E+04  0.95460414603E+03  0.18120374182E+04  0.46999998093E+01 0. -1.
       -5    1    3    3    0  502 -0.28028864342E+03 -0.15144724216E+04 -0.75132498379E+03  0.17136801804E+04  0.46999998093E+01 0.  1.
</event>
<event>
 5   0  0.1102175E-06  0.3471397E+04  0.7818609E-02  0.8120602E-01
        1   -1    0    0  501    0  0.00000000000E+00  0.00000000000E+00  0.10130639899E+04  0.10130639899E+04  0.50400001928E-02 0.  1.
       -1   -1    0    0    0  501  0.00000000000E+00  0.00000000000E+00 -0.29737987676E+04  0.29737987676E+04  0.50400001928E-02 0. -1.
    10030    2    1    2    0    0  0.00000000000E+00  0.00000000000E+00 -0.19607347777E+04  0.39868627575E+04  0.34713965171E+04 0.  0.
        5    1    3    3  502    0 -0.14615911143E+04 -0.81014171278E+03 -0.15191157319E+04  0.22583872292E+04  0.46999998093E+01 0. -1.
       -5    1    3    3    0  502  0.14615911143E+04  0.81014171278E+03 -0.44161904579E+03  0.17284755283E+04  0.46999998093E+01 0.  1.
</event>
<event>
 5   0  0.1782660E-06  0.3517632E+04  0.7818609E-02  0.8109624E-01
        2   -1    0    0  501    0  0.00000000000E+00  0.00000000000E+00  0.20636051028E+04  0.20636051028E+04  0.25500000920E-02 0. -1.
       -2   -1    0    0    0  501  0.00000000000E+00  0.00000000000E+00 -0.14990431777E+04  0.14990431777E+04  0.25500000920E-02 0.  1.
    10030    2    1    2    0    0  0.00000000000E+00  0.00000000000E+00  0.56456192513E+03  0.35626482806E+04  0.35176316754E+04 0.  0.
        4    1    3    3  502    0  0.35818052705E+03 -0.11594790716E+04  0.15716586071E+04  0.19856478534E+04  0.12699999809E+01 0. -1.
       -4    1    3    3    0  502 -0.35818052705E+03  0.11594790716E+04 -0.10070966820E+04  0.15770004272E+04  0.12699999809E+01 0.  1.
</event>
<event>
 5   0  0.3041329E-06  0.2533275E+04  0.7818609E-02  0.8391226E-01
        2   -1    0    0  501    0  0.00000000000E+00  0.00000000000E+00  0.16421786790E+04  0.16421786790E+04  0.25500000920E-02 0.  1.
       -2   -1    0    0    0  501  0.00000000000E+00  0.00000000000E+00 -0.97697660093E+03  0.97697660093E+03  0.25500000920E-02 0. -1.
    10030    2    1    2    0    0  0.00000000000E+00  0.00000000000E+00  0.66520207811E+03  0.26191552800E+04  0.25332746744E+04 0.  0.
        2    1    3    3  502    0  0.11725311638E+03  0.83523048338E+03  0.13096303352E+04  0.15577194448E+04  0.25500000920E-02 0.  1.
       -2    1    3    3    0  502 -0.11725311638E+03 -0.83523048338E+03 -0.64442825711E+03  0.10614358352E+04  0.25500000920E-02 0. -1.
</event>
<event>
 5   0  0.1125196E-06  0.3430603E+04  0.7818609E-02  0.8130436E-01
       -1   -1    0    0    0  501  0.00000000000E+00  0.00000000000E+00  0.23213044359E+04  0.23213044359E+04  0.50400001928E-02 0. -1.
        1   -1    0    0  501    0  0.00000000000E+00  0.00000000000E+00 -0.12675024262E+04  0.12675024262E+04  0.50400001928E-02 0.  1.
    10030    2    1    2    0    0  0.00000000000E+00  0.00000000000E+00  0.10538020097E+04  0.35888068621E+04  0.34306028651E+04 0.  0.
        4    1    3    3  502    0  0.11024492358E+04 -0.60320496125E+03  0.17482187288E+04  0.21530259821E+04  0.12699999809E+01 0. -1.
       -4    1    3    3    0  502 -0.11024492358E+04  0.60320496125E+03 -0.69441671910E+03  0.14357808800E+04  0.12699999809E+01 0.  1.
</event>
<event>
 5   0  0.1908726E-06  0.3263923E+04  0.7818609E-02  0.8172136E-01
       -2   -1    0    0    0  501  0.00000000000E+00  0.00000000000E+00  0.13593228988E+04  0.13593228988E+04  0.25500000920E-02 0.  1.
        2   -1    0    0  501    0  0.00000000000E+00  0.00000000000E+00 -0.19592826446E+04  0.19592826446E+04  0.25500000920E-02 0. -1.
    10030    2    1    2    0    0  0.00000000000E+00  0.00000000000E+00 -0.59995974582E+03  0.33186055434E+04  0.32639226486E+04 0.  0.
        5    1    3    3  502    0 -0.95357517406E+03 -0.10857858210E+04  0.47103810853E+03  0.15199129750E+04  0.46999998093E+01 0.  1.
       -5    1    3    3    0  502  0.95357517406E+03  0.10857858210E+04 -0.10709978544E+04  0.17986925685E+04  0.46999998093E+01 0. -1.
</event>
<event>
 5   0  0.1782660E-06  0.2210877E+04  0.7818609E-02  0.8513915E-01
        2   -1    0    0  501    0  0.00000000000E+00  0.00000000000E+00  0.27232829991E+04  0.27232829991E+04  0.25500000920E-02 0. -1.
       -2   -1    0    0    0  501  0.00000000000E+00  0.00000000000E+00 -0.44872081654E+03  0.44872081655E+03  0.25500000920E-02 0.  1.
    10030    2    1    2    0    0  0.00000000000E+00  0.00000000000E+00  0.22745621826E+04  0.31720038157E+04  0.22108765421E+04 0.  0.
        4    1    3    3  502    0 -0.40326327506E+03 -0.84251503819E+03  0.19855180967E+04  0.21942508024E+04  0.12699999809E+01 0. -1.
       -4    1    3    3    0  502  0.40326327506E+03  0.84251503819E+03  0.28904408595E+03  0.97775301334E+03  0.12699999809E+01 0.  1.
</event>
<event>
 5   0  0.1908726E-06  0.3600453E+04  0.7818609E-02  0.8090388E-01
        2   -1    0    0  501    0  0.00000000000E+00  0.00000000000E+00  0.10485960404E+04  0.10485960404E+04  0.25500000920E-02 0.  1.
       -2   -1    0    0    0  501  0.00000000000E+00  0.00000000000E+00 -0.30906241440E+04  0.30906241440E+04  0.25500000920E-02 0. -1.
    10030    2    1    2    0    0  0.00000000000E+00  0.00000000000E+00 -0.20420281036E+04  0.41392201844E+04  0.36004534381E+04 0.  0.
        5    1    3    3  502    0 -0.57775755986E+03 -0.17047553128E+04 -0.98850396114E+03  0.20535716802E+04  0.46999998093E+01 0.  1.
       -5    1    3    3    0  502  0.57775755986E+03  0.17047553128E+04 -0.10535241424E+04  0.20856485042E+04  0.46999998093E+01 0. -1.
</event>
<event>
 5   0  0.1125196E-06  0.3384471E+04  0.7818609E-02  0.8141728E-01
        1   -1    0    0  501    0  0.00000000000E+00  0.00000000000E+00  0.23874867679E+04  0.23874867679E+04  0.50400001928E-02 0. -1.
       -1   -1    0    0    0  501  0.00000000000E+00  0.00000000000E+00 -0.11994461145E+04  0.11994461145E+04  0.50400001928E-02 0.  1.
    10030    2    1    2    0    0  0.00000000000E+00  0.00000000000E+00  0.11880406534E+04  0.35869328824E+04  0.33844714371E+04 0.  0.
        4    1    3    3  502    0 -0.18722238094E+03  0.13795613521E+04 -0.42551306712E+03  0.14557832006E+04  0.12699999809E+01 0.  1.
       -4    1    3    3    0  502  0.18722238094E+03 -0.13795613521E+04  0.16135537206E+04  0.21311496818E+04  0.12699999809E+01 0. -1.
</event>
<event>
 5   0  0.1102175E-06  0.3852895E+04  0.7818609E-02  0.8034898E-01
       -1   -1    0    0    0  501  0.00000000000E+00  0.00000000000E+00  0.21687646123E+04  0.21687646123E+04  0.50400001928E-02 0. -1.
        1   -1    0    0  501    0  0.00000000000E+00  0.00000000000E+00 -0.17112045950E+04  0.17112045950E+04  0.50400001928E-02 0.  1.
    10030    2    1    2    0    0  0.00000000000E+00  0.00000000000E+00  0.45756001729E+03  0.38799692074E+04  0.38528949999E+04 0.  0.
        5    1    3    3  502    0  0.11890792004E+04  0.14854838614E+04  0.53190388224E+03  0.19757316309E+04  0.46999998093E+01 0. -1.
       -5    1    3    3    0  502 -0.11890792004E+04 -0.14854838614E+04 -0.74343864947E+02  0.19042375765E+04  0.46999998093E+01 0.  1.
</event>
<event>
 5   0  0.1782660E-06  0.3520196E+04  0.7818609E-02  0.8109020E-01
       -2   -1    0    0    0  501  0.00000000000E+00  0.00000000000E+00  0.15405956977E+04  0.15405956977E+04  0.25500000920E-02 0. -1.
        2   -1    0    0  501    0  0.00000000000E+00  0.00000000000E+00 -0.20108751745E+04  0.20108751745E+04  0.25500000920E-02 0.  1.
    10030    2    1    2    0    0  0.00000000000E+00  0.00000000000E+00 -0.47027947679E+03  0.35514708723E+04  0.35201963824E+04 0.  0.
        4    1    3    3  502    0  0.75097611337E+03 -0.15895861972E+04 -0.32071447148E+03  0.17870670906E+04  0.12699999809E+01 0. -1.
       -4    1    3    3    0  502 -0.75097611337E+03  0.15895861972E+04 -0.14956500531E+03  0.17644037817E+04  0.12699999809E+01 0.  1.
</event>
<event>
 5   0  0.1782660E-06  0.2257660E+04  0.7818609E-02  0.8494805E-01
       -2   -1    0    0    0  501  0.00000000000E+00  0.00000000000E+00  0.12964754352E+04  0.12964754352E+04  0.25500000920E-02 0. -1.
        2   -1    0    0  501    0  0.00000000000E+00  0.00000000000E+00 -0.98286233859E+03  0.98286233859E+03  0.25500000920E-02 0.  1.
    10030    2    1    2    0    0  0.00000000000E+00  0.00000000000E+00  0.31361309657E+03  0.22793377738E+04  0.22576597424E+04 0.  0.
        4    1    3    3  502    0  0.33524698631E+02 -0.54037934551E+03  0.11568332594E+04  0.12772621287E+04  0.12699999809E+01 0. -1.
       -4    1    3    3    0  502 -0.33524698631E+02  0.54037934551E+03 -0.84322016284E+03  0.10020756450E+04  0.12699999809E+01 0.  1.
</event>
<event>
 5   0  0.1782660E-06  0.2985642E+04  0.7818609E-02  0.8247843E-01
       -2   -1    0    0    0  501  0.00000000000E+00  0.00000000000E+00  0.29388630662E+04  0.29388630662E+04  0.25500000920E-02 0.  1.
        2   -1    0    0  501    0  0.00000000000E+00  0.00000000000E+00 -0.75829125008E+03  0.75829125009E+03  0.25500000920E-02 0. -1.
    10030    2    1    2    0    0  0.00000000000E+00  0.00000000000E+00  0.21805718161E+04  0.36971543163E+04  0.29856417389E+04 0.  0.
        4    1    3    3  502    0  0.10853913726E+04  0.88698460613E+03  0.45439590858E+03  0.14735309219E+04  0.12699999809E+01 0. -1.
       -4    1    3    3    0  502 -0.10853913726E+04 -0.88698460613E+03  0.17261759075E+04  0.22236233943E+04  0.12699999809E+01 0.  1.
</event>
<event>
 5   0  0.1042825E-06  0.1744201E+04  0.7818609E-02  0.8736549E-01
        3   -1    0    0  501    0  0.00000000000E+00  0.00000000000E+00  0.98006192655E+03  0.98006193176E+03  0.10100000352E+00 0.  1.
       -3   -1    0    0    0  501  0.00000000000E+00  0.00000000000E+00 -0.77603219282E+03  0.77603219939E+03  0.10100000352E+00 0. -1.
    10030    2    1    2    0    0  0.00000000000E+00  0.00000000000E+00  0.20402973374E+03  0.17560941311E+04  0.17442013832E+04 0.  0.
        3    1    3    3  502    0  0.61302117341E+03  0.54346767034E+02  0.72413667602E+03  0.95032755716E+03  0.10100000352E+00 0.  1.
       -3    1    3    3    0  502 -0.61302117341E+03 -0.54346767034E+02 -0.52010694229E+03  0.80576657399E+03  0.10100000352E+00 0. -1.
</event>
<event>
 5   0  0.3378848E-06  0.2640852E+04  0.7818609E-02  0.8354456E-01
        2   -1    0    0  501    0  0.00000000000E+00  0.00000000000E+00  0.13467288658E+04  0.13467288658E+04  0.25500000920E-02 0. -1.
       -2   -1    0    0    0  501  0.00000000000E+00  0.00000000000E+00 -0.12946366361E+04  0.12946366361E+04  0.25500000920E-02 0.  1.
    10030    2    1    2    0    0  0.00000000000E+00  0.00000000000E+00  0.52092229675E+02  0.26413655019E+04  0.26408517781E+04 0.  0.
        1    1    3    3  502    0  0.51650283278E+03 -0.41390467998E+03  0.11688235244E+04  0.13432202692E+04  0.50400001928E-02 0. -1.
       -1    1    3    3    0  502 -0.51650283278E+03  0.41390467998E+03 -0.11167312947E+04  0.12981452327E+04  0.50400001928E-02 0.  1.
</event>
<event>
 5   0  0.1125196E-06  0.3494232E+04  0.7818609E-02  0.8115158E-01
       -1   -1    0    0    0  501  0.00000000000E+00  0.00000000000E+00  0.14827166647E+04  0.14827166647E+04  0.50400001928E-02 0. -1.
        1   -1    0    0  501    0  0.00000000000E+00  0.00000000000E+00 -0.20586632239E+04  0.20586632239E+04  0.50400001928E-02 0.  1.
    10030    2    1    2    0    0  0.00000000000E+00  0.00000000000E+00 -0.57594655916E+03  0.35413798886E+04  0.34942319723E+04 0.  0.
        4    1    3    3  502    0 -0.78713461023E+03 -0.26467737399E+03  0.12699002941E+04  0.15173277091E+04  0.12699999809E+01 0. -1.
       -4    1    3    3    0  502  0.78713461023E+03  0.26467737399E+03 -0.18458468532E+04  0.20240521795E+04  0.12699999809E+01 0.  1.
</event>
<event>
 5   0  0.3041329E-06  0.1738565E+04  0.7818609E-02  0.8739670E-01
       -2   -1    0    0    0  501  0.00000000000E+00  0.00000000000E+00  0.35790330796E+03  0.35790330797E+03  0.25500000920E-02 0. -1.
        2   -1    0    0  501    0  0.00000000000E+00  0.00000000000E+00 -0.21113296409E+04  0.21113296409E+04  0.25500000920E-02 0.  1.
    10030    2    1    2    0    0  0.00000000000E+00  0.00000000000E+00 -0.17534263329E+04  0.24692329488E+04  0.17385647675E+04 0.  0.
        2    1    3    3  502    0  0.42729636625E+03  0.18491997001E+03 -0.19193064386E+04  0.19749720973E+04  0.25500000920E-02 0.  1.
       -2    1    3    3    0  502 -0.42729636625E+03 -0.18491997001E+03  0.16588010565E+03  0.49426085155E+03  0.25500000920E-02 0. -1.
</event>
<event>
 5   0  0.1782660E-06  0.3534297E+04  0.7818609E-02  0.8105710E-01
       -2   -1    0    0    0  501  0.00000000000E+00  0.00000000000E+00  0.12257625656E+04  0.12257625656E+04  0.25500000920E-02 0. -1.
        2   -1    0    0  501    0  0.00000000000E+00  0.00000000000E+00 -0.25476498918E+04  0.25476498918E+04  0.25500000920E-02 0.  1.
    10030    2    1    2    0    0  0.00000000000E+00  0.00000000000E+00 -0.13218873262E+04  0.37734124573E+04  0.35342970263E+04 0.  0.
        4    1    3    3  502    0 -0.34171212335E+03  0.16068146344E+03 -0.25040732599E+04  0.25323842938E+04  0.12699999809E+01 0.  1.
       -4    1    3    3    0  502  0.34171212335E+03 -0.16068146344E+03  0.11821859337E+04  0.12410281635E+04  0.12699999809E+01 0. -1.
</event>
<event>
 5   0  0.1908726E-06  0.2488904E+04  0.7818609E-02  0.8406949E-01
        2   -1    0    0  501    0  0.00000000000E+00  0.00000000000E+00  0.16456063815E+04  0.16456063815E+04  0.25500000920E-02 0.  1.
       -2   -1    0    0    0  501  0.00000000000E+00  0.00000000000E+00 -0.94108845951E+03  0.94108845951E+03  0.25500000920E-02 0. -1.
    10030    2    1    2    0    0  0.00000000000E+00  0.00000000000E+00  0.70451792202E+03  0.25866948411E+04  0.24889043168E+04 0.  0.
        5    1    3    3  502    0 -0.11742790117E+04 -0.23517601123E+03  0.70377913691E+03  0.13890882323E+04  0.46999998093E+01 0.  1.
       -5    1    3    3    0  502  0.11742790117E+04  0.23517601123E+03  0.73878511884E+00  0.11976066088E+04  0.46999998093E+01 0. -1.
</event>
<event>
 5   0  0.1908726E-06  0.3472601E+04  0.7818609E-02  0.8120314E-01
       -2   -1    0    0    0  501  0.00000000000E+00  0.00000000000E+00  0.13686133836E+04  0.13686133836E+04  0.25500000920E-02 0.  1.
        2   -1    0    0  501    0  0.00000000000E+00  0.00000000000E+00 -0.22027696051E+04  0.22027696051E+04  0.25500000920E-02 0. -1.
    10030    2    1    2    0    0  0.00000000000E+00  0.00000000000E+00 -0.83415622145E+03  0.35713829887E+04  0.34726013089E+04 0.  0.
        5    1    3    3  502    0  0.86376372093E+02 -0.16905670983E+04 -0.19773185889E+02  0.16928942850E+04  0.46999998093E+01 0.  1.
       -5    1    3    3    0  502 -0.86376372093E+02  0.16905670983E+04 -0.81438303556E+03  0.18784887037E+04  0.46999998093E+01 0. -1.
</event>
<event>
 5   0  0.1782660E-06  0.3470581E+04  0.7818609E-02  0.8120797E-01
        2   -1    0    0  501    0  0.00000000000E+00  0.00000000000E+00  0.26512402366E+04  0.26512402366E+04  0.25500000920E-02 0. -1.
       -2   -1    0    0    0  501  0.00000000000E+00  0.00000000000E+00 -0.11357831017E+04  0.11357831017E+04  0.25500000920E-02 0.  1.
    10030    2    1    2    0    0  0.00000000000E+00  0.00000000000E+00  0.15154571348E+04  0.37870233383E+04  0.34705814264E+04 0.  0.
        4    1    3    3  502    0  0.80894865391E+03 -0.90179915658E+03  0.21134238589E+04  0.24360216879E+04  0.12699999809E+01 0. -1.
       -4    1    3    3    0  502 -0.80894865391E+03  0.90179915658E+03 -0.59796672407E+03  0.13510016504E+04  0.12699999809E+01 0.  1.
</event>
<event>
 5   0  0.1782660E-06  0.2935641E+04  0.7818609E-02  0.8262352E-01
       -2   -1    0    0    0  501  0.00000000000E+00  0.00000000000E+00  0.23418423199E+04  0.23418423199E+04  0.25500000920E-02 0.  1.
        2   -1    0    0  501    0  0.00000000000E+00  0.00000000000E+00 -0.92000070603E+03  0.92000070604E+03  0.25500000920E-02 0. -1.
    10030    2    1    2    0    0  0.00000000000E+00  0.00000000000E+00  0.14218416138E+04  0.32618430259E+04  0.29356407053E+04 0.  0.
        4    1    3    3  502    0 -0.90539474460E+03  0.82967787964E+03  0.16042416208E+04  0.20203212166E+04  0.12699999809E+01 0.  1.
       -4    1    3    3    0  502  0.90539474460E+03 -0.82967787964E+03 -0.18240000696E+03  0.12415218093E+04  0.12699999809E+01 0. -1.
</event>
<event>
 5   0  0.1782660E-06  0.1972003E+04  0.7818609E-02  0.8619823E-01
        2   -1    0    0  501    0  0.00000000000E+00  0.00000000000E+00  0.13635948120E+04  0.13635948120E+04  0.25500000920E-02 0. -1.
       -2   -1    0    0    0  501  0.00000000000E+00  0.00000000000E+00 -0.71296773047E+03  0.71296773047E+03  0.25500000920E-02 0.  1.
    10030    2    1    2    0    0  0.00000000000E+00  0.00000000000E+00  0.65062708152E+03  0.20765625425E+04  0.19720031424E+04 0.  0.
        4    1    3    3  502    0  0.57034652523E+03  0.45731744203E+03  0.10220314604E+04  0.12565764285E+04  0.12699999809E+01 0. -1.
       -4    1    3    3    0  502 -0.57034652523E+03 -0.45731744203E+03 -0.37140437886E+03  0.81998611401E+03  0.12699999809E+01 0.  1.
</event>
<event>
 5   0  0.1110956E-06  0.1983684E+04  0.7818609E-02  0.8614287E-01
        1   -1    0    0  501    0  0.00000000000E+00  0.00000000000E+00  0.29624163996E+04  0.29624163996E+04  0.50400001928E-02 0.  1.
       -1   -1    0    0    0  501  0.00000000000E+00  0.00000000000E+00 -0.33207722734E+03  0.33207722738E+03  0.50400001928E-02 0. -1.
    10030    2    1    2    0    0  0.00000000000E+00  0.00000000000E+00  0.26303391723E+04  0.32944936270E+04  0.19836844752E+04 0.  0.
        1    1    3    3  502    0  0.57954303494E+03  0.31551169127E+03  0.85358581016E+02  0.66535993572E+03  0.50400001928E-02 0. -1.
       -1    1    3    3    0  502 -0.57954303494E+03 -0.31551169127E+03  0.25449805912E+04  0.26291336913E+04  0.50400001928E-02 0.  1.
</event>
<event>
 5   0  0.1130707E-06  0.3396583E+04  0.7818609E-02  0.8138746E-01
        1   -1    0    0  501    0  0.00000000000E+00  0.00000000000E+00  0.23301142339E+04  0.23301142339E+04  0.50400001928E-02 0. -1.
       -1   -1    0    0    0  501  0.00000000000E+00  0.00000000000E+00 -0.12377906290E+04  0.12377906290E+04  0.50400001928E-02 0.  1.
    10030    2    1    2    0    0  0.00000000000E+00  0.00000000000E+00  0.10923236050E+04  0.35679048629E+04  0.33965827316E+04 0.  0.
        3    1    3    3  502    0  0.98590051990E+03  0.11081545329E+04 -0.32271570795E+03  0.15179432605E+04  0.10100000352E+00 0. -1.
       -3    1    3    3    0  502 -0.98590051990E+03 -0.11081545329E+04  0.14150393129E+04  0.20499616024E+04  0.10100000352E+00 0.  1.
</event>
<event>
 5   0  0.1110956E-06  0.3454234E+04  0.7818609E-02  0.8124722E-01
       -1   -1    0    0    0  501  0.00000000000E+00  0.00000000000E+00  0.23199907288E+04  0.23199907288E+04  0.50400001928E-02 0.  1.
        1   -1    0    0  501    0  0.00000000000E+00  0.00000000000E+00 -0.12857522999E+04  0.12857522999E+04  0.50400001928E-02 0. -1.
    10030    2    1    2    0    0  0.00000000000E+00  0.00000000000E+00  0.10342384289E+04  0.36057430287E+04  0.34542341642E+04 0.  0.
        1    1    3    3  502    0  0.35898770052E+03  0.11679158937E+04 -0.75709088909E+03  0.14373887151E+04  0.50400001928E-02 0. -1.
       -1    1    3    3    0  502 -0.35898770052E+03 -0.11679158937E+04  0.17913293180E+04  0.21683543136E+04  0.50400001928E-02 0.  1.
</event>
<event>
 5   0  0.3041329E-06  0.3330427E+04  0.7818609E-02  0.8155196E-01
        2   -1    0    0  501    0  0.00000000000E+00  0.00000000000E+00  0.18094011269E+04  0.18094011269E+04  0.25500000920E-02 0. -1.
       -2   -1    0    0    0  501  0.00000000000E+00  0.00000000000E+00 -0.15325157495E+04  0.15325157495E+04  0.25500000920E-02 0.  1.
    10030    2    1    2    0    0  0.00000000000E+00  0.00000000000E+00  0.27688537739E+03  0.33419168764E+04  0.33304268340E+04 0.  0.
        2    1    3    3  502    0  0.77733497336E+03 -0.10512224953E+04  0.11733190064E+04  0.17567002835E+04  0.25500000920E-02 0. -1.
       -2    1    3    3    0  502 -0.77733497336E+03  0.10512224953E+04 -0.89643362898E+03  0.15852165929E+04  0.25500000920E-02 0.  1.
</event>
<event>
 5   0  0.1908726E-06  0.3408665E+04  0.7818609E-02  0.8135783E-01
        2   -1    0    0  501    0  0.00000000000E+00  0.00000000000E+00  0.13536409720E+04  0.13536409720E+04  0.25500000920E-02 0. -1.
       -2   -1    0    0    0  501  0.00000000000E+00  0.00000000000E+00 -0.21458784147E+04  0.21458784147E+04  0.25500000920E-02 0.  1.
    10030    2    1    2    0    0  0.00000000000E+00  0.00000000000E+00 -0.79223744272E+03  0.34995193868E+04  0.34086648079E+04 0.  0.
        5    1    3    3  502    0  0.67114658946E+03  0.70536491308E+03 -0.18322419835E+04  0.20748759436E+04  0.46999998093E+01 0.  1.
       -5    1    3    3    0  502 -0.67114658946E+03 -0.70536491308E+03  0.10400045408E+04  0.14246434431E+04  0.46999998093E+01 0. -1.
</event>
<event>
 5   0  0.1102175E-06  0.1892249E+04  0.7818609E-02  0.8658724E-01
        1   -1    0    0  501    0  0.00000000000E+00  0.00000000000E+00  0.13560808181E+04  0.13560808181E+04  0.50400001928E-02 0.  1.
       -1   -1    0    0    0  501  0.00000000000E+00  0.00000000000E+00 -0.66010221897E+03  0.66010221899E+03  0.50400001928E-02 0. -1.
    10030    2    1    2    0    0  0.00000000000E+00  0.00000000000E+00  0.69597859911E+03  0.20161830371E+04  0.18922494097E+04 0.  0.
        5    1    3    3  502    0 -0.48011511794E+03 -0.74866216609E+03  0.69180652328E+03  0.11267758966E+04  0.46999998093E+01 0.  1.
       -5    1    3    3    0  502  0.48011511794E+03  0.74866216609E+03  0.41720758308E+01  0.88940714053E+03  0.46999998093E+01 0. -1.
</event>
<event>
 5   0  0.1908726E-06  0.3313703E+04  0.7818609E-02  0.8159417E-01
        2   -1    0    0  501    0  0.00000000000E+00  0.00000000000E+00  0.17473295063E+04  0.17473295063E+04  0.25500000920E-02 0.  1.
       -2   -1    0    0    0  501  0.00000000000E+00  0.00000000000E+00 -0.15710588886E+04  0.15710588886E+04  0.25500000920E-02 0. -1.
    10030    2    1    2    0    0  0.00000000000E+00  0.00000000000E+00  0.17627061778E+03  0.33183883949E+04  0.33137033978E+04 0.  0.
        5    1    3    3  502    0 -0.57411572464E+03 -0.13033068283E+04 -0.75977184067E+03  0.16141539251E+04  0.46999998093E+01 0. -1.
       -5    1    3    3    0  502  0.57411572464E+03  0.13033068283E+04  0.93604245845E+03  0.17042344698E+04  0.46999998093E+01 0.  1.
</event>
<event>
 5   0  0.1089337E-06  0.3561612E+04  0.7818609E-02  0.8099342E-01
       -1   -1    0    0    0  501  0.00000000000E+00  0.00000000000E+00  0.27220552534E+04  0.27220552534E+04  0.50400001928E-02 0. -1.
        1   -1    0    0  501    0  0.00000000000E+00  0.00000000000E+00 -0.11650277457E+04  0.11650277457E+04  0.50400001928E-02 0.  1.
    10030    2    1    2    0    0  0.00000000000E+00  0.00000000000E+00  0.15570275077E+04  0.38870829991E+04  0.35616119359E+04 0.  0.
        2    1    3    3  502    0  0.32269778980E+03  0.13695444591E+04 -0.41278674724E+03  0.14663487947E+04  0.25500000920E-02 0.  1.
       -2    1    3    3    0  502 -0.32269778980E+03 -0.13695444591E+04  0.19698142549E+04  0.24207342043E+04  0.25500000920E-02 0. -1.
</event>
<event>
 5   0  0.3041329E-06  0.2385408E+04  0.7818609E-02  0.8444987E-01
       -2   -1    0    0    0  501  0.00000000000E+00  0.00000000000E+00  0.61037053924E+03  0.61037053924E+03  0.25500000920E-02 0. -1.
        2   -1    0    0  501    0  0.00000000000E+00  0.00000000000E+00 -0.23306226365E+04  0.23306226365E+04  0.25500000920E-02 0.  1.
    10030    2    1    2    0    0  0.00000000000E+00  0.00000000000E+00 -0.17202520973E+04  0.29409931758E+04  0.23854084727E+04 0.  0.
        2    1    3    3  502    0 -0.34834432080E+03  0.11381319318E+04 -0.95446849745E+03  0.15256795773E+04  0.25500000920E-02 0.  1.
       -2    1    3    3    0  502  0.34834432080E+03 -0.11381319318E+04 -0.76578359985E+03  0.14153135984E+04  0.25500000920E-02 0. -1.
</event>
<event>
 5   0  0.1102175E-06  0.3488228E+04  0.7818609E-02  0.8116585E-01
       -1   -1    0    0    0  501  0.00000000000E+00  0.00000000000E+00  0.16378918793E+04  0.16378918793E+04  0.50400001928E-02 0.  1.
        1   -1    0    0  501    0  0.00000000000E+00  0.00000000000E+00 -0.18572253986E+04  0.18572253986E+04  0.50400001928E-02 0. -1.
    10030    2    1    2    0    0  0.00000000000E+00  0.00000000000E+00 -0.21933351925E+03  0.34951172779E+04  0.34882284319E+04 0.  0.
        5    1    3    3  502    0  0.12900021719E+04  0.70754896420E+03  0.82876238051E+03  0.16886682071E+04  0.46999998093E+01 0.  1.
       -5    1    3    3    0  502 -0.12900021719E+04 -0.70754896420E+03 -0.10480958998E+04  0.18064490708E+04  0.46999998093E+01 0. -1.
</event>
<event>
 5   0  0.1782660E-06  0.3626412E+04  0.7818609E-02  0.8084468E-01
        2   -1    0    0  501    0  0.00000000000E+00  0.00000000000E+00  0.18581956475E+04  0.18581956475E+04  0.25500000920E-02 0.  1.
       -2   -1    0    0    0  501  0.00000000000E+00  0.00000000000E+00 -0.17693054170E+04  0.17693054170E+04  0.25500000920E-02 0. -1.
    10030    2    1    2    0    0  0.00000000000E+00  0.00000000000E+00  0.88890230485E+02  0.36275010645E+04  0.36264117940E+04 0.  0.
        4    1    3    3  502    0 -0.16001581225E+04 -0.32925277646E+03 -0.74242997031E+03  0.17944685234E+04  0.12699999809E+01 0. -1.
       -4    1    3    3    0  502  0.16001581225E+04  0.32925277646E+03  0.83132020079E+03  0.18330325411E+04  0.12699999809E+01 0.  1.
</event>
<event>
 5   0  0.1125196E-06  0.2246581E+04  0.7818609E-02  0.8499286E-01
        1   -1    0    0  501    0  0.00000000000E+00  0.00000000000E+00  0.13258521728E+04  0.13258521728E+04  0.50400001928E-02 0.  1.
       -1   -1    0    0    0  501  0.00000000000E+00  0.00000000000E+00 -0.95167603374E+03  0.95167603375E+03  0.50400001928E-02 0. -1.
    10030    2    1    2    0    0  0.00000000000E+00  0.00000000000E+00  0.37417613909E+03  0.22775282066E+04  0.22465811690E+04 0.  0.
        4    1    3    3  502    0 -0.37142901442E+03 -0.33482081048E+03 -0.83260831894E+03  0.97123772247E+03  0.12699999809E+01 0. -1.
       -4    1    3    3    0  502  0.37142901442E+03  0.33482081048E+03  0.12067844580E+04  0.13062904841E+04  0.12699999809E+01 0.  1.
</event>
<event>
 5   0  0.1782660E-06  0.3550967E+04  0.7818609E-02  0.8101817E-01
        2   -1    0    0  501    0  0.00000000000E+00  0.00000000000E+00  0.13920857098E+04  0.13920857098E+04  0.25500000920E-02 0.  1.
       -2   -1    0    0    0  501  0.00000000000E+00  0.00000000000E+00 -0.22644732604E+04  0.22644732604E+04  0.25500000920E-02 0. -1.
    10030    2    1    2    0    0  0.00000000000E+00  0.00000000000E+00 -0.87238755066E+03  0.36565589702E+04  0.35509665535E+04 0.  0.
        4    1    3    3  502    0 -0.39550898783E+02  0.17662764883E+04 -0.61762133953E+03  0.18715647568E+04  0.12699999809E+01 0.  1.
       -4    1    3    3    0  502  0.39550898783E+02 -0.17662764883E+04 -0.25476621113E+03  0.17849942135E+04  0.12699999809E+01 0. -1.
</event>
<event>
 5   0  0.1102175E-06  0.2073457E+04  0.7818609E-02  0.8573027E-01
       -1   -1    0    0    0  501  0.00000000000E+00  0.00000000000E+00  0.86324990293E+03  0.86324990295E+03  0.50400001928E-02 0. -1.
        1   -1    0    0  501    0  0.00000000000E+00  0.00000000000E+00 -0.12450693087E+04  0.12450693087E+04  0.50400001928E-02 0.  1.
    10030    2    1    2    0    0  0.00000000000E+00  0.00000000000E+00 -0.38181940576E+03  0.21083192117E+04  0.20734569780E+04 0.  0.
        5    1    3    3  502    0  0.84914395559E+03  0.59357026224E+03 -0.22912832050E+03  0.10610810482E+04  0.46999998093E+01 0. -1.
       -5    1    3    3    0  502 -0.84914395559E+03 -0.59357026224E+03 -0.15269108527E+03  0.10472381635E+04  0.46999998093E+01 0.  1.
</event>
<event>
 5   0  0.1908726E-06  0.2977998E+04  0.7818609E-02  0.8250042E-01
        2   -1    0    0  501    0  0.00000000000E+00  0.00000000000E+00  0.31350435767E+04  0.31350435767E+04  0.25500000920E-02 0.  1.
       -2   -1    0    0    0  501  0.00000000000E+00  0.00000000000E+00 -0.70720493580E+03  0.70720493581E+03  0.25500000920E-02 0. -1.
    10030    2    1    2    0    0  0.00000000000E+00  0.00000000000E+00  0.24278386409E+04  0.38422485125E+04  0.29779981809E+04 0.  0.
        5    1    3    3  502    0  0.11612599027E+04  0.13130669359E+03  0.23472386395E+02  0.11689050656E+04  0.46999998093E+01 0. -1.
       -5    1    3    3    0  502 -0.11612599027E+04 -0.13130669359E+03  0.24043662545E+04  0.26733434469E+04  0.46999998093E+01 0.  1.
</event>
<event>
 5   0  0.1089337E-06  0.3450365E+04  0.7818609E-02  0.8125655E-01
       -1   -1    0    0    0  501  0.00000000000E+00  0.00000000000E+00  0.21748347368E+04  0.21748347368E+04  0.50400001928E-02 0.  1.
        1   -1    0    0  501    0  0.00000000000E+00  0.00000000000E+00 -0.13684965718E+04  0.13684965719E+04  0.50400001928E-02 0. -1.
    10030    2    1    2    0    0  0.00000000000E+00  0.00000000000E+00  0.80633816495E+03  0.35433313087E+04  0.34503645498E+04 0.  0.
        2    1    3    3  502    0 -0.13046175193E+04 -0.10937579797E+04  0.11650543560E+03  0.17064310435E+04  0.25500000920E-02 0. -1.
       -2    1    3    3    0  502  0.13046175193E+04  0.10937579797E+04  0.68983272934E+03  0.18369002652E+04  0.25500000920E-02 0.  1.
</event>
<event>
 5   0  0.1125196E-06  0.3662910E+04  0.7818609E-02  0.8076231E-01
       -1   -1    0    0    0  501  0.00000000000E+00  0.00000000000E+00  0.19145821232E+04  0.19145821232E+04  0.50400001928E-02 0.  1.
        1   -1    0    0  501    0  0.00000000000E+00  0.00000000000E+00 -0.17519371715E+04  0.17519371715E+04  0.50400001928E-02 0. -1.
    10030    2    1    2    0    0  0.00000000000E+00  0.00000000000E+00  0.16264495171E+03  0.36665192947E+04  0.36629100942E+04 0.  0.
        4    1    3    3  502    0 -0.42107725700E+03  0.89570337146E+03  0.16238260668E+04  0.19016843308E+04  0.12699999809E+01 0.  1.
       -4    1    3    3    0  502  0.42107725700E+03 -0.89570337146E+03 -0.14611811151E+04  0.17648349639E+04  0.12699999809E+01 0. -1.
</event>
<event>
 5   0  0.1089337E-06  0.3546387E+04  0.7818609E-02  0.8102884E-01
        1   -1    0    0  501    0  0.00000000000E+00  0.00000000000E+00  0.12063369712E+04  0.12063369713E+04  0.50400001928E-02 0.  1.
       -1   -1    0    0    0  501  0.00000000000E+00  0.00000000000E+00 -0.26064146555E+04  0.26064146555E+04  0.50400001928E-02 0. -1.
    10030    2    1    2    0    0  0.00000000000E+00  0.00000000000E+00 -0.14000776842E+04  0.38127516267E+04  0.35463865335E+04 0.  0.
        2    1    3    3  502    0 -0.15627663750E+04  0.50546571022E+03  0.18339891518E+02  0.16425804938E+04  0.25500000920E-02 0.  1.
       -2    1    3    3    0  502  0.15627663750E+04 -0.50546571022E+03 -0.14184175757E+04  0.21701711329E+04  0.25500000920E-02 0. -1.
</event>
<event>
 5   0  0.1089337E-06  0.3511377E+04  0.7818609E-02  0.8111099E-01
       -1   -1    0    0    0  501  0.00000000000E+00  0.00000000000E+00  0.16573031000E+04  0.16573031000E+04  0.50400001928E-02 0. -1.
        1   -1    0    0  501    0  0.00000000000E+00  0.00000000000E+00 -0.18599143119E+04  0.18599143119E+04  0.50400001928E-02 0.  1.
    10030    2    1    2    0    0  0.00000000000E+00  0.00000000000E+00 -0.20261121192E+03  0.35172174119E+04  0.35113767983E+04 0.  0.
        2    1    3    3  502    0 -0.99914237365E+03  0.87969072731E+03 -0.12478931831E+04  0.18246585037E+04  0.25500000920E-02 0.  1.
       -2    1    3    3    0  502  0.99914237365E+03 -0.87969072731E+03  0.10452819712E+04  0.16925589082E+04  0.25500000920E-02 0. -1.
</event>
<event>
 5   0  0.1130707E-06  0.3516355E+04  0.7818609E-02  0.8109925E-01
       -1   -1    0    0    0  501  0.00000000000E+00  0.00000000000E+00  0.17347015466E+04  0.17347015466E+04  0.50400001928E-02 0. -1.
        1   -1    0    0  501    0  0.00000000000E+00  0.00000000000E+00 -0.17819710951E+04  0.17819710951E+04  0.50400001928E-02 0.  1.
    10030    2    1    2    0    0  0.00000000000E+00  0.00000000000E+00 -0.47269548489E+02  0.35166726417E+04  0.35163549393E+04 0.  0.
        3    1    3    3  502    0  0.14405093634E+04 -0.12129581550E+03 -0.10244289920E+04  0.17717885513E+04  0.10100000352E+00 0. -1.
       -3    1    3    3    0  502 -0.14405093634E+04  0.12129581550E+03  0.97715944346E+03  0.17448840904E+04  0.10100000352E+00 0.  1.
</event>
<event>
 5   0  0.1908726E-06  0.3594872E+04  0.7818609E-02  0.8091667E-01
       -2   -1    0    0    0  501  0.00000000000E+00  0.00000000000E+00  0.10609557544E+04  0.10609557544E+04  0.25500000920E-02 0. -1.
        2   -1    0    0  501    0  0.00000000000E+00  0.00000000000E+00 -0.30451559450E+04  0.30451559450E+04  0.25500000920E-02 0.  1.
    10030    2    1    2    0    0  0.00000000000E+00  0.00000000000E+00 -0.19842001906E+04  0.41061116994E+04  0.35948717489E+04 0.  0.
        5    1    3    3  502    0 -0.17374387772E+04  0.26690563574E+03 -0.56347079385E+03  0.18459289121E+04  0.46999998093E+01 0. -1.
       -5    1    3    3    0  502  0.17374387772E+04 -0.26690563574E+03 -0.14207293967E+04  0.22601827872E+04  0.46999998093E+01 0.  1.
</event>
<event>
 5   0  0.1089337E-06  0.3445000E+04  0.7818609E-02  0.8126949E-01
        1   -1    0    0  501    0  0.00000000000E+00  0.00000000000E+00  0.94376212964E+03  0.94376212965E+03  0.50400001928E-02 0.  1.
       -1   -1    0    0    0  501  0.00000000000E+00  0.00000000000E+00 -0.31438067726E+04  0.31438067726E+04  0.50400001928E-02 0. -1.
    10030    2    1    2    0    0  0.00000000000E+00  0.00000000000E+00 -0.22000446430E+04  0.40875689023E+04  0.34449997242E+04 0.  0.
        2    1    3    3  502    0  0.50048292189E+03 -0.85585138827E+03  0.57126538459E+03  0.11442503631E+04  0.25500000920E-02 0.  1.
       -2    1    3    3    0  502 -0.50048292189E+03  0.85585138827E+03 -0.27713100276E+04  0.29433185391E+04  0.25500000920E-02 0. -1.
</event>
<event>
 5   0  0.3041329E-06  0.2320630E+04  0.7818609E-02  0.8469831E-01
       -2   -1    0    0    0  501  0.00000000000E+00  0.00000000000E+00  0.93533557276E+03  0.93533557276E+03  0.25500000920E-02 0.  1.
        2   -1    0    0  501    0  0.00000000000E+00  0.00000000000E+00 -0.14394095920E+04  0.14394095920E+04  0.25500000920E-02 0. -1.
    10030    2    1    2    0    0  0.00000000000E+00  0.00000000000E+00 -0.50407401921E+03  0.23747451647E+04  0.23206300827E+04 0.  0.
        2    1    3    3  502    0 -0.11083503731E+04 -0.25026380288E+03 -0.11484141268E+02  0.11363117557E+04  0.25500000920E-02 0. -1.
       -2    1    3    3    0  502  0.11083503731E+04  0.25026380288E+03 -0.49258987795E+03  0.12384334090E+04  0.25500000920E-02 0.  1.
</event>
<event>
 5   0  0.1908726E-06  0.2768494E+04  0.7818609E-02  0.8313117E-01
        2   -1    0    0  501    0  0.00000000000E+00  0.00000000000E+00  0.21414322756E+04  0.21414322756E+04  0.25500000920E-02 0. -1.
       -2   -1    0    0    0  501  0.00000000000E+00  0.00000000000E+00 -0.89479330376E+03  0.89479330377E+03  0.25500000920E-02 0.  1.
    10030    2    1    2    0    0  0.00000000000E+00  0.00000000000E+00  0.12466389719E+04  0.30362255794E+04  0.27684936415E+04 0.  0.
        5    1    3    3  502    0  0.10837279086E+04  0.63551339064E+03 -0.14067854702E+02  0.12564089478E+04  0.46999998093E+01 0.  1.
       -5    1    3    3    0  502 -0.10837279086E+04 -0.63551339064E+03  0.12607068266E+04  0.17798166316E+04  0.46999998093E+01 0. -1.
</event>
<event>
 5   0  0.1110956E-06  0.2546307E+04  0.7818609E-02  0.8386672E-01
       -1   -1    0    0    0  501  0.00000000000E+00  0.00000000000E+00  0.15087156060E+04  0.15087156060E+04  0.50400001928E-02 0. -1.
        1   -1    0    0  501    0  0.00000000000E+00  0.00000000000E+00 -0.10743704643E+04  0.10743704643E+04  0.50400001928E-02 0.  1.
    10030    2    1    2    0    0  0.00000000000E+00  0.00000000000E+00  0.43434514167E+03  0.25830860703E+04  0.25463067263E+04 0.  0.
        1    1    3    3  502    0  0.10922337111E+04 -0.57914986974E+03 -0.91409338208E+02  0.12396550804E+04  0.50400001928E-02 0.  1.
       -1    1    3    3    0  502 -0.10922337111E+04  0.57914986974E+03  0.52575447987E+03  0.13434309898E+04  0.50400001928E-02 0. -1.
</event>
<event>
 5   0  0.1782660E-06  0.2639904E+04  0.7818609E-02  0.8354772E-01
        2   -1    0    0  501    0  0.00000000000E+00  0.00000000000E+00  0.25557464409E+04  0.25557464409E+04  0.25500000920E-02 0. -1.
       -2   -1    0    0    0  501  0.00000000000E+00  0.00000000000E+00 -0.68170800148E+03  0.68170800148E+03  0.25500000920E-02 0.  1.
    10030    2    1    2    0    0  0.00000000000E+00  0.00000000000E+00  0.18740384394E+04  0.32374544424E+04  0.26399036335E+04 0.  0.
        4    1    3    3  502    0 -0.11387488334E+04  0.15474554598E+03  0.17332768019E+04  0.20796502530E+04  0.12699999809E+01 0. -1.
       -4    1    3    3    0  502  0.11387488334E+04 -0.15474554598E+03  0.14076163747E+03  0.11578041894E+04  0.12699999809E+01 0.  1.
</event>
<event>
 5   0  0.1782660E-06  0.3631487E+04  0.7818609E-02  0.8083317E-01
       -2   -1    0    0    0  501  0.00000000000E+00  0.00000000000E+00  0.19404790704E+04  0.19404790704E+04  0.25500000920E-02 0.  1.
        2   -1    0    0  501    0  0.00000000000E+00  0.00000000000E+00 -0.16990260591E+04  0.16990260591E+04  0.25500000920E-02 0. -1.
    10030    2    1    2    0    0  0.00000000000E+00  0.00000000000E+00  0.24145301134E+03  0.36395051295E+04  0.36314870275E+04 0.  0.
        4    1    3    3  502    0  0.50008486670E+03  0.86954503146E+03 -0.13961308405E+04  0.17191208138E+04  0.12699999809E+01 0. -1.
       -4    1    3    3    0  502 -0.50008486670E+03 -0.86954503146E+03  0.16375838518E+04  0.19203843158E+04  0.12699999809E+01 0.  1.
</event>
<event>
 5   0  0.3041329E-06  0.3690149E+04  0.7818609E-02  0.8070148E-01
        2   -1    0    0  501    0  0.00000000000E+00  0.00000000000E+00  0.12882142914E+04  0.12882142914E+04  0.25500000920E-02 0.  1.
       -2   -1    0    0    0  501  0.00000000000E+00  0.00000000000E+00 -0.26426502584E+04  0.26426502584E+04  0.25500000920E-02 0. -1.
    10030    2    1    2    0    0  0.00000000000E+00  0.00000000000E+00 -0.13544359670E+04  0.39308645498E+04  0.36901489563E+04 0.  0.
        2    1    3    3  502    0 -0.12372214748E+04  0.86800818974E+03 -0.18046262982E+04  0.23538970392E+04  0.25500000920E-02 0. -1.
       -2    1    3    3    0  502  0.12372214748E+04 -0.86800818974E+03  0.45019033115E+03  0.15769675106E+04  0.25500000920E-02 0.  1.
</event>
<event>
 5   0  0.2565004E-06  0.3083033E+04  0.7818609E-02  0.8220410E-01
        2   -1    0    0  501    0  0.00000000000E+00  0.00000000000E+00  0.13381214852E+04  0.13381214852E+04  0.25500000920E-02 0.  1.
       -2   -1    0    0    0  501  0.00000000000E+00  0.00000000000E+00 -0.17758274356E+04  0.17758274356E+04  0.25500000920E-02 0. -1.
    10030    2    1    2    0    0  0.00000000000E+00  0.00000000000E+00 -0.43770595040E+03  0.31139489208E+04  0.30830328221E+04 0.  0.
        3    1    3    3  502    0  0.15058845251E+04 -0.22159604195E+03  0.27477521547E+02  0.15223495109E+04  0.10100000352E+00 0.  1.
       -3    1    3    3    0  502 -0.15058845251E+04  0.22159604195E+03 -0.46518347195E+03  0.15915994099E+04  0.10100000352E+00 0. -1.
</event>
<event>
 5   0  0.1908726E-06  0.3470594E+04  0.7818609E-02  0.8120794E-01
        2   -1    0    0  501    0  0.00000000000E+00  0.00000000000E+00  0.27121146818E+04  0.27121146818E+04  0.25500000920E-02 0. -1.
       -2   -1    0    0    0  501  0.00000000000E+00  0.00000000000E+00 -0.11102980102E+04  0.11102980102E+04  0.25500000920E-02 0.  1.
    10030    2    1    2    0    0  0.00000000000E+00  0.00000000000E+00  0.16018166717E+04  0.38224126920E+04  0.34705939172E+04 0.  0.
        5    1    3    3  502    0  0.36330836695E+03 -0.91212177639E+03  0.23767834407E+04  0.25715910870E+04  0.46999998093E+01 0. -1.
       -5    1    3    3    0  502 -0.36330836695E+03  0.91212177639E+03 -0.77496676907E+03  0.12508216050E+04  0.46999998093E+01 0.  1.
</event>
<event>
 5   0  0.3378848E-06  0.3425011E+04  0.7818609E-02  0.8131795E-01
        2   -1    0    0  501    0  0.00000000000E+00  0.00000000000E+00  0.17951814433E+04  0.17951814433E+04  0.25500000920E-02 0. -1.
       -2   -1    0    0    0  501  0.00000000000E+00  0.00000000000E+00 -0.16336369522E+04  0.16336369522E+04  0.25500000920E-02 0.  1.
    10030    2    1    2    0    0  0.00000000000E+00  0.00000000000E+00  0.16154449108E+03  0.34288183954E+04  0.34250107980E+04 0.  0.
        1    1    3    3  502    0  0.13598033537E+04 -0.28589730003E+03  0.10828207091E+04  0.17616194581E+04  0.50400001928E-02 0. -1.
       -1    1    3    3    0  502 -0.13598033537E+04  0.28589730003E+03 -0.92127621803E+03  0.16671989374E+04  0.50400001928E-02 0.  1.
</event>
<event>
 5   0  0.1089337E-06  0.3527975E+04  0.7818609E-02  0.8107192E-01
       -1   -1    0    0    0  501  0.00000000000E+00  0.00000000000E+00  0.19572265557E+04  0.19572265557E+04  0.50400001928E-02 0.  1.
        1   -1    0    0  501    0  0.00000000000E+00  0.00000000000E+00 -0.15898271488E+04  0.15898271488E+04  0.50400001928E-02 0. -1.
    10030    2    1    2    0    0  0.00000000000E+00  0.00000000000E+00  0.36739940694E+03  0.35470537045E+04  0.35279750082E+04 0.  0.
        2    1    3    3  502    0  0.14785302282E+04  0.10504031397E+03  0.11452012401E+04  0.18731179844E+04  0.25500000920E-02 0.  1.
       -2    1    3    3    0  502 -0.14785302282E+04 -0.10504031397E+03 -0.77780183312E+03  0.16739357201E+04  0.25500000920E-02 0. -1.
</event>
<event>
 5   0  0.1908726E-06  0.3494497E+04  0.7818609E-02  0.8115095E-01
       -2   -1    0    0    0  501  0.00000000000E+00  0.00000000000E+00  0.13577359853E+04  0.13577359853E+04  0.25500000920E-02 0.  1.
        2   -1    0    0  501    0  0.00000000000E+00  0.00000000000E+00 -0.22485053179E+04  0.22485053179E+04  0.25500000920E-02 0. -1.
    10030    2    1    2    0    0  0.00000000000E+00  0.00000000000E+00 -0.89076933257E+03  0.36062413031E+04  0.34944965779E+04 0.  0.
        5    1    3    3  502    0  0.13902100091E+03 -0.14065342653E+04  0.61468716488E+03  0.15412747577E+04  0.46999998093E+01 0.  1.
       -5    1    3    3    0  502 -0.13902100091E+03  0.14065342653E+04 -0.15054564974E+04  0.20649665454E+04  0.46999998093E+01 0. -1.
</event>
<event>
 5   0  0.1102175E-06  0.3408809E+04  0.7818609E-02  0.8135748E-01
        1   -1    0    0  501    0  0.00000000000E+00  0.00000000000E+00  0.19059813933E+04  0.19059813933E+04  0.50400001928E-02 0.  1.
       -1   -1    0    0    0  501  0.00000000000E+00  0.00000000000E+00 -0.15241459905E+04  0.15241459905E+04  0.50400001928E-02 0. -1.
    10030    2    1    2    0    0  0.00000000000E+00  0.00000000000E+00  0.38183540285E+03  0.34301273838E+04  0.34088085300E+04 0.  0.
        5    1    3    3  502    0  0.12760362362E+04 -0.11226273022E+04  0.62010026477E+02  0.17007139292E+04  0.46999998093E+01 0. -1.
       -5    1    3    3    0  502 -0.12760362362E+04  0.11226273022E+04  0.31982537638E+03  0.17294134546E+04  0.46999998093E+01 0.  1.
</event>
<event>
 5   0  0.1125196E-06  0.2994300E+04  0.7818609E-02  0.8245360E-01
        1   -1    0    0  501    0  0.00000000000E+00  0.00000000000E+00  0.16180323642E+04  0.16180323642E+04  0.50400001928E-02 0.  1.
       -1   -1    0    0    0  501  0.00000000000E+00  0.00000000000E+00 -0.13852987860E+04  0.13852987860E+04  0.50400001928E-02 0. -1.
    10030    2    1    2    0    0  0.00000000000E+00  0.00000000000E+00  0.23273357813E+03  0.30033311502E+04  0.29943000984E+04 0.  0.
        4    1    3    3  502    0  0.13894166140E+04 -0.54675296736E+03  0.22642157132E+03  0.15101939198E+04  0.12699999809E+01 0.  1.
       -4    1    3    3    0  502 -0.13894166140E+04  0.54675296736E+03  0.63120068100E+01  0.14931372304E+04  0.12699999809E+01 0. -1.
</event>
<event>
 5   0  0.1110956E-06  0.3407311E+04  0.7818609E-02  0.8136114E-01
       -1   -1    0    0    0  501  0.00000000000E+00  0.00000000000E+00  0.12564336531E+04  0.12564336531E+04  0.50400001928E-02 0. -1.
        1   -1    0    0  501    0  0.00000000000E+00  0.00000000000E+00 -0.23100633851E+04  0.23100633852E+04  0.50400001928E-02 0.  1.
    10030    2    1    2    0    0  0.00000000000E+00  0.00000000000E+00 -0.10536297320E+04  0.35664970383E+04  0.34073105981E+04 0.  0.
        1    1    3    3  502    0  0.10371576716E+04 -0.10724815282E+04  0.33412587671E+03  0.15289057413E+04  0.50400001928E-02 0. -1.
       -1    1    3    3    0  502 -0.10371576716E+04  0.10724815282E+04 -0.13877556087E+04  0.20375912970E+04  0.50400001928E-02 0.  1.
</event>
<event>
 5   0  0.1908726E-06  0.2030382E+04  0.7818609E-02  0.8592546E-01
       -2   -1    0    0    0  501  0.00000000000E+00  0.00000000000E+00  0.45407773405E+03  0.45407773406E+03  0.25500000920E-02 0. -1.
        2   -1    0    0  501    0  0.00000000000E+00  0.00000000000E+00 -0.22696844918E+04  0.22696844918E+04  0.25500000920E-02 0.  1.
    10030    2    1    2    0    0  0.00000000000E+00  0.00000000000E+00 -0.18156067578E+04  0.27237622259E+04  0.20303824182E+04 0.  0.
        5    1    3    3  502    0 -0.64325498941E+03  0.47284303764E+03 -0.66569706730E+02  0.80113115999E+03  0.46999998093E+01 0. -1.
       -5    1    3    3    0  502  0.64325498941E+03 -0.47284303764E+03 -0.17490370510E+04  0.19226310659E+04  0.46999998093E+01 0.  1.
</event>
<event>
 5   0  0.1782660E-06  0.2850984E+04  0.7818609E-02  0.8287612E-01
        2   -1    0    0  501    0  0.00000000000E+00  0.00000000000E+00  0.19870711397E+04  0.19870711397E+04  0.25500000920E-02 0. -1.
       -2   -1    0    0    0  501  0.00000000000E+00  0.00000000000E+00 -0.10226243015E+04  0.10226243015E+04  0.25500000920E-02 0.  1.
    10030    2    1    2    0    0  0.00000000000E+00  0.00000000000E+00  0.96444683822E+03  0.30096954413E+04  0.28509838557E+04 0.  0.
        4    1    3    3  502    0 -0.13916086459E+04  0.17209813567E+03  0.21135998512E+03  0.14180504391E+04  0.12699999809E+01 0.  1.
       -4    1    3    3    0  502  0.13916086459E+04 -0.17209813567E+03  0.75308685310E+03  0.15916450021E+04  0.12699999809E+01 0. -1.
</event>
<event>
 5   0  0.2565004E-06  0.2331371E+04  0.7818609E-02  0.8465654E-01
        2   -1    0    0  501    0  0.00000000000E+00  0.00000000000E+00  0.17330795783E+04  0.17330795783E+04  0.25500000920E-02 0.  1.
       -2   -1    0    0    0  501  0.00000000000E+00  0.00000000000E+00 -0.78405103616E+03  0.78405103616E+03  0.25500000920E-02 0. -1.
    10030    2    1    2    0    0  0.00000000000E+00  0.00000000000E+00  0.94902854210E+03  0.25171306144E+04  0.23313711323E+04 0.  0.
        3    1    3    3  502    0 -0.13762872160E+03  0.11572615576E+04  0.44748236996E+03  0.12483735255E+04  0.10100000352E+00 0.  1.
       -3    1    3    3    0  502  0.13762872160E+03 -0.11572615576E+04  0.50154617214E+03  0.12687570889E+04  0.10100000352E+00 0. -1.
</event>
<event>
 5   0  0.1089337E-06  0.3423735E+04  0.7818609E-02  0.8132106E-01
        1   -1    0    0  501    0  0.00000000000E+00  0.00000000000E+00  0.22851736482E+04  0.22851736482E+04  0.50400001928E-02 0.  1.
       -1   -1    0    0    0  501  0.00000000000E+00  0.00000000000E+00 -0.12823925029E+04  0.12823925029E+04  0.50400001928E-02 0. -1.
    10030    2    1    2    0    0  0.00000000000E+00  0.00000000000E+00  0.10027811453E+04  0.35675661511E+04  0.34237345424E+04 0.  0.
        2    1    3    3  502    0 -0.15982309327E+04 -0.11281423129E+02  0.11403562359E+04  0.19633852728E+04  0.25500000920E-02 0.  1.
       -2    1    3    3    0  502  0.15982309327E+04  0.11281423129E+02 -0.13757509060E+03  0.16041808783E+04  0.25500000920E-02 0. -1.
</event>
<event>
 5   0  0.1908726E-06  0.3621635E+04  0.7818609E-02  0.8085554E-01
        2   -1    0    0  501    0  0.00000000000E+00  0.00000000000E+00  0.25374920104E+04  0.25374920104E+04  0.25500000920E-02 0. -1.
       -2   -1    0    0    0  501  0.00000000000E+00  0.00000000000E+00 -0.12922442136E+04  0.12922442136E+04  0.25500000920E-02 0.  1.
    10030    2    1    2    0    0  0.00000000000E+00  0.00000000000E+00  0.12452477968E+04  0.38297362241E+04  0.36216346407E+04 0.  0.
        5    1    3    3  502    0 -0.13920287511E+04 -0.10954000805E+04  0.22499632907E+03  0.17855785668E+04  0.46999998093E+01 0. -1.
       -5    1    3    3    0  502  0.13920287511E+04  0.10954000805E+04  0.10202514677E+04  0.20441576572E+04  0.46999998093E+01 0.  1.
</event>
<event>
 5   0  0.1130707E-06  0.3459775E+04  0.7818609E-02  0.8123389E-01
        1   -1    0    0  501    0  0.00000000000E+00  0.00000000000E+00  0.11236034700E+04  0.11236034700E+04  0.50400001928E-02 0. -1.
       -1   -1    0    0    0  501  0.00000000000E+00  0.00000000000E+00 -0.26633156027E+04  0.26633156027E+04  0.50400001928E-02 0.  1.
    10030    2    1    2    0    0  0.00000000000E+00  0.00000000000E+00 -0.15397121327E+04  0.37869190727E+04  0.34597749366E+04 0.  0.
        3    1    3    3  502    0  0.78120293866E+03  0.42696165687E+03  0.85361007080E+03  0.12333792811E+04  0.10100000352E+00 0. -1.
       -3    1    3    3    0  502 -0.78120293866E+03 -0.42696165687E+03 -0.23933222035E+04  0.25535397917E+04  0.10100000352E+00 0.  1.
</event>
<event>
 5   0  0.1102175E-06  0.3317628E+04  0.7818609E-02  0.8158424E-01
       -1   -1    0    0    0  501  0.00000000000E+00  0.00000000000E+00  0.37669183917E+04  0.37669183917E+04  0.50400001928E-02 0.  1.
        1   -1    0    0  501    0  0.00000000000E+00  0.00000000000E+00 -0.73048134525E+03  0.73048134527E+03  0.50400001928E-02 0. -1.
    10030    2    1    2    0    0  0.00000000000E+00  0.00000000000E+00  0.30364370465E+04  0.44973997370E+04  0.33176278359E+04 0.  0.
        5    1    3    3  502    0 -0.42490205758E+03 -0.13985062257E+04  0.25815538911E+04  0.29666149067E+04  0.46999998093E+01 0.  1.
       -5    1    3    3    0  502  0.42490205758E+03  0.13985062257E+04  0.45488315535E+03  0.15307848303E+04  0.46999998093E+01 0. -1.
</event>
<event>
 5   0  0.1089337E-06  0.3501325E+04  0.7818609E-02  0.8113476E-01
        1   -1    0    0  501    0  0.00000000000E+00  0.00000000000E+00  0.24228672622E+04  0.24228672622E+04  0.50400001928E-02 0. -1.
       -1   -1    0    0    0  501  0.00000000000E+00  0.00000000000E+00 -0.12649555687E+04  0.12649555687E+04  0.50400001928E-02 0.  1.
    10030    2    1    2    0    0  0.00000000000E+00  0.00000000000E+00  0.11579116935E+04  0.36878228310E+04  0.35013251409E+04 0.  0.
        2    1    3    3  502    0  0.13732065184E+04 -0.84716931136E+03 -0.13651068085E+03  0.16192674733E+04  0.25500000920E-02 0.  1.
       -2    1    3    3    0  502 -0.13732065184E+04  0.84716931136E+03  0.12944223744E+04  0.20685553576E+04  0.25500000920E-02 0. -1.
</event>
<event>
 5   0  0.1908726E-06  0.3488543E+04  0.7818609E-02  0.8116511E-01
       -2   -1    0    0    0  501  0.00000000000E+00  0.00000000000E+00  0.14206565096E+04  0.14206565096E+04  0.25500000920E-02 0. -1.
        2   -1    0    0  501    0  0.00000000000E+00  0.00000000000E+00 -0.21416030956E+04  0.21416030956E+04  0.25500000920E-02 0.  1.
    10030    2    1    2    0    0  0.00000000000E+00  0.00000000000E+00 -0.72094658596E+03  0.35622596052E+04  0.34885426062E+04 0.  0.
        5    1    3    3  502    0  0.13595794112E+04 -0.29390645827E+03 -0.14351492638E+04  0.19986276995E+04  0.46999998093E+01 0.  1.
       -5    1    3    3    0  502 -0.13595794112E+04  0.29390645827E+03  0.71420267787E+03  0.15636319057E+04  0.46999998093E+01 0. -1.
</event>
<event>
 5   0  0.1110956E-06  0.3729392E+04  0.7818609E-02  0.8061479E-01
        1   -1    0    0  501    0  0.00000000000E+00  0.00000000000E+00  0.14373690909E+04  0.14373690909E+04  0.50400001928E-02 0.  1.
       -1   -1    0    0    0  501  0.00000000000E+00  0.00000000000E+00 -0.24190660192E+04  0.24190660192E+04  0.50400001928E-02 0. -1.
    10030    2    1    2    0    0  0.00000000000E+00  0.00000000000E+00 -0.98169692831E+03  0.38564351102E+04  0.37293917600E+04 0.  0.
        1    1    3    3  502    0 -0.15355524185E+04 -0.10319087031E+04 -0.73188537569E+03  0.19895760867E+04  0.50400001928E-02 0. -1.
       -1    1    3    3    0  502  0.15355524185E+04  0.10319087031E+04 -0.24981155262E+03  0.18668590235E+04  0.50400001928E-02 0.  1.
</event>
<event>
 5   0  0.1042825E-06  0.2037276E+04  0.7818609E-02  0.8589389E-01
        3   -1    0    0  501    0  0.00000000000E+00  0.00000000000E+00  0.11886032284E+04  0.11886032327E+04  0.10100000352E+00 0. -1.
       -3   -1    0    0    0  501  0.00000000000E+00  0.00000000000E+00 -0.87297705510E+03  0.87297706094E+03  0.10100000352E+00 0.  1.
    10030    2    1    2    0    0  0.00000000000E+00  0.00000000000E+00  0.31562617334E+03  0.20615802937E+04  0.20372759818E+04 0.  0.
        5    1    3    3  502    0  0.56159800647E+03  0.82261871245E+03  0.37368264284E+03  0.10638395906E+04  0.46999998093E+01 0. -1.
       -5    1    3    3    0  502 -0.56159800647E+03 -0.82261871245E+03 -0.58056469495E+02  0.99774070309E+03  0.46999998093E+01 0.  1.
</event>
<event>
 5   0  0.1782660E-06  0.3476997E+04  0.7818609E-02  0.8119263E-01
        2   -1    0    0  501    0  0.00000000000E+00  0.00000000000E+00  0.23794307831E+04  0.23794307831E+04  0.25500000920E-02 0. -1.
       -2   -1    0    0    0  501  0.00000000000E+00  0.00000000000E+00 -0.12702100839E+04  0.12702100839E+04  0.25500000920E-02 0.  1.
    10030    2    1    2    0    0  0.00000000000E+00  0.00000000000E+00  0.11092206992E+04  0.36496408670E+04  0.34769969655E+04 0.  0.
        4    1    3    3  502    0  0.24921131913E+03 -0.16004055703E+04  0.12176149368E+04  0.20263247564E+04  0.12699999809E+01 0. -1.
       -4    1    3    3    0  502 -0.24921131913E+03  0.16004055703E+04 -0.10839423765E+03  0.16233161106E+04  0.12699999809E+01 0.  1.
</event>
<event>
 5   0  0.1110956E-06  0.3739436E+04  0.7818609E-02  0.8059278E-01
       -1   -1    0    0    0  501  0.00000000000E+00  0.00000000000E+00  0.28753937291E+04  0.28753937291E+04  0.50400001928E-02 0.  1.
        1   -1    0    0  501    0  0.00000000000E+00  0.00000000000E+00 -0.12157798288E+04  0.12157798288E+04  0.50400001928E-02 0. -1.
    10030    2    1    2    0    0  0.00000000000E+00  0.00000000000E+00  0.16596139004E+04  0.40911735579E+04  0.37394361584E+04 0.  0.
        1    1    3    3  502    0 -0.13048996817E+04 -0.17391684978E+03  0.22824123954E+04  0.26348465976E+04  0.50400001928E-02 0.  1.
       -1    1    3    3    0  502  0.13048996817E+04  0.17391684978E+03 -0.62279849507E+03  0.14563269604E+04  0.50400001928E-02 0. -1.
</event>
<event>
 5   0  0.3041329E-06  0.3458926E+04  0.7818609E-02  0.8123594E-01
       -2   -1    0    0    0  501  0.00000000000E+00  0.00000000000E+00  0.18349070656E+04  0.18349070656E+04  0.25500000920E-02 0.  1.
        2   -1    0    0  501    0  0.00000000000E+00  0.00000000000E+00 -0.16300782018E+04  0.16300782018E+04  0.25500000920E-02 0. -1.
    10030    2    1    2    0    0  0.00000000000E+00  0.00000000000E+00  0.20482886380E+03  0.34649852674E+04  0.34589258506E+04 0.  0.
        2    1    3    3  502    0 -0.16408167335E+04  0.32398368023E+03  0.54340946810E+03  0.17585615793E+04  0.25500000920E-02 0. -1.
       -2    1    3    3    0  502  0.16408167335E+04 -0.32398368023E+03 -0.33858060430E+03  0.17064236882E+04  0.25500000920E-02 0.  1.
</event>
<event>
 5   0  0.1908726E-06  0.3543844E+04  0.7818609E-02  0.8103477E-01
        2   -1    0    0  501    0  0.00000000000E+00  0.00000000000E+00  0.22608502890E+04  0.22608502890E+04  0.25500000920E-02 0.  1.
       -2   -1    0    0    0  501  0.00000000000E+00  0.00000000000E+00 -0.13887284344E+04  0.13887284344E+04  0.25500000920E-02 0. -1.
    10030    2    1    2    0    0  0.00000000000E+00  0.00000000000E+00  0.87212185455E+03  0.36495787234E+04  0.35438437224E+04 0.  0.
        5    1    3    3  502    0 -0.11927899552E+04  0.14308106396E+03  0.17774063031E+04  0.21453240605E+04  0.46999998093E+01 0.  1.
       -5    1    3    3    0  502  0.11927899552E+04 -0.14308106396E+03 -0.90528444860E+03  0.15042546629E+04  0.46999998093E+01 0. -1.
</event>
<event>
 5   0  0.3378848E-06  0.3516106E+04  0.7818609E-02  0.8109984E-01
       -2   -1    0    0    0  501  0.00000000000E+00  0.00000000000E+00  0.88786676098E+03  0.88786676098E+03  0.25500000920E-02 0.  1.
        2   -1    0    0  501    0  0.00000000000E+00  0.00000000000E+00 -0.34810963296E+04  0.34810963296E+04  0.25500000920E-02 0. -1.
    10030    2    1    2    0    0  0.00000000000E+00  0.00000000000E+00 -0.25932295687E+04  0.43689630906E+04  0.35161056428E+04 0.  0.
        1    1    3    3  502    0 -0.37251026188E+02 -0.17187012982E+04 -0.83934702313E+03  0.19130669660E+04  0.50400001928E-02 0.  1.
       -1    1    3    3    0  502  0.37251026188E+02  0.17187012982E+04 -0.17538825455E+04  0.24558961246E+04  0.50400001928E-02 0. -1.
</event>
<event>
 5   0  0.1089337E-06  0.2806514E+04  0.7818609E-02  0.8301249E-01
       -1   -1    0    0    0  501  0.00000000000E+00  0.00000000000E+00  0.61337743803E+03  0.61337743805E+03  0.50400001928E-02 0. -1.
        1   -1    0    0  501    0  0.00000000000E+00  0.00000000000E+00 -0.32103068216E+04  0.32103068216E+04  0.50400001928E-02 0.  1.
    10030    2    1    2    0    0  0.00000000000E+00  0.00000000000E+00 -0.25969293835E+04  0.38236842596E+04  0.28065136904E+04 0.  0.
        2    1    3    3  502    0  0.34220976996E+03 -0.87055106994E+03 -0.27235993000E+04  0.28797499612E+04  0.25500000920E-02 0.  1.
       -2    1    3    3    0  502 -0.34220976996E+03  0.87055106994E+03  0.12666991646E+03  0.94393429844E+03  0.25500000920E-02 0. -1.
</event>
<event>
 5   0  0.3378848E-06  0.3489805E+04  0.7818609E-02  0.8116210E-01
       -2   -1    0    0    0  501  0.00000000000E+00  0.00000000000E+00  0.11681350621E+04  0.11681350621E+04  0.25500000920E-02 0.  1.
        2   -1    0    0  501    0  0.00000000000E+00  0.00000000000E+00 -0.26064494252E+04  0.26064494252E+04  0.25500000920E-02 0. -1.
    10030    2    1    2    0    0  0.00000000000E+00  0.00000000000E+00 -0.14383143632E+04  0.37745844873E+04  0.34898051299E+04 0.  0.
        1    1    3    3  502    0 -0.73237460541E+03  0.51448831448E+02  0.99294434068E+03  0.12348919016E+04  0.50400001928E-02 0.  1.
       -1    1    3    3    0  502  0.73237460541E+03 -0.51448831448E+02 -0.24312587038E+04  0.25396925857E+04  0.50400001928E-02 0. -1.
</event>
<event>
 5   0  0.1110956E-06  0.3614001E+04  0.7818609E-02  0.8087292E-01
        1   -1    0    0  501    0  0.00000000000E+00  0.00000000000E+00  0.23522873890E+04  0.23522873890E+04  0.50400001928E-02 0. -1.
       -1   -1    0    0    0  501  0.00000000000E+00  0.00000000000E+00 -0.13881170602E+04  0.13881170602E+04  0.50400001928E-02 0.  1.
    10030    2    1    2    0    0  0.00000000000E+00  0.00000000000E+00  0.96417032875E+03  0.37404044492E+04  0.36140006946E+04 0.  0.
        1    1    3    3  502    0  0.11841892454E+04 -0.13291742396E+04  0.80316459820E+03  0.19529674088E+04  0.50400001928E-02 0. -1.
       -1    1    3    3    0  502 -0.11841892454E+04  0.13291742396E+04  0.16100573055E+03  0.17874370404E+04  0.50400001928E-02 0.  1.
</event>
<event>
 5   0  0.1102175E-06  0.3503946E+04  0.7818609E-02  0.8112855E-01
        1   -1    0    0  501    0  0.00000000000E+00  0.00000000000E+00  0.25411925269E+04  0.25411925269E+04  0.50400001928E-02 0. -1.
       -1   -1    0    0    0  501  0.00000000000E+00  0.00000000000E+00 -0.12078617057E+04  0.12078617058E+04  0.50400001928E-02 0.  1.
    10030    2    1    2    0    0  0.00000000000E+00  0.00000000000E+00  0.13333308212E+04  0.37490542327E+04  0.35039458559E+04 0.  0.
        5    1    3    3  502    0 -0.14476182922E+04  0.34752932496E+03 -0.32152771835E+03  0.15230815852E+04  0.46999998093E+01 0.  1.
       -5    1    3    3    0  502  0.14476182922E+04 -0.34752932496E+03  0.16548585395E+04  0.22259726475E+04  0.46999998093E+01 0. -1.
</event>
<event>
 5   0  0.1110956E-06  0.3516011E+04  0.7818609E-02  0.8110006E-01
        1   -1    0    0  501    0  0.00000000000E+00  0.00000000000E+00  0.18609101027E+04  0.18609101027E+04  0.50400001928E-02 0.  1.
       -1   -1    0    0    0  501  0.00000000000E+00  0.00000000000E+00 -0.16607911314E+04  0.16607911314E+04  0.50400001928E-02 0. -1.
    10030    2    1    2    0    0  0.00000000000E+00  0.00000000000E+00  0.20011897131E+03  0.35217012342E+04  0.35160108049E+04 0.  0.
        1    1    3    3  502    0 -0.73506647204E+03  0.37442676723E+03 -0.14548913960E+04  0.16724912844E+04  0.50400001928E-02 0. -1.
       -1    1    3    3    0  502  0.73506647204E+03 -0.37442676723E+03  0.16550103673E+04  0.18492099497E+04  0.50400001928E-02 0.  1.
</event>
<event>
 5   0  0.1125196E-06  0.3264083E+04  0.7818609E-02  0.8172095E-01
        1   -1    0    0  501    0  0.00000000000E+00  0.00000000000E+00  0.15298805765E+04  0.15298805765E+04  0.50400001928E-02 0.  1.
       -1   -1    0    0    0  501  0.00000000000E+00  0.00000000000E+00 -0.17410239108E+04  0.17410239108E+04  0.50400001928E-02 0. -1.
    10030    2    1    2    0    0  0.00000000000E+00  0.00000000000E+00 -0.21114333427E+03  0.32709044873E+04  0.32640825139E+04 0.  0.
        4    1    3    3  502    0  0.13103013173E+03 -0.15600919880E+04 -0.56751358275E+03  0.16652715052E+04  0.12699999809E+01 0. -1.
       -4    1    3    3    0  502 -0.13103013173E+03  0.15600919880E+04  0.35637024848E+03  0.16056329821E+04  0.12699999809E+01 0.  1.
</event>
<event>
 5   0  0.2565004E-06  0.3365371E+04  0.7818609E-02  0.8146458E-01
        2   -1    0    0  501    0  0.00000000000E+00  0.00000000000E+00  0.18957773198E+04  0.18957773198E+04  0.25500000920E-02 0. -1.
       -2   -1    0    0    0  501  0.00000000000E+00  0.00000000000E+00 -0.14935456716E+04  0.14935456716E+04  0.25500000920E-02 0.  1.
    10030    2    1    2    0    0  0.00000000000E+00  0.00000000000E+00  0.40223164816E+03  0.33893229914E+04  0.33653707138E+04 0.  0.
        3    1    3    3  502    0  0.97245718057E+03  0.53384724009E+03  0.14753337841E+04  0.18458807190E+04  0.10100000352E+00 0. -1.
       -3    1    3    3    0  502 -0.97245718057E+03 -0.53384724009E+03 -0.10731021360E+04  0.15434422724E+04  0.10100000352E+00 0.  1.
</event>
<event>
 5   0  0.3378848E-06  0.1770308E+04  0.7818609E-02  0.8722251E-01
        2   -1    0    0  501    0  0.00000000000E+00  0.00000000000E+00  0.12422354002E+04  0.12422354002E+04  0.25500000920E-02 0. -1.
       -2   -1    0    0    0  501  0.00000000000E+00  0.00000000000E+00 -0.63071583528E+03  0.63071583528E+03  0.25500000920E-02 0.  1.
    10030    2    1    2    0    0  0.00000000000E+00  0.00000000000E+00  0.61151956492E+03  0.18729512355E+04  0.17703079258E+04 0.  0.
        1    1    3    3  502    0  0.64434499442E+03 -0.35502320689E+03  0.82651362743E+03  0.11065020224E+04  0.50400001928E-02 0. -1.
       -1    1    3    3    0  502 -0.64434499442E+03  0.35502320689E+03 -0.21499406251E+03  0.76644921306E+03  0.50400001928E-02 0.  1.
</event>
<event>
 5   0  0.1782660E-06  0.3360048E+04  0.7818609E-02  0.8147782E-01
        2   -1    0    0  501    0  0.00000000000E+00  0.00000000000E+00  0.28789421897E+04  0.28789421897E+04  0.25500000920E-02 0. -1.
       -2   -1    0    0    0  501  0.00000000000E+00  0.00000000000E+00 -0.98038831954E+03  0.98038831954E+03  0.25500000920E-02 0.  1.
    10030    2    1    2    0    0  0.00000000000E+00  0.00000000000E+00  0.18985538702E+04  0.38593305093E+04  0.33600483898E+04 0.  0.
        4    1    3    3  502    0 -0.16087360244E+04  0.18603603892E+03  0.14627364610E+04  0.21822558446E+04  0.12699999809E+01 0. -1.
       -4    1    3    3    0  502  0.16087360244E+04 -0.18603603892E+03  0.43581740924E+03  0.16770746647E+04  0.12699999809E+01 0.  1.
</event>
<event>
 5   0  0.1908726E-06  0.3486994E+04  0.7818609E-02  0.8116879E-01
        2   -1    0    0  501    0  0.00000000000E+00  0.00000000000E+00  0.28941326621E+04  0.28941326621E+04  0.25500000920E-02 0. -1.
       -2   -1    0    0    0  501  0.00000000000E+00  0.00000000000E+00 -0.10503254253E+04  0.10503254253E+04  0.25500000920E-02 0.  1.
    10030    2    1    2    0    0  0.00000000000E+00  0.00000000000E+00  0.18438072368E+04  0.39444580874E+04  0.34869936159E+04 0.  0.
        5    1    3    3  502    0  0.59552065174E+02 -0.16966006572E+04  0.47260717801E+03  0.17622088052E+04  0.46999998093E+01 0. -1.
       -5    1    3    3    0  502 -0.59552065174E+02  0.16966006572E+04  0.13712000588E+04  0.21822492822E+04  0.46999998093E+01 0.  1.
</event>
<event>
 5   0  0.1908726E-06  0.3472873E+04  0.7818609E-02  0.8120249E-01
       -2   -1    0    0    0  501  0.00000000000E+00  0.00000000000E+00  0.17511622963E+04  0.17511622963E+04  0.25500000920E-02 0. -1.
        2   -1    0    0  501    0  0.00000000000E+00  0.00000000000E+00 -0.17218344344E+04  0.17218344344E+04  0.25500000920E-02 0.  1.
    10030    2    1    2    0    0  0.00000000000E+00  0.00000000000E+00  0.29327861909E+02  0.34729967307E+04  0.34728728983E+04 0.  0.
        5    1    3    3  502    0  0.51438317148E+03 -0.18510100695E+03  0.16628540713E+04  0.17504165739E+04  0.46999998093E+01 0. -1.
       -5    1    3    3    0  502 -0.51438317148E+03  0.18510100695E+03 -0.16335262093E+04  0.17225801568E+04  0.46999998093E+01 0.  1.
</event>
<event>
 5   0  0.3041329E-06  0.3431790E+04  0.7818609E-02  0.8130148E-01
       -2   -1    0    0    0  501  0.00000000000E+00  0.00000000000E+00  0.11773036693E+04  0.11773036693E+04  0.25500000920E-02 0. -1.
        2   -1    0    0  501    0  0.00000000000E+00  0.00000000000E+00 -0.25008803918E+04  0.25008803918E+04  0.25500000920E-02 0.  1.
    10030    2    1    2    0    0  0.00000000000E+00  0.00000000000E+00 -0.13235767224E+04  0.36781840611E+04  0.34317900063E+04 0.  0.
        2    1    3    3  502    0  0.12819006119E+04  0.42622967594E+03  0.47216874102E+03  0.14310430586E+04  0.25500000920E-02 0. -1.
       -2    1    3    3    0  502 -0.12819006119E+04 -0.42622967594E+03 -0.17957454635E+04  0.22471410025E+04  0.25500000920E-02 0.  1.
</event>
<event>
 5   0  0.1110956E-06  0.3526451E+04  0.7818609E-02  0.8107550E-01
       -1   -1    0    0    0  501  0.00000000000E+00  0.00000000000E+00  0.13150947969E+04  0.13150947969E+04  0.50400001928E-02 0.  1.
        1   -1    0    0  501    0  0.00000000000E+00  0.00000000000E+00 -0.23640615309E+04  0.23640615309E+04  0.50400001928E-02 0. -1.
    10030    2    1    2    0    0  0.00000000000E+00  0.00000000000E+00 -0.10489667340E+04  0.36791563278E+04  0.35264514849E+04 0.  0.
        1    1    3    3  502    0  0.13474311990E+04 -0.10056454091E+04  0.29618900297E+02  0.16815976939E+04  0.50400001928E-02 0.  1.
       -1    1    3    3    0  502 -0.13474311990E+04  0.10056454091E+04 -0.10785856343E+04  0.19975586338E+04  0.50400001928E-02 0. -1.
</event>
<event>
 5   0  0.1089337E-06  0.2105886E+04  0.7818609E-02  0.8558655E-01
        1   -1    0    0  501    0  0.00000000000E+00  0.00000000000E+00  0.93011821234E+03  0.93011821236E+03  0.50400001928E-02 0. -1.
       -1   -1    0    0    0  501  0.00000000000E+00  0.00000000000E+00 -0.11919874873E+04  0.11919874873E+04  0.50400001928E-02 0.  1.
    10030    2    1    2    0    0  0.00000000000E+00  0.00000000000E+00 -0.26186927498E+03  0.21221056997E+04  0.21058862940E+04 0.  0.
        2    1    3    3  502    0 -0.74049764200E+03 -0.29904305955E+03  0.56059105173E+03  0.97571811327E+03  0.25500000920E-02 0. -1.
       -2    1    3    3    0  502  0.74049764200E+03  0.29904305955E+03 -0.82246032671E+03  0.11463875864E+04  0.25500000920E-02 0.  1.
</event>
<event>
 5   0  0.1125196E-06  0.3473769E+04  0.7818609E-02  0.8120035E-01
        1   -1    0    0  501    0  0.00000000000E+00  0.00000000000E+00  0.19589101909E+04  0.19589101909E+04  0.50400001928E-02 0.  1.
       -1   -1    0    0    0  501  0.00000000000E+00  0.00000000000E+00 -0.15400237470E+04  0.15400237470E+04  0.50400001928E-02 0. -1.
    10030    2    1    2    0    0  0.00000000000E+00  0.00000000000E+00  0.41888644390E+03  0.34989339378E+04  0.34737692566E+04 0.  0.
        4    1    3    3  502    0 -0.29748232124E+03  0.17093365658E+04  0.29027023862E+03  0.17591434424E+04  0.12699999809E+01 0. -1.
       -4    1    3    3    0  502  0.29748232124E+03 -0.17093365658E+04  0.12861620528E+03  0.17397904954E+04  0.12699999809E+01 0.  1.
</event>
<event>
 5   0  0.1110956E-06  0.2394152E+04  0.7818609E-02  0.8441696E-01
       -1   -1    0    0    0  501  0.00000000000E+00  0.00000000000E+00  0.13452849075E+04  0.13452849075E+04  0.50400001928E-02 0. -1.
        1   -1    0    0  501    0  0.00000000000E+00  0.00000000000E+00 -0.10651951394E+04  0.10651951394E+04  0.50400001928E-02 0.  1.
    10030    2    1    2    0    0  0.00000000000E+00  0.00000000000E+00  0.28008976805E+03  0.24104800469E+04  0.23941519957E+04 0.  0.
        1    1    3    3  502    0 -0.10306514425E+04 -0.59228408361E+03 -0.21561425830E+01  0.11887167369E+04  0.50400001928E-02 0. -1.
       -1    1    3    3    0  502  0.10306514425E+04  0.59228408361E+03  0.28224591064E+03  0.12217633100E+04  0.50400001928E-02 0.  1.
</event>
<event>
 5   0  0.3041329E-06  0.2603903E+04  0.7818609E-02  0.8366877E-01
       -2   -1    0    0    0  501  0.00000000000E+00  0.00000000000E+00  0.11806801254E+04  0.11806801254E+04  0.25500000920E-02 0.  1.
        2   -1    0    0  501    0  0.00000000000E+00  0.00000000000E+00 -0.14356786112E+04  0.14356786112E+04  0.25500000920E-02 0. -1.
    10030    2    1    2    0    0  0.00000000000E+00  0.00000000000E+00 -0.25499848576E+03  0.26163587366E+04  0.26039026117E+04 0.  0.
        2    1    3    3  502    0  0.71194874460E+03 -0.48909652264E+03  0.85132237016E+03  0.12127803599E+04  0.25500000920E-02 0.  1.
       -2    1    3    3    0  502 -0.71194874460E+03  0.48909652264E+03 -0.11063208559E+04  0.14035783767E+04  0.25500000920E-02 0. -1.
</event>
<event>
 5   0  0.3041329E-06  0.3331953E+04  0.7818609E-02  0.8154812E-01
        2   -1    0    0  501    0  0.00000000000E+00  0.00000000000E+00  0.19078253269E+04  0.19078253269E+04  0.25500000920E-02 0.  1.
       -2   -1    0    0    0  501  0.00000000000E+00  0.00000000000E+00 -0.14547857015E+04  0.14547857015E+04  0.25500000920E-02 0. -1.
    10030    2    1    2    0    0  0.00000000000E+00  0.00000000000E+00  0.45303962546E+03  0.33626110284E+04  0.33319525846E+04 0.  0.
        2    1    3    3  502    0 -0.43133301932E+03  0.16021369247E+04  0.74850221344E+02  0.16608712938E+04  0.25500000920E-02 0. -1.
       -2    1    3    3    0  502  0.43133301932E+03 -0.16021369247E+04  0.37818940411E+03  0.17017397346E+04  0.25500000920E-02 0.  1.
</event>
<event>
 5   0  0.1089337E-06  0.3465550E+04  0.7818609E-02  0.8122003E-01
       -1   -1    0    0    0  501  0.00000000000E+00  0.00000000000E+00  0.15299045629E+04  0.15299045629E+04  0.50400001928E-02 0.  1.
        1   -1    0    0  501    0  0.00000000000E+00  0.00000000000E+00 -0.19625468412E+04  0.19625468413E+04  0.50400001928E-02 0. -1.
    10030    2    1    2    0    0  0.00000000000E+00  0.00000000000E+00 -0.43264227832E+03  0.34924514042E+04  0.34655500962E+04 0.  0.
        2    1    3    3  502    0  0.10064404731E+04 -0.10550863287E+04 -0.11597395890E+04  0.18630956769E+04  0.25500000920E-02 0. -1.
       -2    1    3    3    0  502 -0.10064404731E+04  0.10550863287E+04  0.72709731068E+03  0.16293557273E+04  0.25500000920E-02 0.  1.
</event>
<event>
 5   0  0.1125196E-06  0.3451087E+04  0.7818609E-02  0.8125481E-01
       -1   -1    0    0    0  501  0.00000000000E+00  0.00000000000E+00  0.15357627206E+04  0.15357627206E+04  0.50400001928E-02 0. -1.
        1   -1    0    0  501    0  0.00000000000E+00  0.00000000000E+00 -0.19387758703E+04  0.19387758703E+04  0.50400001928E-02 0.  1.
    10030    2    1    2    0    0  0.00000000000E+00  0.00000000000E+00 -0.40301314969E+03  0.34745385908E+04  0.34510866144E+04 0.  0.
        4    1    3    3  502    0  0.59317220116E+03  0.15891505540E+04  0.11726045472E+03  0.17002953775E+04  0.12699999809E+01 0.  1.
       -4    1    3    3    0  502 -0.59317220116E+03 -0.15891505540E+04 -0.52027360441E+03  0.17742432133E+04  0.12699999809E+01 0. -1.
</event>
<event>
 5   0  0.1102175E-06  0.2033010E+04  0.7818609E-02  0.8591341E-01
       -1   -1    0    0    0  501  0.00000000000E+00  0.00000000000E+00  0.10157662325E+04  0.10157662326E+04  0.50400001928E-02 0.  1.
        1   -1    0    0  501    0  0.00000000000E+00  0.00000000000E+00 -0.10172446630E+04  0.10172446630E+04  0.50400001928E-02 0. -1.
    10030    2    1    2    0    0  0.00000000000E+00  0.00000000000E+00 -0.14784304759E+01  0.20330108956E+04  0.20330103580E+04 0.  0.
        5    1    3    3  502    0  0.38878602998E+03  0.15990873361E+03 -0.92623138794E+03  0.10171784771E+04  0.46999998093E+01 0. -1.
       -5    1    3    3    0  502 -0.38878602998E+03 -0.15990873361E+03  0.92475295746E+03  0.10158324185E+04  0.46999998093E+01 0.  1.
</event>
<event>
 5   0  0.1089337E-06  0.2556550E+04  0.7818609E-02  0.8383112E-01
        1   -1    0    0  501    0  0.00000000000E+00  0.00000000000E+00  0.23802382633E+04  0.23802382633E+04  0.50400001928E-02 0.  1.
       -1   -1    0    0    0  501  0.00000000000E+00  0.00000000000E+00 -0.68648037458E+03  0.68648037460E+03  0.50400001928E-02 0. -1.
    10030    2    1    2    0    0  0.00000000000E+00  0.00000000000E+00  0.16937578887E+04  0.30667186379E+04  0.25565499053E+04 0.  0.
        2    1    3    3  502    0  0.11720051910E+04 -0.26047277326E+03  0.32051594444E+03  0.12426474576E+04  0.25500000920E-02 0. -1.
       -2    1    3    3    0  502 -0.11720051910E+04  0.26047277326E+03  0.13732419443E+04  0.18240711803E+04  0.25500000920E-02 0.  1.
</event>
<event>
 5   0  0.1130707E-06  0.3386740E+04  0.7818609E-02  0.8141168E-01
       -1   -1    0    0    0  501  0.00000000000E+00  0.00000000000E+00  0.17041357409E+04  0.17041357410E+04  0.50400001928E-02 0.  1.
        1   -1    0    0  501    0  0.00000000000E+00  0.00000000000E+00 -0.16826725557E+04  0.16826725557E+04  0.50400001928E-02 0. -1.
    10030    2    1    2    0    0  0.00000000000E+00  0.00000000000E+00  0.21463185219E+02  0.33868082967E+04  0.33867402868E+04 0.  0.
        3    1    3    3  502    0  0.97336494064E+03 -0.32931292569E+02 -0.13745682761E+04  0.16846251018E+04  0.10100000352E+00 0. -1.
       -3    1    3    3    0  502 -0.97336494064E+03  0.32931292569E+02  0.13960314613E+04  0.17021831949E+04  0.10100000352E+00 0.  1.
</event>
<event>
 5   0  0.1130707E-06  0.3470499E+04  0.7818609E-02  0.8120817E-01
       -1   -1    0    0    0  501  0.00000000000E+00  0.00000000000E+00  0.16261076421E+04  0.16261076422E+04  0.50400001928E-02 0.  1.
        1   -1    0    0  501    0  0.00000000000E+00  0.00000000000E+00 -0.18517163173E+04  0.18517163173E+04  0.50400001928E-02 0. -1.
    10030    2    1    2    0    0  0.00000000000E+00  0.00000000000E+00 -0.22560867518E+03  0.34778239595E+04  0.34704985548E+04 0.  0.
        3    1    3    3  502    0  0.12537273822E+04 -0.93940465829E+03 -0.86055396986E+03  0.17874189789E+04  0.10100000352E+00 0. -1.
       -3    1    3    3    0  502 -0.12537273822E+04  0.93940465829E+03  0.63494529467E+03  0.16904049806E+04  0.10100000352E+00 0.  1.
</event>
<event>
 5   0  0.1110956E-06  0.2686005E+04  0.7818609E-02  0.8339560E-01
        1   -1    0    0  501    0  0.00000000000E+00  0.00000000000E+00  0.15239061262E+04  0.15239061262E+04  0.50400001928E-02 0.  1.
       -1   -1    0    0    0  501  0.00000000000E+00  0.00000000000E+00 -0.11835737275E+04  0.11835737275E+04  0.50400001928E-02 0. -1.
    10030    2    1    2    0    0  0.00000000000E+00  0.00000000000E+00  0.34033239874E+03  0.27074798537E+04  0.26860046568E+04 0.  0.
        1    1    3    3  502    0 -0.74665882207E+03 -0.10786796349E+04 -0.11954450314E+03  0.13173230581E+04  0.50400001928E-02 0.  1.
       -1    1    3    3    0  502  0.74665882207E+03  0.10786796349E+04  0.45987690188E+03  0.13901567955E+04  0.50400001928E-02 0. -1.
</event>
<event>
 5   0  0.1782660E-06  0.2091254E+04  0.7818609E-02  0.8565106E-01
       -2   -1    0    0    0  501  0.00000000000E+00  0.00000000000E+00  0.66253197928E+03  0.66253197928E+03  0.25500000920E-02 0. -1.
        2   -1    0    0  501    0  0.00000000000E+00  0.00000000000E+00 -0.16502388204E+04  0.16502388204E+04  0.25500000920E-02 0.  1.
    10030    2    1    2    0    0  0.00000000000E+00  0.00000000000E+00 -0.98770684117E+03  0.23127707997E+04  0.20912541615E+04 0.  0.
        4    1    3    3  502    0  0.35612196739E+03  0.80109120975E+03 -0.11240992546E+04  0.14255422579E+04  0.12699999809E+01 0. -1.
       -4    1    3    3    0  502 -0.35612196739E+03 -0.80109120975E+03  0.13639241347E+03  0.88722854178E+03  0.12699999809E+01 0.  1.
</event>
<event>
 5   0  0.3378848E-06  0.3132825E+04  0.7818609E-02  0.8206787E-01
        2   -1    0    0  501    0  0.00000000000E+00  0.00000000000E+00  0.17053605289E+04  0.17053605289E+04  0.25500000920E-02 0.  1.
       -2   -1    0    0    0  501  0.00000000000E+00  0.00000000000E+00 -0.14387854707E+04  0.14387854707E+04  0.25500000920E-02 0. -1.
    10030    2    1    2    0    0  0.00000000000E+00  0.00000000000E+00  0.26657505826E+03  0.31441459996E+04  0.31328248922E+04 0.  0.
        1    1    3    3  502    0  0.88745891870E+03  0.12322898488E+04 -0.25219205230E+03  0.15393902803E+04  0.50400001928E-02 0.  1.
       -1    1    3    3    0  502 -0.88745891870E+03 -0.12322898488E+04  0.51876711056E+03  0.16047557193E+04  0.50400001928E-02 0. -1.
</event>
<event>
 5   0  0.3378848E-06  0.3445976E+04  0.7818609E-02  0.8126714E-01
       -2   -1    0    0    0  501  0.00000000000E+00  0.00000000000E+00  0.14334365496E+04  0.14334365496E+04  0.25500000920E-02 0. -1.
        2   -1    0    0  501    0  0.00000000000E+00  0.00000000000E+00 -0.20710281925E+04  0.20710281925E+04  0.25500000920E-02 0.  1.
    10030    2    1    2    0    0  0.00000000000E+00  0.00000000000E+00 -0.63759164294E+03  0.35044647421E+04  0.34459759177E+04 0.  0.
        1    1    3    3  502    0 -0.11140350602E+04 -0.33288714525E+03  0.97432035710E+03  0.15169667515E+04  0.50400001928E-02 0. -1.
       -1    1    3    3    0  502  0.11140350602E+04  0.33288714525E+03 -0.16119120000E+04  0.19874979906E+04  0.50400001928E-02 0.  1.
</event>
<event>
 5   0  0.1130707E-06  0.3663344E+04  0.7818609E-02  0.8076134E-01
        1   -1    0    0  501    0  0.00000000000E+00  0.00000000000E+00  0.18253238131E+04  0.18253238131E+04  0.50400001928E-02 0.  1.
       -1   -1    0    0    0  501  0.00000000000E+00  0.00000000000E+00 -0.18380426341E+04  0.18380426341E+04  0.50400001928E-02 0. -1.
    10030    2    1    2    0    0  0.00000000000E+00  0.00000000000E+00 -0.12718821015E+02  0.36633664473E+04  0.36633443680E+04 0.  0.
        3    1    3    3  502    0 -0.85058073556E+03  0.14437009863E+04 -0.74613603271E+03  0.18342516498E+04  0.10100000352E+00 0. -1.
       -3    1    3    3    0  502  0.85058073556E+03 -0.14437009863E+04  0.73341721170E+03  0.18291147974E+04  0.10100000352E+00 0.  1.
</event>
<event>
 5   0  0.3378848E-06  0.2874562E+04  0.7818609E-02  0.8280486E-01
       -2   -1    0    0    0  501  0.00000000000E+00  0.00000000000E+00  0.12193972238E+04  0.12193972238E+04  0.25500000920E-02 0.  1.
        2   -1    0    0  501    0  0.00000000000E+00  0.00000000000E+00 -0.16940967320E+04  0.16940967320E+04  0.25500000920E-02 0. -1.
    10030    2    1    2    0    0  0.00000000000E+00  0.00000000000E+00 -0.47469950819E+03  0.29134939559E+04  0.28745621245E+04 0.  0.
        1    1    3    3  502    0  0.14214731742E+04 -0.20111244820E+03 -0.16753543313E+03  0.14453720363E+04  0.50400001928E-02 0.  1.
       -1    1    3    3    0  502 -0.14214731742E+04  0.20111244820E+03 -0.30716407507E+03  0.14681219196E+04  0.50400001928E-02 0. -1.
</event>
<event>
 5   0  0.2565004E-06  0.3493019E+04  0.7818609E-02  0.8115446E-01
       -2   -1    0    0    0  501  0.00000000000E+00  0.00000000000E+00  0.22608185747E+04  0.22608185747E+04  0.25500000920E-02 0. -1.
        2   -1    0    0  501    0  0.00000000000E+00  0.00000000000E+00 -0.13491998300E+04  0.13491998300E+04  0.25500000920E-02 0.  1.
    10030    2    1    2    0    0  0.00000000000E+00  0.00000000000E+00  0.91161874476E+03  0.36100184047E+04  0.34930193453E+04 0.  0.
        3    1    3    3  502    0  0.12817650656E+04 -0.37057784950E+03  0.16205204850E+04  0.20991275041E+04  0.10100000352E+00 0. -1.
       -3    1    3    3    0  502 -0.12817650656E+04  0.37057784950E+03 -0.70890174028E+03  0.15108909006E+04  0.10100000352E+00 0.  1.
</event>
<event>
 5   0  0.1908726E-06  0.2424260E+04  0.7818609E-02  0.8430477E-01
        2   -1    0    0  501    0  0.00000000000E+00  0.00000000000E+00  0.13494844681E+04  0.13494844681E+04  0.25500000920E-02 0. -1.
       -2   -1    0    0    0  501  0.00000000000E+00  0.00000000000E+00 -0.10887555944E+04  0.10887555944E+04  0.25500000920E-02 0.  1.
    10030    2    1    2    0    0  0.00000000000E+00  0.00000000000E+00  0.26072887379E+03  0.24382400625E+04  0.24242596925E+04 0.  0.
        5    1    3    3  502    0  0.34675071553E+03 -0.50819443935E+03 -0.92004290484E+03  0.11067965864E+04  0.46999998093E+01 0.  1.
       -5    1    3    3    0  502 -0.34675071553E+03  0.50819443935E+03  0.11807717786E+04  0.13314434761E+04  0.46999998093E+01 0. -1.
</event>
<event>
 5   0  0.1125196E-06  0.3117366E+04  0.7818609E-02  0.8210988E-01
       -1   -1    0    0    0  501  0.00000000000E+00  0.00000000000E+00  0.10632980911E+04  0.10632980911E+04  0.50400001928E-02 0.  1.
        1   -1    0    0  501    0  0.00000000000E+00  0.00000000000E+00 -0.22848649632E+04  0.22848649633E+04  0.50400001928E-02 0. -1.
    10030    2    1    2    0    0  0.00000000000E+00  0.00000000000E+00 -0.12215668722E+04  0.33481630544E+04  0.31173659098E+04 0.  0.
        4    1    3    3  502    0 -0.11617159442E+03 -0.76498931527E+03 -0.20640245050E+04  0.22042920092E+04  0.12699999809E+01 0. -1.
       -4    1    3    3    0  502  0.11617159442E+03  0.76498931527E+03  0.84245763284E+03  0.11438710451E+04  0.12699999809E+01 0.  1.
</event>
<event>
 5   0  0.1782660E-06  0.3506849E+04  0.7818609E-02  0.8112169E-01
       -2   -1    0    0    0  501  0.00000000000E+00  0.00000000000E+00  0.16827596898E+04  0.16827596898E+04  0.25500000920E-02 0. -1.
        2   -1    0    0  501    0  0.00000000000E+00  0.00000000000E+00 -0.18270568383E+04  0.18270568383E+04  0.25500000920E-02 0.  1.
    10030    2    1    2    0    0  0.00000000000E+00  0.00000000000E+00 -0.14429714845E+03  0.35098165281E+04  0.35068490692E+04 0.  0.
        4    1    3    3  502    0 -0.57689105285E+02 -0.10422203859E+04  0.13379242324E+04  0.16969367195E+04  0.12699999809E+01 0. -1.
       -4    1    3    3    0  502  0.57689105285E+02  0.10422203859E+04 -0.14822213809E+04  0.18128798086E+04  0.12699999809E+01 0.  1.
</event>
<event>
 5   0  0.1110956E-06  0.3543587E+04  0.7818609E-02  0.8103537E-01
       -1   -1    0    0    0  501  0.00000000000E+00  0.00000000000E+00  0.18249198709E+04  0.18249198709E+04  0.50400001928E-02 0. -1.
        1   -1    0    0  501    0  0.00000000000E+00  0.00000000000E+00 -0.17202135889E+04  0.17202135889E+04  0.50400001928E-02 0.  1.
    10030    2    1    2    0    0  0.00000000000E+00  0.00000000000E+00  0.10470628201E+03  0.35451334598E+04  0.35435868611E+04 0.  0.
        1    1    3    3  502    0  0.93637608693E+03  0.42534536423E+03  0.14957347512E+04  0.18151973173E+04  0.50400001928E-02 0. -1.
       -1    1    3    3    0  502 -0.93637608693E+03 -0.42534536423E+03 -0.13910284691E+04  0.17299361425E+04  0.50400001928E-02 0.  1.
</event>
<event>
 5   0  0.1102175E-06  0.2238469E+04  0.7818609E-02  0.8502585E-01
        1   -1    0    0  501    0  0.00000000000E+00  0.00000000000E+00  0.13419253168E+04  0.13419253168E+04  0.50400001928E-02 0.  1.
       -1   -1    0    0    0  501  0.00000000000E+00  0.00000000000E+00 -0.93349876247E+03  0.93349876248E+03  0.50400001928E-02 0. -1.
    10030    2    1    2    0    0  0.00000000000E+00  0.00000000000E+00  0.40842655433E+03  0.22754240793E+04  0.22384687825E+04 0.  0.
        5    1    3    3  502    0  0.39000407518E+03 -0.59156180205E+03 -0.67647035232E+03  0.97963399893E+03  0.46999998093E+01 0. -1.
       -5    1    3    3    0  502 -0.39000407518E+03  0.59156180205E+03  0.10848969067E+04  0.12957900804E+04  0.46999998093E+01 0.  1.
</event>
<event>
 5   0  0.1908726E-06  0.3577411E+04  0.7818609E-02  0.8095686E-01
        2   -1    0    0  501    0  0.00000000000E+00  0.00000000000E+00  0.27135562657E+04  0.27135562657E+04  0.25500000920E-02 0.  1.
       -2   -1    0    0    0  501  0.00000000000E+00  0.00000000000E+00 -0.11790677748E+04  0.11790677748E+04  0.25500000920E-02 0. -1.
    10030    2    1    2    0    0  0.00000000000E+00  0.00000000000E+00  0.15344884909E+04  0.38926240406E+04  0.35774106547E+04 0.  0.
        5    1    3    3  502    0 -0.11159199892E+04  0.68947248103E+03 -0.55596230259E+03  0.14246985282E+04  0.46999998093E+01 0. -1.
       -5    1    3    3    0  502  0.11159199892E+04 -0.68947248103E+03  0.20904507935E+04  0.24679255123E+04  0.46999998093E+01 0.  1.
</event>
<event>
 5   0  0.1089337E-06  0.3174221E+04  0.7818609E-02  0.8195659E-01
        1   -1    0    0  501    0  0.00000000000E+00  0.00000000000E+00  0.17560181315E+04  0.17560181316E+04  0.50400001928E-02 0.  1.
       -1   -1    0    0    0  501  0.00000000000E+00  0.00000000000E+00 -0.14344499967E+04  0.14344499967E+04  0.50400001928E-02 0. -1.
    10030    2    1    2    0    0  0.00000000000E+00  0.00000000000E+00  0.32156813489E+03  0.31904681282E+04  0.31742212922E+04 0.  0.
        2    1    3    3  502    0  0.35015463503E+03 -0.14785149532E+04  0.62172204495E+03  0.16416921260E+04  0.25500000920E-02 0.  1.
       -2    1    3    3    0  502 -0.35015463503E+03  0.14785149532E+04 -0.30015391006E+03  0.15487760022E+04  0.25500000920E-02 0. -1.
</event>
<event>
 5   0  0.1782660E-06  0.3484582E+04  0.7818609E-02  0.8117453E-01
        2   -1    0    0  501    0  0.00000000000E+00  0.00000000000E+00  0.16561036312E+04  0.16561036312E+04  0.25500000920E-02 0. -1.
       -2   -1    0    0    0  501  0.00000000000E+00  0.00000000000E+00 -0.18329642260E+04  0.18329642260E+04  0.25500000920E-02 0.  1.
    10030    2    1    2    0    0  0.00000000000E+00  0.00000000000E+00 -0.17686059487E+03  0.34890678572E+04  0.34845824488E+04 0.  0.
        4    1    3    3  502    0  0.13078216087E+04  0.62916987565E+02 -0.12393537406E+04  0.18028741539E+04  0.12699999809E+01 0.  1.
       -4    1    3    3    0  502 -0.13078216087E+04 -0.62916987565E+02  0.10624931458E+04  0.16861937033E+04  0.12699999809E+01 0. -1.
</event>
<event>
 5   0  0.1130707E-06  0.3499498E+04  0.7818609E-02  0.8113909E-01
        1   -1    0    0  501    0  0.00000000000E+00  0.00000000000E+00  0.18506985253E+04  0.18506985253E+04  0.50400001928E-02 0. -1.
       -1   -1    0    0    0  501  0.00000000000E+00  0.00000000000E+00 -0.16543056209E+04  0.16543056209E+04  0.50400001928E-02 0.  1.
    10030    2    1    2    0    0  0.00000000000E+00  0.00000000000E+00  0.19639290437E+03  0.35050041462E+04  0.34994976629E+04 0.  0.
        3    1    3    3  502    0 -0.20952210780E+03  0.33489018704E+03  0.18054518737E+04  0.18481632583E+04  0.10100000352E+00 0. -1.
       -3    1    3    3    0  502  0.20952210780E+03 -0.33489018704E+03 -0.16090589693E+04  0.16568408879E+04  0.10100000352E+00 0.  1.
</event>
<event>
 5   0  0.1102175E-06  0.3472692E+04  0.7818609E-02  0.8120292E-01
        1   -1    0    0  501    0  0.00000000000E+00  0.00000000000E+00  0.22546491360E+04  0.22546491360E+04  0.50400001928E-02 0.  1.
       -1   -1    0    0    0  501  0.00000000000E+00  0.00000000000E+00 -0.13371915628E+04  0.13371915628E+04  0.50400001928E-02 0. -1.
    10030    2    1    2    0    0  0.00000000000E+00  0.00000000000E+00  0.91745757320E+03  0.35918406989E+04  0.34726922132E+04 0.  0.
        5    1    3    3  502    0  0.95769590567E+03 -0.84771461326E+03 -0.75590285507E+03  0.14856691185E+04  0.46999998093E+01 0. -1.
       -5    1    3    3    0  502 -0.95769590567E+03  0.84771461326E+03  0.16733604283E+04  0.21061715804E+04  0.46999998093E+01 0.  1.
</event>
<event>
 5   0  0.1110956E-06  0.3504339E+04  0.7818609E-02  0.8112763E-01
       -1   -1    0    0    0  501  0.00000000000E+00  0.00000000000E+00  0.32796627508E+04  0.32796627508E+04  0.50400001928E-02 0.  1.
        1   -1    0    0  501    0  0.00000000000E+00  0.00000000000E+00 -0.93610153375E+03  0.93610153376E+03  0.50400001928E-02 0. -1.
    10030    2    1    2    0    0  0.00000000000E+00  0.00000000000E+00  0.23435612170E+04  0.42157642845E+04  0.35043386430E+04 0.  0.
        1    1    3    3  502    0  0.88870220130E+02 -0.11873010394E+04  0.27182561081E+04  0.29675744209E+04  0.50400001928E-02 0.  1.
       -1    1    3    3    0  502 -0.88870220130E+02  0.11873010394E+04 -0.37469489113E+03  0.12481898636E+04  0.50400001928E-02 0. -1.
</event>
<event>
 5   0  0.1110956E-06  0.3557267E+04  0.7818609E-02  0.8100351E-01
        1   -1    0    0  501    0  0.00000000000E+00  0.00000000000E+00  0.23334613754E+04  0.23334613754E+04  0.50400001928E-02 0.  1.
       -1   -1    0    0    0  501  0.00000000000E+00  0.00000000000E+00 -0.13557273701E+04  0.13557273701E+04  0.50400001928E-02 0. -1.
    10030    2    1    2    0    0  0.00000000000E+00  0.00000000000E+00  0.97773400530E+03  0.36891887455E+04  0.35572671835E+04 0.  0.
        1    1    3    3  502    0  0.16517876110E+04  0.23569040325E+03  0.11278201456E+04  0.20139340999E+04  0.50400001928E-02 0.  1.
       -1    1    3    3    0  502 -0.16517876110E+04 -0.23569040325E+03 -0.15008614027E+03  0.16752546456E+04  0.50400001928E-02 0. -1.
</event>
<event>
 5   0  0.2565004E-06  0.1872680E+04  0.7818609E-02  0.8668576E-01
        2   -1    0    0  501    0  0.00000000000E+00  0.00000000000E+00  0.16317767654E+04  0.16317767654E+04  0.25500000920E-02 0.  1.
       -2   -1    0    0    0  501  0.00000000000E+00  0.00000000000E+00 -0.53728690458E+03  0.53728690459E+03  0.25500000920E-02 0. -1.
    10030    2    1    2    0    0  0.00000000000E+00  0.00000000000E+00  0.10944898608E+04  0.21690636700E+04  0.18726796707E+04 0.  0.
        3    1    3    3  502    0  0.61725357966E+03  0.58393245929E+03  0.91597848552E+02  0.85461644887E+03  0.10100000352E+00 0. -1.
       -3    1    3    3    0  502 -0.61725357966E+03 -0.58393245929E+03  0.10028920122E+04  0.13144472211E+04  0.10100000352E+00 0.  1.
</event>
<event>
 5   0  0.3378848E-06  0.3512469E+04  0.7818609E-02  0.8110841E-01
       -2   -1    0    0    0  501  0.00000000000E+00  0.00000000000E+00  0.15946267918E+04  0.15946267919E+04  0.25500000920E-02 0. -1.
        2   -1    0    0  501    0  0.00000000000E+00  0.00000000000E+00 -0.19342203415E+04  0.19342203415E+04  0.25500000920E-02 0.  1.
    10030    2    1    2    0    0  0.00000000000E+00  0.00000000000E+00 -0.33959354962E+03  0.35288471333E+04  0.35124689766E+04 0.  0.
        1    1    3    3  502    0  0.17264476322E+04 -0.32095864437E+03 -0.14276967162E+03  0.17618226521E+04  0.50400001928E-02 0.  1.
       -1    1    3    3    0  502 -0.17264476322E+04  0.32095864437E+03 -0.19682387801E+03  0.17670244812E+04  0.50400001928E-02 0. -1.
</event>
<event>
 5   0  0.1908726E-06  0.3375995E+04  0.7818609E-02  0.8143823E-01
       -2   -1    0    0    0  501  0.00000000000E+00  0.00000000000E+00  0.34874068010E+04  0.34874068011E+04  0.25500000920E-02 0.  1.
        2   -1    0    0  501    0  0.00000000000E+00  0.00000000000E+00 -0.81703550739E+03  0.81703550739E+03  0.25500000920E-02 0. -1.
    10030    2    1    2    0    0  0.00000000000E+00  0.00000000000E+00  0.26703712937E+04  0.43044423084E+04  0.33759947779E+04 0.  0.
        5    1    3    3  502    0  0.12244760796E+04 -0.10785174479E+04  0.78416169711E+03  0.18103793006E+04  0.46999998093E+01 0. -1.
       -5    1    3    3    0  502 -0.12244760796E+04  0.10785174479E+04  0.18862095966E+04  0.24940630078E+04  0.46999998093E+01 0.  1.
</event>
<event>
 5   0  0.1908726E-06  0.1809973E+04  0.7818609E-02  0.8701014E-01
        2   -1    0    0  501    0  0.00000000000E+00  0.00000000000E+00  0.22201558647E+04  0.22201558647E+04  0.25500000920E-02 0. -1.
       -2   -1    0    0    0  501  0.00000000000E+00  0.00000000000E+00 -0.36889347043E+03  0.36889347044E+03  0.25500000920E-02 0.  1.
    10030    2    1    2    0    0  0.00000000000E+00  0.00000000000E+00  0.18512623942E+04  0.25890493351E+04  0.18099734825E+04 0.  0.
        5    1    3    3  502    0 -0.29437663794E+02  0.29466843658E+03 -0.29760636259E+03  0.41986628898E+03  0.46999998093E+01 0.  1.
       -5    1    3    3    0  502  0.29437663794E+02 -0.29466843658E+03  0.21488687568E+04  0.21691830461E+04  0.46999998093E+01 0. -1.
</event>
<event>
 5   0  0.1782660E-06  0.3441058E+04  0.7818609E-02  0.8127902E-01
        2   -1    0    0  501    0  0.00000000000E+00  0.00000000000E+00  0.15624775253E+04  0.15624775253E+04  0.25500000920E-02 0. -1.
       -2   -1    0    0    0  501  0.00000000000E+00  0.00000000000E+00 -0.18945682303E+04  0.18945682303E+04  0.25500000920E-02 0.  1.
    10030    2    1    2    0    0  0.00000000000E+00  0.00000000000E+00 -0.33209070495E+03  0.34570457556E+04  0.34410581396E+04 0.  0.
        4    1    3    3  502    0  0.52058983023E+03  0.76983095710E+03 -0.16207248000E+04  0.18682622846E+04  0.12699999809E+01 0.  1.
       -4    1    3    3    0  502 -0.52058983023E+03 -0.76983095710E+03  0.12886340951E+04  0.15887834710E+04  0.12699999809E+01 0. -1.
</event>
<event>
 5   0  0.1130707E-06  0.3609318E+04  0.7818609E-02  0.8088361E-01
        1   -1    0    0  501    0  0.00000000000E+00  0.00000000000E+00  0.17587723556E+04  0.17587723556E+04  0.50400001928E-02 0.  1.
       -1   -1    0    0    0  501  0.00000000000E+00  0.00000000000E+00 -0.18517425777E+04  0.18517425777E+04  0.50400001928E-02 0. -1.
    10030    2    1    2    0    0  0.00000000000E+00  0.00000000000E+00 -0.92970222117E+02  0.36105149333E+04  0.36093177501E+04 0.  0.
        3    1    3    3  502    0 -0.22936664280E+03 -0.70717390988E+03 -0.16914421922E+04  0.18476148667E+04  0.10100000352E+00 0. -1.
       -3    1    3    3    0  502  0.22936664280E+03  0.70717390988E+03  0.15984719701E+04  0.17629000667E+04  0.10100000352E+00 0.  1.
</event>
<event>
 5   0  0.3378848E-06  0.3492986E+04  0.7818609E-02  0.8115454E-01
        2   -1    0    0  501    0  0.00000000000E+00  0.00000000000E+00  0.21343661983E+04  0.21343661983E+04  0.25500000920E-02 0. -1.
       -2   -1    0    0    0  501  0.00000000000E+00  0.00000000000E+00 -0.14291068680E+04  0.14291068680E+04  0.25500000920E-02 0.  1.
    10030    2    1    2    0    0  0.00000000000E+00  0.00000000000E+00  0.70525933034E+03  0.35634730663E+04  0.34929857674E+04 0.  0.
        1    1    3    3  502    0 -0.10243720886E+04 -0.30887621026E+03  0.17608821868E+04  0.20604486805E+04  0.50400001928E-02 0. -1.
       -1    1    3    3    0  502  0.10243720886E+04  0.30887621026E+03 -0.10556228565E+04  0.15030243858E+04  0.50400001928E-02 0.  1.
</event>
<event>
 5   0  0.2565005E-06  0.1891627E+04  0.7818609E-02  0.8659035E-01
        2   -1    0    0  501    0  0.00000000000E+00  0.00000000000E+00  0.19380696446E+04  0.19380696446E+04  0.25500000920E-02 0. -1.
       -2   -1    0    0    0  501  0.00000000000E+00  0.00000000000E+00 -0.46157432202E+03  0.46157432203E+03  0.25500000920E-02 0.  1.
    10030    2    1    2    0    0  0.00000000000E+00  0.00000000000E+00  0.14764953226E+04  0.23996439666E+04  0.18916270058E+04 0.  0.
        3    1    3    3  502    0  0.56045111048E+03  0.21187632872E+03  0.16666107470E+04  0.17710416196E+04  0.10100000352E+00 0. -1.
       -3    1    3    3    0  502 -0.56045111048E+03 -0.21187632872E+03 -0.19011542446E+03  0.62860234706E+03  0.10100000352E+00 0.  1.
</event>
<event>
 5   0  0.1089337E-06  0.3529266E+04  0.7818609E-02  0.8106889E-01
       -1   -1    0    0    0  501  0.00000000000E+00  0.00000000000E+00  0.19374472572E+04  0.19374472572E+04  0.50400001928E-02 0. -1.
        1   -1    0    0  501    0  0.00000000000E+00  0.00000000000E+00 -0.16072335804E+04  0.16072335804E+04  0.50400001928E-02 0.  1.
    10030    2    1    2    0    0  0.00000000000E+00  0.00000000000E+00  0.33021367675E+03  0.35446808376E+04  0.35292663782E+04 0.  0.
        2    1    3    3  502    0 -0.14125341137E+04  0.78451886794E+03 -0.54736284215E+03  0.17059685101E+04  0.25500000920E-02 0.  1.
       -2    1    3    3    0  502  0.14125341137E+04 -0.78451886794E+03  0.87757651890E+03  0.18387123275E+04  0.25500000920E-02 0. -1.
</event>
<event>
 5   0  0.1908726E-06  0.3530115E+04  0.7818609E-02  0.8106690E-01
       -2   -1    0    0    0  501  0.00000000000E+00  0.00000000000E+00  0.18006905912E+04  0.18006905912E+04  0.25500000920E-02 0.  1.
        2   -1    0    0  501    0  0.00000000000E+00  0.00000000000E+00 -0.17301295603E+04  0.17301295603E+04  0.25500000920E-02 0. -1.
    10030    2    1    2    0    0  0.00000000000E+00  0.00000000000E+00  0.70561030915E+02  0.35308201516E+04  0.35301150241E+04 0.  0.
        5    1    3    3  502    0  0.16579228846E+04 -0.19608956970E+03 -0.53776194857E+03  0.17539582132E+04  0.46999998093E+01 0.  1.
       -5    1    3    3    0  502 -0.16579228846E+04  0.19608956970E+03  0.60832297949E+03  0.17768619383E+04  0.46999998093E+01 0. -1.
</event>
<event>
 5   0  0.1125196E-06  0.3102248E+04  0.7818609E-02  0.8215121E-01
        1   -1    0    0  501    0  0.00000000000E+00  0.00000000000E+00  0.20060455383E+04  0.20060455383E+04  0.50400001928E-02 0.  1.
       -1   -1    0    0    0  501  0.00000000000E+00  0.00000000000E+00 -0.11993676021E+04  0.11993676021E+04  0.50400001928E-02 0. -1.
    10030    2    1    2    0    0  0.00000000000E+00  0.00000000000E+00  0.80667793627E+03  0.32054131404E+04  0.31022482344E+04 0.  0.
        4    1    3    3  502    0 -0.44009306343E+03  0.14138466539E+04  0.88058657982E+03  0.17228112499E+04  0.12699999809E+01 0.  1.
       -4    1    3    3    0  502  0.44009306343E+03 -0.14138466539E+04 -0.73908643552E+02  0.14826018905E+04  0.12699999809E+01 0. -1.
</event>
<event>
 5   0  0.2565004E-06  0.2339926E+04  0.7818609E-02  0.8462343E-01
       -2   -1    0    0    0  501  0.00000000000E+00  0.00000000000E+00  0.12105185037E+04  0.12105185037E+04  0.25500000920E-02 0.  1.
        2   -1    0    0  501    0  0.00000000000E+00  0.00000000000E+00 -0.11307662909E+04  0.11307662909E+04  0.25500000920E-02 0. -1.
    10030    2    1    2    0    0  0.00000000000E+00  0.00000000000E+00  0.79752212820E+02  0.23412847946E+04  0.23399260831E+04 0.  0.
        3    1    3    3  502    0  0.39186150572E+03  0.69234827026E+03  0.89822733119E+03  0.11998807923E+04  0.10100000352E+00 0.  1.
       -3    1    3    3    0  502 -0.39186150572E+03 -0.69234827026E+03 -0.81847511837E+03  0.11414040024E+04  0.10100000352E+00 0. -1.
</event>
<event>
 5   0  0.1125196E-06  0.3514493E+04  0.7818609E-02  0.8110364E-01
        1   -1    0    0  501    0  0.00000000000E+00  0.00000000000E+00  0.23387486697E+04  0.23387486697E+04  0.50400001928E-02 0.  1.
       -1   -1    0    0    0  501  0.00000000000E+00  0.00000000000E+00 -0.13203279863E+04  0.13203279863E+04  0.50400001928E-02 0. -1.
    10030    2    1    2    0    0  0.00000000000E+00  0.00000000000E+00  0.10184206834E+04  0.36590766560E+04  0.35144930340E+04 0.  0.
        4    1    3    3  502    0  0.12488419552E+04  0.73030158730E+03  0.15477263011E+04  0.21185856021E+04  0.12699999809E+01 0.  1.
       -4    1    3    3    0  502 -0.12488419552E+04 -0.73030158730E+03 -0.52930561770E+03  0.15404910539E+04  0.12699999809E+01 0. -1.
</event>
<event>
 5   0  0.1130707E-06  0.3505358E+04  0.7818609E-02  0.8112521E-01
        1   -1    0    0  501    0  0.00000000000E+00  0.00000000000E+00  0.24233344541E+04  0.24233344541E+04  0.50400001928E-02 0.  1.
       -1   -1    0    0    0  501  0.00000000000E+00  0.00000000000E+00 -0.12676269484E+04  0.12676269484E+04  0.50400001928E-02 0. -1.
    10030    2    1    2    0    0  0.00000000000E+00  0.00000000000E+00  0.11557075057E+04  0.36909614026E+04  0.35053582180E+04 0.  0.
        3    1    3    3  502    0 -0.48485754933E+03 -0.11943943035E+04  0.18282580242E+04  0.22370051427E+04  0.10100000352E+00 0.  1.
       -3    1    3    3    0  502  0.48485754933E+03  0.11943943035E+04 -0.67255051855E+03  0.14539562598E+04  0.10100000352E+00 0. -1.
</event>
<event>
 5   0  0.2565004E-06  0.3459414E+04  0.7818609E-02  0.8123476E-01
       -2   -1    0    0    0  501  0.00000000000E+00  0.00000000000E+00  0.11386381608E+04  0.11386381609E+04  0.25500000920E-02 0.  1.
        2   -1    0    0  501    0  0.00000000000E+00  0.00000000000E+00 -0.26276013409E+04  0.26276013409E+04  0.25500000920E-02 0. -1.
    10030    2    1    2    0    0  0.00000000000E+00  0.00000000000E+00 -0.14889631800E+04  0.37662395017E+04  0.34594144928E+04 0.  0.
        3    1    3    3  502    0 -0.10468395199E+04  0.62241101967E+03  0.59271443067E+03  0.13544662655E+04  0.10100000352E+00 0.  1.
       -3    1    3    3    0  502  0.10468395199E+04 -0.62241101967E+03 -0.20816776107E+04  0.24117732362E+04  0.10100000352E+00 0. -1.
</event>
<event>
 5   0  0.2730981E-06  0.1804107E+04  0.7818609E-02  0.8704118E-01
        2   -1    0    0  501    0  0.00000000000E+00  0.00000000000E+00  0.18050861040E+04  0.18050861040E+04  0.25500000920E-02 0. -1.
       -2   -1    0    0    0  501  0.00000000000E+00  0.00000000000E+00 -0.45078210020E+03  0.45078210021E+03  0.25500000920E-02 0.  1.
    10030    2    1    2    0    0  0.00000000000E+00  0.00000000000E+00  0.13543040038E+04  0.22558682043E+04  0.18041069869E+04 0.  0.
        4    1    3    3  502    0 -0.12698740000E+03 -0.59663244860E+02 -0.43705362565E+03  0.45902395051E+03  0.12699999809E+01 0.  1.
       -4    1    3    3    0  502  0.12698740000E+03  0.59663244860E+02  0.17913576295E+04  0.17968442537E+04  0.12699999809E+01 0. -1.
</event>
<event>
 5   0  0.1782660E-06  0.3505867E+04  0.7818609E-02  0.8112401E-01
        2   -1    0    0  501    0  0.00000000000E+00  0.00000000000E+00  0.16716654697E+04  0.16716654697E+04  0.25500000920E-02 0. -1.
       -2   -1    0    0    0  501  0.00000000000E+00  0.00000000000E+00 -0.18381524427E+04  0.18381524427E+04  0.25500000920E-02 0.  1.
    10030    2    1    2    0    0  0.00000000000E+00  0.00000000000E+00 -0.16648697302E+03  0.35098179123E+04  0.35058670633E+04 0.  0.
        4    1    3    3  502    0  0.15035880968E+04 -0.75109748169E+03 -0.58164963858E+03  0.17785506760E+04  0.12699999809E+01 0.  1.
       -4    1    3    3    0  502 -0.15035880968E+04  0.75109748169E+03  0.41516266556E+03  0.17312672364E+04  0.12699999809E+01 0. -1.
</event>
<event>
 5   0  0.2565004E-06  0.3419990E+04  0.7818609E-02  0.8133017E-01
       -2   -1    0    0    0  501  0.00000000000E+00  0.00000000000E+00  0.13247797169E+04  0.13247797169E+04  0.25500000920E-02 0.  1.
        2   -1    0    0  501    0  0.00000000000E+00  0.00000000000E+00 -0.22072223998E+04  0.22072223998E+04  0.25500000920E-02 0. -1.
    10030    2    1    2    0    0  0.00000000000E+00  0.00000000000E+00 -0.88244268289E+03  0.35320021167E+04  0.34199903309E+04 0.  0.
        3    1    3    3  502    0 -0.87529515191E+03 -0.12071510949E+04  0.42329028775E+03  0.15500096925E+04  0.10100000352E+00 0.  1.
       -3    1    3    3    0  502  0.87529515191E+03  0.12071510949E+04 -0.13057329706E+04  0.19819924242E+04  0.10100000352E+00 0. -1.
</event>
<event>
 5   0  0.1089337E-06  0.3524046E+04  0.7818609E-02  0.8108115E-01
       -1   -1    0    0    0  501  0.00000000000E+00  0.00000000000E+00  0.18864156750E+04  0.18864156750E+04  0.50400001928E-02 0. -1.
        1   -1    0    0  501    0  0.00000000000E+00  0.00000000000E+00 -0.16458326955E+04  0.16458326955E+04  0.50400001928E-02 0.  1.
    10030    2    1    2    0    0  0.00000000000E+00  0.00000000000E+00  0.24058297947E+03  0.35322483705E+04  0.35240457405E+04 0.  0.
        2    1    3    3  502    0  0.12909697036E+04  0.11990656587E+04  0.10118496227E+03  0.17648228313E+04  0.25500000920E-02 0. -1.
       -2    1    3    3    0  502 -0.12909697036E+04 -0.11990656587E+04  0.13939801720E+03  0.17674255392E+04  0.25500000920E-02 0.  1.
</event>
<event>
 5   0  0.1782660E-06  0.3523292E+04  0.7818609E-02  0.8108292E-01
        2   -1    0    0  501    0  0.00000000000E+00  0.00000000000E+00  0.20147426056E+04  0.20147426056E+04  0.25500000920E-02 0.  1.
       -2   -1    0    0    0  501  0.00000000000E+00  0.00000000000E+00 -0.15403437027E+04  0.15403437027E+04  0.25500000920E-02 0. -1.
    10030    2    1    2    0    0  0.00000000000E+00  0.00000000000E+00  0.47439890286E+03  0.35550863083E+04  0.35232916911E+04 0.  0.
        4    1    3    3  502    0 -0.70795831997E+03 -0.89019521549E+03  0.15946058060E+04  0.19586785836E+04  0.12699999809E+01 0.  1.
       -4    1    3    3    0  502  0.70795831997E+03  0.89019521549E+03 -0.11202069032E+04  0.15964077246E+04  0.12699999809E+01 0. -1.
</event>
<event>
 5   0  0.1102175E-06  0.3469235E+04  0.7818609E-02  0.8121120E-01
        1   -1    0    0  501    0  0.00000000000E+00  0.00000000000E+00  0.24652431103E+04  0.24652431103E+04  0.50400001928E-02 0.  1.
       -1   -1    0    0    0  501  0.00000000000E+00  0.00000000000E+00 -0.12205281777E+04  0.12205281778E+04  0.50400001928E-02 0. -1.
    10030    2    1    2    0    0  0.00000000000E+00  0.00000000000E+00  0.12447149325E+04  0.36857712880E+04  0.34692354668E+04 0.  0.
        5    1    3    3  502    0 -0.52532993479E+03 -0.20907384131E+03  0.23645879388E+04  0.24312510404E+04  0.46999998093E+01 0.  1.
       -5    1    3    3    0  502  0.52532993479E+03  0.20907384131E+03 -0.11198730062E+04  0.12545202476E+04  0.46999998093E+01 0. -1.
</event>
<event>
 5   0  0.1089337E-06  0.3654240E+04  0.7818609E-02  0.8078179E-01
       -1   -1    0    0    0  501  0.00000000000E+00  0.00000000000E+00  0.11452663558E+04  0.11452663558E+04  0.50400001928E-02 0. -1.
        1   -1    0    0  501    0  0.00000000000E+00  0.00000000000E+00 -0.29149264467E+04  0.29149264467E+04  0.50400001928E-02 0.  1.
    10030    2    1    2    0    0  0.00000000000E+00  0.00000000000E+00 -0.17696600910E+04  0.40601928025E+04  0.36542398329E+04 0.  0.
        2    1    3    3  502    0  0.75123229749E+03 -0.15443959084E+04 -0.19197017351E+03  0.17281091500E+04  0.25500000920E-02 0. -1.
       -2    1    3    3    0  502 -0.75123229749E+03  0.15443959084E+04 -0.15776899175E+04  0.23320836525E+04  0.25500000920E-02 0.  1.
</event>
<event>
 5   0  0.1908726E-06  0.3704536E+04  0.7818609E-02  0.8066957E-01
       -2   -1    0    0    0  501  0.00000000000E+00  0.00000000000E+00  0.31643280002E+04  0.31643280002E+04  0.25500000920E-02 0. -1.
        2   -1    0    0  501    0  0.00000000000E+00  0.00000000000E+00 -0.10842416288E+04  0.10842416288E+04  0.25500000920E-02 0.  1.
    10030    2    1    2    0    0  0.00000000000E+00  0.00000000000E+00  0.20800863714E+04  0.42485696290E+04  0.37045356767E+04 0.  0.
        5    1    3    3  502    0 -0.12216319291E+04  0.76097937666E+03 -0.29711433441E+03  0.14696166846E+04  0.46999998093E+01 0.  1.
       -5    1    3    3    0  502  0.12216319291E+04 -0.76097937666E+03  0.23772007059E+04  0.27789529445E+04  0.46999998093E+01 0. -1.
</event>
<event>
 5   0  0.1908726E-06  0.3605212E+04  0.7818609E-02  0.8089299E-01
        2   -1    0    0  501    0  0.00000000000E+00  0.00000000000E+00  0.13352015469E+04  0.13352015469E+04  0.25500000920E-02 0. -1.
       -2   -1    0    0    0  501  0.00000000000E+00  0.00000000000E+00 -0.24336313659E+04  0.24336313659E+04  0.25500000920E-02 0.  1.
    10030    2    1    2    0    0  0.00000000000E+00  0.00000000000E+00 -0.10984298189E+04  0.37688329128E+04  0.36052119851E+04 0.  0.
        5    1    3    3  502    0 -0.30462134165E+03  0.14488703976E+03 -0.24003367751E+04  0.24239276268E+04  0.46999998093E+01 0.  1.
       -5    1    3    3    0  502  0.30462134165E+03 -0.14488703976E+03  0.13019069561E+04  0.13449052861E+04  0.46999998093E+01 0. -1.
</event>
<event>
 5   0  0.1089337E-06  0.3466681E+04  0.7818609E-02  0.8121732E-01
       -1   -1    0    0    0  501  0.00000000000E+00  0.00000000000E+00  0.15776873361E+04  0.15776873361E+04  0.50400001928E-02 0. -1.
        1   -1    0    0  501    0  0.00000000000E+00  0.00000000000E+00 -0.19043506678E+04  0.19043506678E+04  0.50400001928E-02 0.  1.
    10030    2    1    2    0    0  0.00000000000E+00  0.00000000000E+00 -0.32666333177E+03  0.34820380039E+04  0.34666813710E+04 0.  0.
        2    1    3    3  502    0 -0.17050666441E+03 -0.42124521781E+03 -0.18434487392E+04  0.18986372245E+04  0.25500000920E-02 0.  1.
       -2    1    3    3    0  502  0.17050666441E+03  0.42124521781E+03  0.15167854074E+04  0.15834007794E+04  0.25500000920E-02 0. -1.
</event>
<event>
 5   0  0.1089337E-06  0.2922825E+04  0.7818609E-02  0.8266119E-01
       -1   -1    0    0    0  501  0.00000000000E+00  0.00000000000E+00  0.11131822937E+04  0.11131822937E+04  0.50400001928E-02 0.  1.
        1   -1    0    0  501    0  0.00000000000E+00  0.00000000000E+00 -0.19185776512E+04  0.19185776512E+04  0.50400001928E-02 0. -1.
    10030    2    1    2    0    0  0.00000000000E+00  0.00000000000E+00 -0.80539535751E+03  0.30317599449E+04  0.29228251199E+04 0.  0.
        2    1    3    3  502    0 -0.12914886737E+04 -0.60576755383E+03 -0.73206875312E+03  0.16033783031E+04  0.25500000920E-02 0. -1.
       -2    1    3    3    0  502  0.12914886737E+04  0.60576755383E+03 -0.73326604391E+02  0.14283816417E+04  0.25500000920E-02 0.  1.
</event>
<event>
 5   0  0.1782660E-06  0.3508875E+04  0.7818609E-02  0.8111690E-01
       -2   -1    0    0    0  501  0.00000000000E+00  0.00000000000E+00  0.14527022693E+04  0.14527022693E+04  0.25500000920E-02 0.  1.
        2   -1    0    0  501    0  0.00000000000E+00  0.00000000000E+00 -0.21188454011E+04  0.21188454011E+04  0.25500000920E-02 0. -1.
    10030    2    1    2    0    0  0.00000000000E+00  0.00000000000E+00 -0.66614313185E+03  0.35715476704E+04  0.35088753312E+04 0.  0.
        4    1    3    3  502    0  0.15866939269E+04 -0.38526140101E+03 -0.98642893665E+03  0.19076340385E+04  0.12699999809E+01 0. -1.
       -4    1    3    3    0  502 -0.15866939269E+04  0.38526140101E+03  0.32028580480E+03  0.16639136319E+04  0.12699999809E+01 0.  1.
</event>
<event>
 5   0  0.3041329E-06  0.1728990E+04  0.7818609E-02  0.8745001E-01
        2   -1    0    0  501    0  0.00000000000E+00  0.00000000000E+00  0.67095026746E+03  0.67095026746E+03  0.25500000920E-02 0. -1.
       -2   -1    0    0    0  501  0.00000000000E+00  0.00000000000E+00 -0.11138705453E+04  0.11138705453E+04  0.25500000920E-02 0.  1.
    10030    2    1    2    0    0  0.00000000000E+00  0.00000000000E+00 -0.44292027780E+03  0.17848208127E+04  0.17289901564E+04 0.  0.
        2    1    3    3  502    0 -0.16255703807E+03  0.83808875885E+03 -0.80923743041E+02  0.85753496169E+03  0.25500000920E-02 0. -1.
       -2    1    3    3    0  502  0.16255703807E+03 -0.83808875885E+03 -0.36199653476E+03  0.92728585103E+03  0.25500000920E-02 0.  1.
</event>
<event>
 5   0  0.1110956E-06  0.1835088E+04  0.7818609E-02  0.8687859E-01
        1   -1    0    0  501    0  0.00000000000E+00  0.00000000000E+00  0.16189689873E+04  0.16189689873E+04  0.50400001928E-02 0.  1.
       -1   -1    0    0    0  501  0.00000000000E+00  0.00000000000E+00 -0.52001456269E+03  0.52001456271E+03  0.50400001928E-02 0. -1.
    10030    2    1    2    0    0  0.00000000000E+00  0.00000000000E+00  0.10989544246E+04  0.21389835500E+04  0.18350884992E+04 0.  0.
        1    1    3    3  502    0 -0.85873965637E+03  0.20005438224E+03  0.84534718329E+03  0.12215021136E+04  0.50400001928E-02 0. -1.
       -1    1    3    3    0  502  0.85873965637E+03 -0.20005438224E+03  0.25360724134E+03  0.91748143641E+03  0.50400001928E-02 0.  1.
</event>
<event>
 5   0  0.3041329E-06  0.1829509E+04  0.7818609E-02  0.8690762E-01
       -2   -1    0    0    0  501  0.00000000000E+00  0.00000000000E+00  0.45549276430E+03  0.45549276431E+03  0.25500000920E-02 0.  1.
        2   -1    0    0  501    0  0.00000000000E+00  0.00000000000E+00 -0.18370782124E+04  0.18370782124E+04  0.25500000920E-02 0. -1.
    10030    2    1    2    0    0  0.00000000000E+00  0.00000000000E+00 -0.13815854481E+04  0.22925709767E+04  0.18295090415E+04 0.  0.
        2    1    3    3  502    0  0.20507700247E+02  0.22252715064E+03  0.42076136040E+03  0.47642315325E+03  0.25500000920E-02 0.  1.
       -2    1    3    3    0  502 -0.20507700247E+02 -0.22252715064E+03 -0.18023468085E+04  0.18161478235E+04  0.25500000920E-02 0. -1.
</event>
<event>
 5   0  0.1042825E-06  0.3507872E+04  0.7818609E-02  0.8111927E-01
        3   -1    0    0  501    0  0.00000000000E+00  0.00000000000E+00  0.20093107429E+04  0.20093107455E+04  0.10100000352E+00 0. -1.
       -3   -1    0    0    0  501  0.00000000000E+00  0.00000000000E+00 -0.15310179585E+04  0.15310179618E+04  0.10100000352E+00 0.  1.
    10030    2    1    2    0    0  0.00000000000E+00  0.00000000000E+00  0.47829278444E+03  0.35403287073E+04  0.35078716293E+04 0.  0.
        2    1    3    3  502    0 -0.32188559967E+03 -0.82723018664E+03  0.17658793677E+04  0.19764235534E+04  0.25500000920E-02 0. -1.
       -2    1    3    3    0  502  0.32188559967E+03  0.82723018664E+03 -0.12875865833E+04  0.15639051539E+04  0.25500000920E-02 0.  1.
</event>
<event>
 5   0  0.1130707E-06  0.3824522E+04  0.7818609E-02  0.8040913E-01
        1   -1    0    0  501    0  0.00000000000E+00  0.00000000000E+00  0.25760389117E+04  0.25760389117E+04  0.50400001928E-02 0. -1.
       -1   -1    0    0    0  501  0.00000000000E+00  0.00000000000E+00 -0.14195210585E+04  0.14195210585E+04  0.50400001928E-02 0.  1.
    10030    2    1    2    0    0  0.00000000000E+00  0.00000000000E+00  0.11565178533E+04  0.39955599702E+04  0.38245216604E+04 0.  0.
        3    1    3    3  502    0  0.10937897048E+04  0.78853571875E+03  0.19948400065E+04  0.24078104494E+04  0.10100000352E+00 0. -1.
       -3    1    3    3    0  502 -0.10937897048E+04 -0.78853571875E+03 -0.83832215327E+03  0.15877495209E+04  0.10100000352E+00 0.  1.
</event>
<event>
 5   0  0.1782660E-06  0.1899982E+04  0.7818609E-02  0.8654865E-01
        2   -1    0    0  501    0  0.00000000000E+00  0.00000000000E+00  0.13324086016E+04  0.13324086016E+04  0.25500000920E-02 0. -1.
       -2   -1    0    0    0  501  0.00000000000E+00  0.00000000000E+00 -0.67733171274E+03  0.67733171274E+03  0.25500000920E-02 0.  1.
    10030    2    1    2    0    0  0.00000000000E+00  0.00000000000E+00  0.65507688891E+03  0.20097403144E+04  0.18999816844E+04 0.  0.
        4    1    3    3  502    0 -0.34756352714E+03 -0.56991434264E+03  0.10425132847E+04  0.12379169298E+04  0.12699999809E+01 0. -1.
       -4    1    3    3    0  502  0.34756352714E+03  0.56991434264E+03 -0.38743639580E+03  0.77182338461E+03  0.12699999809E+01 0.  1.
</event>
<event>
 5   0  0.1782660E-06  0.3223335E+04  0.7818609E-02  0.8182681E-01
        2   -1    0    0  501    0  0.00000000000E+00  0.00000000000E+00  0.20944594159E+04  0.20944594159E+04  0.25500000920E-02 0.  1.
       -2   -1    0    0    0  501  0.00000000000E+00  0.00000000000E+00 -0.12401637218E+04  0.12401637218E+04  0.25500000920E-02 0. -1.
    10030    2    1    2    0    0  0.00000000000E+00  0.00000000000E+00  0.85429569405E+03  0.33346231377E+04  0.32233352816E+04 0.  0.
        4    1    3    3  502    0 -0.15691910288E+04 -0.31201755684E+03  0.62816428251E+03  0.17188098846E+04  0.12699999809E+01 0. -1.
       -4    1    3    3    0  502  0.15691910288E+04  0.31201755684E+03  0.22613141154E+03  0.16158132531E+04  0.12699999809E+01 0.  1.
</event>
<event>
 5   0  0.1110956E-06  0.2726750E+04  0.7818609E-02  0.8326377E-01
        1   -1    0    0  501    0  0.00000000000E+00  0.00000000000E+00  0.19422956444E+04  0.19422956444E+04  0.50400001928E-02 0. -1.
       -1   -1    0    0    0  501  0.00000000000E+00  0.00000000000E+00 -0.95700737409E+03  0.95700737410E+03  0.50400001928E-02 0.  1.
    10030    2    1    2    0    0  0.00000000000E+00  0.00000000000E+00  0.98528827031E+03  0.28993030185E+04  0.27267499001E+04 0.  0.
        1    1    3    3  502    0  0.84378169022E+03 -0.82047665811E+03 -0.23912366968E+03  0.12009702814E+04  0.50400001928E-02 0.  1.
       -1    1    3    3    0  502 -0.84378169022E+03  0.82047665811E+03  0.12244119400E+04  0.16983327372E+04  0.50400001928E-02 0. -1.
</event>
<event>
 5   0  0.1782660E-06  0.2295821E+04  0.7818609E-02  0.8479571E-01
       -2   -1    0    0    0  501  0.00000000000E+00  0.00000000000E+00  0.85024193220E+03  0.85024193220E+03  0.25500000920E-02 0. -1.
        2   -1    0    0  501    0  0.00000000000E+00  0.00000000000E+00 -0.15497924176E+04  0.15497924176E+04  0.25500000920E-02 0.  1.
    10030    2    1    2    0    0  0.00000000000E+00  0.00000000000E+00 -0.69955048537E+03  0.24000343498E+04  0.22958209857E+04 0.  0.
        4    1    3    3  502    0 -0.98203887001E+03 -0.20337346870E+03 -0.93363968878E+03  0.13701991794E+04  0.12699999809E+01 0.  1.
       -4    1    3    3    0  502  0.98203887001E+03  0.20337346870E+03  0.23408920341E+03  0.10298351703E+04  0.12699999809E+01 0. -1.
</event>
<event>
 5   0  0.2565004E-06  0.3522306E+04  0.7818609E-02  0.8108524E-01
       -2   -1    0    0    0  501  0.00000000000E+00  0.00000000000E+00  0.11480816661E+04  0.11480816661E+04  0.25500000920E-02 0.  1.
        2   -1    0    0  501    0  0.00000000000E+00  0.00000000000E+00 -0.27016017768E+04  0.27016017768E+04  0.25500000920E-02 0. -1.
    10030    2    1    2    0    0  0.00000000000E+00  0.00000000000E+00 -0.15535201107E+04  0.38496834430E+04  0.35223057614E+04 0.  0.
        3    1    3    3  502    0 -0.46970668814E+03 -0.13978840569E+04  0.27551033551E+03  0.15002033744E+04  0.10100000352E+00 0.  1.
       -3    1    3    3    0  502  0.46970668814E+03  0.13978840569E+04 -0.18290304462E+04  0.23494800686E+04  0.10100000352E+00 0. -1.
</event>
<event>
 5   0  0.3378848E-06  0.1728812E+04  0.7818609E-02  0.8745100E-01
       -2   -1    0    0    0  501  0.00000000000E+00  0.00000000000E+00  0.78129984059E+03  0.78129984060E+03  0.25500000920E-02 0.  1.
        2   -1    0    0  501    0  0.00000000000E+00  0.00000000000E+00 -0.95635211787E+03  0.95635211787E+03  0.25500000920E-02 0. -1.
    10030    2    1    2    0    0  0.00000000000E+00  0.00000000000E+00 -0.17505227728E+03  0.17376519585E+04  0.17288120282E+04 0.  0.
        1    1    3    3  502    0  0.41646668357E+03 -0.30457555347E+03  0.60955235471E+03  0.79860180281E+03  0.50400001928E-02 0.  1.
       -1    1    3    3    0  502 -0.41646668357E+03  0.30457555347E+03 -0.78460463198E+03  0.93905015566E+03  0.50400001928E-02 0. -1.
</event>
<event>
 5   0  0.1089337E-06  0.3040459E+04  0.7818609E-02  0.8232271E-01
       -1   -1    0    0    0  501  0.00000000000E+00  0.00000000000E+00  0.13052615091E+04  0.13052615091E+04  0.50400001928E-02 0. -1.
        1   -1    0    0  501    0  0.00000000000E+00  0.00000000000E+00 -0.17706010461E+04  0.17706010461E+04  0.50400001928E-02 0.  1.
    10030    2    1    2    0    0  0.00000000000E+00  0.00000000000E+00 -0.46533953701E+03  0.30758625553E+04  0.30404587769E+04 0.  0.
        2    1    3    3  502    0  0.38981115937E+03 -0.14522418872E+04 -0.45919259823E+03  0.15722013488E+04  0.25500000920E-02 0.  1.
       -2    1    3    3    0  502 -0.38981115937E+03  0.14522418872E+04 -0.61469387810E+01  0.15036612065E+04  0.25500000920E-02 0. -1.
</event>
<event>
 5   0  0.1782660E-06  0.3527329E+04  0.7818609E-02  0.8107344E-01
        2   -1    0    0  501    0  0.00000000000E+00  0.00000000000E+00  0.13956876668E+04  0.13956876669E+04  0.25500000920E-02 0.  1.
       -2   -1    0    0    0  501  0.00000000000E+00  0.00000000000E+00 -0.22286593804E+04  0.22286593804E+04  0.25500000920E-02 0. -1.
    10030    2    1    2    0    0  0.00000000000E+00  0.00000000000E+00 -0.83297171355E+03  0.36243470472E+04  0.35273289673E+04 0.  0.
        4    1    3    3  502    0 -0.13922698990E+04  0.18305249154E+03 -0.15128805970E+04  0.20641543063E+04  0.12699999809E+01 0. -1.
       -4    1    3    3    0  502  0.13922698990E+04 -0.18305249154E+03  0.67990888346E+03  0.15601927410E+04  0.12699999809E+01 0.  1.
</event>
<event>
 5   0  0.1908726E-06  0.1922407E+04  0.7818609E-02  0.8643783E-01
        2   -1    0    0  501    0  0.00000000000E+00  0.00000000000E+00  0.14627650537E+04  0.14627650537E+04  0.25500000920E-02 0.  1.
       -2   -1    0    0    0  501  0.00000000000E+00  0.00000000000E+00 -0.63162044363E+03  0.63162044363E+03  0.25500000920E-02 0. -1.
    10030    2    1    2    0    0  0.00000000000E+00  0.00000000000E+00  0.83114461009E+03  0.20943854974E+04  0.19224071496E+04 0.  0.
        5    1    3    3  502    0 -0.27253684582E+03 -0.39843788569E+03 -0.48996559483E+03  0.68783534018E+03  0.46999998093E+01 0. -1.
       -5    1    3    3    0  502  0.27253684582E+03  0.39843788569E+03  0.13211102049E+04  0.14065501572E+04  0.46999998093E+01 0.  1.
</event>
<event>
 5   0  0.3378848E-06  0.3727366E+04  0.7818609E-02  0.8061924E-01
        2   -1    0    0  501    0  0.00000000000E+00  0.00000000000E+00  0.21304805096E+04  0.21304805096E+04  0.25500000920E-02 0. -1.
       -2   -1    0    0    0  501  0.00000000000E+00  0.00000000000E+00 -0.16302962368E+04  0.16302962368E+04  0.25500000920E-02 0.  1.
    10030    2    1    2    0    0  0.00000000000E+00  0.00000000000E+00  0.50018427274E+03  0.37607767464E+04  0.37273660176E+04 0.  0.
        1    1    3    3  502    0 -0.63589560094E+03 -0.16527218602E+04 -0.33602941278E+03  0.18024340567E+04  0.50400001928E-02 0.  1.
       -1    1    3    3    0  502  0.63589560094E+03  0.16527218602E+04  0.83621368552E+03  0.19583426897E+04  0.50400001928E-02 0. -1.
</event>
<event>
 5   0  0.1102175E-06  0.3287106E+04  0.7818609E-02  0.8166184E-01
       -1   -1    0    0    0  501  0.00000000000E+00  0.00000000000E+00  0.14485202374E+04  0.14485202374E+04  0.50400001928E-02 0. -1.
        1   -1    0    0  501    0  0.00000000000E+00  0.00000000000E+00 -0.18648456890E+04  0.18648456890E+04  0.50400001928E-02 0.  1.
    10030    2    1    2    0    0  0.00000000000E+00  0.00000000000E+00 -0.41632545155E+03  0.33133659264E+04  0.32871061559E+04 0.  0.
        5    1    3    3  502    0 -0.66413876670E+03 -0.93253801737E+03  0.98046805899E+03  0.15073311381E+04  0.46999998093E+01 0. -1.
       -5    1    3    3    0  502  0.66413876670E+03  0.93253801737E+03 -0.13967935105E+04  0.18060347882E+04  0.46999998093E+01 0.  1.
</event>
<event>
 5   0  0.1042825E-06  0.1783817E+04  0.7818609E-02  0.8714953E-01
       -4   -1    0    0    0  501  0.00000000000E+00  0.00000000000E+00  0.13476270957E+04  0.13476276941E+04  0.12699999809E+01 0.  1.
        4   -1    0    0  501    0  0.00000000000E+00  0.00000000000E+00 -0.59029569507E+03  0.59029706124E+03  0.12699999809E+01 0. -1.
    10030    2    1    2    0    0  0.00000000000E+00  0.00000000000E+00  0.75733140062E+03  0.19379247554E+04  0.17838165564E+04 0.  0.
        3    1    3    3  502    0 -0.73614406580E+03 -0.37696263842E+03  0.74141576805E+03  0.11107233083E+04  0.10100000352E+00 0.  1.
       -3    1    3    3    0  502  0.73614406580E+03  0.37696263842E+03  0.15915632574E+02  0.82720144701E+03  0.10100000352E+00 0. -1.
</event>
<event>
 5   0  0.1089337E-06  0.3415735E+04  0.7818609E-02  0.8134055E-01
       -1   -1    0    0    0  501  0.00000000000E+00  0.00000000000E+00  0.30026051601E+04  0.30026051601E+04  0.50400001928E-02 0. -1.
        1   -1    0    0  501    0  0.00000000000E+00  0.00000000000E+00 -0.97142695303E+03  0.97142695304E+03  0.50400001928E-02 0.  1.
    10030    2    1    2    0    0  0.00000000000E+00  0.00000000000E+00  0.20311782071E+04  0.39740321132E+04  0.34157351079E+04 0.  0.
        2    1    3    3  502    0 -0.21413869612E+03 -0.45893340181E+02 -0.95502283490E+03  0.97981130583E+03  0.25500000920E-02 0.  1.
       -2    1    3    3    0  502  0.21413869612E+03  0.45893340181E+02  0.29862010420E+04  0.29942208074E+04  0.25500000920E-02 0. -1.
</event>
<event>
 5   0  0.3378848E-06  0.3563217E+04  0.7818609E-02  0.8098970E-01
       -2   -1    0    0    0  501  0.00000000000E+00  0.00000000000E+00  0.14873195393E+04  0.14873195393E+04  0.25500000920E-02 0. -1.
        2   -1    0    0  501    0  0.00000000000E+00  0.00000000000E+00 -0.21341273726E+04  0.21341273726E+04  0.25500000920E-02 0.  1.
    10030    2    1    2    0    0  0.00000000000E+00  0.00000000000E+00 -0.64680783328E+03  0.36214469119E+04  0.35632172769E+04 0.  0.
        1    1    3    3  502    0  0.20098622104E+03  0.80690097367E+03 -0.19247938820E+04  0.20967394045E+04  0.50400001928E-02 0.  1.
       -1    1    3    3    0  502 -0.20098622104E+03 -0.80690097367E+03  0.12779860487E+04  0.15247075074E+04  0.50400001928E-02 0. -1.
</event>
<event>
 5   0  0.1782660E-06  0.2374191E+04  0.7818609E-02  0.8449230E-01
        2   -1    0    0  501    0  0.00000000000E+00  0.00000000000E+00  0.91020531773E+03  0.91020531773E+03  0.25500000920E-02 0. -1.
       -2   -1    0    0    0  501  0.00000000000E+00  0.00000000000E+00 -0.15482179228E+04  0.15482179228E+04  0.25500000920E-02 0.  1.
    10030    2    1    2    0    0  0.00000000000E+00  0.00000000000E+00 -0.63801260511E+03  0.24584232406E+04  0.23741913877E+04 0.  0.
        4    1    3    3  502    0 -0.24311630311E+03  0.11083015785E+04  0.42309759852E+02  0.11354424928E+04  0.12699999809E+01 0. -1.
       -4    1    3    3    0  502  0.24311630311E+03 -0.11083015785E+04 -0.68032236497E+03  0.13229807478E+04  0.12699999809E+01 0.  1.
</event>
<event>
 5   0  0.1102175E-06  0.3090694E+04  0.7818609E-02  0.8218297E-01
       -1   -1    0    0    0  501  0.00000000000E+00  0.00000000000E+00  0.10752911116E+04  0.10752911117E+04  0.50400001928E-02 0.  1.
        1   -1    0    0  501    0  0.00000000000E+00  0.00000000000E+00 -0.22208840556E+04  0.22208840556E+04  0.50400001928E-02 0. -1.
    10030    2    1    2    0    0  0.00000000000E+00  0.00000000000E+00 -0.11455929439E+04  0.32961751672E+04  0.30906936988E+04 0.  0.
        5    1    3    3  502    0 -0.71970687002E+03  0.12002807754E+04  0.12607434337E+03  0.14051934915E+04  0.46999998093E+01 0.  1.
       -5    1    3    3    0  502  0.71970687002E+03 -0.12002807754E+04 -0.12716672873E+04  0.18909816757E+04  0.46999998093E+01 0. -1.
</event>
<event>
 5   0  0.1130707E-06  0.2601907E+04  0.7818609E-02  0.8367554E-01
       -1   -1    0    0    0  501  0.00000000000E+00  0.00000000000E+00  0.94442295829E+03  0.94442295830E+03  0.50400001928E-02 0.  1.
        1   -1    0    0  501    0  0.00000000000E+00  0.00000000000E+00 -0.17920788602E+04  0.17920788603E+04  0.50400001928E-02 0. -1.
    10030    2    1    2    0    0  0.00000000000E+00  0.00000000000E+00 -0.84765590196E+03  0.27365018186E+04  0.26019073148E+04 0.  0.
        3    1    3    3  502    0  0.17568404177E+03  0.12546838553E+04 -0.73472725735E+03  0.14645547488E+04  0.10100000352E+00 0. -1.
       -3    1    3    3    0  502 -0.17568404177E+03 -0.12546838553E+04 -0.11292864460E+03  0.12719470698E+04  0.10100000352E+00 0.  1.
</event>
<event>
 5   0  0.1782660E-06  0.3544565E+04  0.7818609E-02  0.8103309E-01
        2   -1    0    0  501    0  0.00000000000E+00  0.00000000000E+00  0.19005253544E+04  0.19005253544E+04  0.25500000920E-02 0. -1.
       -2   -1    0    0    0  501  0.00000000000E+00  0.00000000000E+00 -0.16526927563E+04  0.16526927563E+04  0.25500000920E-02 0.  1.
    10030    2    1    2    0    0  0.00000000000E+00  0.00000000000E+00  0.24783259810E+03  0.35532181107E+04  0.35445645636E+04 0.  0.
        4    1    3    3  502    0 -0.47258332571E+03  0.15677185466E+04 -0.55590335724E+03  0.17291924695E+04  0.12699999809E+01 0.  1.
       -4    1    3    3    0  502  0.47258332571E+03 -0.15677185466E+04  0.80373595533E+03  0.18240256412E+04  0.12699999809E+01 0. -1.
</event>
<event>
 5   0  0.3378848E-06  0.1743254E+04  0.7818609E-02  0.8737072E-01
       -2   -1    0    0    0  501  0.00000000000E+00  0.00000000000E+00  0.71331330483E+03  0.71331330484E+03  0.25500000920E-02 0. -1.
        2   -1    0    0  501    0  0.00000000000E+00  0.00000000000E+00 -0.10650769282E+04  0.10650769282E+04  0.25500000920E-02 0.  1.
    10030    2    1    2    0    0  0.00000000000E+00  0.00000000000E+00 -0.35176362341E+03  0.17783902331E+04  0.17432539042E+04 0.  0.
        1    1    3    3  502    0 -0.74267170433E+03 -0.44942646781E+03 -0.25613203396E+03  0.90506852184E+03  0.50400001928E-02 0. -1.
       -1    1    3    3    0  502  0.74267170433E+03  0.44942646781E+03 -0.95631589453E+02  0.87332171124E+03  0.50400001928E-02 0.  1.
</event>
<event>
 5   0  0.1089337E-06  0.3497133E+04  0.7818609E-02  0.8114470E-01
        1   -1    0    0  501    0  0.00000000000E+00  0.00000000000E+00  0.15627865541E+04  0.15627865541E+04  0.50400001928E-02 0. -1.
       -1   -1    0    0    0  501  0.00000000000E+00  0.00000000000E+00 -0.19564309850E+04  0.19564309850E+04  0.50400001928E-02 0.  1.
    10030    2    1    2    0    0  0.00000000000E+00  0.00000000000E+00 -0.39364443085E+03  0.35192175391E+04  0.34971325611E+04 0.  0.
        2    1    3    3  502    0 -0.58809703548E+03 -0.13604916612E+04  0.73676948433E+03  0.16551812458E+04  0.25500000920E-02 0. -1.
       -2    1    3    3    0  502  0.58809703548E+03  0.13604916612E+04 -0.11304139152E+04  0.18640362934E+04  0.25500000920E-02 0.  1.
</event>
<event>
 5   0  0.1089337E-06  0.3525115E+04  0.7818609E-02  0.8107864E-01
       -1   -1    0    0    0  501  0.00000000000E+00  0.00000000000E+00  0.15630915038E+04  0.15630915038E+04  0.50400001928E-02 0.  1.
        1   -1    0    0  501    0  0.00000000000E+00  0.00000000000E+00 -0.19874768906E+04  0.19874768906E+04  0.50400001928E-02 0. -1.
    10030    2    1    2    0    0  0.00000000000E+00  0.00000000000E+00 -0.42438538685E+03  0.35505683944E+04  0.35251146033E+04 0.  0.
        2    1    3    3  502    0 -0.97570922942E+03  0.14574212928E+04 -0.38816229730E+03  0.17963171474E+04  0.25500000920E-02 0.  1.
       -2    1    3    3    0  502  0.97570922942E+03 -0.14574212928E+04 -0.36223089556E+02  0.17542512469E+04  0.25500000920E-02 0. -1.
</event>
<event>
 5   0  0.1125196E-06  0.2723452E+04  0.7818609E-02  0.8327436E-01
       -1   -1    0    0    0  501  0.00000000000E+00  0.00000000000E+00  0.87157232046E+03  0.87157232047E+03  0.50400001928E-02 0.  1.
        1   -1    0    0  501    0  0.00000000000E+00  0.00000000000E+00 -0.21275314279E+04  0.21275314279E+04  0.50400001928E-02 0. -1.
    10030    2    1    2    0    0  0.00000000000E+00  0.00000000000E+00 -0.12559591074E+04  0.29991037483E+04  0.27234518563E+04 0.  0.
        4    1    3    3  502    0  0.81890968724E+03  0.97115082398E+03 -0.11680786708E+04  0.17257335811E+04  0.12699999809E+01 0. -1.
       -4    1    3    3    0  502 -0.81890968724E+03 -0.97115082398E+03 -0.87880436549E+02  0.12733701672E+04  0.12699999809E+01 0.  1.
</event>
<event>
 5   0  0.1110956E-06  0.2861152E+04  0.7818609E-02  0.8284531E-01
       -1   -1    0    0    0  501  0.00000000000E+00  0.00000000000E+00  0.10130148140E+04  0.10130148140E+04  0.50400001928E-02 0. -1.
        1   -1    0    0  501    0  0.00000000000E+00  0.00000000000E+00 -0.20202538261E+04  0.20202538261E+04  0.50400001928E-02 0.  1.
    10030    2    1    2    0    0  0.00000000000E+00  0.00000000000E+00 -0.10072390121E+04  0.30332686402E+04  0.28611515542E+04 0.  0.
        1    1    3    3  502    0 -0.48570060076E+03  0.12455320242E+04  0.36219840493E+02  0.13373731617E+04  0.50400001928E-02 0. -1.
       -1    1    3    3    0  502  0.48570060076E+03 -0.12455320242E+04 -0.10434588526E+04  0.16958954785E+04  0.50400001928E-02 0.  1.
</event>
<event>
 5   0  0.1102175E-06  0.3311225E+04  0.7818609E-02  0.8160045E-01
       -1   -1    0    0    0  501  0.00000000000E+00  0.00000000000E+00  0.28443383883E+04  0.28443383883E+04  0.50400001928E-02 0. -1.
        1   -1    0    0  501    0  0.00000000000E+00  0.00000000000E+00 -0.96368725751E+03  0.96368725752E+03  0.50400001928E-02 0.  1.
    10030    2    1    2    0    0  0.00000000000E+00  0.00000000000E+00  0.18806511308E+04  0.38080256458E+04  0.33112249461E+04 0.  0.
        5    1    3    3  502    0  0.10794758056E+04  0.14967297279E+03  0.23736592786E+04  0.26118863824E+04  0.46999998093E+01 0. -1.
       -5    1    3    3    0  502 -0.10794758056E+04 -0.14967297279E+03 -0.49300814783E+03  0.11961392634E+04  0.46999998093E+01 0.  1.
</event>
<event>
 5   0  0.1130707E-06  0.3772736E+04  0.7818609E-02  0.8052031E-01
       -1   -1    0    0    0  501  0.00000000000E+00  0.00000000000E+00  0.28329995626E+04  0.28329995626E+04  0.50400001928E-02 0.  1.
        1   -1    0    0  501    0  0.00000000000E+00  0.00000000000E+00 -0.12560480463E+04  0.12560480464E+04  0.50400001928E-02 0. -1.
    10030    2    1    2    0    0  0.00000000000E+00  0.00000000000E+00  0.15769515163E+04  0.40890476090E+04  0.37727356472E+04 0.  0.
        3    1    3    3  502    0  0.77822808409E+03 -0.45263074996E+03 -0.10081759042E+04  0.13516405627E+04  0.10100000352E+00 0. -1.
       -3    1    3    3    0  502 -0.77822808409E+03  0.45263074996E+03  0.25851274205E+04  0.27374070463E+04  0.10100000352E+00 0.  1.
</event>
<event>
 5   0  0.1110956E-06  0.3441245E+04  0.7818609E-02  0.8127857E-01
        1   -1    0    0  501    0  0.00000000000E+00  0.00000000000E+00  0.18997103173E+04  0.18997103173E+04  0.50400001928E-02 0.  1.
       -1   -1    0    0    0  501  0.00000000000E+00  0.00000000000E+00 -0.15584174033E+04  0.15584174033E+04  0.50400001928E-02 0. -1.
    10030    2    1    2    0    0  0.00000000000E+00  0.00000000000E+00  0.34129291402E+03  0.34581277205E+04  0.34412449024E+04 0.  0.
        1    1    3    3  502    0 -0.16577670886E+04 -0.13608573642E+03  0.61306832654E+03  0.17727277910E+04  0.50400001928E-02 0.  1.
       -1    1    3    3    0  502  0.16577670886E+04  0.13608573642E+03 -0.27177541252E+03  0.16853999296E+04  0.50400001928E-02 0. -1.
</event>
<event>
 5   0  0.1782660E-06  0.3708111E+04  0.7818609E-02  0.8066167E-01
       -2   -1    0    0    0  501  0.00000000000E+00  0.00000000000E+00  0.15905371254E+04  0.15905371254E+04  0.25500000920E-02 0. -1.
        2   -1    0    0  501    0  0.00000000000E+00  0.00000000000E+00 -0.21612333935E+04  0.21612333935E+04  0.25500000920E-02 0.  1.
    10030    2    1    2    0    0  0.00000000000E+00  0.00000000000E+00 -0.57069626813E+03  0.37517705189E+04  0.37081110819E+04 0.  0.
        4    1    3    3  502    0  0.16031569492E+03  0.31391876738E+03 -0.21270198638E+04  0.21560290417E+04  0.12699999809E+01 0.  1.
       -4    1    3    3    0  502 -0.16031569492E+03 -0.31391876738E+03  0.15563235957E+04  0.15957414772E+04  0.12699999809E+01 0. -1.
</event>
<event>
 5   0  0.1782660E-06  0.3426299E+04  0.7818609E-02  0.8131482E-01
       -2   -1    0    0    0  501  0.00000000000E+00  0.00000000000E+00  0.97780657641E+03  0.97780657641E+03  0.25500000920E-02 0.  1.
        2   -1    0    0  501    0  0.00000000000E+00  0.00000000000E+00 -0.30014945682E+04  0.30014945682E+04  0.25500000920E-02 0. -1.
    10030    2    1    2    0    0  0.00000000000E+00  0.00000000000E+00 -0.20236879918E+04  0.39793011446E+04  0.34262989524E+04 0.  0.
        4    1    3    3  502    0 -0.55101922050E+03  0.16065034242E+04 -0.12725880457E+04  0.21222529021E+04  0.12699999809E+01 0.  1.
       -4    1    3    3    0  502  0.55101922050E+03 -0.16065034242E+04 -0.75109994603E+03  0.18570482425E+04  0.12699999809E+01 0. -1.
</event>
<event>
 5   0  0.1908726E-06  0.2533829E+04  0.7818609E-02  0.8391032E-01
       -2   -1    0    0    0  501  0.00000000000E+00  0.00000000000E+00  0.15462996464E+04  0.15462996464E+04  0.25500000920E-02 0. -1.
        2   -1    0    0  501    0  0.00000000000E+00  0.00000000000E+00 -0.10380089883E+04  0.10380089883E+04  0.25500000920E-02 0.  1.
    10030    2    1    2    0    0  0.00000000000E+00  0.00000000000E+00  0.50829065811E+03  0.25843086347E+04  0.25338294588E+04 0.  0.
        5    1    3    3  502    0  0.22502926210E+03  0.11517536941E+04  0.74101910999E+03  0.13879143172E+04  0.46999998093E+01 0. -1.
       -5    1    3    3    0  502 -0.22502926210E+03 -0.11517536941E+04 -0.23272845187E+03  0.11963943175E+04  0.46999998093E+01 0.  1.
</event>
<event>
 5   0  0.2565004E-06  0.2417156E+04  0.7818609E-02  0.8433109E-01
       -2   -1    0    0    0  501  0.00000000000E+00  0.00000000000E+00  0.85968649097E+03  0.85968649097E+03  0.25500000920E-02 0.  1.
        2   -1    0    0  501    0  0.00000000000E+00  0.00000000000E+00 -0.16990614992E+04  0.16990614992E+04  0.25500000920E-02 0. -1.
    10030    2    1    2    0    0  0.00000000000E+00  0.00000000000E+00 -0.83937500821E+03  0.25587479901E+04  0.24171555334E+04 0.  0.
        3    1    3    3  502    0  0.69714156396E+03 -0.10977264716E+02 -0.14646994876E+04  0.16221810810E+04  0.10100000352E+00 0. -1.
       -3    1    3    3    0  502 -0.69714156396E+03  0.10977264716E+02  0.62532447937E+03  0.93656690911E+03  0.10100000352E+00 0.  1.
</event>
<event>
 5   0  0.1130707E-06  0.3476029E+04  0.7818609E-02  0.8119494E-01
        1   -1    0    0  501    0  0.00000000000E+00  0.00000000000E+00  0.19392074752E+04  0.19392074752E+04  0.50400001928E-02 0. -1.
       -1   -1    0    0    0  501  0.00000000000E+00  0.00000000000E+00 -0.15576952886E+04  0.15576952886E+04  0.50400001928E-02 0.  1.
    10030    2    1    2    0    0  0.00000000000E+00  0.00000000000E+00  0.38151218659E+03  0.34969027638E+04  0.34760289687E+04 0.  0.
        3    1    3    3  502    0  0.16915913083E+04  0.16159361116E+03  0.55777659096E+03  0.17884933282E+04  0.10100000352E+00 0. -1.
       -3    1    3    3    0  502 -0.16915913083E+04 -0.16159361116E+03 -0.17626440438E+03  0.17084094356E+04  0.10100000352E+00 0.  1.
</event>
<event>
 5   0  0.1130707E-06  0.2871283E+04  0.7818609E-02  0.8281473E-01
        1   -1    0    0  501    0  0.00000000000E+00  0.00000000000E+00  0.17839605962E+04  0.17839605962E+04  0.50400001928E-02 0.  1.
       -1   -1    0    0    0  501  0.00000000000E+00  0.00000000000E+00 -0.11553315464E+04  0.11553315464E+04  0.50400001928E-02 0. -1.
    10030    2    1    2    0    0  0.00000000000E+00  0.00000000000E+00  0.62862904981E+03  0.29392921425E+04  0.28712826083E+04 0.  0.
        3    1    3    3  502    0 -0.17322829603E+03 -0.10807998871E+04  0.12652574959E+04  0.16730250984E+04  0.10100000352E+00 0.  1.
       -3    1    3    3    0  502  0.17322829603E+03  0.10807998871E+04 -0.63662844613E+03  0.12662670442E+04  0.10100000352E+00 0. -1.
</event>
<event>
 5   0  0.1908726E-06  0.3315774E+04  0.7818609E-02  0.8158893E-01
        2   -1    0    0  501    0  0.00000000000E+00  0.00000000000E+00  0.15286641499E+04  0.15286641499E+04  0.25500000920E-02 0.  1.
       -2   -1    0    0    0  501  0.00000000000E+00  0.00000000000E+00 -0.17980330186E+04  0.17980330186E+04  0.25500000920E-02 0. -1.
    10030    2    1    2    0    0  0.00000000000E+00  0.00000000000E+00 -0.26936886867E+03  0.33266971685E+04  0.33157735845E+04 0.  0.
        5    1    3    3  502    0  0.23191619518E+02 -0.10396437553E+04 -0.14301273616E+04  0.17682430120E+04  0.46999998093E+01 0. -1.
       -5    1    3    3    0  502 -0.23191619518E+02  0.10396437553E+04  0.11607584929E+04  0.15584541565E+04  0.46999998093E+01 0.  1.
</event>
<event>
 5   0  0.3041329E-06  0.3479277E+04  0.7818609E-02  0.8118719E-01
        2   -1    0    0  501    0  0.00000000000E+00  0.00000000000E+00  0.13847235143E+04  0.13847235143E+04  0.25500000920E-02 0.  1.
       -2   -1    0    0    0  501  0.00000000000E+00  0.00000000000E+00 -0.21855210379E+04  0.21855210379E+04  0.25500000920E-02 0. -1.
    10030    2    1    2    0    0  0.00000000000E+00  0.00000000000E+00 -0.80079752359E+03  0.35702445523E+04  0.34792771504E+04 0.  0.
        2    1    3    3  502    0 -0.14218857777E+04  0.98810200778E+03 -0.22796469927E+03  0.17464457182E+04  0.25500000920E-02 0. -1.
       -2    1    3    3    0  502  0.14218857777E+04 -0.98810200778E+03 -0.57283282432E+03  0.18237988341E+04  0.25500000920E-02 0.  1.
</event>
<event>
 5   0  0.3378848E-06  0.2444049E+04  0.7818609E-02  0.8423194E-01
        2   -1    0    0  501    0  0.00000000000E+00  0.00000000000E+00  0.10795728891E+04  0.10795728891E+04  0.25500000920E-02 0.  1.
       -2   -1    0    0    0  501  0.00000000000E+00  0.00000000000E+00 -0.13832729537E+04  0.13832729537E+04  0.25500000920E-02 0. -1.
    10030    2    1    2    0    0  0.00000000000E+00  0.00000000000E+00 -0.30370006455E+03  0.24628458428E+04  0.24440490822E+04 0.  0.
        1    1    3    3  502    0 -0.46429659278E+03 -0.84744067035E+03  0.60197879399E+03  0.11384662860E+04  0.50400001928E-02 0.  1.
       -1    1    3    3    0  502  0.46429659278E+03  0.84744067035E+03 -0.90567885854E+03  0.13243795569E+04  0.50400001928E-02 0. -1.
</event>
<event>
 5   0  0.1130707E-06  0.3025473E+04  0.7818609E-02  0.8236494E-01
        1   -1    0    0  501    0  0.00000000000E+00  0.00000000000E+00  0.16758979600E+04  0.16758979600E+04  0.50400001928E-02 0.  1.
       -1   -1    0    0    0  501  0.00000000000E+00  0.00000000000E+00 -0.13654602356E+04  0.13654602356E+04  0.50400001928E-02 0. -1.
    10030    2    1    2    0    0  0.00000000000E+00  0.00000000000E+00  0.31043772442E+03  0.30413581957E+04  0.30254732016E+04 0.  0.
        3    1    3    3  502    0 -0.11556393063E+04 -0.88661967773E+03  0.56574441750E+03  0.15625822908E+04  0.10100000352E+00 0. -1.
       -3    1    3    3    0  502  0.11556393063E+04  0.88661967773E+03 -0.25530669307E+03  0.14787759049E+04  0.10100000352E+00 0.  1.
</event>
<event>
 5   0  0.1782660E-06  0.3441805E+04  0.7818609E-02  0.8127722E-01
        2   -1    0    0  501    0  0.00000000000E+00  0.00000000000E+00  0.20039147365E+04  0.20039147365E+04  0.25500000920E-02 0.  1.
       -2   -1    0    0    0  501  0.00000000000E+00  0.00000000000E+00 -0.14778598787E+04  0.14778598787E+04  0.25500000920E-02 0. -1.
    10030    2    1    2    0    0  0.00000000000E+00  0.00000000000E+00  0.52605485777E+03  0.34817746151E+04  0.34418048691E+04 0.  0.
        4    1    3    3  502    0  0.33275963678E+03  0.77798860898E+03  0.17789315886E+04  0.19699224506E+04  0.12699999809E+01 0.  1.
       -4    1    3    3    0  502 -0.33275963678E+03 -0.77798860898E+03 -0.12528767309E+04  0.15118521645E+04  0.12699999809E+01 0. -1.
</event>
<event>
 5   0  0.1782660E-06  0.3469828E+04  0.7818609E-02  0.8120978E-01
       -2   -1    0    0    0  501  0.00000000000E+00  0.00000000000E+00  0.15723730268E+04  0.15723730268E+04  0.25500000920E-02 0. -1.
        2   -1    0    0  501    0  0.00000000000E+00  0.00000000000E+00 -0.19142571045E+04  0.19142571045E+04  0.25500000920E-02 0.  1.
    10030    2    1    2    0    0  0.00000000000E+00  0.00000000000E+00 -0.34188407769E+03  0.34866301313E+04  0.34698277983E+04 0.  0.
        4    1    3    3  502    0 -0.10441906448E+04  0.11427379746E+04 -0.95815154218E+03  0.18205054715E+04  0.12699999809E+01 0.  1.
       -4    1    3    3    0  502  0.10441906448E+04 -0.11427379746E+04  0.61626746450E+03  0.16661246598E+04  0.12699999809E+01 0. -1.
</event>
<event>
 5   0  0.1110956E-06  0.3591905E+04  0.7818609E-02  0.8092348E-01
       -1   -1    0    0    0  501  0.00000000000E+00  0.00000000000E+00  0.18860524748E+04  0.18860524748E+04  0.50400001928E-02 0.  1.
        1   -1    0    0  501    0  0.00000000000E+00  0.00000000000E+00 -0.17101568562E+04  0.17101568562E+04  0.50400001928E-02 0. -1.
    10030    2    1    2    0    0  0.00000000000E+00  0.00000000000E+00  0.17589561867E+03  0.35962093310E+04  0.35919051050E+04 0.  0.
        1    1    3    3  502    0 -0.12561168457E+04 -0.64704252553E+03  0.11978573163E+04  0.18523918889E+04  0.50400001928E-02 0.  1.
       -1    1    3    3    0  502  0.12561168457E+04  0.64704252553E+03 -0.10219616977E+04  0.17438174421E+04  0.50400001928E-02 0. -1.
</event>
<event>
 5   0  0.1908726E-06  0.1901046E+04  0.7818609E-02  0.8654336E-01
        2   -1    0    0  501    0  0.00000000000E+00  0.00000000000E+00  0.14490207230E+04  0.14490207230E+04  0.25500000920E-02 0. -1.
       -2   -1    0    0    0  501  0.00000000000E+00  0.00000000000E+00 -0.62352048562E+03  0.62352048563E+03  0.25500000920E-02 0.  1.
    10030    2    1    2    0    0  0.00000000000E+00  0.00000000000E+00  0.82550023742E+03  0.20725412087E+04  0.19010461382E+04 0.  0.
        5    1    3    3  502    0  0.74454032669E+03 -0.28604686514E+03  0.97641014021E+03  0.12607783148E+04  0.46999998093E+01 0. -1.
       -5    1    3    3    0  502 -0.74454032669E+03  0.28604686514E+03 -0.15090990279E+03  0.81176289388E+03  0.46999998093E+01 0.  1.
</event>
<event>
 5   0  0.1130707E-06  0.3529715E+04  0.7818609E-02  0.8106784E-01
       -1   -1    0    0    0  501  0.00000000000E+00  0.00000000000E+00  0.20202385839E+04  0.20202385839E+04  0.50400001928E-02 0.  1.
        1   -1    0    0  501    0  0.00000000000E+00  0.00000000000E+00 -0.15417598204E+04  0.15417598204E+04  0.50400001928E-02 0. -1.
    10030    2    1    2    0    0  0.00000000000E+00  0.00000000000E+00  0.47847876345E+03  0.35619984043E+04  0.35297153859E+04 0.  0.
        3    1    3    3  502    0  0.25488754412E+03  0.23731229154E+03 -0.15067401887E+04  0.15464639635E+04  0.10100000352E+00 0. -1.
       -3    1    3    3    0  502 -0.25488754412E+03 -0.23731229154E+03  0.19852189522E+04  0.20155344408E+04  0.10100000352E+00 0.  1.
</event>
<event>
 5   0  0.3378848E-06  0.3506222E+04  0.7818609E-02  0.8112317E-01
       -2   -1    0    0    0  501  0.00000000000E+00  0.00000000000E+00  0.14914340725E+04  0.14914340725E+04  0.25500000920E-02 0. -1.
        2   -1    0    0  501    0  0.00000000000E+00  0.00000000000E+00 -0.20607001914E+04  0.20607001914E+04  0.25500000920E-02 0.  1.
    10030    2    1    2    0    0  0.00000000000E+00  0.00000000000E+00 -0.56926611887E+03  0.35521342639E+04  0.35062221713E+04 0.  0.
        1    1    3    3  502    0  0.12986143059E+04  0.34126871297E+03  0.85730688027E+03  0.15930594894E+04  0.50400001928E-02 0. -1.
       -1    1    3    3    0  502 -0.12986143059E+04 -0.34126871297E+03 -0.14265729991E+04  0.19590747744E+04  0.50400001928E-02 0.  1.
</event>
<event>
 5   0  0.3041329E-06  0.3403391E+04  0.7818609E-02  0.8137075E-01
        2   -1    0    0  501    0  0.00000000000E+00  0.00000000000E+00  0.20044484166E+04  0.20044484166E+04  0.25500000920E-02 0. -1.
       -2   -1    0    0    0  501  0.00000000000E+00  0.00000000000E+00 -0.14446706757E+04  0.14446706757E+04  0.25500000920E-02 0.  1.
    10030    2    1    2    0    0  0.00000000000E+00  0.00000000000E+00  0.55977774097E+03  0.34491190923E+04  0.34033911608E+04 0.  0.
        2    1    3    3  502    0 -0.12431117685E+04  0.10821165732E+04 -0.14943579858E+03  0.16548819308E+04  0.25500000920E-02 0. -1.
       -2    1    3    3    0  502  0.12431117685E+04 -0.10821165732E+04  0.70921353955E+03  0.17942371615E+04  0.25500000920E-02 0.  1.
</event>
<event>
 5   0  0.1042825E-06  0.3323186E+04  0.7818609E-02  0.8157021E-01
       -3   -1    0    0    0  501  0.00000000000E+00  0.00000000000E+00  0.12056202951E+04  0.12056202993E+04  0.10100000352E+00 0.  1.
        3   -1    0    0  501    0  0.00000000000E+00  0.00000000000E+00 -0.22900172642E+04  0.22900172664E+04  0.10100000352E+00 0. -1.
    10030    2    1    2    0    0  0.00000000000E+00  0.00000000000E+00 -0.10843969692E+04  0.34956375657E+04  0.33231860021E+04 0.  0.
        1    1    3    3  502    0  0.13087468073E+04  0.91946625653E+03 -0.68665428867E+02  0.16009220292E+04  0.50400001928E-02 0.  1.
       -1    1    3    3    0  502 -0.13087468073E+04 -0.91946625653E+03 -0.10157315403E+04  0.18947155365E+04  0.50400001928E-02 0. -1.
</event>
<event>
 5   0  0.1102175E-06  0.3490027E+04  0.7818609E-02  0.8116157E-01
       -1   -1    0    0    0  501  0.00000000000E+00  0.00000000000E+00  0.11657260704E+04  0.11657260704E+04  0.50400001928E-02 0. -1.
        1   -1    0    0  501    0  0.00000000000E+00  0.00000000000E+00 -0.26121682187E+04  0.26121682187E+04  0.50400001928E-02 0.  1.
    10030    2    1    2    0    0  0.00000000000E+00  0.00000000000E+00 -0.14464421483E+04  0.37778942890E+04  0.34900272736E+04 0.  0.
        5    1    3    3  502    0  0.62818869221E+03 -0.14332226282E+04  0.11267877634E+03  0.15689062214E+04  0.46999998093E+01 0. -1.
       -5    1    3    3    0  502 -0.62818869221E+03  0.14332226282E+04 -0.15591209246E+04  0.22089880676E+04  0.46999998093E+01 0.  1.
</event>
<event>
 5   0  0.2565004E-06  0.3484944E+04  0.7818609E-02  0.8117367E-01
       -2   -1    0    0    0  501  0.00000000000E+00  0.00000000000E+00  0.13830593077E+04  0.13830593077E+04  0.25500000920E-02 0. -1.
        2   -1    0    0  501    0  0.00000000000E+00  0.00000000000E+00 -0.21952845422E+04  0.21952845422E+04  0.25500000920E-02 0.  1.
    10030    2    1    2    0    0  0.00000000000E+00  0.00000000000E+00 -0.81222523452E+03  0.35783438499E+04  0.34849440278E+04 0.  0.
        3    1    3    3  502    0  0.15520309112E+04  0.75142593666E+03 -0.66336226631E+03  0.18475633667E+04  0.10100000352E+00 0. -1.
       -3    1    3    3    0  502 -0.15520309112E+04 -0.75142593666E+03 -0.14886296820E+03  0.17307804832E+04  0.10100000352E+00 0.  1.
</event>
<event>
 5   0  0.1102175E-06  0.3939339E+04  0.7818609E-02  0.8016897E-01
       -1   -1    0    0    0  501  0.00000000000E+00  0.00000000000E+00  0.15057342601E+04  0.15057342601E+04  0.50400001928E-02 0. -1.
        1   -1    0    0  501    0  0.00000000000E+00  0.00000000000E+00 -0.25765483498E+04  0.25765483498E+04  0.50400001928E-02 0.  1.
    10030    2    1    2    0    0  0.00000000000E+00  0.00000000000E+00 -0.10708140898E+04  0.40822826099E+04  0.39393385856E+04 0.  0.
        5    1    3    3  502    0 -0.14820950937E+04 -0.29054692717E+03  0.77480954287E+03  0.16974614285E+04  0.46999998093E+01 0. -1.
       -5    1    3    3    0  502  0.14820950937E+04  0.29054692717E+03 -0.18456236326E+04  0.23848211814E+04  0.46999998093E+01 0.  1.
</event>
<event>
 5   0  0.1908726E-06  0.3436860E+04  0.7818609E-02  0.8128918E-01
       -2   -1    0    0    0  501  0.00000000000E+00  0.00000000000E+00  0.15882685065E+04  0.15882685065E+04  0.25500000920E-02 0. -1.
        2   -1    0    0  501    0  0.00000000000E+00  0.00000000000E+00 -0.18592587671E+04  0.18592587672E+04  0.25500000920E-02 0.  1.
    10030    2    1    2    0    0  0.00000000000E+00  0.00000000000E+00 -0.27099026065E+03  0.34475272737E+04  0.34368602796E+04 0.  0.
        5    1    3    3  502    0  0.10998163776E+03 -0.13757473914E+04 -0.11624907147E+04  0.18044898440E+04  0.46999998093E+01 0.  1.
       -5    1    3    3    0  502 -0.10998163776E+03  0.13757473914E+04  0.89150045405E+03  0.16430374296E+04  0.46999998093E+01 0. -1.
</event>
<event>
 5   0  0.1125196E-06  0.2290849E+04  0.7818609E-02  0.8481538E-01
        1   -1    0    0  501    0  0.00000000000E+00  0.00000000000E+00  0.13990158670E+04  0.13990158670E+04  0.50400001928E-02 0.  1.
       -1   -1    0    0    0  501  0.00000000000E+00  0.00000000000E+00 -0.93780028134E+03  0.93780028135E+03  0.50400001928E-02 0. -1.
    10030    2    1    2    0    0  0.00000000000E+00  0.00000000000E+00  0.46121558565E+03  0.23368161483E+04  0.22908491645E+04 0.  0.
        4    1    3    3  502    0  0.20366478688E+03  0.86533520648E+03 -0.50618141058E+03  0.10229885622E+04  0.12699999809E+01 0. -1.
       -4    1    3    3    0  502 -0.20366478688E+03 -0.86533520648E+03  0.96739699623E+03  0.13138275862E+04  0.12699999809E+01 0.  1.
</event>
<event>
 5   0  0.3041329E-06  0.3469083E+04  0.7818609E-02  0.8121156E-01
       -2   -1    0    0    0  501  0.00000000000E+00  0.00000000000E+00  0.21149467348E+04  0.21149467348E+04  0.25500000920E-02 0. -1.
        2   -1    0    0  501    0  0.00000000000E+00  0.00000000000E+00 -0.14225580627E+04  0.14225580627E+04  0.25500000920E-02 0.  1.
    10030    2    1    2    0    0  0.00000000000E+00  0.00000000000E+00  0.69238867212E+03  0.35375047976E+04  0.34690831814E+04 0.  0.
        2    1    3    3  502    0 -0.15226912954E+04  0.21898806537E+03  0.11633038535E+04  0.19286835950E+04  0.25500000920E-02 0. -1.
       -2    1    3    3    0  502  0.15226912954E+04 -0.21898806537E+03 -0.47091518138E+03  0.16088212026E+04  0.25500000920E-02 0.  1.
</event>
<event>
 5   0  0.1130707E-06  0.2112578E+04  0.7818609E-02  0.8555723E-01
        1   -1    0    0  501    0  0.00000000000E+00  0.00000000000E+00  0.11133930492E+04  0.11133930492E+04  0.50400001928E-02 0.  1.
       -1   -1    0    0    0  501  0.00000000000E+00  0.00000000000E+00 -0.10021137542E+04  0.10021137542E+04  0.50400001928E-02 0. -1.
    10030    2    1    2    0    0  0.00000000000E+00  0.00000000000E+00  0.11127929499E+03  0.21155068033E+04  0.21125780349E+04 0.  0.
        3    1    3    3  502    0  0.50401522670E+03 -0.12721268328E+03  0.97644260751E+03  0.11061892205E+04  0.10100000352E+00 0.  1.
       -3    1    3    3    0  502 -0.50401522670E+03  0.12721268328E+03 -0.86516331252E+03  0.10093175829E+04  0.10100000352E+00 0. -1.
</event>
<event>
 5   0  0.1089337E-06  0.3149739E+04  0.7818609E-02  0.8202219E-01
        1   -1    0    0  501    0  0.00000000000E+00  0.00000000000E+00  0.12926699937E+04  0.12926699937E+04  0.50400001928E-02 0.  1.
       -1   -1    0    0    0  501  0.00000000000E+00  0.00000000000E+00 -0.19186751771E+04  0.19186751771E+04  0.50400001928E-02 0. -1.
    10030    2    1    2    0    0  0.00000000000E+00  0.00000000000E+00 -0.62600518339E+03  0.32113451709E+04  0.31497389284E+04 0.  0.
        2    1    3    3  502    0 -0.12924735511E+04 -0.89907958762E+03 -0.27510235233E+03  0.15982844833E+04  0.25500000920E-02 0.  1.
       -2    1    3    3    0  502  0.12924735511E+04  0.89907958762E+03 -0.35090283106E+03  0.16130606876E+04  0.25500000920E-02 0. -1.
</event>
<event>
 5   0  0.1782660E-06  0.3463752E+04  0.7818609E-02  0.8122434E-01
        2   -1    0    0  501    0  0.00000000000E+00  0.00000000000E+00  0.15862938414E+04  0.15862938414E+04  0.25500000920E-02 0. -1.
       -2   -1    0    0    0  501  0.00000000000E+00  0.00000000000E+00 -0.18908192458E+04  0.18908192458E+04  0.25500000920E-02 0.  1.
    10030    2    1    2    0    0  0.00000000000E+00  0.00000000000E+00 -0.30452540440E+03  0.34771130872E+04  0.34637522572E+04 0.  0.
        4    1    3    3  502    0 -0.74742296603E+03 -0.99485090421E+03  0.10569683102E+04  0.16326521471E+04  0.12699999809E+01 0. -1.
       -4    1    3    3    0  502  0.74742296603E+03  0.99485090421E+03 -0.13614937146E+04  0.18444609401E+04  0.12699999809E+01 0.  1.
</event>
<event>
 5   0  0.1110956E-06  0.3408954E+04  0.7818609E-02  0.8135712E-01
       -1   -1    0    0    0  501  0.00000000000E+00  0.00000000000E+00  0.10758636272E+04  0.10758636272E+04  0.50400001928E-02 0. -1.
        1   -1    0    0  501    0  0.00000000000E+00  0.00000000000E+00 -0.27003807726E+04  0.27003807726E+04  0.50400001928E-02 0.  1.
    10030    2    1    2    0    0  0.00000000000E+00  0.00000000000E+00 -0.16245171454E+04  0.37762443999E+04  0.34089537709E+04 0.  0.
        1    1    3    3  502    0  0.10787298143E+04 -0.68185888138E+03  0.43936931612E+03  0.13496795702E+04  0.50400001928E-02 0. -1.
       -1    1    3    3    0  502 -0.10787298143E+04  0.68185888138E+03 -0.20638864615E+04  0.24265648296E+04  0.50400001928E-02 0.  1.
</event>
<event>
 5   0  0.2565004E-06  0.3508980E+04  0.7818609E-02  0.8111665E-01
       -2   -1    0    0    0  501  0.00000000000E+00  0.00000000000E+00  0.15913831600E+04  0.15913831600E+04  0.25500000920E-02 0. -1.
        2   -1    0    0  501    0  0.00000000000E+00  0.00000000000E+00 -0.19343144372E+04  0.19343144373E+04  0.25500000920E-02 0.  1.
    10030    2    1    2    0    0  0.00000000000E+00  0.00000000000E+00 -0.34293127727E+03  0.35256975972E+04  0.35089801490E+04 0.  0.
        3    1    3    3  502    0 -0.12811193783E+03 -0.16161076601E+04  0.50256473000E+03  0.16972884127E+04  0.10100000352E+00 0.  1.
       -3    1    3    3    0  502  0.12811193783E+03  0.16161076601E+04 -0.84549600728E+03  0.18284091846E+04  0.10100000352E+00 0. -1.
</event>
<event>
 5   0  0.1782660E-06  0.3482559E+04  0.7818609E-02  0.8117936E-01
        2   -1    0    0  501    0  0.00000000000E+00  0.00000000000E+00  0.22041914819E+04  0.22041914819E+04  0.25500000920E-02 0. -1.
       -2   -1    0    0    0  501  0.00000000000E+00  0.00000000000E+00 -0.13755858110E+04  0.13755858110E+04  0.25500000920E-02 0.  1.
    10030    2    1    2    0    0  0.00000000000E+00  0.00000000000E+00  0.82860567085E+03  0.35797772929E+04  0.34825591321E+04 0.  0.
        4    1    3    3  502    0 -0.36683354461E+02  0.87620446871E+03  0.19606150747E+04  0.21478112169E+04  0.12699999809E+01 0. -1.
       -4    1    3    3    0  502  0.36683354461E+02 -0.87620446871E+03 -0.11320094038E+04  0.14319660760E+04  0.12699999809E+01 0.  1.
</event>
<event>
 5   0  0.1125196E-06  0.3267321E+04  0.7818609E-02  0.8171261E-01
        1   -1    0    0  501    0  0.00000000000E+00  0.00000000000E+00  0.96181079101E+03  0.96181079102E+03  0.50400001928E-02 0. -1.
       -1   -1    0    0    0  501  0.00000000000E+00  0.00000000000E+00 -0.27748148817E+04  0.27748148817E+04  0.50400001928E-02 0.  1.
    10030    2    1    2    0    0  0.00000000000E+00  0.00000000000E+00 -0.18130040907E+04  0.37366256727E+04  0.32673211635E+04 0.  0.
        4    1    3    3  502    0 -0.27403444342E+03 -0.99775057007E+03  0.53930167184E+03  0.11668114597E+04  0.12699999809E+01 0. -1.
       -4    1    3    3    0  502  0.27403444342E+03  0.99775057007E+03 -0.23523057625E+04  0.25698142130E+04  0.12699999809E+01 0.  1.
</event>
<event>
 5   0  0.1130707E-06  0.3547334E+04  0.7818609E-02  0.8102663E-01
       -1   -1    0    0    0  501  0.00000000000E+00  0.00000000000E+00  0.16001997690E+04  0.16001997691E+04  0.50400001928E-02 0.  1.
        1   -1    0    0  501    0  0.00000000000E+00  0.00000000000E+00 -0.19659389927E+04  0.19659389927E+04  0.50400001928E-02 0. -1.
    10030    2    1    2    0    0  0.00000000000E+00  0.00000000000E+00 -0.36573922367E+03  0.35661387618E+04  0.35473342792E+04 0.  0.
        3    1    3    3  502    0  0.17211154363E+04 -0.10302312759E+03  0.23531990575E+03  0.17401803292E+04  0.10100000352E+00 0.  1.
       -3    1    3    3    0  502 -0.17211154363E+04  0.10302312759E+03 -0.60105912942E+03  0.18259584325E+04  0.10100000352E+00 0. -1.
</event>
<event>
 5   0  0.1908726E-06  0.2349274E+04  0.7818609E-02  0.8458743E-01
       -2   -1    0    0    0  501  0.00000000000E+00  0.00000000000E+00  0.15793579119E+04  0.15793579119E+04  0.25500000920E-02 0. -1.
        2   -1    0    0  501    0  0.00000000000E+00  0.00000000000E+00 -0.87362814132E+03  0.87362814133E+03  0.25500000920E-02 0.  1.
    10030    2    1    2    0    0  0.00000000000E+00  0.00000000000E+00  0.70572977054E+03  0.24529860532E+04  0.23492735192E+04 0.  0.
        5    1    3    3  502    0  0.11661715956E+03 -0.11231071170E+04  0.69085286065E+03  0.13237329502E+04  0.46999998093E+01 0.  1.
       -5    1    3    3    0  502 -0.11661715956E+03  0.11231071170E+04  0.14876909888E+02  0.11292531030E+04  0.46999998093E+01 0. -1.
</event>
<event>
 5   0  0.1089337E-06  0.3455089E+04  0.7818609E-02  0.8124516E-01
       -1   -1    0    0    0  501  0.00000000000E+00  0.00000000000E+00  0.15878646029E+04  0.15878646029E+04  0.50400001928E-02 0.  1.
        1   -1    0    0  501    0  0.00000000000E+00  0.00000000000E+00 -0.18795119108E+04  0.18795119108E+04  0.50400001928E-02 0. -1.
    10030    2    1    2    0    0  0.00000000000E+00  0.00000000000E+00 -0.29164730796E+03  0.34673765137E+04  0.34550892514E+04 0.  0.
        2    1    3    3  502    0 -0.17932840683E+03 -0.13896104802E+04  0.86833164737E+03  0.16483858207E+04  0.25500000920E-02 0.  1.
       -2    1    3    3    0  502  0.17932840683E+03  0.13896104802E+04 -0.11599789553E+04  0.18189906929E+04  0.25500000920E-02 0. -1.
</event>
<event>
 5   0  0.1908726E-06  0.3437436E+04  0.7818609E-02  0.8128779E-01
       -2   -1    0    0    0  501  0.00000000000E+00  0.00000000000E+00  0.97157598622E+03  0.97157598622E+03  0.25500000920E-02 0.  1.
        2   -1    0    0  501    0  0.00000000000E+00  0.00000000000E+00 -0.30404121855E+04  0.30404121855E+04  0.25500000920E-02 0. -1.
    10030    2    1    2    0    0  0.00000000000E+00  0.00000000000E+00 -0.20688361993E+04  0.40119881717E+04  0.34374359442E+04 0.  0.
        5    1    3    3  502    0  0.11316946342E+04  0.11818738550E+04 -0.42079379579E+03  0.16895703782E+04  0.46999998093E+01 0.  1.
       -5    1    3    3    0  502 -0.11316946342E+04 -0.11818738550E+04 -0.16480424035E+04  0.23224177935E+04  0.46999998093E+01 0. -1.
</event>
<event>
 5   0  0.1102175E-06  0.2711714E+04  0.7818609E-02  0.8331214E-01
       -1   -1    0    0    0  501  0.00000000000E+00  0.00000000000E+00  0.90436051814E+03  0.90436051816E+03  0.50400001928E-02 0. -1.
        1   -1    0    0  501    0  0.00000000000E+00  0.00000000000E+00 -0.20327597764E+04  0.20327597764E+04  0.50400001928E-02 0.  1.
    10030    2    1    2    0    0  0.00000000000E+00  0.00000000000E+00 -0.11283992583E+04  0.29371202946E+04  0.27117136167E+04 0.  0.
        5    1    3    3  502    0 -0.75108897749E+03 -0.25008076611E+03  0.62804837660E+03  0.10105156580E+04  0.46999998093E+01 0. -1.
       -5    1    3    3    0  502  0.75108897749E+03  0.25008076611E+03 -0.17564476349E+04  0.19266046366E+04  0.46999998093E+01 0.  1.
</event>
<event>
 5   0  0.1125196E-06  0.2144644E+04  0.7818609E-02  0.8541828E-01
        1   -1    0    0  501    0  0.00000000000E+00  0.00000000000E+00  0.17961998720E+04  0.17961998720E+04  0.50400001928E-02 0. -1.
       -1   -1    0    0    0  501  0.00000000000E+00  0.00000000000E+00 -0.64017050082E+03  0.64017050084E+03  0.50400001928E-02 0.  1.
    10030    2    1    2    0    0  0.00000000000E+00  0.00000000000E+00  0.11560293712E+04  0.24363703728E+04  0.21446437202E+04 0.  0.
        4    1    3    3  502    0 -0.34837677144E+03  0.95493998121E+02 -0.56897025809E+03  0.67395418691E+03  0.12699999809E+01 0.  1.
       -4    1    3    3    0  502  0.34837677144E+03 -0.95493998121E+02  0.17249996292E+04  0.17624161859E+04  0.12699999809E+01 0. -1.
</event>
<event>
 5   0  0.2565004E-06  0.3160169E+04  0.7818609E-02  0.8199416E-01
       -2   -1    0    0    0  501  0.00000000000E+00  0.00000000000E+00  0.12285911910E+04  0.12285911910E+04  0.25500000920E-02 0.  1.
        2   -1    0    0  501    0  0.00000000000E+00  0.00000000000E+00 -0.20321386350E+04  0.20321386350E+04  0.25500000920E-02 0. -1.
    10030    2    1    2    0    0  0.00000000000E+00  0.00000000000E+00 -0.80354744398E+03  0.32607298260E+04  0.31601693789E+04 0.  0.
        3    1    3    3  502    0 -0.14182908441E+04 -0.30802679472E+03 -0.10463426116E+04  0.17892071696E+04  0.10100000352E+00 0. -1.
       -3    1    3    3    0  502  0.14182908441E+04  0.30802679472E+03  0.24279516760E+03  0.14715226564E+04  0.10100000352E+00 0.  1.
</event>
<event>
 5   0  0.3041329E-06  0.3500624E+04  0.7818609E-02  0.8113642E-01
       -2   -1    0    0    0  501  0.00000000000E+00  0.00000000000E+00  0.18948864581E+04  0.18948864581E+04  0.25500000920E-02 0. -1.
        2   -1    0    0  501    0  0.00000000000E+00  0.00000000000E+00 -0.16167678797E+04  0.16167678797E+04  0.25500000920E-02 0.  1.
    10030    2    1    2    0    0  0.00000000000E+00  0.00000000000E+00  0.27811857846E+03  0.35116543378E+04  0.35006236937E+04 0.  0.
        2    1    3    3  502    0 -0.69933859188E+03 -0.14931029254E+04 -0.45029579463E+03  0.17091509923E+04  0.25500000920E-02 0. -1.
       -2    1    3    3    0  502  0.69933859188E+03  0.14931029254E+04  0.72841437309E+03  0.18025033455E+04  0.25500000920E-02 0.  1.
</event>
<event>
 5   0  0.1908726E-06  0.3146268E+04  0.7818609E-02  0.8203154E-01
        2   -1    0    0  501    0  0.00000000000E+00  0.00000000000E+00  0.15551723224E+04  0.15551723224E+04  0.25500000920E-02 0.  1.
       -2   -1    0    0    0  501  0.00000000000E+00  0.00000000000E+00 -0.15913032702E+04  0.15913032702E+04  0.25500000920E-02 0. -1.
    10030    2    1    2    0    0  0.00000000000E+00  0.00000000000E+00 -0.36130947781E+02  0.31464755926E+04  0.31462681401E+04 0.  0.
        5    1    3    3  502    0 -0.14591294593E+04 -0.58767931159E+03 -0.65857491026E+00  0.15730379130E+04  0.46999998093E+01 0. -1.
       -5    1    3    3    0  502  0.14591294593E+04  0.58767931159E+03 -0.35472372871E+02  0.15734376795E+04  0.46999998093E+01 0.  1.
</event>
<event>
 5   0  0.1431497E-06  0.1734299E+04  0.7818609E-02  0.8742041E-01
        1   -1    0    0  501    0  0.00000000000E+00  0.00000000000E+00  0.11280433379E+04  0.11280433379E+04  0.50400001928E-02 0.  1.
       -1   -1    0    0    0  501  0.00000000000E+00  0.00000000000E+00 -0.66659524655E+03  0.66659524657E+03  0.50400001928E-02 0. -1.
    10030    2    1    2    0    0  0.00000000000E+00  0.00000000000E+00  0.46144809131E+03  0.17946385844E+04  0.17342990826E+04 0.  0.
        2    1    3    3  502    0 -0.68990782779E+03  0.49510402159E+03  0.48978757232E+02  0.85058786831E+03  0.25500000920E-02 0. -1.
       -2    1    3    3    0  502  0.68990782779E+03 -0.49510402159E+03  0.41246933408E+03  0.94405071612E+03  0.25500000920E-02 0.  1.
</event>
<event>
 5   0  0.1125196E-06  0.1911241E+04  0.7818609E-02  0.8649281E-01
        1   -1    0    0  501    0  0.00000000000E+00  0.00000000000E+00  0.88710192846E+03  0.88710192847E+03  0.50400001928E-02 0.  1.
       -1   -1    0    0    0  501  0.00000000000E+00  0.00000000000E+00 -0.10294313263E+04  0.10294313264E+04  0.50400001928E-02 0. -1.
    10030    2    1    2    0    0  0.00000000000E+00  0.00000000000E+00 -0.14232939788E+03  0.19165332548E+04  0.19112409736E+04 0.  0.
        4    1    3    3  502    0 -0.22943035016E+03 -0.82239562767E+03  0.35925111212E+03  0.92630223385E+03  0.12699999809E+01 0.  1.
       -4    1    3    3    0  502  0.22943035016E+03  0.82239562767E+03 -0.50158051000E+03  0.99023102097E+03  0.12699999809E+01 0. -1.
</event>
<event>
 5   0  0.1125196E-06  0.3383224E+04  0.7818609E-02  0.8142036E-01
        1   -1    0    0  501    0  0.00000000000E+00  0.00000000000E+00  0.15816708107E+04  0.15816708107E+04  0.50400001928E-02 0. -1.
       -1   -1    0    0    0  501  0.00000000000E+00  0.00000000000E+00 -0.18091956165E+04  0.18091956165E+04  0.50400001928E-02 0.  1.
    10030    2    1    2    0    0  0.00000000000E+00  0.00000000000E+00 -0.22752480578E+03  0.33908664272E+04  0.33832244368E+04 0.  0.
        4    1    3    3  502    0 -0.11110986449E+03  0.16865434479E+04 -0.18302770128E+03  0.17000808675E+04  0.12699999809E+01 0.  1.
       -4    1    3    3    0  502  0.11110986449E+03 -0.16865434479E+04 -0.44497104506E+02  0.16907855597E+04  0.12699999809E+01 0. -1.
</event>
<event>
 5   0  0.1102175E-06  0.3640928E+04  0.7818609E-02  0.8081180E-01
        1   -1    0    0  501    0  0.00000000000E+00  0.00000000000E+00  0.32008235558E+04  0.32008235558E+04  0.50400001928E-02 0. -1.
       -1   -1    0    0    0  501  0.00000000000E+00  0.00000000000E+00 -0.10353865136E+04  0.10353865136E+04  0.50400001928E-02 0.  1.
    10030    2    1    2    0    0  0.00000000000E+00  0.00000000000E+00  0.21654370422E+04  0.42362100695E+04  0.36409282016E+04 0.  0.
        5    1    3    3  502    0  0.73735674580E+03  0.50373373991E+03  0.29284758838E+04  0.30616067258E+04  0.46999998093E+01 0. -1.
       -5    1    3    3    0  502 -0.73735674580E+03 -0.50373373991E+03 -0.76303884157E+03  0.11746033437E+04  0.46999998093E+01 0.  1.
</event>
<event>
 5   0  0.1908726E-06  0.3521282E+04  0.7818609E-02  0.8108765E-01
       -2   -1    0    0    0  501  0.00000000000E+00  0.00000000000E+00  0.11280518717E+04  0.11280518717E+04  0.25500000920E-02 0.  1.
        2   -1    0    0  501    0  0.00000000000E+00  0.00000000000E+00 -0.27479742419E+04  0.27479742419E+04  0.25500000920E-02 0. -1.
    10030    2    1    2    0    0  0.00000000000E+00  0.00000000000E+00 -0.16199223703E+04  0.38760261136E+04  0.35212824294E+04 0.  0.
        5    1    3    3  502    0 -0.64889360859E+03 -0.13641166263E+04 -0.18054844634E+04  0.23540758957E+04  0.46999998093E+01 0. -1.
       -5    1    3    3    0  502  0.64889360859E+03  0.13641166263E+04  0.18556209316E+03  0.15219502179E+04  0.46999998093E+01 0.  1.
</event>
<event>
 5   0  0.1089337E-06  0.1805498E+04  0.7818609E-02  0.8703381E-01
        1   -1    0    0  501    0  0.00000000000E+00  0.00000000000E+00  0.70325012813E+03  0.70325012815E+03  0.50400001928E-02 0. -1.
       -1   -1    0    0    0  501  0.00000000000E+00  0.00000000000E+00 -0.11588423732E+04  0.11588423732E+04  0.50400001928E-02 0.  1.
    10030    2    1    2    0    0  0.00000000000E+00  0.00000000000E+00 -0.45559224510E+03  0.18620925014E+04  0.18054983218E+04 0.  0.
        2    1    3    3  502    0 -0.76612355126E+03  0.46921259044E+03 -0.13641695523E+03  0.90868880069E+03  0.25500000920E-02 0. -1.
       -2    1    3    3    0  502  0.76612355126E+03 -0.46921259044E+03 -0.31917528987E+03  0.95340370069E+03  0.25500000920E-02 0.  1.
</event>
<event>
 5   0  0.1125196E-06  0.3175992E+04  0.7818609E-02  0.8195187E-01
        1   -1    0    0  501    0  0.00000000000E+00  0.00000000000E+00  0.21701750600E+04  0.21701750600E+04  0.50400001928E-02 0. -1.
       -1   -1    0    0    0  501  0.00000000000E+00  0.00000000000E+00 -0.11619943090E+04  0.11619943090E+04  0.50400001928E-02 0.  1.
    10030    2    1    2    0    0  0.00000000000E+00  0.00000000000E+00  0.10081807509E+04  0.33321693690E+04  0.31759918572E+04 0.  0.
        4    1    3    3  502    0  0.34458946213E+02  0.39086031524E+02 -0.11610966013E+04  0.11622659193E+04  0.12699999809E+01 0.  1.
       -4    1    3    3    0  502 -0.34458946213E+02 -0.39086031524E+02  0.21692773522E+04  0.21699034496E+04  0.12699999809E+01 0. -1.
</event>
<event>
 5   0  0.3041329E-06  0.2750970E+04  0.7818609E-02  0.8318654E-01
        2   -1    0    0  501    0  0.00000000000E+00  0.00000000000E+00  0.84786662553E+03  0.84786662553E+03  0.25500000920E-02 0.  1.
       -2   -1    0    0    0  501  0.00000000000E+00  0.00000000000E+00 -0.22314350478E+04  0.22314350478E+04  0.25500000920E-02 0. -1.
    10030    2    1    2    0    0  0.00000000000E+00  0.00000000000E+00 -0.13835684223E+04  0.30793016734E+04  0.27509702318E+04 0.  0.
        2    1    3    3  502    0 -0.93379135503E+03 -0.79522394969E+03 -0.13886752600E+04  0.18527726257E+04  0.25500000920E-02 0. -1.
       -2    1    3    3    0  502  0.93379135503E+03  0.79522394969E+03  0.51068376939E+01  0.12265290476E+04  0.25500000920E-02 0.  1.
</event>
<event>
 5   0  0.1130707E-06  0.2244560E+04  0.7818609E-02  0.8500107E-01
       -1   -1    0    0    0  501  0.00000000000E+00  0.00000000000E+00  0.11578341176E+04  0.11578341176E+04  0.50400001928E-02 0. -1.
        1   -1    0    0  501    0  0.00000000000E+00  0.00000000000E+00 -0.10878173333E+04  0.10878173333E+04  0.50400001928E-02 0.  1.
    10030    2    1    2    0    0  0.00000000000E+00  0.00000000000E+00  0.70016784328E+02  0.22456514509E+04  0.22445596648E+04 0.  0.
        3    1    3    3  502    0  0.87828157565E+03  0.30156916398E+03 -0.59552790064E+03  0.11031663417E+04  0.10100000352E+00 0.  1.
       -3    1    3    3    0  502 -0.87828157565E+03 -0.30156916398E+03  0.66554468497E+03  0.11424851092E+04  0.10100000352E+00 0. -1.
</event>
<event>
 5   0  0.1782660E-06  0.3521901E+04  0.7818609E-02  0.8108619E-01
        2   -1    0    0  501    0  0.00000000000E+00  0.00000000000E+00  0.14273436491E+04  0.14273436491E+04  0.25500000920E-02 0. -1.
       -2   -1    0    0    0  501  0.00000000000E+00  0.00000000000E+00 -0.21725292228E+04  0.21725292228E+04  0.25500000920E-02 0.  1.
    10030    2    1    2    0    0  0.00000000000E+00  0.00000000000E+00 -0.74518557373E+03  0.35998728719E+04  0.35219005032E+04 0.  0.
        4    1    3    3  502    0  0.36311410588E+03 -0.10345546852E+04 -0.17810654638E+04  0.20914949318E+04  0.12699999809E+01 0.  1.
       -4    1    3    3    0  502 -0.36311410588E+03  0.10345546852E+04  0.10358798901E+04  0.15083779401E+04  0.12699999809E+01 0. -1.
</event>
<event>
 5   0  0.1125196E-06  0.2625071E+04  0.7818609E-02  0.8359735E-01
       -1   -1    0    0    0  501  0.00000000000E+00  0.00000000000E+00  0.10952575761E+04  0.10952575761E+04  0.50400001928E-02 0.  1.
        1   -1    0    0  501    0  0.00000000000E+00  0.00000000000E+00 -0.15729172661E+04  0.15729172661E+04  0.50400001928E-02 0. -1.
    10030    2    1    2    0    0  0.00000000000E+00  0.00000000000E+00 -0.47765969001E+03  0.26681748421E+04  0.26250710864E+04 0.  0.
        4    1    3    3  502    0 -0.49075862167E+03  0.16726380363E+03  0.98675809171E+03  0.11146812770E+04  0.12699999809E+01 0.  1.
       -4    1    3    3    0  502  0.49075862167E+03 -0.16726380363E+03 -0.14644177817E+04  0.15534935652E+04  0.12699999809E+01 0. -1.
</event>
<event>
 5   0  0.1782660E-06  0.3334452E+04  0.7818609E-02  0.8154184E-01
        2   -1    0    0  501    0  0.00000000000E+00  0.00000000000E+00  0.16790347890E+04  0.16790347890E+04  0.25500000920E-02 0. -1.
       -2   -1    0    0    0  501  0.00000000000E+00  0.00000000000E+00 -0.16554999870E+04  0.16554999870E+04  0.25500000920E-02 0.  1.
    10030    2    1    2    0    0  0.00000000000E+00  0.00000000000E+00  0.23534802042E+02  0.33345347760E+04  0.33344517219E+04 0.  0.
        4    1    3    3  502    0  0.84380590550E+03 -0.12911915270E+04 -0.62106467959E+03  0.16628009245E+04  0.12699999809E+01 0.  1.
       -4    1    3    3    0  502 -0.84380590550E+03  0.12911915270E+04  0.64459948164E+03  0.16717338515E+04  0.12699999809E+01 0. -1.
</event>
<event>
 5   0  0.1042825E-06  0.3492888E+04  0.7818609E-02  0.8115478E-01
        3   -1    0    0  501    0  0.00000000000E+00  0.00000000000E+00  0.15759287519E+04  0.15759287551E+04  0.10100000352E+00 0. -1.
       -3   -1    0    0    0  501  0.00000000000E+00  0.00000000000E+00 -0.19354085272E+04  0.19354085299E+04  0.10100000352E+00 0.  1.
    10030    2    1    2    0    0  0.00000000000E+00  0.00000000000E+00 -0.35947977532E+03  0.35113372850E+04  0.34928876049E+04 0.  0.
        4    1    3    3  502    0  0.32128248952E+03  0.16880397588E+04 -0.49341959220E+03  0.17877821937E+04  0.12699999809E+01 0. -1.
       -4    1    3    3    0  502 -0.32128248952E+03 -0.16880397588E+04  0.13393981688E+03  0.17235550913E+04  0.12699999809E+01 0.  1.
</event>
<event>
 5   0  0.1125196E-06  0.2735677E+04  0.7818609E-02  0.8323521E-01
        1   -1    0    0  501    0  0.00000000000E+00  0.00000000000E+00  0.13588253425E+04  0.13588253425E+04  0.50400001928E-02 0. -1.
       -1   -1    0    0    0  501  0.00000000000E+00  0.00000000000E+00 -0.13769111589E+04  0.13769111589E+04  0.50400001928E-02 0.  1.
    10030    2    1    2    0    0  0.00000000000E+00  0.00000000000E+00 -0.18085816410E+02  0.27357365015E+04  0.27356767186E+04 0.  0.
        4    1    3    3  502    0 -0.10541054177E+04  0.72171820764E+03 -0.49789381148E+03  0.13711000195E+04  0.12699999809E+01 0. -1.
       -4    1    3    3    0  502  0.10541054177E+04 -0.72171820764E+03  0.47980799507E+03  0.13646364820E+04  0.12699999809E+01 0.  1.
</event>
<event>
 5   0  0.2565004E-06  0.3537881E+04  0.7818609E-02  0.8104871E-01
        2   -1    0    0  501    0  0.00000000000E+00  0.00000000000E+00  0.24542869980E+04  0.24542869980E+04  0.25500000920E-02 0.  1.
       -2   -1    0    0    0  501  0.00000000000E+00  0.00000000000E+00 -0.12749734540E+04  0.12749734540E+04  0.25500000920E-02 0. -1.
    10030    2    1    2    0    0  0.00000000000E+00  0.00000000000E+00  0.11793135441E+04  0.37292604520E+04  0.35378811574E+04 0.  0.
        3    1    3    3  502    0 -0.82856110209E+03 -0.65637001164E+03  0.20847682256E+04  0.23374331342E+04  0.10100000352E+00 0.  1.
       -3    1    3    3    0  502  0.82856110209E+03  0.65637001164E+03 -0.90545468155E+03  0.13918273178E+04  0.10100000352E+00 0. -1.
</event>
<event>
 5   0  0.1908726E-06  0.3341707E+04  0.7818609E-02  0.8152363E-01
        2   -1    0    0  501    0  0.00000000000E+00  0.00000000000E+00  0.17672532281E+04  0.17672532281E+04  0.25500000920E-02 0.  1.
       -2   -1    0    0    0  501  0.00000000000E+00  0.00000000000E+00 -0.15797126032E+04  0.15797126032E+04  0.25500000920E-02 0. -1.
    10030    2    1    2    0    0  0.00000000000E+00  0.00000000000E+00  0.18754062494E+03  0.33469658313E+04  0.33417074663E+04 0.  0.
        5    1    3    3  502    0  0.54185725224E+03 -0.44171994051E+03 -0.14261829225E+04  0.15883153358E+04  0.46999998093E+01 0. -1.
       -5    1    3    3    0  502 -0.54185725224E+03  0.44171994051E+03  0.16137235474E+04  0.17586504955E+04  0.46999998093E+01 0.  1.
</event>
<event>
 5   0  0.3378848E-06  0.2396733E+04  0.7818609E-02  0.8440728E-01
       -2   -1    0    0    0  501  0.00000000000E+00  0.00000000000E+00  0.13540430426E+04  0.13540430426E+04  0.25500000920E-02 0.  1.
        2   -1    0    0  501    0  0.00000000000E+00  0.00000000000E+00 -0.10605882613E+04  0.10605882613E+04  0.25500000920E-02 0. -1.
    10030    2    1    2    0    0  0.00000000000E+00  0.00000000000E+00  0.29345478127E+03  0.24146313040E+04  0.23967329066E+04 0.  0.
        1    1    3    3  502    0  0.23507212565E+03  0.13076895720E+03 -0.10297788302E+04  0.10643325907E+04  0.50400001928E-02 0. -1.
       -1    1    3    3    0  502 -0.23507212565E+03 -0.13076895720E+03  0.13232336115E+04  0.13502987133E+04  0.50400001928E-02 0.  1.
</event>
<event>
 5   0  0.3041329E-06  0.3517744E+04  0.7818609E-02  0.8109598E-01
       -2   -1    0    0    0  501  0.00000000000E+00  0.00000000000E+00  0.18807842443E+04  0.18807842443E+04  0.25500000920E-02 0.  1.
        2   -1    0    0  501    0  0.00000000000E+00  0.00000000000E+00 -0.16448624436E+04  0.16448624437E+04  0.25500000920E-02 0. -1.
    10030    2    1    2    0    0  0.00000000000E+00  0.00000000000E+00  0.23592180066E+03  0.35256466880E+04  0.35177443728E+04 0.  0.
        2    1    3    3  502    0 -0.87784124070E+03  0.10880780216E+04 -0.95172874187E+03  0.16912441051E+04  0.25500000920E-02 0. -1.
       -2    1    3    3    0  502  0.87784124070E+03 -0.10880780216E+04  0.11876505425E+04  0.18344025829E+04  0.25500000920E-02 0.  1.
</event>
<event>
 5   0  0.1908726E-06  0.3499052E+04  0.7818609E-02  0.8114015E-01
       -2   -1    0    0    0  501  0.00000000000E+00  0.00000000000E+00  0.12510130402E+04  0.12510130402E+04  0.25500000920E-02 0. -1.
        2   -1    0    0  501    0  0.00000000000E+00  0.00000000000E+00 -0.24466896888E+04  0.24466896888E+04  0.25500000920E-02 0.  1.
    10030    2    1    2    0    0  0.00000000000E+00  0.00000000000E+00 -0.11956766486E+04  0.36977027290E+04  0.34990517036E+04 0.  0.
        5    1    3    3  502    0 -0.17343915630E+04  0.92100432091E+02 -0.82006745385E+03  0.19207106242E+04  0.46999998093E+01 0. -1.
       -5    1    3    3    0  502  0.17343915630E+04 -0.92100432091E+02 -0.37560919476E+03  0.17769921048E+04  0.46999998093E+01 0.  1.
</event>
<event>
 5   0  0.1102175E-06  0.2334058E+04  0.7818609E-02  0.8464612E-01
       -1   -1    0    0    0  501  0.00000000000E+00  0.00000000000E+00  0.12923140626E+04  0.12923140626E+04  0.50400001928E-02 0.  1.
        1   -1    0    0  501    0  0.00000000000E+00  0.00000000000E+00 -0.10538898504E+04  0.10538898504E+04  0.50400001928E-02 0. -1.
    10030    2    1    2    0    0  0.00000000000E+00  0.00000000000E+00  0.23842421219E+03  0.23462039129E+04  0.23340579890E+04 0.  0.
        5    1    3    3  502    0  0.52705555485E+02  0.67623695159E+03 -0.83539298523E+03  0.10760937785E+04  0.46999998093E+01 0. -1.
       -5    1    3    3    0  502 -0.52705555485E+02 -0.67623695159E+03  0.10738171974E+04  0.12701101345E+04  0.46999998093E+01 0.  1.
</event>
<event>
 5   0  0.2565004E-06  0.3486498E+04  0.7818609E-02  0.8116997E-01
       -2   -1    0    0    0  501  0.00000000000E+00  0.00000000000E+00  0.10273910288E+04  0.10273910288E+04  0.25500000920E-02 0.  1.
        2   -1    0    0  501    0  0.00000000000E+00  0.00000000000E+00 -0.29578972555E+04  0.29578972555E+04  0.25500000920E-02 0. -1.
    10030    2    1    2    0    0  0.00000000000E+00  0.00000000000E+00 -0.19305062267E+04  0.39852882843E+04  0.34864980163E+04 0.  0.
        3    1    3    3  502    0  0.24393960368E+03  0.13681941654E+04  0.23765767800E+03  0.14099443204E+04  0.10100000352E+00 0.  1.
       -3    1    3    3    0  502 -0.24393960368E+03 -0.13681941654E+04 -0.21681639047E+04  0.25753439639E+04  0.10100000352E+00 0. -1.
</event>
<event>
 5   0  0.2565004E-06  0.1937914E+04  0.7818609E-02  0.8636211E-01
        2   -1    0    0  501    0  0.00000000000E+00  0.00000000000E+00  0.82821152670E+03  0.82821152670E+03  0.25500000920E-02 0. -1.
       -2   -1    0    0    0  501  0.00000000000E+00  0.00000000000E+00 -0.11336209825E+04  0.11336209825E+04  0.25500000920E-02 0.  1.
    10030    2    1    2    0    0  0.00000000000E+00  0.00000000000E+00 -0.30540945579E+03  0.19618325092E+04  0.19379143063E+04 0.  0.
        3    1    3    3  502    0  0.54262315047E+03 -0.42575564826E+03 -0.84167052482E+03  0.10881714194E+04  0.10100000352E+00 0.  1.
       -3    1    3    3    0  502 -0.54262315047E+03  0.42575564826E+03  0.53626106904E+03  0.87366108979E+03  0.10100000352E+00 0. -1.
</event>
<event>
 5   0  0.3378848E-06  0.3260204E+04  0.7818609E-02  0.8173096E-01
        2   -1    0    0  501    0  0.00000000000E+00  0.00000000000E+00  0.21287920221E+04  0.21287920221E+04  0.25500000920E-02 0.  1.
       -2   -1    0    0    0  501  0.00000000000E+00  0.00000000000E+00 -0.12482346865E+04  0.12482346865E+04  0.25500000920E-02 0. -1.
    10030    2    1    2    0    0  0.00000000000E+00  0.00000000000E+00  0.88055733565E+03  0.33770267086E+04  0.32602037006E+04 0.  0.
        1    1    3    3  502    0  0.11427798301E+04  0.10508426825E+04  0.95509494020E+03  0.18227513347E+04  0.50400001928E-02 0.  1.
       -1    1    3    3    0  502 -0.11427798301E+04 -0.10508426825E+04 -0.74537604547E+02  0.15542753739E+04  0.50400001928E-02 0. -1.
</event>
<event>
 5   0  0.1782660E-06  0.3074832E+04  0.7818609E-02  0.8222679E-01
        2   -1    0    0  501    0  0.00000000000E+00  0.00000000000E+00  0.15594680852E+04  0.15594680852E+04  0.25500000920E-02 0.  1.
       -2   -1    0    0    0  501  0.00000000000E+00  0.00000000000E+00 -0.15156761641E+04  0.15156761641E+04  0.25500000920E-02 0. -1.
    10030    2    1    2    0    0  0.00000000000E+00  0.00000000000E+00  0.43791921120E+02  0.30751442492E+04  0.30748324217E+04 0.  0.
        4    1    3    3  502    0  0.15107117940E+04 -0.28272914616E+03 -0.16332225507E+02  0.15370277320E+04  0.12699999809E+01 0. -1.
       -4    1    3    3    0  502 -0.15107117940E+04  0.28272914616E+03  0.60124146626E+02  0.15381165172E+04  0.12699999809E+01 0.  1.
</event>
<event>
 5   0  0.1110956E-06  0.3321784E+04  0.7818609E-02  0.8157374E-01
        1   -1    0    0  501    0  0.00000000000E+00  0.00000000000E+00  0.20516628813E+04  0.20516628813E+04  0.50400001928E-02 0. -1.
       -1   -1    0    0    0  501  0.00000000000E+00  0.00000000000E+00 -0.13445498416E+04  0.13445498416E+04  0.50400001928E-02 0.  1.
    10030    2    1    2    0    0  0.00000000000E+00  0.00000000000E+00  0.70711303965E+03  0.33962127229E+04  0.33217844615E+04 0.  0.
        1    1    3    3  502    0 -0.55321902262E+03  0.77126324317E+03  0.17470569354E+04  0.19882419905E+04  0.50400001928E-02 0. -1.
       -1    1    3    3    0  502  0.55321902262E+03 -0.77126324317E+03 -0.10399438957E+04  0.14079707325E+04  0.50400001928E-02 0.  1.
</event>
<event>
 5   0  0.1125196E-06  0.3389503E+04  0.7818609E-02  0.8140487E-01
        1   -1    0    0  501    0  0.00000000000E+00  0.00000000000E+00  0.20680619884E+04  0.20680619884E+04  0.50400001928E-02 0.  1.
       -1   -1    0    0    0  501  0.00000000000E+00  0.00000000000E+00 -0.13888281767E+04  0.13888281768E+04  0.50400001928E-02 0. -1.
    10030    2    1    2    0    0  0.00000000000E+00  0.00000000000E+00  0.67923381163E+03  0.34568901651E+04  0.33895030672E+04 0.  0.
        4    1    3    3  502    0  0.80214572817E+03  0.14309212922E+04 -0.94531084420E+02  0.16431406673E+04  0.12699999809E+01 0. -1.
       -4    1    3    3    0  502 -0.80214572817E+03 -0.14309212922E+04  0.77376489605E+03  0.18137494978E+04  0.12699999809E+01 0.  1.
</event>
<event>
 5   0  0.1130707E-06  0.2394687E+04  0.7818609E-02  0.8441496E-01
        1   -1    0    0  501    0  0.00000000000E+00  0.00000000000E+00  0.17574220396E+04  0.17574220396E+04  0.50400001928E-02 0.  1.
       -1   -1    0    0    0  501  0.00000000000E+00  0.00000000000E+00 -0.81575787901E+03  0.81575787902E+03  0.50400001928E-02 0. -1.
    10030    2    1    2    0    0  0.00000000000E+00  0.00000000000E+00  0.94166416059E+03  0.25731799186E+04  0.23946865144E+04 0.  0.
        3    1    3    3  502    0 -0.37266441851E+03 -0.13243057434E+03 -0.74354443783E+03  0.84218463954E+03  0.10100000352E+00 0. -1.
       -3    1    3    3    0  502  0.37266441851E+03  0.13243057434E+03  0.16852085984E+04  0.17309952791E+04  0.10100000352E+00 0.  1.
</event>
<event>
 5   0  0.3041329E-06  0.2976211E+04  0.7818609E-02  0.8250557E-01
        2   -1    0    0  501    0  0.00000000000E+00  0.00000000000E+00  0.18825645848E+04  0.18825645848E+04  0.25500000920E-02 0. -1.
       -2   -1    0    0    0  501  0.00000000000E+00  0.00000000000E+00 -0.11762982954E+04  0.11762982954E+04  0.25500000920E-02 0.  1.
    10030    2    1    2    0    0  0.00000000000E+00  0.00000000000E+00  0.70626628935E+03  0.30588628802E+04  0.29762106861E+04 0.  0.
        2    1    3    3  502    0  0.74801717633E+03 -0.12619977660E+04  0.60964273180E+03  0.15886573948E+04  0.25500000920E-02 0.  1.
       -2    1    3    3    0  502 -0.74801717633E+03  0.12619977660E+04  0.96623557548E+02  0.14702054854E+04  0.25500000920E-02 0. -1.
</event>
<event>
 5   0  0.1908726E-06  0.3446255E+04  0.7818609E-02  0.8126646E-01
       -2   -1    0    0    0  501  0.00000000000E+00  0.00000000000E+00  0.27076607267E+04  0.27076607267E+04  0.25500000920E-02 0. -1.
        2   -1    0    0  501    0  0.00000000000E+00  0.00000000000E+00 -0.10965809514E+04  0.10965809514E+04  0.25500000920E-02 0.  1.
    10030    2    1    2    0    0  0.00000000000E+00  0.00000000000E+00  0.16110797753E+04  0.38042416781E+04  0.34462554610E+04 0.  0.
        5    1    3    3  502    0  0.80811564071E+03 -0.45107588688E+03  0.24100114287E+04  0.25816075458E+04  0.46999998093E+01 0. -1.
       -5    1    3    3    0  502 -0.80811564071E+03  0.45107588688E+03 -0.79893165338E+03  0.12226341322E+04  0.46999998093E+01 0.  1.
</event>
<event>
 5   0  0.3378848E-06  0.3540360E+04  0.7818609E-02  0.8104291E-01
       -2   -1    0    0    0  501  0.00000000000E+00  0.00000000000E+00  0.13540436650E+04  0.13540436650E+04  0.25500000920E-02 0. -1.
        2   -1    0    0  501    0  0.00000000000E+00  0.00000000000E+00 -0.23142070754E+04  0.23142070754E+04  0.25500000920E-02 0.  1.
    10030    2    1    2    0    0  0.00000000000E+00  0.00000000000E+00 -0.96016341046E+03  0.36682507404E+04  0.35403601116E+04 0.  0.
        1    1    3    3  502    0  0.34452516934E+03 -0.26607000543E+03  0.12977224384E+04  0.13687857273E+04  0.50400001928E-02 0. -1.
       -1    1    3    3    0  502 -0.34452516934E+03  0.26607000543E+03 -0.22578858489E+04  0.22994650131E+04  0.50400001928E-02 0.  1.
</event>
<event>
 5   0  0.2565004E-06  0.3530721E+04  0.7818609E-02  0.8106548E-01
       -2   -1    0    0    0  501  0.00000000000E+00  0.00000000000E+00  0.13007378694E+04  0.13007378694E+04  0.25500000920E-02 0. -1.
        2   -1    0    0  501    0  0.00000000000E+00  0.00000000000E+00 -0.23959457285E+04  0.23959457285E+04  0.25500000920E-02 0.  1.
    10030    2    1    2    0    0  0.00000000000E+00  0.00000000000E+00 -0.10952078591E+04  0.36966835979E+04  0.35307208001E+04 0.  0.
        3    1    3    3  502    0  0.13695169348E+04 -0.10839791644E+04 -0.27880710960E+03  0.17687059897E+04  0.10100000352E+00 0. -1.
       -3    1    3    3    0  502 -0.13695169348E+04  0.10839791644E+04 -0.81640074953E+03  0.19279776082E+04  0.10100000352E+00 0.  1.
</event>
<event>
 5   0  0.1130707E-06  0.1884621E+04  0.7818609E-02  0.8662550E-01
       -1   -1    0    0    0  501  0.00000000000E+00  0.00000000000E+00  0.16366106505E+04  0.16366106505E+04  0.50400001928E-02 0.  1.
        1   -1    0    0  501    0  0.00000000000E+00  0.00000000000E+00 -0.54255341934E+03  0.54255341936E+03  0.50400001928E-02 0. -1.
    10030    2    1    2    0    0  0.00000000000E+00  0.00000000000E+00  0.10940572312E+04  0.21791640699E+04  0.18846206033E+04 0.  0.
        3    1    3    3  502    0  0.18873344705E+03  0.63453867869E+02 -0.51795085761E+03  0.55490522478E+03  0.10100000352E+00 0. -1.
       -3    1    3    3    0  502 -0.18873344705E+03 -0.63453867869E+02  0.16120080888E+04  0.16242588451E+04  0.10100000352E+00 0.  1.
</event>
<event>
 5   0  0.1110956E-06  0.3408209E+04  0.7818609E-02  0.8135895E-01
       -1   -1    0    0    0  501  0.00000000000E+00  0.00000000000E+00  0.95929687234E+03  0.95929687235E+03  0.50400001928E-02 0.  1.
        1   -1    0    0  501    0  0.00000000000E+00  0.00000000000E+00 -0.30271878438E+04  0.30271878438E+04  0.50400001928E-02 0. -1.
    10030    2    1    2    0    0  0.00000000000E+00  0.00000000000E+00 -0.20678909714E+04  0.39864847161E+04  0.34082088143E+04 0.  0.
        1    1    3    3  502    0  0.12724601871E+04 -0.71661117273E+03 -0.20611843537E+04  0.25260972746E+04  0.50400001928E-02 0. -1.
       -1    1    3    3    0  502 -0.12724601871E+04  0.71661117273E+03 -0.67066177368E+01  0.14603874415E+04  0.50400001928E-02 0.  1.
</event>
<event>
 5   0  0.1110956E-06  0.3385003E+04  0.7818609E-02  0.8141597E-01
        1   -1    0    0  501    0  0.00000000000E+00  0.00000000000E+00  0.36113710292E+04  0.36113710292E+04  0.50400001928E-02 0. -1.
       -1   -1    0    0    0  501  0.00000000000E+00  0.00000000000E+00 -0.79320621497E+03  0.79320621499E+03  0.50400001928E-02 0.  1.
    10030    2    1    2    0    0  0.00000000000E+00  0.00000000000E+00  0.28181648143E+04  0.44045772442E+04  0.33850033648E+04 0.  0.
        1    1    3    3  502    0 -0.16792233354E+04  0.32803107396E+02  0.16810771162E+04  0.23763180184E+04  0.50400001928E-02 0. -1.
       -1    1    3    3    0  502  0.16792233354E+04 -0.32803107396E+02  0.11370876981E+04  0.20282592258E+04  0.50400001928E-02 0.  1.
</event>
<event>
 5   0  0.1782660E-06  0.3444818E+04  0.7818609E-02  0.8126993E-01
        2   -1    0    0  501    0  0.00000000000E+00  0.00000000000E+00  0.23706617612E+04  0.23706617612E+04  0.25500000920E-02 0. -1.
       -2   -1    0    0    0  501  0.00000000000E+00  0.00000000000E+00 -0.12514198627E+04  0.12514198627E+04  0.25500000920E-02 0.  1.
    10030    2    1    2    0    0  0.00000000000E+00  0.00000000000E+00  0.11192418985E+04  0.36220816240E+04  0.34448182627E+04 0.  0.
        4    1    3    3  502    0 -0.37530608499E+03  0.13512707691E+04 -0.49178668499E+03  0.14861504316E+04  0.12699999809E+01 0.  1.
       -4    1    3    3    0  502  0.37530608499E+03 -0.13512707691E+04  0.16110285835E+04  0.21359311924E+04  0.12699999809E+01 0. -1.
</event>
<event>
 5   0  0.1782660E-06  0.3283997E+04  0.7818609E-02  0.8166979E-01
        2   -1    0    0  501    0  0.00000000000E+00  0.00000000000E+00  0.19101114859E+04  0.19101114860E+04  0.25500000920E-02 0.  1.
       -2   -1    0    0    0  501  0.00000000000E+00  0.00000000000E+00 -0.14115193290E+04  0.14115193290E+04  0.25500000920E-02 0. -1.
    10030    2    1    2    0    0  0.00000000000E+00  0.00000000000E+00  0.49859215698E+03  0.33216308149E+04  0.32839971272E+04 0.  0.
        4    1    3    3  502    0  0.81485589237E+03 -0.30926884472E+03  0.16568324375E+04  0.18720931287E+04  0.12699999809E+01 0.  1.
       -4    1    3    3    0  502 -0.81485589237E+03  0.30926884472E+03 -0.11582402805E+04  0.14495376863E+04  0.12699999809E+01 0. -1.
</event>
<event>
 5   0  0.1908726E-06  0.3566000E+04  0.7818609E-02  0.8098324E-01
        2   -1    0    0  501    0  0.00000000000E+00  0.00000000000E+00  0.23664120381E+04  0.23664120381E+04  0.25500000920E-02 0.  1.
       -2   -1    0    0    0  501  0.00000000000E+00  0.00000000000E+00 -0.13434218611E+04  0.13434218611E+04  0.25500000920E-02 0. -1.
    10030    2    1    2    0    0  0.00000000000E+00  0.00000000000E+00  0.10229901770E+04  0.37098338992E+04  0.35660003726E+04 0.  0.
        5    1    3    3  502    0 -0.17813952030E+03 -0.28357185224E+03 -0.13104042073E+04  0.13525265101E+04  0.46999998093E+01 0. -1.
       -5    1    3    3    0  502  0.17813952030E+03  0.28357185224E+03  0.23333943843E+04  0.23573073891E+04  0.46999998093E+01 0.  1.
</event>
<event>
 5   0  0.1102175E-06  0.3281111E+04  0.7818609E-02  0.8167718E-01
       -1   -1    0    0    0  501  0.00000000000E+00  0.00000000000E+00  0.10607819148E+04  0.10607819148E+04  0.50400001928E-02 0.  1.
        1   -1    0    0  501    0  0.00000000000E+00  0.00000000000E+00 -0.25372055824E+04  0.25372055824E+04  0.50400001928E-02 0. -1.
    10030    2    1    2    0    0  0.00000000000E+00  0.00000000000E+00 -0.14764236676E+04  0.35979874972E+04  0.32811106632E+04 0.  0.
        5    1    3    3  502    0 -0.90858247177E+03  0.83844266824E+03 -0.19207314883E+04  0.22842372373E+04  0.46999998093E+01 0. -1.
       -5    1    3    3    0  502  0.90858247177E+03 -0.83844266824E+03  0.44430782074E+03  0.13137502599E+04  0.46999998093E+01 0.  1.
</event>
<event>
 5   0  0.1908726E-06  0.2694393E+04  0.7818609E-02  0.8336826E-01
        2   -1    0    0  501    0  0.00000000000E+00  0.00000000000E+00  0.13606465408E+04  0.13606465408E+04  0.25500000920E-02 0.  1.
       -2   -1    0    0    0  501  0.00000000000E+00  0.00000000000E+00 -0.13338795525E+04  0.13338795525E+04  0.25500000920E-02 0. -1.
    10030    2    1    2    0    0  0.00000000000E+00  0.00000000000E+00  0.26766988289E+02  0.26945260933E+04  0.26943931406E+04 0.  0.
        5    1    3    3  502    0 -0.60942840778E+03 -0.80313277706E+03  0.90701097301E+03  0.13561401981E+04  0.46999998093E+01 0.  1.
       -5    1    3    3    0  502  0.60942840778E+03  0.80313277706E+03 -0.88024398473E+03  0.13383858952E+04  0.46999998093E+01 0. -1.
</event>
<event>
 5   0  0.1102175E-06  0.3315262E+04  0.7818609E-02  0.8159023E-01
       -1   -1    0    0    0  501  0.00000000000E+00  0.00000000000E+00  0.10339335222E+04  0.10339335222E+04  0.50400001928E-02 0. -1.
        1   -1    0    0  501    0  0.00000000000E+00  0.00000000000E+00 -0.26575601904E+04  0.26575601904E+04  0.50400001928E-02 0.  1.
    10030    2    1    2    0    0  0.00000000000E+00  0.00000000000E+00 -0.16236266683E+04  0.36914937126E+04  0.33152620217E+04 0.  0.
        5    1    3    3  502    0 -0.67533261027E+03  0.75743092832E+03 -0.22712613007E+04  0.24876546649E+04  0.46999998093E+01 0.  1.
       -5    1    3    3    0  502  0.67533261027E+03 -0.75743092832E+03  0.64763463245E+03  0.12038390477E+04  0.46999998093E+01 0. -1.
</event>
<event>
 5   0  0.1102175E-06  0.3386512E+04  0.7818609E-02  0.8141225E-01
       -1   -1    0    0    0  501  0.00000000000E+00  0.00000000000E+00  0.13881577466E+04  0.13881577466E+04  0.50400001928E-02 0. -1.
        1   -1    0    0  501    0  0.00000000000E+00  0.00000000000E+00 -0.20654104636E+04  0.20654104636E+04  0.50400001928E-02 0.  1.
    10030    2    1    2    0    0  0.00000000000E+00  0.00000000000E+00 -0.67725271699E+03  0.34535682102E+04  0.33865117953E+04 0.  0.
        5    1    3    3  502    0 -0.21846316451E+01 -0.16900502832E+04 -0.23255375271E+03  0.17059830217E+04  0.46999998093E+01 0.  1.
       -5    1    3    3    0  502  0.21846316451E+01  0.16900502832E+04 -0.44469896427E+03  0.17475851885E+04  0.46999998093E+01 0. -1.
</event>
<event>
 5   0  0.2565004E-06  0.3523062E+04  0.7818609E-02  0.8108346E-01
        2   -1    0    0  501    0  0.00000000000E+00  0.00000000000E+00  0.29715772954E+04  0.29715772954E+04  0.25500000920E-02 0.  1.
       -2   -1    0    0    0  501  0.00000000000E+00  0.00000000000E+00 -0.10442239014E+04  0.10442239014E+04  0.25500000920E-02 0. -1.
    10030    2    1    2    0    0  0.00000000000E+00  0.00000000000E+00  0.19273533941E+04  0.40158011968E+04  0.35230623251E+04 0.  0.
        3    1    3    3  502    0 -0.31320397697E+03 -0.95345113786E+03 -0.68649644227E+03  0.12159124882E+04  0.10100000352E+00 0. -1.
       -3    1    3    3    0  502  0.31320397697E+03  0.95345113786E+03  0.26138498363E+04  0.27998887086E+04  0.10100000352E+00 0.  1.
</event>
<event>
 5   0  0.1089337E-06  0.3344721E+04  0.7818609E-02  0.8151608E-01
       -1   -1    0    0    0  501  0.00000000000E+00  0.00000000000E+00  0.24382519415E+04  0.24382519415E+04  0.50400001928E-02 0.  1.
        1   -1    0    0  501    0  0.00000000000E+00  0.00000000000E+00 -0.11470470370E+04  0.11470470370E+04  0.50400001928E-02 0. -1.
    10030    2    1    2    0    0  0.00000000000E+00  0.00000000000E+00  0.12912049045E+04  0.35852989786E+04  0.33447210138E+04 0.  0.
        2    1    3    3  502    0 -0.55790681054E+03 -0.94938299828E+03  0.19947849526E+04  0.22785423177E+04  0.25500000920E-02 0.  1.
       -2    1    3    3    0  502  0.55790681054E+03  0.94938299828E+03 -0.70358004802E+03  0.13067566608E+04  0.25500000920E-02 0. -1.
</event>
<event>
 5   0  0.2565004E-06  0.3498193E+04  0.7818609E-02  0.8114218E-01
        2   -1    0    0  501    0  0.00000000000E+00  0.00000000000E+00  0.13375983971E+04  0.13375983972E+04  0.25500000920E-02 0. -1.
       -2   -1    0    0    0  501  0.00000000000E+00  0.00000000000E+00 -0.22871874506E+04  0.22871874506E+04  0.25500000920E-02 0.  1.
    10030    2    1    2    0    0  0.00000000000E+00  0.00000000000E+00 -0.94958905348E+03  0.36247858478E+04  0.34981928294E+04 0.  0.
        3    1    3    3  502    0 -0.52824184842E+02  0.16909630021E+04 -0.14661674302E+02  0.16918514248E+04  0.10100000352E+00 0. -1.
       -3    1    3    3    0  502  0.52824184842E+02 -0.16909630021E+04 -0.93492737918E+03  0.19329344229E+04  0.10100000352E+00 0.  1.
</event>
<event>
 5   0  0.1908726E-06  0.3437085E+04  0.7818609E-02  0.8128864E-01
       -2   -1    0    0    0  501  0.00000000000E+00  0.00000000000E+00  0.10894420210E+04  0.10894420210E+04  0.25500000920E-02 0.  1.
        2   -1    0    0  501    0  0.00000000000E+00  0.00000000000E+00 -0.27109179334E+04  0.27109179334E+04  0.25500000920E-02 0. -1.
    10030    2    1    2    0    0  0.00000000000E+00  0.00000000000E+00 -0.16214759125E+04  0.38003599544E+04  0.34370847601E+04 0.  0.
        5    1    3    3  502    0 -0.32614531917E+03 -0.62156748294E+03 -0.25451781037E+04  0.26402027525E+04  0.46999998093E+01 0. -1.
       -5    1    3    3    0  502  0.32614531917E+03  0.62156748294E+03  0.92370219118E+03  0.11601572019E+04  0.46999998093E+01 0.  1.
</event>
<event>
 5   0  0.3378848E-06  0.3437183E+04  0.7818609E-02  0.8128840E-01
       -2   -1    0    0    0  501  0.00000000000E+00  0.00000000000E+00  0.17702783964E+04  0.17702783964E+04  0.25500000920E-02 0.  1.
        2   -1    0    0  501    0  0.00000000000E+00  0.00000000000E+00 -0.16684141336E+04  0.16684141336E+04  0.25500000920E-02 0. -1.
    10030    2    1    2    0    0  0.00000000000E+00  0.00000000000E+00  0.10186426275E+03  0.34386925300E+04  0.34371834382E+04 0.  0.
        1    1    3    3  502    0  0.16255454725E+03  0.28318562971E+03  0.17389605244E+04  0.17693506682E+04  0.50400001928E-02 0.  1.
       -1    1    3    3    0  502 -0.16255454725E+03 -0.28318562971E+03 -0.16370962616E+04  0.16693418618E+04  0.50400001928E-02 0. -1.
</event>
<event>
 5   0  0.3041329E-06  0.3564880E+04  0.7818609E-02  0.8098584E-01
       -2   -1    0    0    0  501  0.00000000000E+00  0.00000000000E+00  0.11157733849E+04  0.11157733849E+04  0.25500000920E-02 0.  1.
        2   -1    0    0  501    0  0.00000000000E+00  0.00000000000E+00 -0.28474359021E+04  0.28474359021E+04  0.25500000920E-02 0. -1.
    10030    2    1    2    0    0  0.00000000000E+00  0.00000000000E+00 -0.17316625172E+04  0.39632092870E+04  0.35648804720E+04 0.  0.
        2    1    3    3  502    0  0.17582645329E+02  0.96944009967E+03 -0.25286009820E+04  0.27081259540E+04  0.25500000920E-02 0. -1.
       -2    1    3    3    0  502 -0.17582645329E+02 -0.96944009967E+03  0.79693846480E+03  0.12550833331E+04  0.25500000920E-02 0.  1.
</event>
<event>
 5   0  0.1102175E-06  0.3590941E+04  0.7818609E-02  0.8092570E-01
        1   -1    0    0  501    0  0.00000000000E+00  0.00000000000E+00  0.19291470282E+04  0.19291470282E+04  0.50400001928E-02 0. -1.
       -1   -1    0    0    0  501  0.00000000000E+00  0.00000000000E+00 -0.16710569477E+04  0.16710569477E+04  0.50400001928E-02 0.  1.
    10030    2    1    2    0    0  0.00000000000E+00  0.00000000000E+00  0.25809008050E+03  0.36002039759E+04  0.35909411271E+04 0.  0.
        5    1    3    3  502    0  0.79650679971E+03  0.14233831039E+04 -0.62339065216E+03  0.17461616585E+04  0.46999998093E+01 0.  1.
       -5    1    3    3    0  502 -0.79650679971E+03 -0.14233831039E+04  0.88148073267E+03  0.18540423173E+04  0.46999998093E+01 0. -1.
</event>
<event>
 5   0  0.1130707E-06  0.3464235E+04  0.7818609E-02  0.8122318E-01
       -1   -1    0    0    0  501  0.00000000000E+00  0.00000000000E+00  0.13718308763E+04  0.13718308763E+04  0.50400001928E-02 0.  1.
        1   -1    0    0  501    0  0.00000000000E+00  0.00000000000E+00 -0.21870268044E+04  0.21870268044E+04  0.50400001928E-02 0. -1.
    10030    2    1    2    0    0  0.00000000000E+00  0.00000000000E+00 -0.81519592815E+03  0.35588576807E+04  0.34642349214E+04 0.  0.
        3    1    3    3  502    0  0.12093997354E+04 -0.12397918038E+04 -0.43055678449E+03  0.17846878135E+04  0.10100000352E+00 0.  1.
       -3    1    3    3    0  502 -0.12093997354E+04  0.12397918038E+04 -0.38463914366E+03  0.17741698672E+04  0.10100000352E+00 0. -1.
</event>
<event>
 5   0  0.1042825E-06  0.1859296E+04  0.7818609E-02  0.8675387E-01
       -4   -1    0    0    0  501  0.00000000000E+00  0.00000000000E+00  0.10342883381E+04  0.10342891178E+04  0.12699999809E+01 0.  1.
        4   -1    0    0  501    0  0.00000000000E+00  0.00000000000E+00 -0.83559290214E+03  0.83559386726E+03  0.12699999809E+01 0. -1.
    10030    2    1    2    0    0  0.00000000000E+00  0.00000000000E+00  0.19869543599E+03  0.18698829851E+04  0.18592962383E+04 0.  0.
        2    1    3    3  502    0 -0.18805147235E+03 -0.48491703147E+03 -0.67558351888E+03  0.85259660723E+03  0.25500000920E-02 0.  1.
       -2    1    3    3    0  502  0.18805147235E+03  0.48491703147E+03  0.87427895487E+03  0.10172863779E+04  0.25500000920E-02 0. -1.
</event>
<event>
 5   0  0.1130707E-06  0.2089993E+04  0.7818609E-02  0.8565664E-01
       -1   -1    0    0    0  501  0.00000000000E+00  0.00000000000E+00  0.62060725974E+03  0.62060725976E+03  0.50400001928E-02 0. -1.
        1   -1    0    0  501    0  0.00000000000E+00  0.00000000000E+00 -0.17595959801E+04  0.17595959801E+04  0.50400001928E-02 0.  1.
    10030    2    1    2    0    0  0.00000000000E+00  0.00000000000E+00 -0.11389887203E+04  0.23802032398E+04  0.20899933392E+04 0.  0.
        3    1    3    3  502    0  0.25984023208E+03 -0.20209723544E+03 -0.16990071630E+04  0.17306026664E+04  0.10100000352E+00 0.  1.
       -3    1    3    3    0  502 -0.25984023208E+03  0.20209723544E+03  0.56001844263E+03  0.64960057348E+03  0.10100000352E+00 0. -1.
</event>
<event>
 5   0  0.1782660E-06  0.3503264E+04  0.7818609E-02  0.8113017E-01
       -2   -1    0    0    0  501  0.00000000000E+00  0.00000000000E+00  0.16882077539E+04  0.16882077539E+04  0.25500000920E-02 0.  1.
        2   -1    0    0  501    0  0.00000000000E+00  0.00000000000E+00 -0.18174389249E+04  0.18174389249E+04  0.25500000920E-02 0. -1.
    10030    2    1    2    0    0  0.00000000000E+00  0.00000000000E+00 -0.12923117103E+03  0.35056466789E+04  0.35032638983E+04 0.  0.
        4    1    3    3  502    0  0.11561317298E+02  0.99625710888E+03 -0.15062727416E+04  0.18059681825E+04  0.12699999809E+01 0. -1.
       -4    1    3    3    0  502 -0.11561317298E+02 -0.99625710888E+03  0.13770415706E+04  0.16996784964E+04  0.12699999809E+01 0.  1.
</event>
<event>
 5   0  0.2565004E-06  0.3488669E+04  0.7818609E-02  0.8116480E-01
        2   -1    0    0  501    0  0.00000000000E+00  0.00000000000E+00  0.25004032399E+04  0.25004032399E+04  0.25500000920E-02 0.  1.
       -2   -1    0    0    0  501  0.00000000000E+00  0.00000000000E+00 -0.12168850023E+04  0.12168850023E+04  0.25500000920E-02 0. -1.
    10030    2    1    2    0    0  0.00000000000E+00  0.00000000000E+00  0.12835182376E+04  0.37172882422E+04  0.34886692032E+04 0.  0.
        3    1    3    3  502    0  0.39620100303E+03 -0.15051701814E+04  0.14808887656E+04  0.21483817296E+04  0.10100000352E+00 0.  1.
       -3    1    3    3    0  502 -0.39620100303E+03  0.15051701814E+04 -0.19737052797E+03  0.15689065126E+04  0.10100000352E+00 0. -1.
</event>
<event>
 5   0  0.1089337E-06  0.3578785E+04  0.7818609E-02  0.8095369E-01
       -1   -1    0    0    0  501  0.00000000000E+00  0.00000000000E+00  0.12902785870E+04  0.12902785870E+04  0.50400001928E-02 0. -1.
        1   -1    0    0  501    0  0.00000000000E+00  0.00000000000E+00 -0.24815769282E+04  0.24815769282E+04  0.50400001928E-02 0.  1.
    10030    2    1    2    0    0  0.00000000000E+00  0.00000000000E+00 -0.11912983412E+04  0.37718555152E+04  0.35787850298E+04 0.  0.
        2    1    3    3  502    0 -0.14398640332E+04  0.52262214652E+02 -0.17140201600E+04  0.22391527152E+04  0.25500000920E-02 0.  1.
       -2    1    3    3    0  502  0.14398640332E+04 -0.52262214652E+02  0.52272181880E+03  0.15327027999E+04  0.25500000920E-02 0. -1.
</event>
<event>
 5   0  0.1782660E-06  0.2122417E+04  0.7818609E-02  0.8551432E-01
       -2   -1    0    0    0  501  0.00000000000E+00  0.00000000000E+00  0.77743963719E+03  0.77743963720E+03  0.25500000920E-02 0.  1.
        2   -1    0    0  501    0  0.00000000000E+00  0.00000000000E+00 -0.14485538112E+04  0.14485538112E+04  0.25500000920E-02 0. -1.
    10030    2    1    2    0    0  0.00000000000E+00  0.00000000000E+00 -0.67111417400E+03  0.22259934484E+04  0.21224166881E+04 0.  0.
        4    1    3    3  502    0 -0.16975394946E+03 -0.77645083514E+03  0.40194434407E+03  0.89064761347E+03  0.12699999809E+01 0.  1.
       -4    1    3    3    0  502  0.16975394946E+03  0.77645083514E+03 -0.10730585181E+04  0.13353458349E+04  0.12699999809E+01 0. -1.
</event>
<event>
 5   0  0.1130707E-06  0.2148274E+04  0.7818609E-02  0.8540272E-01
       -1   -1    0    0    0  501  0.00000000000E+00  0.00000000000E+00  0.11245202885E+04  0.11245202886E+04  0.50400001928E-02 0. -1.
        1   -1    0    0  501    0  0.00000000000E+00  0.00000000000E+00 -0.10260107416E+04  0.10260107416E+04  0.50400001928E-02 0.  1.
    10030    2    1    2    0    0  0.00000000000E+00  0.00000000000E+00  0.98509546940E+02  0.21505310302E+04  0.21482736280E+04 0.  0.
        3    1    3    3  502    0  0.10714827673E+04  0.44220754789E+02  0.11046712063E+03  0.10780694740E+04  0.10100000352E+00 0.  1.
       -3    1    3    3    0  502 -0.10714827673E+04 -0.44220754789E+02 -0.11957573689E+02  0.10724615562E+04  0.10100000352E+00 0. -1.
</event>
<event>
 5   0  0.1102175E-06  0.3509780E+04  0.7818609E-02  0.8111476E-01
        1   -1    0    0  501    0  0.00000000000E+00  0.00000000000E+00  0.26095694366E+04  0.26095694366E+04  0.50400001928E-02 0.  1.
       -1   -1    0    0    0  501  0.00000000000E+00  0.00000000000E+00 -0.11801327193E+04  0.11801327193E+04  0.50400001928E-02 0. -1.
    10030    2    1    2    0    0  0.00000000000E+00  0.00000000000E+00  0.14294367173E+04  0.37897021559E+04  0.35097796372E+04 0.  0.
        5    1    3    3  502    0 -0.14399722814E+04  0.67884465265E+03  0.15120324114E+04  0.21955897470E+04  0.46999998093E+01 0.  1.
       -5    1    3    3    0  502  0.14399722814E+04 -0.67884465265E+03 -0.82595694118E+02  0.15941124090E+04  0.46999998093E+01 0. -1.
</event>
<event>
 5   0  0.1110956E-06  0.3368772E+04  0.7818609E-02  0.8145613E-01
       -1   -1    0    0    0  501  0.00000000000E+00  0.00000000000E+00  0.15988567210E+04  0.15988567210E+04  0.50400001928E-02 0.  1.
        1   -1    0    0  501    0  0.00000000000E+00  0.00000000000E+00 -0.17744905511E+04  0.17744905511E+04  0.50400001928E-02 0. -1.
    10030    2    1    2    0    0  0.00000000000E+00  0.00000000000E+00 -0.17563383009E+03  0.33733472721E+04  0.33687719685E+04 0.  0.
        1    1    3    3  502    0  0.10320087132E+04 -0.12182395200E+03 -0.14152390834E+04  0.17557860697E+04  0.50400001928E-02 0. -1.
       -1    1    3    3    0  502 -0.10320087132E+04  0.12182395200E+03  0.12396052533E+04  0.16175612024E+04  0.50400001928E-02 0.  1.
</event>
<event>
 5   0  0.1908726E-06  0.3726648E+04  0.7818609E-02  0.8062082E-01
        2   -1    0    0  501    0  0.00000000000E+00  0.00000000000E+00  0.17046272391E+04  0.17046272391E+04  0.25500000920E-02 0. -1.
       -2   -1    0    0    0  501  0.00000000000E+00  0.00000000000E+00 -0.20367953138E+04  0.20367953138E+04  0.25500000920E-02 0.  1.
    10030    2    1    2    0    0  0.00000000000E+00  0.00000000000E+00 -0.33216807473E+03  0.37414225529E+04  0.37266482380E+04 0.  0.
        5    1    3    3  502    0 -0.12482803166E+04  0.12485812279E+04 -0.76409290621E+03  0.19238032360E+04  0.46999998093E+01 0. -1.
       -5    1    3    3    0  502  0.12482803166E+04 -0.12485812279E+04  0.43192483148E+03  0.18176193170E+04  0.46999998093E+01 0.  1.
</event>
<event>
 5   0  0.1908726E-06  0.3364017E+04  0.7818609E-02  0.8146795E-01
       -2   -1    0    0    0  501  0.00000000000E+00  0.00000000000E+00  0.24678988707E+04  0.24678988707E+04  0.25500000920E-02 0.  1.
        2   -1    0    0  501    0  0.00000000000E+00  0.00000000000E+00 -0.11463811248E+04  0.11463811248E+04  0.25500000920E-02 0. -1.
    10030    2    1    2    0    0  0.00000000000E+00  0.00000000000E+00  0.13215177459E+04  0.36142799955E+04  0.33640170531E+04 0.  0.
        5    1    3    3  502    0  0.53049893657E+02 -0.28962243023E+03 -0.11184698814E+04  0.11565865332E+04  0.46999998093E+01 0. -1.
       -5    1    3    3    0  502 -0.53049893657E+02  0.28962243023E+03  0.24399876273E+04  0.24576934623E+04  0.46999998093E+01 0.  1.
</event>
<event>
 5   0  0.1125196E-06  0.3375005E+04  0.7818609E-02  0.8144068E-01
       -1   -1    0    0    0  501  0.00000000000E+00  0.00000000000E+00  0.10764406152E+04  0.10764406152E+04  0.50400001928E-02 0.  1.
        1   -1    0    0  501    0  0.00000000000E+00  0.00000000000E+00 -0.26454451354E+04  0.26454451354E+04  0.50400001928E-02 0. -1.
    10030    2    1    2    0    0  0.00000000000E+00  0.00000000000E+00 -0.15690045202E+04  0.37218857506E+04  0.33750049416E+04 0.  0.
        4    1    3    3  502    0  0.92754570444E+03  0.12960291443E+04 -0.17285188115E+03  0.16030944958E+04  0.12699999809E+01 0. -1.
       -4    1    3    3    0  502 -0.92754570444E+03 -0.12960291443E+04 -0.13961526391E+04  0.21187912548E+04  0.12699999809E+01 0.  1.
</event>
<event>
 5   0  0.1130707E-06  0.3504276E+04  0.7818609E-02  0.8112777E-01
        1   -1    0    0  501    0  0.00000000000E+00  0.00000000000E+00  0.29321556607E+04  0.29321556607E+04  0.50400001928E-02 0.  1.
       -1   -1    0    0    0  501  0.00000000000E+00  0.00000000000E+00 -0.10470070565E+04  0.10470070565E+04  0.50400001928E-02 0. -1.
    10030    2    1    2    0    0  0.00000000000E+00  0.00000000000E+00  0.18851486041E+04  0.39791627172E+04  0.35042760551E+04 0.  0.
        3    1    3    3  502    0 -0.54542906224E+03 -0.16457884888E+04  0.12295591706E+04  0.21255419018E+04  0.10100000352E+00 0.  1.
       -3    1    3    3    0  502  0.54542906224E+03  0.16457884888E+04  0.65558943350E+03  0.18536208154E+04  0.10100000352E+00 0. -1.
</event>
<event>
 5   0  0.1908726E-06  0.2924294E+04  0.7818609E-02  0.8265686E-01
        2   -1    0    0  501    0  0.00000000000E+00  0.00000000000E+00  0.25788421367E+04  0.25788421367E+04  0.25500000920E-02 0. -1.
       -2   -1    0    0    0  501  0.00000000000E+00  0.00000000000E+00 -0.82900555993E+03  0.82900555993E+03  0.25500000920E-02 0.  1.
    10030    2    1    2    0    0  0.00000000000E+00  0.00000000000E+00  0.17498365767E+04  0.34078476966E+04  0.29242944239E+04 0.  0.
        5    1    3    3  502    0  0.13340516211E+04  0.23548670763E+03  0.15160815594E+04  0.20331436501E+04  0.46999998093E+01 0. -1.
       -5    1    3    3    0  502 -0.13340516211E+04 -0.23548670763E+03  0.23375501728E+03  0.13747040464E+04  0.46999998093E+01 0.  1.
</event>
<event>
 5   0  0.1782660E-06  0.2648183E+04  0.7818609E-02  0.8352016E-01
       -2   -1    0    0    0  501  0.00000000000E+00  0.00000000000E+00  0.10808652431E+04  0.10808652431E+04  0.25500000920E-02 0.  1.
        2   -1    0    0  501    0  0.00000000000E+00  0.00000000000E+00 -0.16220508552E+04  0.16220508552E+04  0.25500000920E-02 0. -1.
    10030    2    1    2    0    0  0.00000000000E+00  0.00000000000E+00 -0.54118561215E+03  0.27029160983E+04  0.26481830691E+04 0.  0.
        4    1    3    3  502    0 -0.62708121177E+03  0.11529945801E+04 -0.44910597513E+03  0.13872004678E+04  0.12699999809E+01 0. -1.
       -4    1    3    3    0  502  0.62708121177E+03 -0.11529945801E+04 -0.92079637020E+02  0.13157156305E+04  0.12699999809E+01 0.  1.
</event>
<event>
 5   0  0.1782660E-06  0.3509579E+04  0.7818609E-02  0.8111524E-01
       -2   -1    0    0    0  501  0.00000000000E+00  0.00000000000E+00  0.13388339082E+04  0.13388339082E+04  0.25500000920E-02 0. -1.
        2   -1    0    0  501    0  0.00000000000E+00  0.00000000000E+00 -0.22999760135E+04  0.22999760135E+04  0.25500000920E-02 0.  1.
    10030    2    1    2    0    0  0.00000000000E+00  0.00000000000E+00 -0.96114210527E+03  0.36388099218E+04  0.35095788209E+04 0.  0.
        4    1    3    3  502    0  0.14713680052E+04 -0.84721534219E+03 -0.94027829615E+03  0.19408303712E+04  0.12699999809E+01 0.  1.
       -4    1    3    3    0  502 -0.14713680052E+04  0.84721534219E+03 -0.20863809129E+02  0.16979795506E+04  0.12699999809E+01 0. -1.
</event>
<event>
 5   0  0.1782660E-06  0.3098963E+04  0.7818609E-02  0.8216022E-01
        2   -1    0    0  501    0  0.00000000000E+00  0.00000000000E+00  0.22077411864E+04  0.22077411864E+04  0.25500000920E-02 0. -1.
       -2   -1    0    0    0  501  0.00000000000E+00  0.00000000000E+00 -0.10874886805E+04  0.10874886805E+04  0.25500000920E-02 0.  1.
    10030    2    1    2    0    0  0.00000000000E+00  0.00000000000E+00  0.11202525059E+04  0.32952298669E+04  0.30989634071E+04 0.  0.
        4    1    3    3  502    0  0.11997366774E+04 -0.48571353757E+03  0.14659000647E+04  0.19555434918E+04  0.12699999809E+01 0. -1.
       -4    1    3    3    0  502 -0.11997366774E+04  0.48571353757E+03 -0.34564755885E+03  0.13396863750E+04  0.12699999809E+01 0.  1.
</event>
<event>
 5   0  0.1908726E-06  0.3305433E+04  0.7818609E-02  0.8161514E-01
       -2   -1    0    0    0  501  0.00000000000E+00  0.00000000000E+00  0.12163527042E+04  0.12163527042E+04  0.25500000920E-02 0. -1.
        2   -1    0    0  501    0  0.00000000000E+00  0.00000000000E+00 -0.22456246346E+04  0.22456246346E+04  0.25500000920E-02 0.  1.
    10030    2    1    2    0    0  0.00000000000E+00  0.00000000000E+00 -0.10292719304E+04  0.34619773388E+04  0.33054328593E+04 0.  0.
        5    1    3    3  502    0 -0.12658175672E+04 -0.96715366444E+03 -0.97567557019E+03  0.18680592154E+04  0.46999998093E+01 0. -1.
       -5    1    3    3    0  502  0.12658175672E+04  0.96715366444E+03 -0.53596360165E+02  0.15939181233E+04  0.46999998093E+01 0.  1.
</event>
<event>
 5   0  0.1908726E-06  0.1801600E+04  0.7818609E-02  0.8705449E-01
       -2   -1    0    0    0  501  0.00000000000E+00  0.00000000000E+00  0.55193133878E+03  0.55193133879E+03  0.25500000920E-02 0.  1.
        2   -1    0    0  501    0  0.00000000000E+00  0.00000000000E+00 -0.14701841337E+04  0.14701841337E+04  0.25500000920E-02 0. -1.
    10030    2    1    2    0    0  0.00000000000E+00  0.00000000000E+00 -0.91825279492E+03  0.20221154725E+04  0.18016000635E+04 0.  0.
        5    1    3    3  502    0 -0.74081916859E+03 -0.13161217130E+02 -0.10341110434E+04  0.12721611526E+04  0.46999998093E+01 0. -1.
       -5    1    3    3    0  502  0.74081916859E+03  0.13161217130E+02  0.11585824846E+03  0.74995431989E+03  0.46999998093E+01 0.  1.
</event>
<event>
 5   0  0.2565004E-06  0.3546075E+04  0.7818609E-02  0.8102957E-01
       -2   -1    0    0    0  501  0.00000000000E+00  0.00000000000E+00  0.18437953741E+04  0.18437953741E+04  0.25500000920E-02 0.  1.
        2   -1    0    0  501    0  0.00000000000E+00  0.00000000000E+00 -0.17049950581E+04  0.17049950581E+04  0.25500000920E-02 0. -1.
    10030    2    1    2    0    0  0.00000000000E+00  0.00000000000E+00  0.13880031601E+03  0.35487904323E+04  0.35460750139E+04 0.  0.
        3    1    3    3  502    0 -0.16240661425E+04  0.22409311946E+03  0.74508635694E+03  0.18008226594E+04  0.10100000352E+00 0.  1.
       -3    1    3    3    0  502  0.16240661425E+04 -0.22409311946E+03 -0.60628604093E+03  0.17479677728E+04  0.10100000352E+00 0. -1.
</event>
<event>
 5   0  0.1110956E-06  0.3332934E+04  0.7818609E-02  0.8154565E-01
        1   -1    0    0  501    0  0.00000000000E+00  0.00000000000E+00  0.10413207487E+04  0.10413207487E+04  0.50400001928E-02 0.  1.
       -1   -1    0    0    0  501  0.00000000000E+00  0.00000000000E+00 -0.26669137661E+04  0.26669137661E+04  0.50400001928E-02 0. -1.
    10030    2    1    2    0    0  0.00000000000E+00  0.00000000000E+00 -0.16255930174E+04  0.37082345148E+04  0.33329342265E+04 0.  0.
        1    1    3    3  502    0 -0.55932476846E+02 -0.66377111535E+03  0.88675491860E+03  0.11090783657E+04  0.50400001928E-02 0.  1.
       -1    1    3    3    0  502  0.55932476846E+02  0.66377111535E+03 -0.25123479360E+04  0.25991561491E+04  0.50400001928E-02 0. -1.
</event>
<event>
 5   0  0.1130707E-06  0.3473810E+04  0.7818609E-02  0.8120025E-01
        1   -1    0    0  501    0  0.00000000000E+00  0.00000000000E+00  0.22668493881E+04  0.22668493881E+04  0.50400001928E-02 0. -1.
       -1   -1    0    0    0  501  0.00000000000E+00  0.00000000000E+00 -0.13308514236E+04  0.13308514236E+04  0.50400001928E-02 0.  1.
    10030    2    1    2    0    0  0.00000000000E+00  0.00000000000E+00  0.93599796450E+03  0.35977008118E+04  0.34738104354E+04 0.  0.
        3    1    3    3  502    0  0.11316804084E+04 -0.56335938862E+03  0.17015985814E+04  0.21197905769E+04  0.10100000352E+00 0. -1.
       -3    1    3    3    0  502 -0.11316804084E+04  0.56335938862E+03 -0.76560061692E+03  0.14779102349E+04  0.10100000352E+00 0.  1.
</event>
<event>
 5   0  0.3041329E-06  0.2127877E+04  0.7818609E-02  0.8549062E-01
        2   -1    0    0  501    0  0.00000000000E+00  0.00000000000E+00  0.15112270754E+04  0.15112270754E+04  0.25500000920E-02 0. -1.
       -2   -1    0    0    0  501  0.00000000000E+00  0.00000000000E+00 -0.74903680690E+03  0.74903680691E+03  0.25500000920E-02 0.  1.
    10030    2    1    2    0    0  0.00000000000E+00  0.00000000000E+00  0.76219026853E+03  0.22602638823E+04  0.21278765971E+04 0.  0.
        2    1    3    3  502    0  0.62325238098E+03 -0.63852809870E+02  0.12945042665E+04  0.14381453361E+04  0.25500000920E-02 0. -1.
       -2    1    3    3    0  502 -0.62325238098E+03  0.63852809870E+02 -0.53231399794E+03  0.82211854628E+03  0.25500000920E-02 0.  1.
</event>
<event>
 5   0  0.1125196E-06  0.2476466E+04  0.7818609E-02  0.8411418E-01
        1   -1    0    0  501    0  0.00000000000E+00  0.00000000000E+00  0.19106332915E+04  0.19106332915E+04  0.50400001928E-02 0.  1.
       -1   -1    0    0    0  501  0.00000000000E+00  0.00000000000E+00 -0.80246713733E+03  0.80246713735E+03  0.50400001928E-02 0. -1.
    10030    2    1    2    0    0  0.00000000000E+00  0.00000000000E+00  0.11081661542E+04  0.27131004289E+04  0.24764655685E+04 0.  0.
        4    1    3    3  502    0  0.15770467718E+03  0.18046153146E+03  0.18849806532E+04  0.19001554687E+04  0.12699999809E+01 0.  1.
       -4    1    3    3    0  502 -0.15770467718E+03 -0.18046153146E+03 -0.77681449898E+03  0.81294496017E+03  0.12699999809E+01 0. -1.
</event>
<event>
 5   0  0.2565004E-06  0.3494552E+04  0.7818609E-02  0.8115082E-01
       -2   -1    0    0    0  501  0.00000000000E+00  0.00000000000E+00  0.12936606582E+04  0.12936606582E+04  0.25500000920E-02 0.  1.
        2   -1    0    0  501    0  0.00000000000E+00  0.00000000000E+00 -0.23599488477E+04  0.23599488477E+04  0.25500000920E-02 0. -1.
    10030    2    1    2    0    0  0.00000000000E+00  0.00000000000E+00 -0.10662881895E+04  0.36536095060E+04  0.34945517479E+04 0.  0.
        3    1    3    3  502    0 -0.15578143398E+04  0.60473992620E+03 -0.10667435836E+04  0.19825331722E+04  0.10100000352E+00 0. -1.
       -3    1    3    3    0  502  0.15578143398E+04 -0.60473992620E+03  0.45539412814E+00  0.16710763337E+04  0.10100000352E+00 0.  1.
</event>
<event>
 5   0  0.1130707E-06  0.2321000E+04  0.7818609E-02  0.8469687E-01
        1   -1    0    0  501    0  0.00000000000E+00  0.00000000000E+00  0.12163795007E+04  0.12163795007E+04  0.50400001928E-02 0.  1.
       -1   -1    0    0    0  501  0.00000000000E+00  0.00000000000E+00 -0.11071876910E+04  0.11071876910E+04  0.50400001928E-02 0. -1.
    10030    2    1    2    0    0  0.00000000000E+00  0.00000000000E+00  0.10919180974E+03  0.23235671917E+04  0.23210001386E+04 0.  0.
        3    1    3    3  502    0  0.84899004189E+03 -0.75831964904E+03  0.28051698539E+03  0.11724003457E+04  0.10100000352E+00 0.  1.
       -3    1    3    3    0  502 -0.84899004189E+03  0.75831964904E+03 -0.17132517565E+03  0.11511668460E+04  0.10100000352E+00 0. -1.
</event>
<event>
 5   0  0.1782660E-06  0.2418057E+04  0.7818609E-02  0.8432774E-01
       -2   -1    0    0    0  501  0.00000000000E+00  0.00000000000E+00  0.97226754632E+03  0.97226754632E+03  0.25500000920E-02 0.  1.
        2   -1    0    0  501    0  0.00000000000E+00  0.00000000000E+00 -0.15034446062E+04  0.15034446063E+04  0.25500000920E-02 0. -1.
    10030    2    1    2    0    0  0.00000000000E+00  0.00000000000E+00 -0.53117705993E+03  0.24757121526E+04  0.24180574008E+04 0.  0.
        4    1    3    3  502    0  0.13734746857E+01 -0.43785719641E+03 -0.14194141712E+04  0.14854154346E+04  0.12699999809E+01 0. -1.
       -4    1    3    3    0  502 -0.13734746857E+01  0.43785719641E+03  0.88823711130E+03  0.99029671800E+03  0.12699999809E+01 0.  1.
</event>
<event>
 5   0  0.1782660E-06  0.3474733E+04  0.7818609E-02  0.8119804E-01
       -2   -1    0    0    0  501  0.00000000000E+00  0.00000000000E+00  0.11128352376E+04  0.11128352376E+04  0.25500000920E-02 0.  1.
        2   -1    0    0  501    0  0.00000000000E+00  0.00000000000E+00 -0.27123886703E+04  0.27123886703E+04  0.25500000920E-02 0. -1.
    10030    2    1    2    0    0  0.00000000000E+00  0.00000000000E+00 -0.15995534328E+04  0.38252239079E+04  0.34747326172E+04 0.  0.
        4    1    3    3  502    0 -0.12778106843E+04 -0.52236079584E+03 -0.19610647656E+04  0.23982154978E+04  0.12699999809E+01 0. -1.
       -4    1    3    3    0  502  0.12778106843E+04  0.52236079584E+03  0.36151133284E+03  0.14270084101E+04  0.12699999809E+01 0.  1.
</event>
<event>
 5   0  0.1908726E-06  0.3242283E+04  0.7818609E-02  0.8177739E-01
       -2   -1    0    0    0  501  0.00000000000E+00  0.00000000000E+00  0.23670286903E+04  0.23670286903E+04  0.25500000920E-02 0.  1.
        2   -1    0    0  501    0  0.00000000000E+00  0.00000000000E+00 -0.11102946841E+04  0.11102946841E+04  0.25500000920E-02 0. -1.
    10030    2    1    2    0    0  0.00000000000E+00  0.00000000000E+00  0.12567340062E+04  0.34773233744E+04  0.32422827588E+04 0.  0.
        5    1    3    3  502    0  0.45975602202E+03 -0.36351626969E+03 -0.99267866321E+03  0.11528021064E+04  0.46999998093E+01 0. -1.
       -5    1    3    3    0  502 -0.45975602202E+03  0.36351626969E+03  0.22494126694E+04  0.23245212680E+04  0.46999998093E+01 0.  1.
</event>
<event>
 5   0  0.1782660E-06  0.3211100E+04  0.7818609E-02  0.8185892E-01
       -2   -1    0    0    0  501  0.00000000000E+00  0.00000000000E+00  0.11363191457E+04  0.11363191457E+04  0.25500000920E-02 0. -1.
        2   -1    0    0  501    0  0.00000000000E+00  0.00000000000E+00 -0.22685452327E+04  0.22685452327E+04  0.25500000920E-02 0.  1.
    10030    2    1    2    0    0  0.00000000000E+00  0.00000000000E+00 -0.11322260870E+04  0.34048643784E+04  0.32111003602E+04 0.  0.
        4    1    3    3  502    0 -0.31225339009E+03  0.36859643188E+03 -0.21896569645E+04  0.22423123655E+04  0.12699999809E+01 0.  1.
       -4    1    3    3    0  502  0.31225339009E+03 -0.36859643188E+03  0.10574308775E+04  0.11625520129E+04  0.12699999809E+01 0. -1.
</event>
<event>
 5   0  0.1102175E-06  0.3406370E+04  0.7818609E-02  0.8136345E-01
       -1   -1    0    0    0  501  0.00000000000E+00  0.00000000000E+00  0.18585917666E+04  0.18585917666E+04  0.50400001928E-02 0.  1.
        1   -1    0    0  501    0  0.00000000000E+00  0.00000000000E+00 -0.15607728248E+04  0.15607728248E+04  0.50400001928E-02 0. -1.
    10030    2    1    2    0    0  0.00000000000E+00  0.00000000000E+00  0.29781894176E+03  0.34193645914E+04  0.34063702217E+04 0.  0.
        5    1    3    3  502    0  0.11972589985E+04 -0.10912663421E+04  0.67677295666E+03  0.17556580145E+04  0.46999998093E+01 0.  1.
       -5    1    3    3    0  502 -0.11972589985E+04  0.10912663421E+04 -0.37895401490E+03  0.16637065770E+04  0.46999998093E+01 0. -1.
</event>
<event>
 5   0  0.1102175E-06  0.3577205E+04  0.7818609E-02  0.8095733E-01
        1   -1    0    0  501    0  0.00000000000E+00  0.00000000000E+00  0.21602489231E+04  0.21602489231E+04  0.50400001928E-02 0. -1.
       -1   -1    0    0    0  501  0.00000000000E+00  0.00000000000E+00 -0.14808938801E+04  0.14808938801E+04  0.50400001928E-02 0.  1.
    10030    2    1    2    0    0  0.00000000000E+00  0.00000000000E+00  0.67935504306E+03  0.36411428032E+04  0.35772052833E+04 0.  0.
        5    1    3    3  502    0  0.10745319131E+03  0.16531043772E+04  0.10261025626E+04  0.19486428172E+04  0.46999998093E+01 0. -1.
       -5    1    3    3    0  502 -0.10745319131E+03 -0.16531043772E+04 -0.34674751957E+03  0.16924999860E+04  0.46999998093E+01 0.  1.
</event>
<event>
 5   0  0.1125196E-06  0.3420396E+04  0.7818609E-02  0.8132919E-01
       -1   -1    0    0    0  501  0.00000000000E+00  0.00000000000E+00  0.18635176608E+04  0.18635176608E+04  0.50400001928E-02 0.  1.
        1   -1    0    0  501    0  0.00000000000E+00  0.00000000000E+00 -0.15694925956E+04  0.15694925956E+04  0.50400001928E-02 0. -1.
    10030    2    1    2    0    0  0.00000000000E+00  0.00000000000E+00  0.29402506516E+03  0.34330102564E+04  0.34203959832E+04 0.  0.
        4    1    3    3  502    0  0.10555859927E+04 -0.12437320074E+04  0.66236936811E+03  0.17606436002E+04  0.12699999809E+01 0.  1.
       -4    1    3    3    0  502 -0.10555859927E+04  0.12437320074E+04 -0.36834430295E+03  0.16723666562E+04  0.12699999809E+01 0. -1.
</event>
<event>
 5   0  0.1130707E-06  0.3369025E+04  0.7818609E-02  0.8145551E-01
        1   -1    0    0  501    0  0.00000000000E+00  0.00000000000E+00  0.22502682732E+04  0.22502682732E+04  0.50400001928E-02 0. -1.
       -1   -1    0    0    0  501  0.00000000000E+00  0.00000000000E+00 -0.12609976525E+04  0.12609976525E+04  0.50400001928E-02 0.  1.
    10030    2    1    2    0    0  0.00000000000E+00  0.00000000000E+00  0.98927062066E+03  0.35112659257E+04  0.33690253843E+04 0.  0.
        3    1    3    3  502    0 -0.15398021770E+04 -0.53034378914E+03  0.45962624788E+02  0.16292230824E+04  0.10100000352E+00 0.  1.
       -3    1    3    3    0  502  0.15398021770E+04  0.53034378914E+03  0.94330799588E+03  0.18820428434E+04  0.10100000352E+00 0. -1.
</event>
<event>
 5   0  0.1782660E-06  0.3451687E+04  0.7818609E-02  0.8125336E-01
        2   -1    0    0  501    0  0.00000000000E+00  0.00000000000E+00  0.22234236443E+04  0.22234236443E+04  0.25500000920E-02 0. -1.
       -2   -1    0    0    0  501  0.00000000000E+00  0.00000000000E+00 -0.13396170442E+04  0.13396170442E+04  0.25500000920E-02 0.  1.
    10030    2    1    2    0    0  0.00000000000E+00  0.00000000000E+00  0.88380660011E+03  0.35630406885E+04  0.34516872457E+04 0.  0.
        4    1    3    3  502    0 -0.22099902044E+03 -0.29302963335E+03 -0.12988650479E+04  0.13497255124E+04  0.12699999809E+01 0.  1.
       -4    1    3    3    0  502  0.22099902044E+03  0.29302963335E+03  0.21826716480E+04  0.22133151762E+04  0.12699999809E+01 0. -1.
</event>
<event>
 5   0  0.1110956E-06  0.3198424E+04  0.7818609E-02  0.8189234E-01
       -1   -1    0    0    0  501  0.00000000000E+00  0.00000000000E+00  0.10802733665E+04  0.10802733665E+04  0.50400001928E-02 0. -1.
        1   -1    0    0  501    0  0.00000000000E+00  0.00000000000E+00 -0.23674363822E+04  0.23674363822E+04  0.50400001928E-02 0.  1.
    10030    2    1    2    0    0  0.00000000000E+00  0.00000000000E+00 -0.12871630157E+04  0.34477097488E+04  0.31984236559E+04 0.  0.
        1    1    3    3  502    0 -0.40821744011E+03 -0.15459626117E+04 -0.67475980930E+03  0.17354949368E+04  0.50400001928E-02 0.  1.
       -1    1    3    3    0  502  0.40821744011E+03  0.15459626117E+04 -0.61240320637E+03  0.17122148120E+04  0.50400001928E-02 0. -1.
</event>
<event>
 5   0  0.1110956E-06  0.3420070E+04  0.7818609E-02  0.8132998E-01
        1   -1    0    0  501    0  0.00000000000E+00  0.00000000000E+00  0.11939710627E+04  0.11939710627E+04  0.50400001928E-02 0. -1.
       -1   -1    0    0    0  501  0.00000000000E+00  0.00000000000E+00 -0.24491549881E+04  0.24491549881E+04  0.50400001928E-02 0.  1.
    10030    2    1    2    0    0  0.00000000000E+00  0.00000000000E+00 -0.12551839255E+04  0.36431260508E+04  0.34200702822E+04 0.  0.
        1    1    3    3  502    0 -0.15688928009E+04  0.43355301129E+03 -0.69161447983E+02  0.16291642460E+04  0.50400001928E-02 0. -1.
       -1    1    3    3    0  502  0.15688928009E+04 -0.43355301129E+03 -0.11860224775E+04  0.20139618049E+04  0.50400001928E-02 0.  1.
</event>
<event>
 5   0  0.1089337E-06  0.3310204E+04  0.7818609E-02  0.8160304E-01
       -1   -1    0    0    0  501  0.00000000000E+00  0.00000000000E+00  0.18947177860E+04  0.18947177860E+04  0.50400001928E-02 0. -1.
        1   -1    0    0  501    0  0.00000000000E+00  0.00000000000E+00 -0.14457889275E+04  0.14457889275E+04  0.50400001928E-02 0.  1.
    10030    2    1    2    0    0  0.00000000000E+00  0.00000000000E+00  0.44892885845E+03  0.33405067135E+04  0.33102036166E+04 0.  0.
        2    1    3    3  502    0  0.13646541617E+04  0.80639382545E+03 -0.25614108778E+03  0.16056650459E+04  0.25500000920E-02 0.  1.
       -2    1    3    3    0  502 -0.13646541617E+04 -0.80639382545E+03  0.70506994623E+03  0.17348416676E+04  0.25500000920E-02 0. -1.
</event>
<event>
 5   0  0.2565004E-06  0.3470111E+04  0.7818609E-02  0.8120910E-01
       -2   -1    0    0    0  501  0.00000000000E+00  0.00000000000E+00  0.24076333922E+04  0.24076333922E+04  0.25500000920E-02 0.  1.
        2   -1    0    0  501    0  0.00000000000E+00  0.00000000000E+00 -0.12503634694E+04  0.12503634694E+04  0.25500000920E-02 0. -1.
    10030    2    1    2    0    0  0.00000000000E+00  0.00000000000E+00  0.11572699229E+04  0.36579968616E+04  0.34701105696E+04 0.  0.
        3    1    3    3  502    0  0.37946061121E+03  0.99435154471E+03 -0.86584703526E+03  0.13720118252E+04  0.10100000352E+00 0. -1.
       -3    1    3    3    0  502 -0.37946061121E+03 -0.99435154471E+03  0.20231169581E+04  0.22859850364E+04  0.10100000352E+00 0.  1.
</event>
<event>
 5   0  0.1782660E-06  0.3253316E+04  0.7818609E-02  0.8174877E-01
       -2   -1    0    0    0  501  0.00000000000E+00  0.00000000000E+00  0.20155204395E+04  0.20155204395E+04  0.25500000920E-02 0. -1.
        2   -1    0    0  501    0  0.00000000000E+00  0.00000000000E+00 -0.13128201840E+04  0.13128201840E+04  0.25500000920E-02 0.  1.
    10030    2    1    2    0    0  0.00000000000E+00  0.00000000000E+00  0.70270025548E+03  0.33283406235E+04  0.32533157942E+04 0.  0.
        4    1    3    3  502    0 -0.12999408720E+04  0.62028531013E+03 -0.42200157313E+03  0.15008954252E+04  0.12699999809E+01 0.  1.
       -4    1    3    3    0  502  0.12999408720E+04 -0.62028531013E+03  0.11247018286E+04  0.18274451983E+04  0.12699999809E+01 0. -1.
</event>
<event>
 5   0  0.1908726E-06  0.3520537E+04  0.7818609E-02  0.8108940E-01
        2   -1    0    0  501    0  0.00000000000E+00  0.00000000000E+00  0.21583790268E+04  0.21583790268E+04  0.25500000920E-02 0. -1.
       -2   -1    0    0    0  501  0.00000000000E+00  0.00000000000E+00 -0.14355887202E+04  0.14355887202E+04  0.25500000920E-02 0.  1.
    10030    2    1    2    0    0  0.00000000000E+00  0.00000000000E+00  0.72279030663E+03  0.35939677470E+04  0.35205366550E+04 0.  0.
        5    1    3    3  502    0  0.58277726842E+03 -0.11935189657E+04 -0.81786395006E+03  0.15598206297E+04  0.46999998093E+01 0.  1.
       -5    1    3    3    0  502 -0.58277726842E+03  0.11935189657E+04  0.15406542567E+04  0.20341471173E+04  0.46999998093E+01 0. -1.
</event>
<event>
 5   0  0.1110956E-06  0.2269928E+04  0.7818609E-02  0.8489873E-01
        1   -1    0    0  501    0  0.00000000000E+00  0.00000000000E+00  0.14770199361E+04  0.14770199361E+04  0.50400001928E-02 0.  1.
       -1   -1    0    0    0  501  0.00000000000E+00  0.00000000000E+00 -0.87212327193E+03  0.87212327195E+03  0.50400001928E-02 0. -1.
    10030    2    1    2    0    0  0.00000000000E+00  0.00000000000E+00  0.60489666413E+03  0.23491432080E+04  0.22699281569E+04 0.  0.
        1    1    3    3  502    0  0.24886097762E+03 -0.84553716998E+03  0.10424388840E+04  0.13651167418E+04  0.50400001928E-02 0.  1.
       -1    1    3    3    0  502 -0.24886097762E+03  0.84553716998E+03 -0.43754221984E+03  0.98402646619E+03  0.50400001928E-02 0. -1.
</event>
<event>
 5   0  0.3378848E-06  0.3396530E+04  0.7818609E-02  0.8138759E-01
        2   -1    0    0  501    0  0.00000000000E+00  0.00000000000E+00  0.15443313279E+04  0.15443313279E+04  0.25500000920E-02 0. -1.
       -2   -1    0    0    0  501  0.00000000000E+00  0.00000000000E+00 -0.18675418138E+04  0.18675418138E+04  0.25500000920E-02 0.  1.
    10030    2    1    2    0    0  0.00000000000E+00  0.00000000000E+00 -0.32321048583E+03  0.34118731417E+04  0.33965295990E+04 0.  0.
        1    1    3    3  502    0  0.94142415807E+03  0.13892182905E+04 -0.42335176848E+03  0.17307321064E+04  0.50400001928E-02 0.  1.
       -1    1    3    3    0  502 -0.94142415807E+03 -0.13892182905E+04  0.10014128265E+03  0.16811410353E+04  0.50400001928E-02 0. -1.
</event>
<event>
 5   0  0.3378848E-06  0.2172345E+04  0.7818609E-02  0.8530027E-01
       -2   -1    0    0    0  501  0.00000000000E+00  0.00000000000E+00  0.82214376476E+03  0.82214376476E+03  0.25500000920E-02 0. -1.
        2   -1    0    0  501    0  0.00000000000E+00  0.00000000000E+00 -0.14349938293E+04  0.14349938293E+04  0.25500000920E-02 0.  1.
    10030    2    1    2    0    0  0.00000000000E+00  0.00000000000E+00 -0.61285006455E+03  0.22571375941E+04  0.21723454875E+04 0.  0.
        1    1    3    3  502    0 -0.95305439776E+02  0.73033709980E+03  0.52304304049E+03  0.90335454193E+03  0.50400001928E-02 0. -1.
       -1    1    3    3    0  502  0.95305439776E+02 -0.73033709980E+03 -0.11358931050E+04  0.13537830522E+04  0.50400001928E-02 0.  1.
</event>
<event>
 5   0  0.1130707E-06  0.3458969E+04  0.7818609E-02  0.8123583E-01
       -1   -1    0    0    0  501  0.00000000000E+00  0.00000000000E+00  0.10214801697E+04  0.10214801697E+04  0.50400001928E-02 0.  1.
        1   -1    0    0  501    0  0.00000000000E+00  0.00000000000E+00 -0.29282182766E+04  0.29282182766E+04  0.50400001928E-02 0. -1.
    10030    2    1    2    0    0  0.00000000000E+00  0.00000000000E+00 -0.19067381069E+04  0.39496984463E+04  0.34589691541E+04 0.  0.
        3    1    3    3  502    0 -0.33163457510E+03 -0.64636085663E+02  0.98342739018E+03  0.10398503531E+04  0.10100000352E+00 0.  1.
       -3    1    3    3    0  502  0.33163457510E+03  0.64636085663E+02 -0.28901654970E+04  0.29098480932E+04  0.10100000352E+00 0. -1.
</event>
<event>
 5   0  0.1130707E-06  0.3428050E+04  0.7818609E-02  0.8131056E-01
       -1   -1    0    0    0  501  0.00000000000E+00  0.00000000000E+00  0.21001202767E+04  0.21001202767E+04  0.50400001928E-02 0.  1.
        1   -1    0    0  501    0  0.00000000000E+00  0.00000000000E+00 -0.13989108964E+04  0.13989108964E+04  0.50400001928E-02 0. -1.
    10030    2    1    2    0    0  0.00000000000E+00  0.00000000000E+00  0.70120938030E+03  0.34990311731E+04  0.34280496722E+04 0.  0.
        3    1    3    3  502    0  0.25785776966E+03  0.35790947447E+03  0.20411883582E+04  0.20883102607E+04  0.10100000352E+00 0.  1.
       -3    1    3    3    0  502 -0.25785776966E+03 -0.35790947447E+03 -0.13399789779E+04  0.14107209124E+04  0.10100000352E+00 0. -1.
</event>
<event>
 5   0  0.1908726E-06  0.2008606E+04  0.7818609E-02  0.8602608E-01
        2   -1    0    0  501    0  0.00000000000E+00  0.00000000000E+00  0.18563267067E+04  0.18563267067E+04  0.25500000920E-02 0.  1.
       -2   -1    0    0    0  501  0.00000000000E+00  0.00000000000E+00 -0.54334425148E+03  0.54334425149E+03  0.25500000920E-02 0. -1.
    10030    2    1    2    0    0  0.00000000000E+00  0.00000000000E+00  0.13129824552E+04  0.23996709582E+04  0.20086059295E+04 0.  0.
        5    1    3    3  502    0 -0.87416754943E+03 -0.27525469232E+03  0.16583909005E+03  0.93137465282E+03  0.46999998093E+01 0.  1.
       -5    1    3    3    0  502  0.87416754943E+03  0.27525469232E+03  0.11471433652E+04  0.14682963054E+04  0.46999998093E+01 0. -1.
</event>
<event>
 5   0  0.1110956E-06  0.3086385E+04  0.7818609E-02  0.8219484E-01
        1   -1    0    0  501    0  0.00000000000E+00  0.00000000000E+00  0.28775644501E+04  0.28775644501E+04  0.50400001928E-02 0.  1.
       -1   -1    0    0    0  501  0.00000000000E+00  0.00000000000E+00 -0.82759000568E+03  0.82759000569E+03  0.50400001928E-02 0. -1.
    10030    2    1    2    0    0  0.00000000000E+00  0.00000000000E+00  0.20499744445E+04  0.37051544558E+04  0.30863853160E+04 0.  0.
        1    1    3    3  502    0 -0.36245689577E+03  0.12289536475E+04 -0.75272981342E+01  0.12813113318E+04  0.50400001928E-02 0. -1.
       -1    1    3    3    0  502  0.36245689577E+03 -0.12289536475E+04  0.20575017426E+04  0.24238431240E+04  0.50400001928E-02 0.  1.
</event>
<event>
 5   0  0.1908726E-06  0.3449746E+04  0.7818609E-02  0.8125804E-01
       -2   -1    0    0    0  501  0.00000000000E+00  0.00000000000E+00  0.20222719578E+04  0.20222719578E+04  0.25500000920E-02 0.  1.
        2   -1    0    0  501    0  0.00000000000E+00  0.00000000000E+00 -0.14712099288E+04  0.14712099288E+04  0.25500000920E-02 0. -1.
    10030    2    1    2    0    0  0.00000000000E+00  0.00000000000E+00  0.55106202906E+03  0.34934818866E+04  0.34497458359E+04 0.  0.
        5    1    3    3  502    0  0.16523089395E+03  0.11373567628E+04  0.15780266568E+04  0.19521966791E+04  0.46999998093E+01 0.  1.
       -5    1    3    3    0  502 -0.16523089395E+03 -0.11373567628E+04 -0.10269646277E+04  0.15412852075E+04  0.46999998093E+01 0. -1.
</event>
<event>
 5   0  0.1130707E-06  0.3229830E+04  0.7818609E-02  0.8180983E-01
       -1   -1    0    0    0  501  0.00000000000E+00  0.00000000000E+00  0.13005642283E+04  0.13005642283E+04  0.50400001928E-02 0.  1.
        1   -1    0    0  501    0  0.00000000000E+00  0.00000000000E+00 -0.20052451419E+04  0.20052451419E+04  0.50400001928E-02 0. -1.
    10030    2    1    2    0    0  0.00000000000E+00  0.00000000000E+00 -0.70468091363E+03  0.33058093702E+04  0.32298297792E+04 0.  0.
        3    1    3    3  502    0 -0.78275490672E+03  0.14122642635E+04 -0.32422619188E+03  0.16469117243E+04  0.10100000352E+00 0. -1.
       -3    1    3    3    0  502  0.78275490672E+03 -0.14122642635E+04 -0.38045472175E+03  0.16588976459E+04  0.10100000352E+00 0.  1.
</event>
<event>
 5   0  0.1908726E-06  0.1949044E+04  0.7818609E-02  0.8630822E-01
       -2   -1    0    0    0  501  0.00000000000E+00  0.00000000000E+00  0.13983960113E+04  0.13983960113E+04  0.25500000920E-02 0.  1.
        2   -1    0    0  501    0  0.00000000000E+00  0.00000000000E+00 -0.67913047803E+03  0.67913047803E+03  0.25500000920E-02 0. -1.
    10030    2    1    2    0    0  0.00000000000E+00  0.00000000000E+00  0.71926553322E+03  0.20775264893E+04  0.19490442289E+04 0.  0.
        5    1    3    3  502    0  0.54889570714E+02  0.39523607871E+03 -0.58804612827E+03  0.71066501381E+03  0.46999998093E+01 0. -1.
       -5    1    3    3    0  502 -0.54889570714E+02 -0.39523607871E+03  0.13073116615E+04  0.13668614755E+04  0.46999998093E+01 0.  1.
</event>
<event>
 5   0  0.2565004E-06  0.3491997E+04  0.7818609E-02  0.8115689E-01
        2   -1    0    0  501    0  0.00000000000E+00  0.00000000000E+00  0.33030327619E+04  0.33030327619E+04  0.25500000920E-02 0. -1.
       -2   -1    0    0    0  501  0.00000000000E+00  0.00000000000E+00 -0.92294274768E+03  0.92294274769E+03  0.25500000920E-02 0.  1.
    10030    2    1    2    0    0  0.00000000000E+00  0.00000000000E+00  0.23800900142E+04  0.42259755096E+04  0.34919966397E+04 0.  0.
        3    1    3    3  502    0 -0.50761186956E+02 -0.78374327442E+03 -0.69710473327E+03  0.10501358187E+04  0.10100000352E+00 0.  1.
       -3    1    3    3    0  502  0.50761186956E+02  0.78374327442E+03  0.30771947475E+04  0.31758396909E+04  0.10100000352E+00 0. -1.
</event>
<event>
 5   0  0.3041329E-06  0.3528591E+04  0.7818609E-02  0.8107047E-01
        2   -1    0    0  501    0  0.00000000000E+00  0.00000000000E+00  0.19543952840E+04  0.19543952840E+04  0.25500000920E-02 0. -1.
       -2   -1    0    0    0  501  0.00000000000E+00  0.00000000000E+00 -0.15926867252E+04  0.15926867252E+04  0.25500000920E-02 0.  1.
    10030    2    1    2    0    0  0.00000000000E+00  0.00000000000E+00  0.36170855875E+03  0.35470820092E+04  0.35285914610E+04 0.  0.
        2    1    3    3  502    0 -0.16370272969E+04  0.17772067892E+03  0.81765345175E+03  0.18384776794E+04  0.25500000920E-02 0. -1.
       -2    1    3    3    0  502  0.16370272969E+04 -0.17772067892E+03 -0.45594489300E+03  0.17086043298E+04  0.25500000920E-02 0.  1.
</event>
<event>
 5   0  0.1782660E-06  0.2169050E+04  0.7818609E-02  0.8531422E-01
       -2   -1    0    0    0  501  0.00000000000E+00  0.00000000000E+00  0.14401740033E+04  0.14401740033E+04  0.25500000920E-02 0.  1.
        2   -1    0    0  501    0  0.00000000000E+00  0.00000000000E+00 -0.81670294693E+03  0.81670294694E+03  0.25500000920E-02 0. -1.
    10030    2    1    2    0    0  0.00000000000E+00  0.00000000000E+00  0.62347105641E+03  0.22568769503E+04  0.21690498866E+04 0.  0.
        4    1    3    3  502    0 -0.99288823397E+03 -0.48443848543E+02  0.76290435063E+03  0.12530756213E+04  0.12699999809E+01 0. -1.
       -4    1    3    3    0  502  0.99288823397E+03  0.48443848543E+02 -0.13943329422E+03  0.10038013290E+04  0.12699999809E+01 0.  1.
</event>
<event>
 5   0  0.1908726E-06  0.3615864E+04  0.7818609E-02  0.8086867E-01
       -2   -1    0    0    0  501  0.00000000000E+00  0.00000000000E+00  0.12204511991E+04  0.12204511991E+04  0.25500000920E-02 0.  1.
        2   -1    0    0  501    0  0.00000000000E+00  0.00000000000E+00 -0.26782048377E+04  0.26782048377E+04  0.25500000920E-02 0. -1.
    10030    2    1    2    0    0  0.00000000000E+00  0.00000000000E+00 -0.14577536386E+04  0.38986560367E+04  0.36158641045E+04 0.  0.
        5    1    3    3  502    0  0.88060635362E+03  0.11632508417E+03  0.96894997919E+03  0.13144904821E+04  0.46999998093E+01 0.  1.
       -5    1    3    3    0  502 -0.88060635362E+03 -0.11632508417E+03 -0.24267036178E+04  0.25841655547E+04  0.46999998093E+01 0. -1.
</event>
<event>
 5   0  0.1782660E-06  0.3541318E+04  0.7818609E-02  0.8104067E-01
       -2   -1    0    0    0  501  0.00000000000E+00  0.00000000000E+00  0.16298566792E+04  0.16298566792E+04  0.25500000920E-02 0.  1.
        2   -1    0    0  501    0  0.00000000000E+00  0.00000000000E+00 -0.19236253869E+04  0.19236253869E+04  0.25500000920E-02 0. -1.
    10030    2    1    2    0    0  0.00000000000E+00  0.00000000000E+00 -0.29376870774E+03  0.35534820661E+04  0.35413182207E+04 0.  0.
        4    1    3    3  502    0  0.51727721189E+03  0.14226261287E+04  0.77485193145E+03  0.17005404860E+04  0.12699999809E+01 0.  1.
       -4    1    3    3    0  502 -0.51727721189E+03 -0.14226261287E+04 -0.10686206392E+04  0.18529415801E+04  0.12699999809E+01 0. -1.
</event>
<event>
 5   0  0.1089337E-06  0.2522076E+04  0.7818609E-02  0.8395163E-01
        1   -1    0    0  501    0  0.00000000000E+00  0.00000000000E+00  0.17192373924E+04  0.17192373924E+04  0.50400001928E-02 0.  1.
       -1   -1    0    0    0  501  0.00000000000E+00  0.00000000000E+00 -0.92495460029E+03  0.92495460030E+03  0.50400001928E-02 0. -1.
    10030    2    1    2    0    0  0.00000000000E+00  0.00000000000E+00  0.79428279214E+03  0.26441919927E+04  0.25220757603E+04 0.  0.
        2    1    3    3  502    0  0.11417786611E+04  0.39413700285E+03  0.77691521606E+03  0.14361753866E+04  0.25500000920E-02 0. -1.
       -2    1    3    3    0  502 -0.11417786611E+04 -0.39413700285E+03  0.17367576081E+02  0.12080166062E+04  0.25500000920E-02 0.  1.
</event>
<event>
 5   0  0.1908726E-06  0.3321142E+04  0.7818609E-02  0.8157537E-01
        2   -1    0    0  501    0  0.00000000000E+00  0.00000000000E+00  0.27915143770E+04  0.27915143770E+04  0.25500000920E-02 0.  1.
       -2   -1    0    0    0  501  0.00000000000E+00  0.00000000000E+00 -0.98781377652E+03  0.98781377652E+03  0.25500000920E-02 0. -1.
    10030    2    1    2    0    0  0.00000000000E+00  0.00000000000E+00  0.18037006005E+04  0.37793281535E+04  0.33211421884E+04 0.  0.
        5    1    3    3  502    0  0.22762967357E+03 -0.42931280784E+03 -0.90508939825E+03  0.10272943415E+04  0.46999998093E+01 0. -1.
       -5    1    3    3    0  502 -0.22762967357E+03  0.42931280784E+03  0.27087899987E+04  0.27520338120E+04  0.46999998093E+01 0.  1.
</event>
<event>
 5   0  0.3378848E-06  0.3433819E+04  0.7818609E-02  0.8129656E-01
       -2   -1    0    0    0  501  0.00000000000E+00  0.00000000000E+00  0.13307758660E+04  0.13307758660E+04  0.25500000920E-02 0. -1.
        2   -1    0    0  501    0  0.00000000000E+00  0.00000000000E+00 -0.22150819720E+04  0.22150819720E+04  0.25500000920E-02 0.  1.
    10030    2    1    2    0    0  0.00000000000E+00  0.00000000000E+00 -0.88430610597E+03  0.35458578380E+04  0.34338186496E+04 0.  0.
        1    1    3    3  502    0  0.19390604532E+03 -0.88187254745E+03 -0.19501009451E+04  0.21489980084E+04  0.50400001928E-02 0.  1.
       -1    1    3    3    0  502 -0.19390604532E+03  0.88187254745E+03  0.10657948391E+04  0.13968598296E+04  0.50400001928E-02 0. -1.
</event>
<event>
 5   0  0.1110956E-06  0.3500288E+04  0.7818609E-02  0.8113722E-01
       -1   -1    0    0    0  501  0.00000000000E+00  0.00000000000E+00  0.11028653251E+04  0.11028653251E+04  0.50400001928E-02 0. -1.
        1   -1    0    0  501    0  0.00000000000E+00  0.00000000000E+00 -0.27773150943E+04  0.27773150943E+04  0.50400001928E-02 0.  1.
    10030    2    1    2    0    0  0.00000000000E+00  0.00000000000E+00 -0.16744497692E+04  0.38801804194E+04  0.35002882821E+04 0.  0.
        1    1    3    3  502    0  0.16235227257E+04  0.58282912800E+03 -0.50933800372E+03  0.17985941831E+04  0.50400001928E-02 0. -1.
       -1    1    3    3    0  502 -0.16235227257E+04 -0.58282912800E+03 -0.11651117655E+04  0.20815862364E+04  0.50400001928E-02 0.  1.
</event>
<event>
 5   0  0.3378848E-06  0.3508714E+04  0.7818609E-02  0.8111728E-01
        2   -1    0    0  501    0  0.00000000000E+00  0.00000000000E+00  0.26009121950E+04  0.26009121950E+04  0.25500000920E-02 0.  1.
       -2   -1    0    0    0  501  0.00000000000E+00  0.00000000000E+00 -0.11833418858E+04  0.11833418858E+04  0.25500000920E-02 0. -1.
    10030    2    1    2    0    0  0.00000000000E+00  0.00000000000E+00  0.14175703092E+04  0.37842540808E+04  0.35087139191E+04 0.  0.
        1    1    3    3  502    0 -0.11974228900E+04 -0.12218116384E+04  0.28951134686E+03  0.17350683206E+04  0.50400001928E-02 0. -1.
       -1    1    3    3    0  502  0.11974228900E+04  0.12218116384E+04  0.11280589624E+04  0.20491857602E+04  0.50400001928E-02 0.  1.
</event>
<event>
 5   0  0.1130707E-06  0.3025471E+04  0.7818609E-02  0.8236495E-01
       -1   -1    0    0    0  501  0.00000000000E+00  0.00000000000E+00  0.11242026910E+04  0.11242026910E+04  0.50400001928E-02 0. -1.
        1   -1    0    0  501    0  0.00000000000E+00  0.00000000000E+00 -0.20355480768E+04  0.20355480768E+04  0.50400001928E-02 0.  1.
    10030    2    1    2    0    0  0.00000000000E+00  0.00000000000E+00 -0.91134538581E+03  0.31597507678E+04  0.30254709554E+04 0.  0.
        3    1    3    3  502    0 -0.58134210996E+03 -0.13446914972E+04 -0.61821512061E+02  0.14662795712E+04  0.10100000352E+00 0. -1.
       -3    1    3    3    0  502  0.58134210996E+03  0.13446914972E+04 -0.84952387375E+03  0.16934711966E+04  0.10100000352E+00 0.  1.
</event>
<event>
 5   0  0.1089337E-06  0.3456545E+04  0.7818609E-02  0.8124166E-01
       -1   -1    0    0    0  501  0.00000000000E+00  0.00000000000E+00  0.13429889936E+04  0.13429889936E+04  0.50400001928E-02 0.  1.
        1   -1    0    0  501    0  0.00000000000E+00  0.00000000000E+00 -0.22240884485E+04  0.22240884485E+04  0.50400001928E-02 0. -1.
    10030    2    1    2    0    0  0.00000000000E+00  0.00000000000E+00 -0.88109945495E+03  0.35670774421E+04  0.34565452736E+04 0.  0.
        2    1    3    3  502    0 -0.14590346093E+04  0.91106683591E+03 -0.61354543322E+03  0.18262701797E+04  0.25500000920E-02 0. -1.
       -2    1    3    3    0  502  0.14590346093E+04 -0.91106683591E+03 -0.26755402173E+03  0.17408072625E+04  0.25500000920E-02 0.  1.
</event>
<event>
 5   0  0.1130707E-06  0.3471523E+04  0.7818609E-02  0.8120572E-01
        1   -1    0    0  501    0  0.00000000000E+00  0.00000000000E+00  0.17501720508E+04  0.17501720508E+04  0.50400001928E-02 0.  1.
       -1   -1    0    0    0  501  0.00000000000E+00  0.00000000000E+00 -0.17214694086E+04  0.17214694086E+04  0.50400001928E-02 0. -1.
    10030    2    1    2    0    0  0.00000000000E+00  0.00000000000E+00  0.28702642152E+02  0.34716414594E+04  0.34715228043E+04 0.  0.
        3    1    3    3  502    0 -0.15148522290E+04 -0.14053361675E+03  0.85004767774E+03  0.17427300531E+04  0.10100000352E+00 0.  1.
       -3    1    3    3    0  502  0.15148522290E+04  0.14053361675E+03 -0.82134503559E+03  0.17289114063E+04  0.10100000352E+00 0. -1.
</event>
<event>
 5   0  0.2565004E-06  0.3488308E+04  0.7818609E-02  0.8116566E-01
        2   -1    0    0  501    0  0.00000000000E+00  0.00000000000E+00  0.15362450405E+04  0.15362450405E+04  0.25500000920E-02 0.  1.
       -2   -1    0    0    0  501  0.00000000000E+00  0.00000000000E+00 -0.19802009179E+04  0.19802009179E+04  0.25500000920E-02 0. -1.
    10030    2    1    2    0    0  0.00000000000E+00  0.00000000000E+00 -0.44395587740E+03  0.35164459584E+04  0.34883083804E+04 0.  0.
        3    1    3    3  502    0 -0.71215214913E+03 -0.69776615784E+03 -0.16646174413E+04  0.19403580934E+04  0.10100000352E+00 0. -1.
       -3    1    3    3    0  502  0.71215214913E+03  0.69776615784E+03  0.12206615639E+04  0.15760878650E+04  0.10100000352E+00 0.  1.
</event>
<event>
 5   0  0.1089337E-06  0.2183009E+04  0.7818609E-02  0.8525534E-01
        1   -1    0    0  501    0  0.00000000000E+00  0.00000000000E+00  0.10458334268E+04  0.10458334268E+04  0.50400001928E-02 0. -1.
       -1   -1    0    0    0  501  0.00000000000E+00  0.00000000000E+00 -0.11391695644E+04  0.11391695645E+04  0.50400001928E-02 0.  1.
    10030    2    1    2    0    0  0.00000000000E+00  0.00000000000E+00 -0.93336137695E+02  0.21850029912E+04  0.21830085747E+04 0.  0.
        2    1    3    3  502    0 -0.49680279030E+03 -0.87031705109E+03  0.38629715708E+03  0.10740066459E+04  0.25500000920E-02 0. -1.
       -2    1    3    3    0  502  0.49680279030E+03  0.87031705109E+03 -0.47963329477E+03  0.11109963453E+04  0.25500000920E-02 0.  1.
</event>
<event>
 5   0  0.2565004E-06  0.3066228E+04  0.7818609E-02  0.8225068E-01
        2   -1    0    0  501    0  0.00000000000E+00  0.00000000000E+00  0.22435468129E+04  0.22435468129E+04  0.25500000920E-02 0.  1.
       -2   -1    0    0    0  501  0.00000000000E+00  0.00000000000E+00 -0.10476441684E+04  0.10476441684E+04  0.25500000920E-02 0. -1.
    10030    2    1    2    0    0  0.00000000000E+00  0.00000000000E+00  0.11959026445E+04  0.32911909812E+04  0.30662281291E+04 0.  0.
        3    1    3    3  502    0 -0.86948551305E+03  0.12170978404E+04  0.23696360113E+03  0.15144252933E+04  0.10100000352E+00 0.  1.
       -3    1    3    3    0  502  0.86948551305E+03 -0.12170978404E+04  0.95893904337E+03  0.17767656879E+04  0.10100000352E+00 0. -1.
</event>
<event>
 5   0  0.1908726E-06  0.3521685E+04  0.7818609E-02  0.8108670E-01
       -2   -1    0    0    0  501  0.00000000000E+00  0.00000000000E+00  0.14060159924E+04  0.14060159924E+04  0.25500000920E-02 0. -1.
        2   -1    0    0  501    0  0.00000000000E+00  0.00000000000E+00 -0.22052142771E+04  0.22052142771E+04  0.25500000920E-02 0.  1.
    10030    2    1    2    0    0  0.00000000000E+00  0.00000000000E+00 -0.79919828471E+03  0.36112302694E+04  0.35216851308E+04 0.  0.
        5    1    3    3  502    0 -0.92793099414E+03  0.16396843878E+03 -0.19249030897E+04  0.21431788477E+04  0.46999998093E+01 0.  1.
       -5    1    3    3    0  502  0.92793099414E+03 -0.16396843878E+03  0.11257048050E+04  0.14680514217E+04  0.46999998093E+01 0. -1.
</event>
<event>
 5   0  0.1125196E-06  0.3419256E+04  0.7818609E-02  0.8133196E-01
       -1   -1    0    0    0  501  0.00000000000E+00  0.00000000000E+00  0.17862240167E+04  0.17862240167E+04  0.50400001928E-02 0. -1.
        1   -1    0    0  501    0  0.00000000000E+00  0.00000000000E+00 -0.16363162002E+04  0.16363162002E+04  0.50400001928E-02 0.  1.
    10030    2    1    2    0    0  0.00000000000E+00  0.00000000000E+00  0.14990781649E+03  0.34225402169E+04  0.34192556475E+04 0.  0.
        4    1    3    3  502    0 -0.17265139950E+03  0.24782688028E+03 -0.16093981183E+04  0.16374952166E+04  0.12699999809E+01 0.  1.
       -4    1    3    3    0  502  0.17265139950E+03 -0.24782688028E+03  0.17593059348E+04  0.17850450004E+04  0.12699999809E+01 0. -1.
</event>
<event>
 5   0  0.1130707E-06  0.3309224E+04  0.7818609E-02  0.8160552E-01
       -1   -1    0    0    0  501  0.00000000000E+00  0.00000000000E+00  0.12710642856E+04  0.12710642856E+04  0.50400001928E-02 0. -1.
        1   -1    0    0  501    0  0.00000000000E+00  0.00000000000E+00 -0.21538967019E+04  0.21538967019E+04  0.50400001928E-02 0.  1.
    10030    2    1    2    0    0  0.00000000000E+00  0.00000000000E+00 -0.88283241626E+03  0.34249609875E+04  0.33092241826E+04 0.  0.
        3    1    3    3  502    0 -0.68594842277E+03  0.56781478601E+03 -0.18847512925E+04  0.20845206439E+04  0.10100000352E+00 0.  1.
       -3    1    3    3    0  502  0.68594842277E+03 -0.56781478601E+03  0.10019188763E+04  0.13404403436E+04  0.10100000352E+00 0. -1.
</event>
<event>
 5   0  0.1110956E-06  0.2607816E+04  0.7818609E-02  0.8365551E-01
        1   -1    0    0  501    0  0.00000000000E+00  0.00000000000E+00  0.21490085991E+04  0.21490085991E+04  0.50400001928E-02 0.  1.
       -1   -1    0    0    0  501  0.00000000000E+00  0.00000000000E+00 -0.79114467711E+03  0.79114467712E+03  0.50400001928E-02 0. -1.
    10030    2    1    2    0    0  0.00000000000E+00  0.00000000000E+00  0.13578639219E+04  0.29401532762E+04  0.26078164922E+04 0.  0.
        1    1    3    3  502    0 -0.54437226377E+03 -0.93819213554E+03  0.14947731880E+04  0.18468601810E+04  0.50400001928E-02 0.  1.
       -1    1    3    3    0  502  0.54437226377E+03  0.93819213554E+03 -0.13690926603E+03  0.10932930952E+04  0.50400001928E-02 0. -1.
</event>
<event>
 5   0  0.3041329E-06  0.3481058E+04  0.7818609E-02  0.8118294E-01
       -2   -1    0    0    0  501  0.00000000000E+00  0.00000000000E+00  0.13128689168E+04  0.13128689168E+04  0.25500000920E-02 0.  1.
        2   -1    0    0  501    0  0.00000000000E+00  0.00000000000E+00 -0.23074972055E+04  0.23074972055E+04  0.25500000920E-02 0. -1.
    10030    2    1    2    0    0  0.00000000000E+00  0.00000000000E+00 -0.99462828869E+03  0.36203661222E+04  0.34810580901E+04 0.  0.
        2    1    3    3  502    0  0.12204823141E+04  0.11980911593E+04 -0.16120641285E+03  0.17178437102E+04  0.25500000920E-02 0.  1.
       -2    1    3    3    0  502 -0.12204823141E+04 -0.11980911593E+04 -0.83342187584E+03  0.19025224120E+04  0.25500000920E-02 0. -1.
</event>
<event>
 5   0  0.1782660E-06  0.3389473E+04  0.7818609E-02  0.8140495E-01
       -2   -1    0    0    0  501  0.00000000000E+00  0.00000000000E+00  0.13946355172E+04  0.13946355172E+04  0.25500000920E-02 0.  1.
        2   -1    0    0  501    0  0.00000000000E+00  0.00000000000E+00 -0.20594143740E+04  0.20594143740E+04  0.25500000920E-02 0. -1.
    10030    2    1    2    0    0  0.00000000000E+00  0.00000000000E+00 -0.66477885674E+03  0.34540498912E+04  0.33894733695E+04 0.  0.
        4    1    3    3  502    0  0.14733910832E+04 -0.61905661766E+03 -0.90706472718E+03  0.18376290191E+04  0.12699999809E+01 0. -1.
       -4    1    3    3    0  502 -0.14733910832E+04  0.61905661766E+03  0.24228587044E+03  0.16164208721E+04  0.12699999809E+01 0.  1.
</event>
<event>
 5   0  0.1089337E-06  0.2104229E+04  0.7818609E-02  0.8559383E-01
       -1   -1    0    0    0  501  0.00000000000E+00  0.00000000000E+00  0.17663621800E+04  0.17663621800E+04  0.50400001928E-02 0.  1.
        1   -1    0    0  501    0  0.00000000000E+00  0.00000000000E+00 -0.62668077653E+03  0.62668077655E+03  0.50400001928E-02 0. -1.
    10030    2    1    2    0    0  0.00000000000E+00  0.00000000000E+00  0.11396814034E+04  0.23930429565E+04  0.21042292866E+04 0.  0.
        2    1    3    3  502    0 -0.10390840866E+03  0.95873412841E+03  0.91413333447E+02  0.96867150464E+03  0.25500000920E-02 0. -1.
       -2    1    3    3    0  502  0.10390840866E+03 -0.95873412841E+03  0.10482680700E+04  0.14243714519E+04  0.25500000920E-02 0.  1.
</event>
<event>
 5   0  0.1125196E-06  0.3521798E+04  0.7818609E-02  0.8108644E-01
        1   -1    0    0  501    0  0.00000000000E+00  0.00000000000E+00  0.17227730864E+04  0.17227730865E+04  0.50400001928E-02 0. -1.
       -1   -1    0    0    0  501  0.00000000000E+00  0.00000000000E+00 -0.17998683218E+04  0.17998683218E+04  0.50400001928E-02 0.  1.
    10030    2    1    2    0    0  0.00000000000E+00  0.00000000000E+00 -0.77095235316E+02  0.35226414082E+04  0.35217976682E+04 0.  0.
        4    1    3    3  502    0 -0.71039423254E+03  0.15181561545E+04 -0.57840372094E+03  0.17731357964E+04  0.12699999809E+01 0.  1.
       -4    1    3    3    0  502  0.71039423254E+03 -0.15181561545E+04  0.50130848562E+03  0.17495056118E+04  0.12699999809E+01 0. -1.
</event>
<event>
 5   0  0.1125196E-06  0.3218707E+04  0.7818609E-02  0.8183894E-01
        1   -1    0    0  501    0  0.00000000000E+00  0.00000000000E+00  0.20987657513E+04  0.20987657513E+04  0.50400001928E-02 0.  1.
       -1   -1    0    0    0  501  0.00000000000E+00  0.00000000000E+00 -0.12340675731E+04  0.12340675731E+04  0.50400001928E-02 0. -1.
    10030    2    1    2    0    0  0.00000000000E+00  0.00000000000E+00  0.86469817820E+03  0.33328333244E+04  0.32187070430E+04 0.  0.
        4    1    3    3  502    0  0.78465171700E+02 -0.42649560939E+03  0.20371279612E+04  0.20827739270E+04  0.12699999809E+01 0.  1.
       -4    1    3    3    0  502 -0.78465171700E+02  0.42649560939E+03 -0.11724297830E+04  0.12500593974E+04  0.12699999809E+01 0. -1.
</event>
<event>
 5   0  0.1908726E-06  0.3555327E+04  0.7818609E-02  0.8100802E-01
        2   -1    0    0  501    0  0.00000000000E+00  0.00000000000E+00  0.27243389596E+04  0.27243389596E+04  0.25500000920E-02 0. -1.
       -2   -1    0    0    0  501  0.00000000000E+00  0.00000000000E+00 -0.11599467654E+04  0.11599467654E+04  0.25500000920E-02 0.  1.
    10030    2    1    2    0    0  0.00000000000E+00  0.00000000000E+00  0.15643921942E+04  0.38842857250E+04  0.35553273627E+04 0.  0.
        5    1    3    3  502    0  0.16869437217E+04  0.22237291680E+03  0.21995692547E+03  0.17157015979E+04  0.46999998093E+01 0.  1.
       -5    1    3    3    0  502 -0.16869437217E+04 -0.22237291680E+03  0.13444352687E+04  0.21685841270E+04  0.46999998093E+01 0. -1.
</event>
<event>
 5   0  0.1782660E-06  0.3501924E+04  0.7818609E-02  0.8113334E-01
        2   -1    0    0  501    0  0.00000000000E+00  0.00000000000E+00  0.27029977818E+04  0.27029977818E+04  0.25500000920E-02 0.  1.
       -2   -1    0    0    0  501  0.00000000000E+00  0.00000000000E+00 -0.11342470824E+04  0.11342470824E+04  0.25500000920E-02 0. -1.
    10030    2    1    2    0    0  0.00000000000E+00  0.00000000000E+00  0.15687506993E+04  0.38372448642E+04  0.35019236701E+04 0.  0.
        4    1    3    3  502    0  0.46172384243E+01  0.15125729224E+04 -0.18210623780E+03  0.15235033506E+04  0.12699999809E+01 0. -1.
       -4    1    3    3    0  502 -0.46172384243E+01 -0.15125729224E+04  0.17508569371E+04  0.23137415136E+04  0.12699999809E+01 0.  1.
</event>
<event>
 5   0  0.3378848E-06  0.3419439E+04  0.7818609E-02  0.8133152E-01
        2   -1    0    0  501    0  0.00000000000E+00  0.00000000000E+00  0.17961670639E+04  0.17961670639E+04  0.25500000920E-02 0. -1.
       -2   -1    0    0    0  501  0.00000000000E+00  0.00000000000E+00 -0.16274324131E+04  0.16274324131E+04  0.25500000920E-02 0.  1.
    10030    2    1    2    0    0  0.00000000000E+00  0.00000000000E+00  0.16873465081E+03  0.34235994770E+04  0.34194388424E+04 0.  0.
        1    1    3    3  502    0 -0.18004003418E+03 -0.42113809141E+03  0.17336022525E+04  0.17930835106E+04  0.50400001928E-02 0. -1.
       -1    1    3    3    0  502  0.18004003418E+03  0.42113809141E+03 -0.15648676017E+04  0.16305159665E+04  0.50400001928E-02 0.  1.
</event>
<event>
 5   0  0.1125196E-06  0.2675749E+04  0.7818609E-02  0.8342917E-01
       -1   -1    0    0    0  501  0.00000000000E+00  0.00000000000E+00  0.86283656936E+03  0.86283656937E+03  0.50400001928E-02 0.  1.
        1   -1    0    0  501    0  0.00000000000E+00  0.00000000000E+00 -0.20744458089E+04  0.20744458089E+04  0.50400001928E-02 0. -1.
    10030    2    1    2    0    0  0.00000000000E+00  0.00000000000E+00 -0.12116092395E+04  0.29372823782E+04  0.26757486467E+04 0.  0.
        4    1    3    3  502    0 -0.13940356083E+03 -0.11579352014E+04  0.11374748079E+03  0.11718307838E+04  0.12699999809E+01 0.  1.
       -4    1    3    3    0  502  0.13940356083E+03  0.11579352014E+04 -0.13253567203E+04  0.17654515945E+04  0.12699999809E+01 0. -1.
</event>
<event>
 5   0  0.1102175E-06  0.3477007E+04  0.7818609E-02  0.8119261E-01
       -1   -1    0    0    0  501  0.00000000000E+00  0.00000000000E+00  0.15308738923E+04  0.15308738923E+04  0.50400001928E-02 0. -1.
        1   -1    0    0  501    0  0.00000000000E+00  0.00000000000E+00 -0.19742931953E+04  0.19742931953E+04  0.50400001928E-02 0.  1.
    10030    2    1    2    0    0  0.00000000000E+00  0.00000000000E+00 -0.44341930306E+03  0.35051670876E+04  0.34770067060E+04 0.  0.
        5    1    3    3  502    0 -0.67267684856E+03 -0.12397948869E+04 -0.12462013273E+04  0.18821863198E+04  0.46999998093E+01 0.  1.
       -5    1    3    3    0  502  0.67267684856E+03  0.12397948869E+04  0.80278202426E+03  0.16229807678E+04  0.46999998093E+01 0. -1.
</event>
<event>
 5   0  0.1102175E-06  0.3375664E+04  0.7818609E-02  0.8143905E-01
        1   -1    0    0  501    0  0.00000000000E+00  0.00000000000E+00  0.26366381997E+04  0.26366381998E+04  0.50400001928E-02 0.  1.
       -1   -1    0    0    0  501  0.00000000000E+00  0.00000000000E+00 -0.10804580306E+04  0.10804580306E+04  0.50400001928E-02 0. -1.
    10030    2    1    2    0    0  0.00000000000E+00  0.00000000000E+00  0.15561801692E+04  0.37170962303E+04  0.33756640334E+04 0.  0.
        5    1    3    3  502    0 -0.59392454538E+03  0.40185110766E+03 -0.90436614038E+03  0.11541797452E+04  0.46999998093E+01 0. -1.
       -5    1    3    3    0  502  0.59392454538E+03 -0.40185110766E+03  0.24605463096E+04  0.25629164851E+04  0.46999998093E+01 0.  1.
</event>
<event>
 5   0  0.1782660E-06  0.2175372E+04  0.7818609E-02  0.8528749E-01
       -2   -1    0    0    0  501  0.00000000000E+00  0.00000000000E+00  0.99585175991E+03  0.99585175992E+03  0.25500000920E-02 0.  1.
        2   -1    0    0  501    0  0.00000000000E+00  0.00000000000E+00 -0.11879884550E+04  0.11879884550E+04  0.25500000920E-02 0. -1.
    10030    2    1    2    0    0  0.00000000000E+00  0.00000000000E+00 -0.19213669513E+03  0.21838402150E+04  0.21753715947E+04 0.  0.
        4    1    3    3  502    0 -0.93461686994E+03 -0.47967563742E+03 -0.37905466027E+03  0.11168175585E+04  0.12699999809E+01 0.  1.
       -4    1    3    3    0  502  0.93461686994E+03  0.47967563742E+03  0.18691796514E+03  0.10670226564E+04  0.12699999809E+01 0. -1.
</event>
<event>
 5   0  0.1110956E-06  0.3437279E+04  0.7818609E-02  0.8128817E-01
        1   -1    0    0  501    0  0.00000000000E+00  0.00000000000E+00  0.19536917541E+04  0.19536917541E+04  0.50400001928E-02 0.  1.
       -1   -1    0    0    0  501  0.00000000000E+00  0.00000000000E+00 -0.15118665102E+04  0.15118665102E+04  0.50400001928E-02 0. -1.
    10030    2    1    2    0    0  0.00000000000E+00  0.00000000000E+00  0.44182524385E+03  0.34655582643E+04  0.34372786528E+04 0.  0.
        1    1    3    3  502    0 -0.12111364544E+04  0.40691691212E+03 -0.93801749851E+03  0.15850267229E+04  0.50400001928E-02 0. -1.
       -1    1    3    3    0  502  0.12111364544E+04 -0.40691691212E+03  0.13798427424E+04  0.18805315414E+04  0.50400001928E-02 0.  1.
</event>
<event>
 5   0  0.1110956E-06  0.3440885E+04  0.7818609E-02  0.8127944E-01
       -1   -1    0    0    0  501  0.00000000000E+00  0.00000000000E+00  0.98165194641E+03  0.98165194642E+03  0.50400001928E-02 0.  1.
        1   -1    0    0  501    0  0.00000000000E+00  0.00000000000E+00 -0.30152466343E+04  0.30152466343E+04  0.50400001928E-02 0. -1.
    10030    2    1    2    0    0  0.00000000000E+00  0.00000000000E+00 -0.20335946879E+04  0.39968985808E+04  0.34408851928E+04 0.  0.
        1    1    3    3  502    0  0.24898511936E+03 -0.18463317757E+02  0.96049680619E+03  0.99241553721E+03  0.50400001928E-02 0.  1.
       -1    1    3    3    0  502 -0.24898511936E+03  0.18463317757E+02 -0.29940914941E+04  0.30044830435E+04  0.50400001928E-02 0. -1.
</event>
<event>
 5   0  0.2565004E-06  0.3503282E+04  0.7818609E-02  0.8113013E-01
       -2   -1    0    0    0  501  0.00000000000E+00  0.00000000000E+00  0.12852291333E+04  0.12852291333E+04  0.25500000920E-02 0.  1.
        2   -1    0    0  501    0  0.00000000000E+00  0.00000000000E+00 -0.23873145860E+04  0.23873145860E+04  0.25500000920E-02 0. -1.
    10030    2    1    2    0    0  0.00000000000E+00  0.00000000000E+00 -0.11020854527E+04  0.36725437193E+04  0.35032820362E+04 0.  0.
        3    1    3    3  502    0  0.12068665733E+04  0.10911651362E+04  0.12921444766E+03  0.16321350017E+04  0.10100000352E+00 0.  1.
       -3    1    3    3    0  502 -0.12068665733E+04 -0.10911651362E+04 -0.12312999003E+04  0.20404087176E+04  0.10100000352E+00 0. -1.
</event>
<event>
 5   0  0.1102175E-06  0.3603237E+04  0.7818609E-02  0.8089751E-01
        1   -1    0    0  501    0  0.00000000000E+00  0.00000000000E+00  0.26489060569E+04  0.26489060569E+04  0.50400001928E-02 0. -1.
       -1   -1    0    0    0  501  0.00000000000E+00  0.00000000000E+00 -0.12253467513E+04  0.12253467513E+04  0.50400001928E-02 0.  1.
    10030    2    1    2    0    0  0.00000000000E+00  0.00000000000E+00  0.14235593056E+04  0.38742528082E+04  0.36032365625E+04 0.  0.
        5    1    3    3  502    0 -0.74647520077E+03  0.67749527322E+03  0.23172668052E+04  0.25270482004E+04  0.46999998093E+01 0. -1.
       -5    1    3    3    0  502  0.74647520077E+03 -0.67749527322E+03 -0.89370749957E+03  0.13472046078E+04  0.46999998093E+01 0.  1.
</event>
<event>
 5   0  0.1908726E-06  0.3488978E+04  0.7818609E-02  0.8116407E-01
       -2   -1    0    0    0  501  0.00000000000E+00  0.00000000000E+00  0.11711880384E+04  0.11711880384E+04  0.25500000920E-02 0.  1.
        2   -1    0    0  501    0  0.00000000000E+00  0.00000000000E+00 -0.25984228844E+04  0.25984228844E+04  0.25500000920E-02 0. -1.
    10030    2    1    2    0    0  0.00000000000E+00  0.00000000000E+00 -0.14272348460E+04  0.37696109228E+04  0.34889779597E+04 0.  0.
        5    1    3    3  502    0 -0.72674044892E+03  0.13983545559E+04 -0.15219038966E+04  0.21908356179E+04  0.46999998093E+01 0. -1.
       -5    1    3    3    0  502  0.72674044892E+03 -0.13983545559E+04  0.94669050585E+02  0.15787753049E+04  0.46999998093E+01 0.  1.
</event>
<event>
 5   0  0.1110956E-06  0.1725654E+04  0.7818609E-02  0.8746866E-01
       -1   -1    0    0    0  501  0.00000000000E+00  0.00000000000E+00  0.43832406891E+03  0.43832406894E+03  0.50400001928E-02 0.  1.
        1   -1    0    0  501    0  0.00000000000E+00  0.00000000000E+00 -0.16984484778E+04  0.16984484778E+04  0.50400001928E-02 0. -1.
    10030    2    1    2    0    0  0.00000000000E+00  0.00000000000E+00 -0.12601244089E+04  0.21367725467E+04  0.17256544818E+04 0.  0.
        1    1    3    3  502    0 -0.32784521248E+02 -0.60628068191E+03 -0.13891539266E+04  0.15160474010E+04  0.50400001928E-02 0.  1.
       -1    1    3    3    0  502  0.32784521248E+02  0.60628068191E+03  0.12902951776E+03  0.62072514575E+03  0.50400001928E-02 0. -1.
</event>
<event>
 5   0  0.3041329E-06  0.3502867E+04  0.7818609E-02  0.8113111E-01
       -2   -1    0    0    0  501  0.00000000000E+00  0.00000000000E+00  0.18006039234E+04  0.18006039234E+04  0.25500000920E-02 0. -1.
        2   -1    0    0  501    0  0.00000000000E+00  0.00000000000E+00 -0.17036055848E+04  0.17036055848E+04  0.25500000920E-02 0.  1.
    10030    2    1    2    0    0  0.00000000000E+00  0.00000000000E+00  0.96998338599E+02  0.35042095082E+04  0.35028667688E+04 0.  0.
        2    1    3    3  502    0  0.10817761579E+04  0.12726004062E+04  0.57573767519E+03  0.17666989897E+04  0.25500000920E-02 0.  1.
       -2    1    3    3    0  502 -0.10817761579E+04 -0.12726004062E+04 -0.47873933659E+03  0.17375105185E+04  0.25500000920E-02 0. -1.
</event>
<event>
 5   0  0.1310790E-06  0.1746558E+04  0.7818609E-02  0.8735247E-01
        1   -1    0    0  501    0  0.00000000000E+00  0.00000000000E+00  0.82804955654E+03  0.82804955656E+03  0.50400001928E-02 0. -1.
       -1   -1    0    0    0  501  0.00000000000E+00  0.00000000000E+00 -0.92097947051E+03  0.92097947053E+03  0.50400001928E-02 0.  1.
    10030    2    1    2    0    0  0.00000000000E+00  0.00000000000E+00 -0.92929913971E+02  0.17490290271E+04  0.17465584928E+04 0.  0.
        2    1    3    3  502    0 -0.64793648757E+03 -0.58374199531E+03 -0.91697789309E+02  0.87691783742E+03  0.25500000920E-02 0.  1.
       -2    1    3    3    0  502  0.64793648757E+03  0.58374199531E+03 -0.12321246616E+01  0.87211118967E+03  0.25500000920E-02 0. -1.
</event>
<event>
 5   0  0.1782660E-06  0.3293830E+04  0.7818609E-02  0.8164467E-01
        2   -1    0    0  501    0  0.00000000000E+00  0.00000000000E+00  0.18493879623E+04  0.18493879623E+04  0.25500000920E-02 0.  1.
       -2   -1    0    0    0  501  0.00000000000E+00  0.00000000000E+00 -0.14666091317E+04  0.14666091317E+04  0.25500000920E-02 0. -1.
    10030    2    1    2    0    0  0.00000000000E+00  0.00000000000E+00  0.38277883062E+03  0.33159970940E+04  0.32938301556E+04 0.  0.
        4    1    3    3  502    0  0.14831076011E+04 -0.64364301199E+03  0.50725750305E+03  0.16944604659E+04  0.12699999809E+01 0.  1.
       -4    1    3    3    0  502 -0.14831076011E+04  0.64364301199E+03 -0.12447867243E+03  0.16215366281E+04  0.12699999809E+01 0. -1.
</event>
<event>
 5   0  0.1908726E-06  0.3115225E+04  0.7818609E-02  0.8211572E-01
       -2   -1    0    0    0  501  0.00000000000E+00  0.00000000000E+00  0.13514763171E+04  0.13514763171E+04  0.25500000920E-02 0.  1.
        2   -1    0    0  501    0  0.00000000000E+00  0.00000000000E+00 -0.17951896749E+04  0.17951896750E+04  0.25500000920E-02 0. -1.
    10030    2    1    2    0    0  0.00000000000E+00  0.00000000000E+00 -0.44371335788E+03  0.31466659920E+04  0.31152247626E+04 0.  0.
        5    1    3    3  502    0 -0.15115293445E+04  0.33277230688E+03 -0.39876966967E+03  0.15982796085E+04  0.46999998093E+01 0. -1.
       -5    1    3    3    0  502  0.15115293445E+04 -0.33277230688E+03 -0.44943688207E+02  0.15483863835E+04  0.46999998093E+01 0.  1.
</event>
<event>
 5   0  0.1089337E-06  0.3589040E+04  0.7818609E-02  0.8093007E-01
        1   -1    0    0  501    0  0.00000000000E+00  0.00000000000E+00  0.26601694461E+04  0.26601694461E+04  0.50400001928E-02 0.  1.
       -1   -1    0    0    0  501  0.00000000000E+00  0.00000000000E+00 -0.12105624960E+04  0.12105624960E+04  0.50400001928E-02 0. -1.
    10030    2    1    2    0    0  0.00000000000E+00  0.00000000000E+00  0.14496069501E+04  0.38707319421E+04  0.35890396289E+04 0.  0.
        2    1    3    3  502    0 -0.36411874316E+03  0.39674561306E+03 -0.11213668309E+04  0.12439666837E+04  0.25500000920E-02 0. -1.
       -2    1    3    3    0  502  0.36411874316E+03 -0.39674561306E+03  0.25709737810E+04  0.26267652585E+04  0.25500000920E-02 0.  1.
</event>
<event>
 5   0  0.3378848E-06  0.3441018E+04  0.7818609E-02  0.8127912E-01
       -2   -1    0    0    0  501  0.00000000000E+00  0.00000000000E+00  0.13978767785E+04  0.13978767785E+04  0.25500000920E-02 0. -1.
        2   -1    0    0  501    0  0.00000000000E+00  0.00000000000E+00 -0.21176048684E+04  0.21176048684E+04  0.25500000920E-02 0.  1.
    10030    2    1    2    0    0  0.00000000000E+00  0.00000000000E+00 -0.71972808985E+03  0.35154816469E+04  0.34410176818E+04 0.  0.
        1    1    3    3  502    0 -0.38821759943E+03  0.10316274935E+04  0.98977723527E+03  0.14814274081E+04  0.50400001928E-02 0. -1.
       -1    1    3    3    0  502  0.38821759943E+03 -0.10316274935E+04 -0.17095053251E+04  0.20340542388E+04  0.50400001928E-02 0.  1.
</event>
<event>
 5   0  0.1125196E-06  0.3127693E+04  0.7818609E-02  0.8208179E-01
       -1   -1    0    0    0  501  0.00000000000E+00  0.00000000000E+00  0.10975834586E+04  0.10975834586E+04  0.50400001928E-02 0.  1.
        1   -1    0    0  501    0  0.00000000000E+00  0.00000000000E+00 -0.22281817430E+04  0.22281817430E+04  0.50400001928E-02 0. -1.
    10030    2    1    2    0    0  0.00000000000E+00  0.00000000000E+00 -0.11305982844E+04  0.33257652016E+04  0.31276927111E+04 0.  0.
        4    1    3    3  502    0 -0.11810683941E+01  0.73051786483E+03  0.90500256342E+03  0.11630515889E+04  0.12699999809E+01 0.  1.
       -4    1    3    3    0  502  0.11810683941E+01 -0.73051786483E+03 -0.20356008478E+04  0.21627136127E+04  0.12699999809E+01 0. -1.
</event>
<event>
 5   0  0.3041329E-06  0.3553811E+04  0.7818609E-02  0.8101154E-01
        2   -1    0    0  501    0  0.00000000000E+00  0.00000000000E+00  0.24015123799E+04  0.24015123799E+04  0.25500000920E-02 0. -1.
       -2   -1    0    0    0  501  0.00000000000E+00  0.00000000000E+00 -0.13147522236E+04  0.13147522236E+04  0.25500000920E-02 0.  1.
    10030    2    1    2    0    0  0.00000000000E+00  0.00000000000E+00  0.10867601563E+04  0.37162646035E+04  0.35538113295E+04 0.  0.
        2    1    3    3  502    0  0.15179246958E+04  0.19356149528E+03  0.14879034545E+04  0.21343425509E+04  0.25500000920E-02 0. -1.
       -2    1    3    3    0  502 -0.15179246958E+04 -0.19356149528E+03 -0.40114329821E+03  0.15819220526E+04  0.25500000920E-02 0.  1.
</event>
<event>
 5   0  0.3378848E-06  0.3687281E+04  0.7818609E-02  0.8070786E-01
       -2   -1    0    0    0  501  0.00000000000E+00  0.00000000000E+00  0.12098737075E+04  0.12098737075E+04  0.25500000920E-02 0. -1.
        2   -1    0    0  501    0  0.00000000000E+00  0.00000000000E+00 -0.28093933329E+04  0.28093933329E+04  0.25500000920E-02 0.  1.
    10030    2    1    2    0    0  0.00000000000E+00  0.00000000000E+00 -0.15995196254E+04  0.40192670405E+04  0.36872814526E+04 0.  0.
        1    1    3    3  502    0  0.16897661765E+04  0.73730504697E+03 -0.80967038016E+03  0.20135775595E+04  0.50400001928E-02 0. -1.
       -1    1    3    3    0  502 -0.16897661765E+04 -0.73730504697E+03 -0.78984924524E+03  0.20056894809E+04  0.50400001928E-02 0.  1.
</event>
<event>
 5   0  0.3041329E-06  0.3511978E+04  0.7818609E-02  0.8110957E-01
       -2   -1    0    0    0  501  0.00000000000E+00  0.00000000000E+00  0.13179635641E+04  0.13179635641E+04  0.25500000920E-02 0. -1.
        2   -1    0    0  501    0  0.00000000000E+00  0.00000000000E+00 -0.23395925982E+04  0.23395925982E+04  0.25500000920E-02 0.  1.
    10030    2    1    2    0    0  0.00000000000E+00  0.00000000000E+00 -0.10216290341E+04  0.36575561622E+04  0.35119782455E+04 0.  0.
        2    1    3    3  502    0 -0.37220268238E+03 -0.12340485008E+04 -0.17527593625E+04  0.21756782671E+04  0.25500000920E-02 0.  1.
       -2    1    3    3    0  502  0.37220268238E+03  0.12340485008E+04  0.73113032841E+03  0.14818778951E+04  0.25500000920E-02 0. -1.
</event>
<event>
 5   0  0.3041329E-06  0.2315451E+04  0.7818609E-02  0.8471854E-01
        2   -1    0    0  501    0  0.00000000000E+00  0.00000000000E+00  0.14733169074E+04  0.14733169074E+04  0.25500000920E-02 0. -1.
       -2   -1    0    0    0  501  0.00000000000E+00  0.00000000000E+00 -0.90973561561E+03  0.90973561561E+03  0.25500000920E-02 0.  1.
    10030    2    1    2    0    0  0.00000000000E+00  0.00000000000E+00  0.56358129175E+03  0.23830525230E+04  0.23154514581E+04 0.  0.
        2    1    3    3  502    0 -0.21705368453E+03 -0.99280368782E+03 -0.28897920330E+03  0.10565417382E+04  0.25500000920E-02 0.  1.
       -2    1    3    3    0  502  0.21705368453E+03  0.99280368782E+03  0.85256049505E+03  0.13265107848E+04  0.25500000920E-02 0. -1.
</event>
<event>
 5   0  0.1130707E-06  0.1780544E+04  0.7818609E-02  0.8716715E-01
        1   -1    0    0  501    0  0.00000000000E+00  0.00000000000E+00  0.23189074489E+04  0.23189074489E+04  0.50400001928E-02 0.  1.
       -1   -1    0    0    0  501  0.00000000000E+00  0.00000000000E+00 -0.34179212630E+03  0.34179212634E+03  0.50400001928E-02 0. -1.
    10030    2    1    2    0    0  0.00000000000E+00  0.00000000000E+00  0.19771153226E+04  0.26606995752E+04  0.17805440828E+04 0.  0.
        3    1    3    3  502    0  0.69234589034E+02  0.38909495139E+03 -0.20352624928E+03  0.44453487362E+03  0.10100000352E+00 0. -1.
       -3    1    3    3    0  502 -0.69234589034E+02 -0.38909495139E+03  0.21806415719E+04  0.22161647016E+04  0.10100000352E+00 0.  1.
</event>
<event>
 5   0  0.1089337E-06  0.3682787E+04  0.7818609E-02  0.8071787E-01
       -1   -1    0    0    0  501  0.00000000000E+00  0.00000000000E+00  0.13981687369E+04  0.13981687369E+04  0.50400001928E-02 0.  1.
        1   -1    0    0  501    0  0.00000000000E+00  0.00000000000E+00 -0.24251221841E+04  0.24251221842E+04  0.50400001928E-02 0. -1.
    10030    2    1    2    0    0  0.00000000000E+00  0.00000000000E+00 -0.10269534473E+04  0.38232909210E+04  0.36827869995E+04 0.  0.
        2    1    3    3  502    0  0.53671826639E+03  0.90491504648E+03 -0.20823542597E+04  0.23330531502E+04  0.25500000920E-02 0. -1.
       -2    1    3    3    0  502 -0.53671826639E+03 -0.90491504648E+03  0.10554008124E+04  0.14902377708E+04  0.25500000920E-02 0.  1.
</event>
<event>
 5   0  0.3041329E-06  0.3548839E+04  0.7818609E-02  0.8102312E-01
        2   -1    0    0  501    0  0.00000000000E+00  0.00000000000E+00  0.12299123864E+04  0.12299123864E+04  0.25500000920E-02 0. -1.
       -2   -1    0    0    0  501  0.00000000000E+00  0.00000000000E+00 -0.25599908805E+04  0.25599908805E+04  0.25500000920E-02 0.  1.
    10030    2    1    2    0    0  0.00000000000E+00  0.00000000000E+00 -0.13300784941E+04  0.37899032669E+04  0.35488389612E+04 0.  0.
        2    1    3    3  502    0  0.82797225567E+03 -0.37731197711E+03  0.96181178976E+03  0.13240031356E+04  0.25500000920E-02 0. -1.
       -2    1    3    3    0  502 -0.82797225567E+03  0.37731197711E+03 -0.22918902839E+04  0.24659001313E+04  0.25500000920E-02 0.  1.
</event>
<event>
 5   0  0.3041329E-06  0.3299731E+04  0.7818609E-02  0.8162964E-01
        2   -1    0    0  501    0  0.00000000000E+00  0.00000000000E+00  0.96668218467E+03  0.96668218467E+03  0.25500000920E-02 0.  1.
       -2   -1    0    0    0  501  0.00000000000E+00  0.00000000000E+00 -0.28158745488E+04  0.28158745488E+04  0.25500000920E-02 0. -1.
    10030    2    1    2    0    0  0.00000000000E+00  0.00000000000E+00 -0.18491923641E+04  0.37825567335E+04  0.32997307530E+04 0.  0.
        2    1    3    3  502    0  0.41105944002E+03  0.73233356436E+02  0.90511705830E+03  0.99677975349E+03  0.25500000920E-02 0.  1.
       -2    1    3    3    0  502 -0.41105944002E+03 -0.73233356436E+02 -0.27543094224E+04  0.27857769800E+04  0.25500000920E-02 0. -1.
</event>
<event>
 5   0  0.1130707E-06  0.3526186E+04  0.7818609E-02  0.8107612E-01
       -1   -1    0    0    0  501  0.00000000000E+00  0.00000000000E+00  0.16417494852E+04  0.16417494852E+04  0.50400001928E-02 0. -1.
        1   -1    0    0  501    0  0.00000000000E+00  0.00000000000E+00 -0.18934048162E+04  0.18934048162E+04  0.50400001928E-02 0.  1.
    10030    2    1    2    0    0  0.00000000000E+00  0.00000000000E+00 -0.25165533107E+03  0.35351543014E+04  0.35261856912E+04 0.  0.
        3    1    3    3  502    0  0.11159951559E+04 -0.57241626473E+03  0.11164327974E+04  0.16791449519E+04  0.10100000352E+00 0. -1.
       -3    1    3    3    0  502 -0.11159951559E+04  0.57241626473E+03 -0.13680881285E+04  0.18560093495E+04  0.10100000352E+00 0.  1.
</event>
<event>
 5   0  0.3378848E-06  0.3500736E+04  0.7818609E-02  0.8113616E-01
        2   -1    0    0  501    0  0.00000000000E+00  0.00000000000E+00  0.10807556408E+04  0.10807556408E+04  0.25500000920E-02 0.  1.
       -2   -1    0    0    0  501  0.00000000000E+00  0.00000000000E+00 -0.28348570170E+04  0.28348570170E+04  0.25500000920E-02 0. -1.
    10030    2    1    2    0    0  0.00000000000E+00  0.00000000000E+00 -0.17541013762E+04  0.39156126578E+04  0.35007357581E+04 0.  0.
        1    1    3    3  502    0 -0.15088685337E+04 -0.46762897774E+03 -0.33759447583E+02  0.15800319025E+04  0.50400001928E-02 0.  1.
       -1    1    3    3    0  502  0.15088685337E+04  0.46762897774E+03 -0.17203419287E+04  0.23355807552E+04  0.50400001928E-02 0. -1.
</event>
<event>
 5   0  0.1908726E-06  0.3269794E+04  0.7818609E-02  0.8170624E-01
       -2   -1    0    0    0  501  0.00000000000E+00  0.00000000000E+00  0.99939242628E+03  0.99939242629E+03  0.25500000920E-02 0. -1.
        2   -1    0    0  501    0  0.00000000000E+00  0.00000000000E+00 -0.26745125442E+04  0.26745125442E+04  0.25500000920E-02 0.  1.
    10030    2    1    2    0    0  0.00000000000E+00  0.00000000000E+00 -0.16751201179E+04  0.36739049705E+04  0.32697936208E+04 0.  0.
        5    1    3    3  502    0  0.18663805328E+03  0.24953867889E+03  0.96570869319E+03  0.10147505532E+04  0.46999998093E+01 0. -1.
       -5    1    3    3    0  502 -0.18663805328E+03 -0.24953867889E+03 -0.26408288111E+04  0.26591544172E+04  0.46999998093E+01 0.  1.
</event>
<event>
 5   0  0.1102175E-06  0.3515018E+04  0.7818609E-02  0.8110240E-01
       -1   -1    0    0    0  501  0.00000000000E+00  0.00000000000E+00  0.12238865990E+04  0.12238865990E+04  0.50400001928E-02 0.  1.
        1   -1    0    0  501    0  0.00000000000E+00  0.00000000000E+00 -0.25237943480E+04  0.25237943480E+04  0.50400001928E-02 0. -1.
    10030    2    1    2    0    0  0.00000000000E+00  0.00000000000E+00 -0.12999077490E+04  0.37476809470E+04  0.35150181115E+04 0.  0.
        5    1    3    3  502    0  0.10483408922E+04 -0.13843242841E+02  0.85394472584E+03  0.13522033673E+04  0.46999998093E+01 0.  1.
       -5    1    3    3    0  502 -0.10483408922E+04  0.13843242841E+02 -0.21538524748E+04  0.23954775797E+04  0.46999998093E+01 0. -1.
</event>
<event>
 5   0  0.1089337E-06  0.1953709E+04  0.7818609E-02  0.8628575E-01
        1   -1    0    0  501    0  0.00000000000E+00  0.00000000000E+00  0.25564883311E+04  0.25564883311E+04  0.50400001928E-02 0.  1.
       -1   -1    0    0    0  501  0.00000000000E+00  0.00000000000E+00 -0.37326370034E+03  0.37326370038E+03  0.50400001928E-02 0. -1.
    10030    2    1    2    0    0  0.00000000000E+00  0.00000000000E+00  0.21832246307E+04  0.29297520314E+04  0.19537085703E+04 0.  0.
        2    1    3    3  502    0  0.26611512378E+03  0.89229116535E+03  0.64867970977E+03  0.11348066570E+04  0.25500000920E-02 0. -1.
       -2    1    3    3    0  502 -0.26611512378E+03 -0.89229116535E+03  0.15345449210E+04  0.17949453745E+04  0.25500000920E-02 0.  1.
</event>
<event>
 5   0  0.3041329E-06  0.3611629E+04  0.7818609E-02  0.8087833E-01
       -2   -1    0    0    0  501  0.00000000000E+00  0.00000000000E+00  0.20902768082E+04  0.20902768082E+04  0.25500000920E-02 0. -1.
        2   -1    0    0  501    0  0.00000000000E+00  0.00000000000E+00 -0.15600639022E+04  0.15600639022E+04  0.25500000920E-02 0.  1.
    10030    2    1    2    0    0  0.00000000000E+00  0.00000000000E+00  0.53021290601E+03  0.36503407103E+04  0.36116286597E+04 0.  0.
        2    1    3    3  502    0  0.17479093967E+04  0.31931516531E+03 -0.60552013630E+02  0.17778683810E+04  0.25500000920E-02 0.  1.
       -2    1    3    3    0  502 -0.17479093967E+04 -0.31931516531E+03  0.59076491964E+03  0.18724723293E+04  0.25500000920E-02 0. -1.
</event>
<event>
 5   0  0.2565004E-06  0.2637635E+04  0.7818609E-02  0.8355529E-01
       -2   -1    0    0    0  501  0.00000000000E+00  0.00000000000E+00  0.80614173517E+03  0.80614173517E+03  0.25500000920E-02 0. -1.
        2   -1    0    0  501    0  0.00000000000E+00  0.00000000000E+00 -0.21575353777E+04  0.21575353777E+04  0.25500000920E-02 0.  1.
    10030    2    1    2    0    0  0.00000000000E+00  0.00000000000E+00 -0.13513936425E+04  0.29636771129E+04  0.26376347837E+04 0.  0.
        3    1    3    3  502    0  0.11050794420E+04  0.24139579278E+02 -0.14839915153E+04  0.18504091764E+04  0.10100000352E+00 0.  1.
       -3    1    3    3    0  502 -0.11050794420E+04 -0.24139579278E+02  0.13259787280E+03  0.11132679365E+04  0.10100000352E+00 0. -1.
</event>
<event>
 5   0  0.1908726E-06  0.3434071E+04  0.7818609E-02  0.8129595E-01
        2   -1    0    0  501    0  0.00000000000E+00  0.00000000000E+00  0.22862363611E+04  0.22862363611E+04  0.25500000920E-02 0.  1.
       -2   -1    0    0    0  501  0.00000000000E+00  0.00000000000E+00 -0.12895474890E+04  0.12895474890E+04  0.25500000920E-02 0. -1.
    10030    2    1    2    0    0  0.00000000000E+00  0.00000000000E+00  0.99668887214E+03  0.35757838501E+04  0.34340706799E+04 0.  0.
        5    1    3    3  502    0  0.76659333061E+03  0.61279857708E+03  0.19653858577E+04  0.21968047456E+04  0.46999998093E+01 0.  1.
       -5    1    3    3    0  502 -0.76659333061E+03 -0.61279857708E+03 -0.96869698560E+03  0.13789791045E+04  0.46999998093E+01 0. -1.
</event>
<event>
 5   0  0.1110956E-06  0.3470886E+04  0.7818609E-02  0.8120724E-01
        1   -1    0    0  501    0  0.00000000000E+00  0.00000000000E+00  0.16444235480E+04  0.16444235480E+04  0.50400001928E-02 0. -1.
       -1   -1    0    0    0  501  0.00000000000E+00  0.00000000000E+00 -0.18315005317E+04  0.18315005317E+04  0.50400001928E-02 0.  1.
    10030    2    1    2    0    0  0.00000000000E+00  0.00000000000E+00 -0.18707698369E+03  0.34759240797E+04  0.34708861131E+04 0.  0.
        1    1    3    3  502    0 -0.15804007769E+04  0.21419088630E+02 -0.81126362937E+03  0.17765905745E+04  0.50400001928E-02 0.  1.
       -1    1    3    3    0  502  0.15804007769E+04 -0.21419088630E+02  0.62418664568E+03  0.16993335052E+04  0.50400001928E-02 0. -1.
</event>
<event>
 5   0  0.1782660E-06  0.2927473E+04  0.7818609E-02  0.8264750E-01
       -2   -1    0    0    0  501  0.00000000000E+00  0.00000000000E+00  0.16107375015E+04  0.16107375015E+04  0.25500000920E-02 0.  1.
        2   -1    0    0  501    0  0.00000000000E+00  0.00000000000E+00 -0.13301515958E+04  0.13301515958E+04  0.25500000920E-02 0. -1.
    10030    2    1    2    0    0  0.00000000000E+00  0.00000000000E+00  0.28058590574E+03  0.29408890973E+04  0.29274733529E+04 0.  0.
        4    1    3    3  502    0  0.14625544042E+04 -0.27165135849E+02  0.19268668636E+03  0.14754433577E+04  0.12699999809E+01 0. -1.
       -4    1    3    3    0  502 -0.14625544042E+04  0.27165135849E+02  0.87899219381E+02  0.14654457396E+04  0.12699999809E+01 0.  1.
</event>
<event>
 5   0  0.1125196E-06  0.2685564E+04  0.7818609E-02  0.8339704E-01
        1   -1    0    0  501    0  0.00000000000E+00  0.00000000000E+00  0.15819438551E+04  0.15819438552E+04  0.50400001928E-02 0. -1.
       -1   -1    0    0    0  501  0.00000000000E+00  0.00000000000E+00 -0.11397769161E+04  0.11397769161E+04  0.50400001928E-02 0.  1.
    10030    2    1    2    0    0  0.00000000000E+00  0.00000000000E+00  0.44216693907E+03  0.27217207712E+04  0.26855636940E+04 0.  0.
        4    1    3    3  502    0  0.12955030794E+04  0.11160993517E+02  0.57883562335E+03  0.14189802988E+04  0.12699999809E+01 0. -1.
       -4    1    3    3    0  502 -0.12955030794E+04 -0.11160993517E+02 -0.13666868428E+03  0.13027404725E+04  0.12699999809E+01 0.  1.
</event>
<event>
 5   0  0.1908726E-06  0.2473861E+04  0.7818609E-02  0.8412357E-01
       -2   -1    0    0    0  501  0.00000000000E+00  0.00000000000E+00  0.73355577104E+03  0.73355577105E+03  0.25500000920E-02 0. -1.
        2   -1    0    0  501    0  0.00000000000E+00  0.00000000000E+00 -0.20857271737E+04  0.20857271737E+04  0.25500000920E-02 0.  1.
    10030    2    1    2    0    0  0.00000000000E+00  0.00000000000E+00 -0.13521714027E+04  0.28192829448E+04  0.24738611158E+04 0.  0.
        5    1    3    3  502    0 -0.60996636697E+03 -0.24875466642E+03 -0.18691834035E+04  0.19818694556E+04  0.46999998093E+01 0.  1.
       -5    1    3    3    0  502  0.60996636697E+03  0.24875466642E+03  0.51701200085E+03  0.83741348921E+03  0.46999998093E+01 0. -1.
</event>
<event>
 5   0  0.3041329E-06  0.3165784E+04  0.7818609E-02  0.8197912E-01
       -2   -1    0    0    0  501  0.00000000000E+00  0.00000000000E+00  0.92987928985E+03  0.92987928986E+03  0.25500000920E-02 0. -1.
        2   -1    0    0  501    0  0.00000000000E+00  0.00000000000E+00 -0.26944868754E+04  0.26944868754E+04  0.25500000920E-02 0.  1.
    10030    2    1    2    0    0  0.00000000000E+00  0.00000000000E+00 -0.17646075856E+04  0.36243661653E+04  0.31657842897E+04 0.  0.
        2    1    3    3  502    0  0.12864982470E+04 -0.67538309384E+03 -0.16338593901E+03  0.14621610815E+04  0.25500000920E-02 0. -1.
       -2    1    3    3    0  502 -0.12864982470E+04  0.67538309384E+03 -0.16012216466E+04  0.21622050838E+04  0.25500000920E-02 0.  1.
</event>
<event>
 5   0  0.2565004E-06  0.1862644E+04  0.7818609E-02  0.8673678E-01
        2   -1    0    0  501    0  0.00000000000E+00  0.00000000000E+00  0.73805121363E+03  0.73805121364E+03  0.25500000920E-02 0. -1.
       -2   -1    0    0    0  501  0.00000000000E+00  0.00000000000E+00 -0.11752033426E+04  0.11752033426E+04  0.25500000920E-02 0.  1.
    10030    2    1    2    0    0  0.00000000000E+00  0.00000000000E+00 -0.43715212899E+03  0.19132545563E+04  0.18626435551E+04 0.  0.
        3    1    3    3  502    0 -0.92041308990E+03 -0.11753849747E+03 -0.30065143725E+03  0.97538036241E+03  0.10100000352E+00 0.  1.
       -3    1    3    3    0  502  0.92041308990E+03  0.11753849747E+03 -0.13650069174E+03  0.93787419386E+03  0.10100000352E+00 0. -1.
</event>
<event>
 5   0  0.1089337E-06  0.2606987E+04  0.7818609E-02  0.8365832E-01
       -1   -1    0    0    0  501  0.00000000000E+00  0.00000000000E+00  0.11472875039E+04  0.11472875040E+04  0.50400001928E-02 0. -1.
        1   -1    0    0  501    0  0.00000000000E+00  0.00000000000E+00 -0.14809675593E+04  0.14809675593E+04  0.50400001928E-02 0.  1.
    10030    2    1    2    0    0  0.00000000000E+00  0.00000000000E+00 -0.33368005540E+03  0.26282550633E+04  0.26069872072E+04 0.  0.
        2    1    3    3  502    0 -0.25533947094E+03 -0.18664380462E+03 -0.14416961745E+04  0.14759817123E+04  0.25500000920E-02 0.  1.
       -2    1    3    3    0  502  0.25533947094E+03  0.18664380462E+03  0.11080161191E+04  0.11522733510E+04  0.25500000920E-02 0. -1.
</event>
<event>
 5   0  0.2565004E-06  0.3074962E+04  0.7818609E-02  0.8222643E-01
       -2   -1    0    0    0  501  0.00000000000E+00  0.00000000000E+00  0.12313424717E+04  0.12313424718E+04  0.25500000920E-02 0. -1.
        2   -1    0    0  501    0  0.00000000000E+00  0.00000000000E+00 -0.19197323848E+04  0.19197323848E+04  0.25500000920E-02 0.  1.
    10030    2    1    2    0    0  0.00000000000E+00  0.00000000000E+00 -0.68838991302E+03  0.31510748565E+04  0.30749621264E+04 0.  0.
        3    1    3    3  502    0  0.28962845812E+03 -0.58452919002E+03  0.10824904337E+04  0.12638609761E+04  0.10100000352E+00 0. -1.
       -3    1    3    3    0  502 -0.28962845812E+03  0.58452919002E+03 -0.17708803467E+04  0.18872138804E+04  0.10100000352E+00 0.  1.
</event>
<event>
 5   0  0.1130707E-06  0.1762658E+04  0.7818609E-02  0.8726413E-01
       -1   -1    0    0    0  501  0.00000000000E+00  0.00000000000E+00  0.78955306267E+03  0.78955306269E+03  0.50400001928E-02 0. -1.
        1   -1    0    0  501    0  0.00000000000E+00  0.00000000000E+00 -0.98377308395E+03  0.98377308397E+03  0.50400001928E-02 0.  1.
    10030    2    1    2    0    0  0.00000000000E+00  0.00000000000E+00 -0.19422002128E+03  0.17733261467E+04  0.17626582782E+04 0.  0.
        3    1    3    3  502    0 -0.76901382941E+03 -0.22707569351E+03  0.27088428366E+03  0.84635922972E+03  0.10100000352E+00 0.  1.
       -3    1    3    3    0  502  0.76901382941E+03  0.22707569351E+03 -0.46510430494E+03  0.92696691693E+03  0.10100000352E+00 0. -1.
</event>
<event>
 5   0  0.1125196E-06  0.3505760E+04  0.7818609E-02  0.8112426E-01
       -1   -1    0    0    0  501  0.00000000000E+00  0.00000000000E+00  0.20209951254E+04  0.20209951254E+04  0.50400001928E-02 0. -1.
        1   -1    0    0  501    0  0.00000000000E+00  0.00000000000E+00 -0.15203346054E+04  0.15203346054E+04  0.50400001928E-02 0.  1.
    10030    2    1    2    0    0  0.00000000000E+00  0.00000000000E+00  0.50066052003E+03  0.35413297308E+04  0.35057603035E+04 0.  0.
        4    1    3    3  502    0 -0.51552855294E+03  0.11314104208E+04 -0.99781456220E+03  0.15942066185E+04  0.12699999809E+01 0.  1.
       -4    1    3    3    0  502  0.51552855294E+03 -0.11314104208E+04  0.14984750822E+04  0.19471231122E+04  0.12699999809E+01 0. -1.
</event>
<event>
 5   0  0.1102175E-06  0.3463908E+04  0.7818609E-02  0.8122397E-01
       -1   -1    0    0    0  501  0.00000000000E+00  0.00000000000E+00  0.10797629768E+04  0.10797629768E+04  0.50400001928E-02 0.  1.
        1   -1    0    0  501    0  0.00000000000E+00  0.00000000000E+00 -0.27780775047E+04  0.27780775047E+04  0.50400001928E-02 0. -1.
    10030    2    1    2    0    0  0.00000000000E+00  0.00000000000E+00 -0.16983145279E+04  0.38578404815E+04  0.34639083339E+04 0.  0.
        5    1    3    3  502    0 -0.15719311203E+03  0.77925232741E+03  0.86456779218E+03  0.11744970930E+04  0.46999998093E+01 0.  1.
       -5    1    3    3    0  502  0.15719311203E+03 -0.77925232741E+03 -0.25628823201E+04  0.26833433885E+04  0.46999998093E+01 0. -1.
</event>
<event>
 5   0  0.3041329E-06  0.2031877E+04  0.7818609E-02  0.8591861E-01
       -2   -1    0    0    0  501  0.00000000000E+00  0.00000000000E+00  0.48357534954E+03  0.48357534954E+03  0.25500000920E-02 0. -1.
        2   -1    0    0  501    0  0.00000000000E+00  0.00000000000E+00 -0.21343743824E+04  0.21343743824E+04  0.25500000920E-02 0.  1.
    10030    2    1    2    0    0  0.00000000000E+00  0.00000000000E+00 -0.16507990329E+04  0.26179497320E+04  0.20318768054E+04 0.  0.
        2    1    3    3  502    0 -0.84456210099E+03  0.25485744608E+03 -0.14746161185E+04  0.17183509995E+04  0.25500000920E-02 0.  1.
       -2    1    3    3    0  502  0.84456210099E+03 -0.25485744608E+03 -0.17618291436E+03  0.89959873253E+03  0.25500000920E-02 0. -1.
</event>
<event>
 5   0  0.3378848E-06  0.3566960E+04  0.7818609E-02  0.8098102E-01
       -2   -1    0    0    0  501  0.00000000000E+00  0.00000000000E+00  0.14532689518E+04  0.14532689518E+04  0.25500000920E-02 0.  1.
        2   -1    0    0  501    0  0.00000000000E+00  0.00000000000E+00 -0.21887214366E+04  0.21887214366E+04  0.25500000920E-02 0. -1.
    10030    2    1    2    0    0  0.00000000000E+00  0.00000000000E+00 -0.73545248481E+03  0.36419903883E+04  0.35669599986E+04 0.  0.
        1    1    3    3  502    0 -0.87147277302E+03  0.35191141763E+03  0.11799060873E+04  0.15084710189E+04  0.50400001928E-02 0.  1.
       -1    1    3    3    0  502  0.87147277302E+03 -0.35191141763E+03 -0.19153585721E+04  0.21335193694E+04  0.50400001928E-02 0. -1.
</event>
<event>
 5   0  0.1782660E-06  0.2200016E+04  0.7818609E-02  0.8518421E-01
       -2   -1    0    0    0  501  0.00000000000E+00  0.00000000000E+00  0.45067253971E+03  0.45067253972E+03  0.25500000920E-02 0. -1.
        2   -1    0    0  501    0  0.00000000000E+00  0.00000000000E+00 -0.26849164734E+04  0.26849164734E+04  0.25500000920E-02 0.  1.
    10030    2    1    2    0    0  0.00000000000E+00  0.00000000000E+00 -0.22342439337E+04  0.31355890131E+04  0.22000164781E+04 0.  0.
        4    1    3    3  502    0 -0.10059763891E+04 -0.30498034972E+03 -0.65525290014E+03  0.12386926517E+04  0.12699999809E+01 0.  1.
       -4    1    3    3    0  502  0.10059763891E+04  0.30498034972E+03 -0.15789910335E+04  0.18968963615E+04  0.12699999809E+01 0. -1.
</event>
<event>
 5   0  0.1089337E-06  0.2612019E+04  0.7818609E-02  0.8364130E-01
        1   -1    0    0  501    0  0.00000000000E+00  0.00000000000E+00  0.83342786716E+03  0.83342786718E+03  0.50400001928E-02 0. -1.
       -1   -1    0    0    0  501  0.00000000000E+00  0.00000000000E+00 -0.20465612462E+04  0.20465612462E+04  0.50400001928E-02 0.  1.
    10030    2    1    2    0    0  0.00000000000E+00  0.00000000000E+00 -0.12131333790E+04  0.28799891134E+04  0.26120192759E+04 0.  0.
        2    1    3    3  502    0  0.22223775328E+02  0.49419986753E+03  0.72612513163E+03  0.87862683322E+03  0.25500000920E-02 0. -1.
       -2    1    3    3    0  502 -0.22223775328E+02 -0.49419986753E+03 -0.19392585107E+04  0.20013622802E+04  0.25500000920E-02 0.  1.
</event>
<event>
 5   0  0.3378848E-06  0.3594080E+04  0.7818609E-02  0.8091849E-01
        2   -1    0    0  501    0  0.00000000000E+00  0.00000000000E+00  0.12590017625E+04  0.12590017625E+04  0.25500000920E-02 0.  1.
       -2   -1    0    0    0  501  0.00000000000E+00  0.00000000000E+00 -0.25650102017E+04  0.25650102017E+04  0.25500000920E-02 0. -1.
    10030    2    1    2    0    0  0.00000000000E+00  0.00000000000E+00 -0.13060084393E+04  0.38240119642E+04  0.35940797791E+04 0.  0.
        1    1    3    3  502    0 -0.76313759240E+03  0.30462487324E+03  0.10474190123E+04  0.13312632669E+04  0.50400001928E-02 0.  1.
       -1    1    3    3    0  502  0.76313759240E+03 -0.30462487324E+03 -0.23534274515E+04  0.24927486973E+04  0.50400001928E-02 0. -1.
</event>
<event>
 5   0  0.1908726E-06  0.3623300E+04  0.7818609E-02  0.8085175E-01
       -2   -1    0    0    0  501  0.00000000000E+00  0.00000000000E+00  0.22500983091E+04  0.22500983091E+04  0.25500000920E-02 0.  1.
        2   -1    0    0  501    0  0.00000000000E+00  0.00000000000E+00 -0.14586363289E+04  0.14586363289E+04  0.25500000920E-02 0. -1.
    10030    2    1    2    0    0  0.00000000000E+00  0.00000000000E+00  0.79146198021E+03  0.37087346380E+04  0.36232996769E+04 0.  0.
        5    1    3    3  502    0  0.72685081509E+03  0.85367472438E+03  0.18523028576E+04  0.21652068282E+04  0.46999998093E+01 0.  1.
       -5    1    3    3    0  502 -0.72685081509E+03 -0.85367472438E+03 -0.10608408774E+04  0.15435278098E+04  0.46999998093E+01 0. -1.
</event>
<event>
 5   0  0.2565004E-06  0.3305367E+04  0.7818609E-02  0.8161531E-01
       -2   -1    0    0    0  501  0.00000000000E+00  0.00000000000E+00  0.22841180971E+04  0.22841180971E+04  0.25500000920E-02 0.  1.
        2   -1    0    0  501    0  0.00000000000E+00  0.00000000000E+00 -0.11958063715E+04  0.11958063715E+04  0.25500000920E-02 0. -1.
    10030    2    1    2    0    0  0.00000000000E+00  0.00000000000E+00  0.10883117256E+04  0.34799244686E+04  0.33053671347E+04 0.  0.
        3    1    3    3  502    0  0.16226970012E+04 -0.49561239873E+02  0.21836068466E+03  0.16380730365E+04  0.10100000352E+00 0.  1.
       -3    1    3    3    0  502 -0.16226970012E+04  0.49561239873E+02  0.86995104093E+03  0.18418514321E+04  0.10100000352E+00 0. -1.
</event>
<event>
 5   0  0.1908726E-06  0.3496250E+04  0.7818609E-02  0.8114679E-01
       -2   -1    0    0    0  501  0.00000000000E+00  0.00000000000E+00  0.13765594413E+04  0.13765594413E+04  0.25500000920E-02 0. -1.
        2   -1    0    0  501    0  0.00000000000E+00  0.00000000000E+00 -0.22199841691E+04  0.22199841691E+04  0.25500000920E-02 0.  1.
    10030    2    1    2    0    0  0.00000000000E+00  0.00000000000E+00 -0.84342472776E+03  0.35965436104E+04  0.34962495149E+04 0.  0.
        5    1    3    3  502    0  0.12035029083E+04  0.12526822533E+04 -0.22043130613E+03  0.17510694243E+04  0.46999998093E+01 0.  1.
       -5    1    3    3    0  502 -0.12035029083E+04 -0.12526822533E+04 -0.62299342163E+03  0.18454741861E+04  0.46999998093E+01 0. -1.
</event>
<event>
 5   0  0.1110956E-06  0.2601743E+04  0.7818609E-02  0.8367609E-01
       -1   -1    0    0    0  501  0.00000000000E+00  0.00000000000E+00  0.14596295296E+04  0.14596295296E+04  0.50400001928E-02 0.  1.
        1   -1    0    0  501    0  0.00000000000E+00  0.00000000000E+00 -0.11593808540E+04  0.11593808540E+04  0.50400001928E-02 0. -1.
    10030    2    1    2    0    0  0.00000000000E+00  0.00000000000E+00  0.30024867563E+03  0.26190103836E+04  0.26017429009E+04 0.  0.
        1    1    3    3  502    0 -0.26880452651E+02  0.37183826313E+03  0.14047025934E+04  0.14533325940E+04  0.50400001928E-02 0.  1.
       -1    1    3    3    0  502  0.26880452651E+02 -0.37183826313E+03 -0.11044539178E+04  0.11656777896E+04  0.50400001928E-02 0. -1.
</event>
<event>
 5   0  0.3378848E-06  0.3464850E+04  0.7818609E-02  0.8122171E-01
        2   -1    0    0  501    0  0.00000000000E+00  0.00000000000E+00  0.31052094607E+04  0.31052094607E+04  0.25500000920E-02 0. -1.
       -2   -1    0    0    0  501  0.00000000000E+00  0.00000000000E+00 -0.96653573441E+03  0.96653573442E+03  0.25500000920E-02 0.  1.
    10030    2    1    2    0    0  0.00000000000E+00  0.00000000000E+00  0.21386737263E+04  0.40717451951E+04  0.34648497264E+04 0.  0.
        1    1    3    3  502    0 -0.47970441710E+03 -0.50267942488E+03  0.29342841496E+04  0.30154313792E+04  0.50400001928E-02 0. -1.
       -1    1    3    3    0  502  0.47970441710E+03  0.50267942488E+03 -0.79561042332E+03  0.10563138159E+04  0.50400001928E-02 0.  1.
</event>
<event>
 5   0  0.1782660E-06  0.3394752E+04  0.7818609E-02  0.8139195E-01
        2   -1    0    0  501    0  0.00000000000E+00  0.00000000000E+00  0.22805002237E+04  0.22805002237E+04  0.25500000920E-02 0.  1.
       -2   -1    0    0    0  501  0.00000000000E+00  0.00000000000E+00 -0.12633569960E+04  0.12633569960E+04  0.25500000920E-02 0. -1.
    10030    2    1    2    0    0  0.00000000000E+00  0.00000000000E+00  0.10171432277E+04  0.35438572196E+04  0.33947523691E+04 0.  0.
        4    1    3    3  502    0 -0.13979563926E+04  0.63423470610E+03 -0.24749657528E+03  0.15549250483E+04  0.12699999809E+01 0. -1.
       -4    1    3    3    0  502  0.13979563926E+04 -0.63423470610E+03  0.12646398029E+04  0.19889321713E+04  0.12699999809E+01 0.  1.
</event>
<event>
 5   0  0.3378848E-06  0.3472932E+04  0.7818609E-02  0.8120235E-01
        2   -1    0    0  501    0  0.00000000000E+00  0.00000000000E+00  0.20809879248E+04  0.20809879248E+04  0.25500000920E-02 0.  1.
       -2   -1    0    0    0  501  0.00000000000E+00  0.00000000000E+00 -0.14489820087E+04  0.14489820087E+04  0.25500000920E-02 0. -1.
    10030    2    1    2    0    0  0.00000000000E+00  0.00000000000E+00  0.63200591617E+03  0.35299699335E+04  0.34729319391E+04 0.  0.
        1    1    3    3  502    0  0.67197030805E+03  0.10581528646E+04  0.15374390088E+04  0.19836709116E+04  0.50400001928E-02 0.  1.
       -1    1    3    3    0  502 -0.67197030805E+03 -0.10581528646E+04 -0.90543309267E+03  0.15462990219E+04  0.50400001928E-02 0. -1.
</event>
<event>
 5   0  0.1908726E-06  0.3559111E+04  0.7818609E-02  0.8099922E-01
       -2   -1    0    0    0  501  0.00000000000E+00  0.00000000000E+00  0.20337621420E+04  0.20337621420E+04  0.25500000920E-02 0.  1.
        2   -1    0    0  501    0  0.00000000000E+00  0.00000000000E+00 -0.15571234162E+04  0.15571234162E+04  0.25500000920E-02 0. -1.
    10030    2    1    2    0    0  0.00000000000E+00  0.00000000000E+00  0.47663872584E+03  0.35908855582E+04  0.35591114927E+04 0.  0.
        5    1    3    3  502    0  0.15403916536E+04  0.31730740092E+03  0.10784029345E+04  0.19069518642E+04  0.46999998093E+01 0.  1.
       -5    1    3    3    0  502 -0.15403916536E+04 -0.31730740092E+03 -0.60176420867E+03  0.16839336941E+04  0.46999998093E+01 0. -1.
</event>
<event>
 5   0  0.1908726E-06  0.3161522E+04  0.7818609E-02  0.8199054E-01
       -2   -1    0    0    0  501  0.00000000000E+00  0.00000000000E+00  0.26519859896E+04  0.26519859896E+04  0.25500000920E-02 0. -1.
        2   -1    0    0  501    0  0.00000000000E+00  0.00000000000E+00 -0.94223904369E+03  0.94223904370E+03  0.25500000920E-02 0.  1.
    10030    2    1    2    0    0  0.00000000000E+00  0.00000000000E+00  0.17097469459E+04  0.35942250333E+04  0.31615216227E+04 0.  0.
        5    1    3    3  502    0 -0.13046507379E+03 -0.93146118680E+03  0.22992483306E+04  0.24841912273E+04  0.46999998093E+01 0. -1.
       -5    1    3    3    0  502  0.13046507379E+03  0.93146118680E+03 -0.58950138467E+03  0.11100338060E+04  0.46999998093E+01 0.  1.
</event>
<event>
 5   0  0.2565004E-06  0.3407417E+04  0.7818609E-02  0.8136088E-01
        2   -1    0    0  501    0  0.00000000000E+00  0.00000000000E+00  0.17841171122E+04  0.17841171122E+04  0.25500000920E-02 0. -1.
       -2   -1    0    0    0  501  0.00000000000E+00  0.00000000000E+00 -0.16269239297E+04  0.16269239297E+04  0.25500000920E-02 0.  1.
    10030    2    1    2    0    0  0.00000000000E+00  0.00000000000E+00  0.15719318255E+03  0.34110410419E+04  0.34074171000E+04 0.  0.
        3    1    3    3  502    0  0.34879365536E+03 -0.15221006269E+04  0.76062543875E+03  0.17369508919E+04  0.10100000352E+00 0. -1.
       -3    1    3    3    0  502 -0.34879365536E+03  0.15221006269E+04 -0.60343225621E+03  0.16740901501E+04  0.10100000352E+00 0.  1.
</event>
<event>
 5   0  0.1089337E-06  0.3659385E+04  0.7818609E-02  0.8077023E-01
       -1   -1    0    0    0  501  0.00000000000E+00  0.00000000000E+00  0.13539081164E+04  0.13539081165E+04  0.50400001928E-02 0. -1.
        1   -1    0    0  501    0  0.00000000000E+00  0.00000000000E+00 -0.24726745098E+04  0.24726745098E+04  0.50400001928E-02 0.  1.
    10030    2    1    2    0    0  0.00000000000E+00  0.00000000000E+00 -0.11187663934E+04  0.38265826263E+04  0.36593846959E+04 0.  0.
        2    1    3    3  502    0  0.16356626513E+04  0.25923685636E+03 -0.13728589358E+04  0.21511247556E+04  0.25500000920E-02 0. -1.
       -2    1    3    3    0  502 -0.16356626513E+04 -0.25923685636E+03  0.25409254244E+03  0.16754578707E+04  0.25500000920E-02 0.  1.
</event>
<event>
 5   0  0.3378848E-06  0.3432962E+04  0.7818609E-02  0.8129863E-01
        2   -1    0    0  501    0  0.00000000000E+00  0.00000000000E+00  0.13348256945E+04  0.13348256945E+04  0.25500000920E-02 0.  1.
       -2   -1    0    0    0  501  0.00000000000E+00  0.00000000000E+00 -0.22072601491E+04  0.22072601491E+04  0.25500000920E-02 0. -1.
    10030    2    1    2    0    0  0.00000000000E+00  0.00000000000E+00 -0.87243445463E+03  0.35420858437E+04  0.34329623135E+04 0.  0.
        1    1    3    3  502    0 -0.31028746600E+03  0.98032152637E+02 -0.21751438115E+04  0.21993497255E+04  0.50400001928E-02 0. -1.
       -1    1    3    3    0  502  0.31028746600E+03 -0.98032152637E+02  0.13027093568E+04  0.13427361181E+04  0.50400001928E-02 0.  1.
</event>
<event>
 5   0  0.1908726E-06  0.3472649E+04  0.7818609E-02  0.8120302E-01
       -2   -1    0    0    0  501  0.00000000000E+00  0.00000000000E+00  0.11673026981E+04  0.11673026981E+04  0.25500000920E-02 0.  1.
        2   -1    0    0  501    0  0.00000000000E+00  0.00000000000E+00 -0.25827262201E+04  0.25827262201E+04  0.25500000920E-02 0. -1.
    10030    2    1    2    0    0  0.00000000000E+00  0.00000000000E+00 -0.14154235220E+04  0.37500289182E+04  0.34726492971E+04 0.  0.
        5    1    3    3  502    0 -0.21564162677E+03 -0.16234558653E+04 -0.13305771172E+04  0.21101108531E+04  0.46999998093E+01 0. -1.
       -5    1    3    3    0  502  0.21564162677E+03  0.16234558653E+04 -0.84846404776E+02  0.16399180650E+04  0.46999998093E+01 0.  1.
</event>
<event>
 5   0  0.1089337E-06  0.3348345E+04  0.7818609E-02  0.8150702E-01
       -1   -1    0    0    0  501  0.00000000000E+00  0.00000000000E+00  0.14290587487E+04  0.14290587488E+04  0.50400001928E-02 0.  1.
        1   -1    0    0  501    0  0.00000000000E+00  0.00000000000E+00 -0.19613285769E+04  0.19613285769E+04  0.50400001928E-02 0. -1.
    10030    2    1    2    0    0  0.00000000000E+00  0.00000000000E+00 -0.53226982819E+03  0.33903873257E+04  0.33483451208E+04 0.  0.
        2    1    3    3  502    0 -0.89916964175E+03  0.64729443510E+03  0.10047571891E+04  0.14956714678E+04  0.25500000920E-02 0.  1.
       -2    1    3    3    0  502  0.89916964175E+03 -0.64729443510E+03 -0.15370270173E+04  0.18947158579E+04  0.25500000920E-02 0. -1.
</event>
<event>
 5   0  0.1130707E-06  0.2810860E+04  0.7818609E-02  0.8299905E-01
        1   -1    0    0  501    0  0.00000000000E+00  0.00000000000E+00  0.70386811933E+03  0.70386811935E+03  0.50400001928E-02 0.  1.
       -1   -1    0    0    0  501  0.00000000000E+00  0.00000000000E+00 -0.28062550601E+04  0.28062550601E+04  0.50400001928E-02 0. -1.
    10030    2    1    2    0    0  0.00000000000E+00  0.00000000000E+00 -0.21023869407E+04  0.35101231794E+04  0.28108599905E+04 0.  0.
        3    1    3    3  502    0  0.12708572789E+04 -0.56473724348E+03 -0.13047497974E+04  0.19069290552E+04  0.10100000352E+00 0.  1.
       -3    1    3    3    0  502 -0.12708572789E+04  0.56473724348E+03 -0.79763714331E+03  0.16031941242E+04  0.10100000352E+00 0. -1.
</event>
<event>
 5   0  0.1782660E-06  0.3464210E+04  0.7818609E-02  0.8122325E-01
       -2   -1    0    0    0  501  0.00000000000E+00  0.00000000000E+00  0.21207732699E+04  0.21207732699E+04  0.25500000920E-02 0. -1.
        2   -1    0    0  501    0  0.00000000000E+00  0.00000000000E+00 -0.14146666645E+04  0.14146666645E+04  0.25500000920E-02 0.  1.
    10030    2    1    2    0    0  0.00000000000E+00  0.00000000000E+00  0.70610660544E+03  0.35354399344E+04  0.34642097211E+04 0.  0.
        4    1    3    3  502    0 -0.44598448550E+03  0.10577796749E+04 -0.97068477787E+03  0.15033397995E+04  0.12699999809E+01 0.  1.
       -4    1    3    3    0  502  0.44598448550E+03 -0.10577796749E+04  0.16767913833E+04  0.20321001348E+04  0.12699999809E+01 0. -1.
</event>
<event>
 5   0  0.1110956E-06  0.3394998E+04  0.7818609E-02  0.8139135E-01
        1   -1    0    0  501    0  0.00000000000E+00  0.00000000000E+00  0.20832964284E+04  0.20832964284E+04  0.50400001928E-02 0.  1.
       -1   -1    0    0    0  501  0.00000000000E+00  0.00000000000E+00 -0.13831457630E+04  0.13831457630E+04  0.50400001928E-02 0. -1.
    10030    2    1    2    0    0  0.00000000000E+00  0.00000000000E+00  0.70015066540E+03  0.34664421914E+04  0.33949978663E+04 0.  0.
        1    1    3    3  502    0  0.21664468373E+02 -0.15529903989E+04 -0.34936149260E+03  0.15919491138E+04  0.50400001928E-02 0. -1.
       -1    1    3    3    0  502 -0.21664468373E+02  0.15529903989E+04  0.10495121580E+04  0.18744930776E+04  0.50400001928E-02 0.  1.
</event>
<event>
 5   0  0.3041329E-06  0.3417985E+04  0.7818609E-02  0.8133506E-01
        2   -1    0    0  501    0  0.00000000000E+00  0.00000000000E+00  0.19986097687E+04  0.19986097687E+04  0.25500000920E-02 0.  1.
       -2   -1    0    0    0  501  0.00000000000E+00  0.00000000000E+00 -0.14613432671E+04  0.14613432671E+04  0.25500000920E-02 0. -1.
    10030    2    1    2    0    0  0.00000000000E+00  0.00000000000E+00  0.53726650161E+03  0.34599530357E+04  0.34179847448E+04 0.  0.
        2    1    3    3  502    0  0.14158327486E+04 -0.40832920823E+03  0.11449063675E+04  0.18660454723E+04  0.25500000920E-02 0.  1.
       -2    1    3    3    0  502 -0.14158327486E+04  0.40832920823E+03 -0.60763986588E+03  0.15939075635E+04  0.25500000920E-02 0. -1.
</event>
<event>
 5   0  0.1908726E-06  0.3371887E+04  0.7818609E-02  0.8144841E-01
        2   -1    0    0  501    0  0.00000000000E+00  0.00000000000E+00  0.22589968678E+04  0.22589968678E+04  0.25500000920E-02 0. -1.
       -2   -1    0    0    0  501  0.00000000000E+00  0.00000000000E+00 -0.12582600941E+04  0.12582600941E+04  0.25500000920E-02 0.  1.
    10030    2    1    2    0    0  0.00000000000E+00  0.00000000000E+00  0.10007367737E+04  0.35172569619E+04  0.33718870749E+04 0.  0.
        5    1    3    3  502    0  0.16710393377E+03  0.13814971321E+04  0.14932039188E+04  0.20411119724E+04  0.46999998093E+01 0. -1.
       -5    1    3    3    0  502 -0.16710393377E+03 -0.13814971321E+04 -0.49246714512E+03  0.14761449894E+04  0.46999998093E+01 0.  1.
</event>
<event>
 5   0  0.1089337E-06  0.3502549E+04  0.7818609E-02  0.8113186E-01
       -1   -1    0    0    0  501  0.00000000000E+00  0.00000000000E+00  0.14867987827E+04  0.14867987827E+04  0.50400001928E-02 0.  1.
        1   -1    0    0  501    0  0.00000000000E+00  0.00000000000E+00 -0.20627963427E+04  0.20627963427E+04  0.50400001928E-02 0. -1.
    10030    2    1    2    0    0  0.00000000000E+00  0.00000000000E+00 -0.57599756001E+03  0.35495951254E+04  0.35025494093E+04 0.  0.
        2    1    3    3  502    0  0.16234261000E+04 -0.32170744245E+03  0.29236693713E+03  0.16806208397E+04  0.25500000920E-02 0. -1.
       -2    1    3    3    0  502 -0.16234261000E+04  0.32170744245E+03 -0.86836449714E+03  0.18689742857E+04  0.25500000920E-02 0.  1.
</event>
<event>
 5   0  0.3041329E-06  0.3422259E+04  0.7818609E-02  0.8132465E-01
       -2   -1    0    0    0  501  0.00000000000E+00  0.00000000000E+00  0.13130269647E+04  0.13130269647E+04  0.25500000920E-02 0.  1.
        2   -1    0    0  501    0  0.00000000000E+00  0.00000000000E+00 -0.22299351560E+04  0.22299351560E+04  0.25500000920E-02 0. -1.
    10030    2    1    2    0    0  0.00000000000E+00  0.00000000000E+00 -0.91690819136E+03  0.35429621207E+04  0.34222594813E+04 0.  0.
        2    1    3    3  502    0 -0.77930141383E+03  0.53860455850E+02 -0.20345664825E+04  0.21793743171E+04  0.25500000920E-02 0. -1.
       -2    1    3    3    0  502  0.77930141383E+03 -0.53860455850E+02  0.11176582912E+04  0.13635878036E+04  0.25500000920E-02 0.  1.
</event>
<event>
 5   0  0.1782660E-06  0.3494005E+04  0.7818609E-02  0.8115212E-01
       -2   -1    0    0    0  501  0.00000000000E+00  0.00000000000E+00  0.18083843826E+04  0.18083843826E+04  0.25500000920E-02 0.  1.
        2   -1    0    0  501    0  0.00000000000E+00  0.00000000000E+00 -0.16877036351E+04  0.16877036351E+04  0.25500000920E-02 0. -1.
    10030    2    1    2    0    0  0.00000000000E+00  0.00000000000E+00  0.12068074749E+03  0.34960880177E+04  0.34940045199E+04 0.  0.
        4    1    3    3  502    0  0.60308531291E+03 -0.20325936155E+03 -0.15675867732E+04  0.16918499245E+04  0.12699999809E+01 0. -1.
       -4    1    3    3    0  502 -0.60308531291E+03  0.20325936155E+03  0.16882675207E+04  0.18042380932E+04  0.12699999809E+01 0.  1.
</event>
<event>
 5   0  0.1102175E-06  0.2022451E+04  0.7818609E-02  0.8596195E-01
        1   -1    0    0  501    0  0.00000000000E+00  0.00000000000E+00  0.10456354545E+04  0.10456354545E+04  0.50400001928E-02 0. -1.
       -1   -1    0    0    0  501  0.00000000000E+00  0.00000000000E+00 -0.97794826827E+03  0.97794826828E+03  0.50400001928E-02 0.  1.
    10030    2    1    2    0    0  0.00000000000E+00  0.00000000000E+00  0.67687186239E+02  0.20235837228E+04  0.20224513660E+04 0.  0.
        5    1    3    3  502    0 -0.59456997772E+02 -0.10037011341E+04  0.14162665604E+03  0.10153971149E+04  0.46999998093E+01 0. -1.
       -5    1    3    3    0  502  0.59456997772E+02  0.10037011341E+04 -0.73939469806E+02  0.10081866079E+04  0.46999998093E+01 0.  1.
</event>
<event>
 5   0  0.1908726E-06  0.3614053E+04  0.7818609E-02  0.8087280E-01
        2   -1    0    0  501    0  0.00000000000E+00  0.00000000000E+00  0.24150227060E+04  0.24150227060E+04  0.25500000920E-02 0. -1.
       -2   -1    0    0    0  501  0.00000000000E+00  0.00000000000E+00 -0.13520965579E+04  0.13520965579E+04  0.25500000920E-02 0.  1.
    10030    2    1    2    0    0  0.00000000000E+00  0.00000000000E+00  0.10629261481E+04  0.37671192639E+04  0.36140525109E+04 0.  0.
        5    1    3    3  502    0  0.15621394280E+04 -0.54502078255E+03 -0.22594447967E+03  0.16698503657E+04  0.46999998093E+01 0.  1.
       -5    1    3    3    0  502 -0.15621394280E+04  0.54502078255E+03  0.12888706278E+04  0.20972688982E+04  0.46999998093E+01 0. -1.
</event>
<event>
 5   0  0.1125196E-06  0.2290861E+04  0.7818609E-02  0.8481533E-01
       -1   -1    0    0    0  501  0.00000000000E+00  0.00000000000E+00  0.72341383232E+03  0.72341383234E+03  0.50400001928E-02 0.  1.
        1   -1    0    0  501    0  0.00000000000E+00  0.00000000000E+00 -0.18136378693E+04  0.18136378694E+04  0.50400001928E-02 0. -1.
    10030    2    1    2    0    0  0.00000000000E+00  0.00000000000E+00 -0.10902240370E+04  0.25370517017E+04  0.22908607304E+04 0.  0.
        4    1    3    3  502    0 -0.79967837248E+03  0.59450420037E+02 -0.14509284651E+04  0.16577740725E+04  0.12699999809E+01 0. -1.
       -4    1    3    3    0  502  0.79967837248E+03 -0.59450420037E+02  0.36070442805E+03  0.87927762917E+03  0.12699999809E+01 0.  1.
</event>
<event>
 5   0  0.1089337E-06  0.1845730E+04  0.7818609E-02  0.8682352E-01
        1   -1    0    0  501    0  0.00000000000E+00  0.00000000000E+00  0.16713106990E+04  0.16713106990E+04  0.50400001928E-02 0.  1.
       -1   -1    0    0    0  501  0.00000000000E+00  0.00000000000E+00 -0.50958794295E+03  0.50958794298E+03  0.50400001928E-02 0. -1.
    10030    2    1    2    0    0  0.00000000000E+00  0.00000000000E+00  0.11617227560E+04  0.21808986420E+04  0.18457299707E+04 0.  0.
        2    1    3    3  502    0  0.41877115193E+02  0.91834312669E+03  0.48507235008E+03  0.10394243483E+04  0.25500000920E-02 0.  1.
       -2    1    3    3    0  502 -0.41877115193E+02 -0.91834312669E+03  0.67665040594E+03  0.11414742936E+04  0.25500000920E-02 0. -1.
</event>
<event>
 5   0  0.1782660E-06  0.3429252E+04  0.7818609E-02  0.8130764E-01
       -2   -1    0    0    0  501  0.00000000000E+00  0.00000000000E+00  0.17890463528E+04  0.17890463528E+04  0.25500000920E-02 0.  1.
        2   -1    0    0  501    0  0.00000000000E+00  0.00000000000E+00 -0.16433011036E+04  0.16433011036E+04  0.25500000920E-02 0. -1.
    10030    2    1    2    0    0  0.00000000000E+00  0.00000000000E+00  0.14574524916E+03  0.34323474564E+04  0.34292517236E+04 0.  0.
        4    1    3    3  502    0  0.37568570006E+03  0.16114706699E+04 -0.37693574928E+03  0.16970738456E+04  0.12699999809E+01 0. -1.
       -4    1    3    3    0  502 -0.37568570006E+03 -0.16114706699E+04  0.52268099844E+03  0.17352736108E+04  0.12699999809E+01 0.  1.
</event>
<event>
 5   0  0.1125196E-06  0.3462331E+04  0.7818609E-02  0.8122775E-01
        1   -1    0    0  501    0  0.00000000000E+00  0.00000000000E+00  0.23932559027E+04  0.23932559027E+04  0.50400001928E-02 0.  1.
       -1   -1    0    0    0  501  0.00000000000E+00  0.00000000000E+00 -0.12522413056E+04  0.12522413056E+04  0.50400001928E-02 0. -1.
    10030    2    1    2    0    0  0.00000000000E+00  0.00000000000E+00  0.11410145971E+04  0.36454972083E+04  0.34623309467E+04 0.  0.
        4    1    3    3  502    0  0.60115426309E+03 -0.14290989516E+04  0.13814624273E+04  0.20765717691E+04  0.12699999809E+01 0.  1.
       -4    1    3    3    0  502 -0.60115426309E+03  0.14290989516E+04 -0.24044783018E+03  0.15689254391E+04  0.12699999809E+01 0. -1.
</event>
<event>
 5   0  0.1089337E-06  0.1832886E+04  0.7818609E-02  0.8689004E-01
       -1   -1    0    0    0  501  0.00000000000E+00  0.00000000000E+00  0.46146476071E+03  0.46146476074E+03  0.50400001928E-02 0.  1.
        1   -1    0    0  501    0  0.00000000000E+00  0.00000000000E+00 -0.18200049662E+04  0.18200049662E+04  0.50400001928E-02 0. -1.
    10030    2    1    2    0    0  0.00000000000E+00  0.00000000000E+00 -0.13585402055E+04  0.22814697269E+04  0.18328864190E+04 0.  0.
        2    1    3    3  502    0 -0.29288549202E+03 -0.38559895689E+03 -0.16477715054E+04  0.17174456035E+04  0.25500000920E-02 0. -1.
       -2    1    3    3    0  502  0.29288549202E+03  0.38559895689E+03  0.28923129990E+03  0.56402412345E+03  0.25500000920E-02 0.  1.
</event>
<event>
 5   0  0.1125196E-06  0.3439716E+04  0.7818609E-02  0.8128227E-01
       -1   -1    0    0    0  501  0.00000000000E+00  0.00000000000E+00  0.17878126530E+04  0.17878126530E+04  0.50400001928E-02 0. -1.
        1   -1    0    0  501    0  0.00000000000E+00  0.00000000000E+00 -0.16544861585E+04  0.16544861585E+04  0.50400001928E-02 0.  1.
    10030    2    1    2    0    0  0.00000000000E+00  0.00000000000E+00  0.13332649452E+03  0.34422988115E+04  0.34397158536E+04 0.  0.
        4    1    3    3  502    0  0.13126719136E+04 -0.28056923089E+03  0.11426836641E+04  0.17628256338E+04  0.12699999809E+01 0. -1.
       -4    1    3    3    0  502 -0.13126719136E+04  0.28056923089E+03 -0.10093571696E+04  0.16794731777E+04  0.12699999809E+01 0.  1.
</event>
<event>
 5   0  0.1782660E-06  0.3407694E+04  0.7818609E-02  0.8136020E-01
       -2   -1    0    0    0  501  0.00000000000E+00  0.00000000000E+00  0.14337827775E+04  0.14337827775E+04  0.25500000920E-02 0.  1.
        2   -1    0    0  501    0  0.00000000000E+00  0.00000000000E+00 -0.20247805186E+04  0.20247805186E+04  0.25500000920E-02 0. -1.
    10030    2    1    2    0    0  0.00000000000E+00  0.00000000000E+00 -0.59099774109E+03  0.34585632960E+04  0.34076944908E+04 0.  0.
        4    1    3    3  502    0 -0.70312731321E+03  0.15000168183E+04 -0.69976041933E+03  0.17983616797E+04  0.12699999809E+01 0. -1.
       -4    1    3    3    0  502  0.70312731321E+03 -0.15000168183E+04  0.10876267824E+03  0.16602016163E+04  0.12699999809E+01 0.  1.
</event>
<event>
 5   0  0.3378848E-06  0.3809571E+04  0.7818609E-02  0.8044104E-01
       -2   -1    0    0    0  501  0.00000000000E+00  0.00000000000E+00  0.14187504840E+04  0.14187504840E+04  0.25500000920E-02 0. -1.
        2   -1    0    0  501    0  0.00000000000E+00  0.00000000000E+00 -0.25573261529E+04  0.25573261529E+04  0.25500000920E-02 0.  1.
    10030    2    1    2    0    0  0.00000000000E+00  0.00000000000E+00 -0.11385756689E+04  0.39760766370E+04  0.38095709561E+04 0.  0.
        1    1    3    3  502    0 -0.87541627815E+03  0.13525052203E+04  0.49128697898E+03  0.16843357524E+04  0.50400001928E-02 0.  1.
       -1    1    3    3    0  502  0.87541627815E+03 -0.13525052203E+04 -0.16298626479E+04  0.22917408846E+04  0.50400001928E-02 0. -1.
</event>
<event>
 5   0  0.1130707E-06  0.2497822E+04  0.7818609E-02  0.8403762E-01
       -1   -1    0    0    0  501  0.00000000000E+00  0.00000000000E+00  0.91910061996E+03  0.91910061998E+03  0.50400001928E-02 0. -1.
        1   -1    0    0  501    0  0.00000000000E+00  0.00000000000E+00 -0.16970710046E+04  0.16970710046E+04  0.50400001928E-02 0.  1.
    10030    2    1    2    0    0  0.00000000000E+00  0.00000000000E+00 -0.77797038467E+03  0.26161716246E+04  0.24978222615E+04 0.  0.
        3    1    3    3  502    0 -0.10104220438E+04  0.41930066931E+03  0.24206795092E+03  0.11204296769E+04  0.10100000352E+00 0.  1.
       -3    1    3    3    0  502  0.10104220438E+04 -0.41930066931E+03 -0.10200383356E+04  0.14957419477E+04  0.10100000352E+00 0. -1.
</event>
<event>
 5   0  0.2565004E-06  0.2932146E+04  0.7818609E-02  0.8263377E-01
       -2   -1    0    0    0  501  0.00000000000E+00  0.00000000000E+00  0.26762933249E+04  0.26762933249E+04  0.25500000920E-02 0. -1.
        2   -1    0    0  501    0  0.00000000000E+00  0.00000000000E+00 -0.80311452883E+03  0.80311452884E+03  0.25500000920E-02 0.  1.
    10030    2    1    2    0    0  0.00000000000E+00  0.00000000000E+00  0.18731787961E+04  0.34794078537E+04  0.29321460077E+04 0.  0.
        3    1    3    3  502    0  0.86190403208E+03  0.63054508773E+03 -0.25532413143E+03  0.10980237204E+04  0.10100000352E+00 0.  1.
       -3    1    3    3    0  502 -0.86190403208E+03 -0.63054508773E+03  0.21285029275E+04  0.23813841334E+04  0.10100000352E+00 0. -1.
</event>
<event>
 5   0  0.3378848E-06  0.2182226E+04  0.7818609E-02  0.8525863E-01
       -2   -1    0    0    0  501  0.00000000000E+00  0.00000000000E+00  0.53696836699E+03  0.53696836700E+03  0.25500000920E-02 0.  1.
        2   -1    0    0  501    0  0.00000000000E+00  0.00000000000E+00 -0.22171277021E+04  0.22171277021E+04  0.25500000920E-02 0. -1.
    10030    2    1    2    0    0  0.00000000000E+00  0.00000000000E+00 -0.16801593351E+04  0.27540960691E+04  0.21822258743E+04 0.  0.
        1    1    3    3  502    0  0.81217150330E+03  0.31009624679E+02  0.78663420876E+02  0.81656113146E+03  0.50400001928E-02 0.  1.
       -1    1    3    3    0  502 -0.81217150330E+03 -0.31009624679E+02 -0.17588227559E+04  0.19375349376E+04  0.50400001928E-02 0. -1.
</event>
<event>
 5   0  0.1110956E-06  0.3484117E+04  0.7818609E-02  0.8117564E-01
       -1   -1    0    0    0  501  0.00000000000E+00  0.00000000000E+00  0.34018132204E+04  0.34018132204E+04  0.50400001928E-02 0. -1.
        1   -1    0    0  501    0  0.00000000000E+00  0.00000000000E+00 -0.89210320904E+03  0.89210320906E+03  0.50400001928E-02 0.  1.
    10030    2    1    2    0    0  0.00000000000E+00  0.00000000000E+00  0.25097100114E+04  0.42939164295E+04  0.34841173864E+04 0.  0.
        1    1    3    3  502    0  0.31159376380E+03 -0.15925581550E+04  0.20357077682E+04  0.26033513532E+04  0.50400001928E-02 0. -1.
       -1    1    3    3    0  502 -0.31159376380E+03  0.15925581550E+04  0.47400224315E+03  0.16905650763E+04  0.50400001928E-02 0.  1.
</event>
<event>
 5   0  0.2565004E-06  0.2002144E+04  0.7818609E-02  0.8605619E-01
        2   -1    0    0  501    0  0.00000000000E+00  0.00000000000E+00  0.22065182103E+04  0.22065182104E+04  0.25500000920E-02 0.  1.
       -2   -1    0    0    0  501  0.00000000000E+00  0.00000000000E+00 -0.45417500290E+03  0.45417500291E+03  0.25500000920E-02 0. -1.
    10030    2    1    2    0    0  0.00000000000E+00  0.00000000000E+00  0.17523432074E+04  0.26606932133E+04  0.20021442651E+04 0.  0.
        3    1    3    3  502    0  0.35988939884E+03 -0.87508887657E+03  0.44178593801E+03  0.10442584673E+04  0.10100000352E+00 0. -1.
       -3    1    3    3    0  502 -0.35988939884E+03  0.87508887657E+03  0.13105572694E+04  0.16164347460E+04  0.10100000352E+00 0.  1.
</event>
<event>
 5   0  0.3041329E-06  0.1809854E+04  0.7818609E-02  0.8701076E-01
       -2   -1    0    0    0  501  0.00000000000E+00  0.00000000000E+00  0.72243314519E+03  0.72243314519E+03  0.25500000920E-02 0.  1.
        2   -1    0    0  501    0  0.00000000000E+00  0.00000000000E+00 -0.11335212067E+04  0.11335212067E+04  0.25500000920E-02 0. -1.
    10030    2    1    2    0    0  0.00000000000E+00  0.00000000000E+00 -0.41108806147E+03  0.18559543519E+04  0.18098544588E+04 0.  0.
        2    1    3    3  502    0 -0.84824129290E+03  0.92454777374E+02 -0.51460442076E+03  0.99643308191E+03  0.25500000920E-02 0. -1.
       -2    1    3    3    0  502  0.84824129290E+03 -0.92454777374E+02  0.10351635929E+03  0.85952126995E+03  0.25500000920E-02 0.  1.
</event>
<event>
 5   0  0.2565004E-06  0.3540284E+04  0.7818609E-02  0.8104309E-01
       -2   -1    0    0    0  501  0.00000000000E+00  0.00000000000E+00  0.12259554404E+04  0.12259554404E+04  0.25500000920E-02 0.  1.
        2   -1    0    0  501    0  0.00000000000E+00  0.00000000000E+00 -0.25558863092E+04  0.25558863092E+04  0.25500000920E-02 0. -1.
    10030    2    1    2    0    0  0.00000000000E+00  0.00000000000E+00 -0.13299308688E+04  0.37818417496E+04  0.35402840145E+04 0.  0.
        3    1    3    3  502    0 -0.83069335024E+03 -0.14608579229E+04 -0.12590070546E+04  0.20998228703E+04  0.10100000352E+00 0. -1.
       -3    1    3    3    0  502  0.83069335024E+03  0.14608579229E+04 -0.70923814216E+02  0.16820188794E+04  0.10100000352E+00 0.  1.
</event>
<event>
 5   0  0.1089337E-06  0.3471155E+04  0.7818609E-02  0.8120660E-01
       -1   -1    0    0    0  501  0.00000000000E+00  0.00000000000E+00  0.11859740055E+04  0.11859740056E+04  0.50400001928E-02 0.  1.
        1   -1    0    0  501    0  0.00000000000E+00  0.00000000000E+00 -0.25398782366E+04  0.25398782366E+04  0.50400001928E-02 0. -1.
    10030    2    1    2    0    0  0.00000000000E+00  0.00000000000E+00 -0.13539042310E+04  0.37258522421E+04  0.34711551771E+04 0.  0.
        2    1    3    3  502    0 -0.45064431781E+03  0.12265452599E+04 -0.19030154919E+04  0.23084543613E+04  0.25500000920E-02 0. -1.
       -2    1    3    3    0  502  0.45064431781E+03 -0.12265452599E+04  0.54911126092E+03  0.14173978808E+04  0.25500000920E-02 0.  1.
</event>
<event>
 5   0  0.1130707E-06  0.3539226E+04  0.7818609E-02  0.8104556E-01
        1   -1    0    0  501    0  0.00000000000E+00  0.00000000000E+00  0.10923459851E+04  0.10923459851E+04  0.50400001928E-02 0. -1.
       -1   -1    0    0    0  501  0.00000000000E+00  0.00000000000E+00 -0.28667933514E+04  0.28667933514E+04  0.50400001928E-02 0.  1.
    10030    2    1    2    0    0  0.00000000000E+00  0.00000000000E+00 -0.17744473663E+04  0.39591393366E+04  0.35392260214E+04 0.  0.
        3    1    3    3  502    0  0.25512033696E+03  0.74984145191E+03  0.88298879950E+03  0.11861778195E+04  0.10100000352E+00 0. -1.
       -3    1    3    3    0  502 -0.25512033696E+03 -0.74984145191E+03 -0.26574361658E+04  0.27729615170E+04  0.10100000352E+00 0.  1.
</event>
<event>
 5   0  0.3041329E-06  0.3614831E+04  0.7818609E-02  0.8087103E-01
       -2   -1    0    0    0  501  0.00000000000E+00  0.00000000000E+00  0.14597028632E+04  0.14597028632E+04  0.25500000920E-02 0.  1.
        2   -1    0    0  501    0  0.00000000000E+00  0.00000000000E+00 -0.22379554217E+04  0.22379554217E+04  0.25500000920E-02 0. -1.
    10030    2    1    2    0    0  0.00000000000E+00  0.00000000000E+00 -0.77825255858E+03  0.36976582849E+04  0.36148305281E+04 0.  0.
        2    1    3    3  502    0  0.16610356163E+04  0.71168720551E+03 -0.35351567695E+03  0.18413341172E+04  0.25500000920E-02 0.  1.
       -2    1    3    3    0  502 -0.16610356163E+04 -0.71168720551E+03 -0.42473688163E+03  0.18563241678E+04  0.25500000920E-02 0. -1.
</event>
<event>
 5   0  0.1110956E-06  0.3505033E+04  0.7818609E-02  0.8112598E-01
        1   -1    0    0  501    0  0.00000000000E+00  0.00000000000E+00  0.14608061788E+04  0.14608061788E+04  0.50400001928E-02 0. -1.
       -1   -1    0    0    0  501  0.00000000000E+00  0.00000000000E+00 -0.21024792639E+04  0.21024792639E+04  0.50400001928E-02 0.  1.
    10030    2    1    2    0    0  0.00000000000E+00  0.00000000000E+00 -0.64167308518E+03  0.35632854427E+04  0.35050333519E+04 0.  0.
        1    1    3    3  502    0 -0.10975317723E+04  0.13604827917E+04 -0.44872583462E+03  0.18046729046E+04  0.50400001928E-02 0. -1.
       -1    1    3    3    0  502  0.10975317723E+04 -0.13604827917E+04 -0.19294725056E+03  0.17586125382E+04  0.50400001928E-02 0.  1.
</event>
<event>
 5   0  0.1110956E-06  0.3465733E+04  0.7818609E-02  0.8121959E-01
        1   -1    0    0  501    0  0.00000000000E+00  0.00000000000E+00  0.11146100505E+04  0.11146100505E+04  0.50400001928E-02 0.  1.
       -1   -1    0    0    0  501  0.00000000000E+00  0.00000000000E+00 -0.26940603110E+04  0.26940603110E+04  0.50400001928E-02 0. -1.
    10030    2    1    2    0    0  0.00000000000E+00  0.00000000000E+00 -0.15794502605E+04  0.38086703615E+04  0.34657332265E+04 0.  0.
        1    1    3    3  502    0 -0.70356562938E+03  0.15784123435E+04 -0.93061636126E+03  0.19627625768E+04  0.50400001928E-02 0. -1.
       -1    1    3    3    0  502  0.70356562938E+03 -0.15784123435E+04 -0.64883389923E+03  0.18459077847E+04  0.50400001928E-02 0.  1.
</event>
<event>
 5   0  0.1782660E-06  0.3482575E+04  0.7818609E-02  0.8117932E-01
        2   -1    0    0  501    0  0.00000000000E+00  0.00000000000E+00  0.12406133892E+04  0.12406133892E+04  0.25500000920E-02 0. -1.
       -2   -1    0    0    0  501  0.00000000000E+00  0.00000000000E+00 -0.24440186732E+04  0.24440186732E+04  0.25500000920E-02 0.  1.
    10030    2    1    2    0    0  0.00000000000E+00  0.00000000000E+00 -0.12034052839E+04  0.36846320624E+04  0.34825750757E+04 0.  0.
        4    1    3    3  502    0  0.63164388644E+03 -0.15561541069E+04 -0.11513899344E+03  0.16834037556E+04  0.12699999809E+01 0.  1.
       -4    1    3    3    0  502 -0.63164388644E+03  0.15561541069E+04 -0.10882662905E+04  0.20012283067E+04  0.12699999809E+01 0. -1.
</event>
<event>
 5   0  0.1110956E-06  0.2392903E+04  0.7818609E-02  0.8442165E-01
       -1   -1    0    0    0  501  0.00000000000E+00  0.00000000000E+00  0.91572760719E+03  0.91572760720E+03  0.50400001928E-02 0.  1.
        1   -1    0    0  501    0  0.00000000000E+00  0.00000000000E+00 -0.15632342510E+04  0.15632342510E+04  0.50400001928E-02 0. -1.
    10030    2    1    2    0    0  0.00000000000E+00  0.00000000000E+00 -0.64750664383E+03  0.24789618582E+04  0.23929034750E+04 0.  0.
        1    1    3    3  502    0 -0.82680743971E+02 -0.11786651597E+03 -0.15542274475E+04  0.15608816674E+04  0.50400001928E-02 0. -1.
       -1    1    3    3    0  502  0.82680743971E+02  0.11786651597E+03  0.90672080366E+03  0.91808019085E+03  0.50400001928E-02 0.  1.
</event>
<event>
 5   0  0.1089337E-06  0.3671214E+04  0.7818609E-02  0.8074371E-01
        1   -1    0    0  501    0  0.00000000000E+00  0.00000000000E+00  0.20966512444E+04  0.20966512444E+04  0.50400001928E-02 0.  1.
       -1   -1    0    0    0  501  0.00000000000E+00  0.00000000000E+00 -0.16070637718E+04  0.16070637718E+04  0.50400001928E-02 0. -1.
    10030    2    1    2    0    0  0.00000000000E+00  0.00000000000E+00  0.48958747257E+03  0.37037150161E+04  0.36712135633E+04 0.  0.
        2    1    3    3  502    0  0.15760840411E+04  0.21091939081E+03  0.11699314393E+04  0.19741498086E+04  0.25500000920E-02 0.  1.
       -2    1    3    3    0  502 -0.15760840411E+04 -0.21091939081E+03 -0.68034396669E+03  0.17295652076E+04  0.25500000920E-02 0. -1.
</event>
<event>
 5   0  0.1102175E-06  0.2318327E+04  0.7818609E-02  0.8470730E-01
       -1   -1    0    0    0  501  0.00000000000E+00  0.00000000000E+00  0.75472644213E+03  0.75472644215E+03  0.50400001928E-02 0.  1.
        1   -1    0    0  501    0  0.00000000000E+00  0.00000000000E+00 -0.17803274998E+04  0.17803274998E+04  0.50400001928E-02 0. -1.
    10030    2    1    2    0    0  0.00000000000E+00  0.00000000000E+00 -0.10256010576E+04  0.25350539419E+04  0.23183271898E+04 0.  0.
        5    1    3    3  502    0  0.51971492737E+02 -0.61373388452E+03 -0.15865706517E+04  0.17019397286E+04  0.46999998093E+01 0. -1.
       -5    1    3    3    0  502 -0.51971492737E+02  0.61373388452E+03  0.56096959401E+03  0.83311421334E+03  0.46999998093E+01 0.  1.
</event>
<event>
 5   0  0.1110956E-06  0.3439602E+04  0.7818609E-02  0.8128255E-01
       -1   -1    0    0    0  501  0.00000000000E+00  0.00000000000E+00  0.18940669246E+04  0.18940669246E+04  0.50400001928E-02 0. -1.
        1   -1    0    0  501    0  0.00000000000E+00  0.00000000000E+00 -0.15615684320E+04  0.15615684320E+04  0.50400001928E-02 0.  1.
    10030    2    1    2    0    0  0.00000000000E+00  0.00000000000E+00  0.33249849262E+03  0.34556353566E+04  0.34396017895E+04 0.  0.
        1    1    3    3  502    0  0.14262658566E+04  0.52986050709E+03  0.97168995862E+03  0.18053165447E+04  0.50400001928E-02 0. -1.
       -1    1    3    3    0  502 -0.14262658566E+04 -0.52986050709E+03 -0.63919146600E+03  0.16503188119E+04  0.50400001928E-02 0.  1.
</event>
<event>
 5   0  0.2565004E-06  0.3561523E+04  0.7818609E-02  0.8099363E-01
       -2   -1    0    0    0  501  0.00000000000E+00  0.00000000000E+00  0.12263954869E+04  0.12263954869E+04  0.25500000920E-02 0. -1.
        2   -1    0    0  501    0  0.00000000000E+00  0.00000000000E+00 -0.25857169919E+04  0.25857169919E+04  0.25500000920E-02 0.  1.
    10030    2    1    2    0    0  0.00000000000E+00  0.00000000000E+00 -0.13593215050E+04  0.38121124788E+04  0.35615230726E+04 0.  0.
        3    1    3    3  502    0  0.13622650972E+04 -0.30980953435E+03  0.50228226372E+03  0.14845994832E+04  0.10100000352E+00 0. -1.
       -3    1    3    3    0  502 -0.13622650972E+04  0.30980953435E+03 -0.18616037687E+04  0.23275129956E+04  0.10100000352E+00 0.  1.
</event>
<event>
 5   0  0.1089337E-06  0.2098676E+04  0.7818609E-02  0.8561827E-01
        1   -1    0    0  501    0  0.00000000000E+00  0.00000000000E+00  0.21761720022E+04  0.21761720022E+04  0.50400001928E-02 0. -1.
       -1   -1    0    0    0  501  0.00000000000E+00  0.00000000000E+00 -0.50598504524E+03  0.50598504527E+03  0.50400001928E-02 0.  1.
    10030    2    1    2    0    0  0.00000000000E+00  0.00000000000E+00  0.16701869569E+04  0.26821570475E+04  0.20986762390E+04 0.  0.
        2    1    3    3  502    0  0.60851827242E+03 -0.42000518642E+03 -0.11650760870E+03  0.74851377234E+03  0.25500000920E-02 0.  1.
       -2    1    3    3    0  502 -0.60851827242E+03  0.42000518642E+03  0.17866945656E+04  0.19336432751E+04  0.25500000920E-02 0. -1.
</event>
<event>
 5   0  0.1130707E-06  0.3992908E+04  0.7818609E-02  0.8005979E-01
       -1   -1    0    0    0  501  0.00000000000E+00  0.00000000000E+00  0.16605829116E+04  0.16605829117E+04  0.50400001928E-02 0. -1.
        1   -1    0    0  501    0  0.00000000000E+00  0.00000000000E+00 -0.24002582797E+04  0.24002582797E+04  0.50400001928E-02 0.  1.
    10030    2    1    2    0    0  0.00000000000E+00  0.00000000000E+00 -0.73967536809E+03  0.40608411914E+04  0.39929076538E+04 0.  0.
        3    1    3    3  502    0  0.81848079315E+02  0.13881466445E+04 -0.18267526923E+04  0.22957952051E+04  0.10100000352E+00 0.  1.
       -3    1    3    3    0  502 -0.81848079315E+02 -0.13881466445E+04  0.10870773242E+04  0.17650459863E+04  0.10100000352E+00 0. -1.
</event>
<event>
 5   0  0.2565004E-06  0.3483541E+04  0.7818609E-02  0.8117702E-01
        2   -1    0    0  501    0  0.00000000000E+00  0.00000000000E+00  0.25096701449E+04  0.25096701449E+04  0.25500000920E-02 0.  1.
       -2   -1    0    0    0  501  0.00000000000E+00  0.00000000000E+00 -0.12088297970E+04  0.12088297970E+04  0.25500000920E-02 0. -1.
    10030    2    1    2    0    0  0.00000000000E+00  0.00000000000E+00  0.13008403479E+04  0.37184999419E+04  0.34835407572E+04 0.  0.
        3    1    3    3  502    0 -0.25840490573E+03 -0.81894967159E+03  0.22679875032E+04  0.24251224680E+04  0.10100000352E+00 0.  1.
       -3    1    3    3    0  502  0.25840490573E+03  0.81894967159E+03 -0.96714715523E+03  0.12933774739E+04  0.10100000352E+00 0. -1.
</event>
<event>
 5   0  0.1110956E-06  0.2385213E+04  0.7818609E-02  0.8445060E-01
        1   -1    0    0  501    0  0.00000000000E+00  0.00000000000E+00  0.80153587640E+03  0.80153587641E+03  0.50400001928E-02 0. -1.
       -1   -1    0    0    0  501  0.00000000000E+00  0.00000000000E+00 -0.17744809915E+04  0.17744809915E+04  0.50400001928E-02 0.  1.
    10030    2    1    2    0    0  0.00000000000E+00  0.00000000000E+00 -0.97294511507E+03  0.25760168679E+04  0.23852129269E+04 0.  0.
        1    1    3    3  502    0 -0.10964316211E+04 -0.46533256829E+03 -0.42155169983E+03  0.12634882407E+04  0.50400001928E-02 0.  1.
       -1    1    3    3    0  502  0.10964316211E+04  0.46533256829E+03 -0.55139341524E+03  0.13125286272E+04  0.50400001928E-02 0. -1.
</event>
<event>
 5   0  0.1782660E-06  0.3528093E+04  0.7818609E-02  0.8107164E-01
       -2   -1    0    0    0  501  0.00000000000E+00  0.00000000000E+00  0.17329726347E+04  0.17329726347E+04  0.25500000920E-02 0. -1.
        2   -1    0    0  501    0  0.00000000000E+00  0.00000000000E+00 -0.17956773248E+04  0.17956773248E+04  0.25500000920E-02 0.  1.
    10030    2    1    2    0    0  0.00000000000E+00  0.00000000000E+00 -0.62704690047E+02  0.35286499595E+04  0.35280927792E+04 0.  0.
        4    1    3    3  502    0  0.60533490083E+03  0.16392626466E+04  0.21002719744E+03  0.17600356256E+04  0.12699999809E+01 0. -1.
       -4    1    3    3    0  502 -0.60533490083E+03 -0.16392626466E+04 -0.27273188748E+03  0.17686143339E+04  0.12699999809E+01 0.  1.
</event>
<event>
 5   0  0.1102175E-06  0.1726842E+04  0.7818609E-02  0.8746202E-01
        1   -1    0    0  501    0  0.00000000000E+00  0.00000000000E+00  0.17815921021E+04  0.17815921022E+04  0.50400001928E-02 0.  1.
       -1   -1    0    0    0  501  0.00000000000E+00  0.00000000000E+00 -0.41844373676E+03  0.41844373679E+03  0.50400001928E-02 0. -1.
    10030    2    1    2    0    0  0.00000000000E+00  0.00000000000E+00  0.13631483654E+04  0.22000358389E+04  0.17268422703E+04 0.  0.
        5    1    3    3  502    0 -0.77066844753E+03 -0.11455952764E+03  0.20757579928E+03  0.80632719403E+03  0.46999998093E+01 0. -1.
       -5    1    3    3    0  502  0.77066844753E+03  0.11455952764E+03  0.11555725661E+04  0.13937086449E+04  0.46999998093E+01 0.  1.
</event>
<event>
 5   0  0.1908726E-06  0.1864032E+04  0.7818609E-02  0.8672970E-01
        2   -1    0    0  501    0  0.00000000000E+00  0.00000000000E+00  0.21260943861E+04  0.21260943861E+04  0.25500000920E-02 0. -1.
       -2   -1    0    0    0  501  0.00000000000E+00  0.00000000000E+00 -0.40856789892E+03  0.40856789892E+03  0.25500000920E-02 0.  1.
    10030    2    1    2    0    0  0.00000000000E+00  0.00000000000E+00  0.17175264872E+04  0.25346622851E+04  0.18640320987E+04 0.  0.
        5    1    3    3  502    0 -0.61542046316E+03 -0.59990477371E+03  0.36848271795E+03  0.93510945211E+03  0.46999998093E+01 0.  1.
       -5    1    3    3    0  502  0.61542046316E+03  0.59990477371E+03  0.13490437693E+04  0.15995528329E+04  0.46999998093E+01 0. -1.
</event>
<event>
 5   0  0.1908726E-06  0.3566565E+04  0.7818609E-02  0.8098194E-01
       -2   -1    0    0    0  501  0.00000000000E+00  0.00000000000E+00  0.22510788421E+04  0.22510788421E+04  0.25500000920E-02 0. -1.
        2   -1    0    0  501    0  0.00000000000E+00  0.00000000000E+00 -0.14126987445E+04  0.14126987445E+04  0.25500000920E-02 0.  1.
    10030    2    1    2    0    0  0.00000000000E+00  0.00000000000E+00  0.83838009760E+03  0.36637775867E+04  0.35665648762E+04 0.  0.
        5    1    3    3  502    0  0.48101652897E+03  0.17148976966E+04  0.32833064348E+03  0.18110974884E+04  0.46999998093E+01 0.  1.
       -5    1    3    3    0  502 -0.48101652897E+03 -0.17148976966E+04  0.51004945412E+03  0.18526800983E+04  0.46999998093E+01 0. -1.
</event>
<event>
 5   0  0.1125196E-06  0.3577030E+04  0.7818609E-02  0.8095774E-01
        1   -1    0    0  501    0  0.00000000000E+00  0.00000000000E+00  0.12527855468E+04  0.12527855468E+04  0.50400001928E-02 0.  1.
       -1   -1    0    0    0  501  0.00000000000E+00  0.00000000000E+00 -0.25533389473E+04  0.25533389474E+04  0.50400001928E-02 0. -1.
    10030    2    1    2    0    0  0.00000000000E+00  0.00000000000E+00 -0.13005534006E+04  0.38061244941E+04  0.35770301252E+04 0.  0.
        4    1    3    3  502    0 -0.12712558046E+04  0.12523923069E+04 -0.52345105651E+03  0.18597259026E+04  0.12699999809E+01 0.  1.
       -4    1    3    3    0  502  0.12712558046E+04 -0.12523923069E+04 -0.77710234408E+03  0.19463985916E+04  0.12699999809E+01 0. -1.
</event>
<event>
 5   0  0.3378848E-06  0.3434726E+04  0.7818609E-02  0.8129436E-01
       -2   -1    0    0    0  501  0.00000000000E+00  0.00000000000E+00  0.11883611829E+04  0.11883611829E+04  0.25500000920E-02 0. -1.
        2   -1    0    0  501    0  0.00000000000E+00  0.00000000000E+00 -0.24818513088E+04  0.24818513088E+04  0.25500000920E-02 0.  1.
    10030    2    1    2    0    0  0.00000000000E+00  0.00000000000E+00 -0.12934901259E+04  0.36702124917E+04  0.34347260485E+04 0.  0.
        1    1    3    3  502    0 -0.63365411816E+03 -0.94217113531E+03  0.73005344074E+03  0.13498822230E+04  0.50400001928E-02 0. -1.
       -1    1    3    3    0  502  0.63365411816E+03  0.94217113531E+03 -0.20235435666E+04  0.23203302687E+04  0.50400001928E-02 0.  1.
</event>
<event>
 5   0  0.1908726E-06  0.3658701E+04  0.7818609E-02  0.8077176E-01
       -2   -1    0    0    0  501  0.00000000000E+00  0.00000000000E+00  0.12764784545E+04  0.12764784545E+04  0.25500000920E-02 0. -1.
        2   -1    0    0  501    0  0.00000000000E+00  0.00000000000E+00 -0.26216837074E+04  0.26216837074E+04  0.25500000920E-02 0.  1.
    10030    2    1    2    0    0  0.00000000000E+00  0.00000000000E+00 -0.13452052529E+04  0.38981621618E+04  0.36587007349E+04 0.  0.
        5    1    3    3  502    0 -0.97764773107E+03  0.12527446531E+03  0.96936998583E+03  0.13824576077E+04  0.46999998093E+01 0. -1.
       -5    1    3    3    0  502  0.97764773107E+03 -0.12527446531E+03 -0.23145752387E+04  0.25157045541E+04  0.46999998093E+01 0.  1.
</event>
<event>
 5   0  0.1130707E-06  0.3471344E+04  0.7818609E-02  0.8120615E-01
       -1   -1    0    0    0  501  0.00000000000E+00  0.00000000000E+00  0.24785142399E+04  0.24785142399E+04  0.50400001928E-02 0.  1.
        1   -1    0    0  501    0  0.00000000000E+00  0.00000000000E+00 -0.12154690070E+04  0.12154690070E+04  0.50400001928E-02 0. -1.
    10030    2    1    2    0    0  0.00000000000E+00  0.00000000000E+00  0.12630452329E+04  0.36939832469E+04  0.34713439714E+04 0.  0.
        3    1    3    3  502    0 -0.13701207730E+04 -0.90366971563E+01  0.17653371027E+04  0.22346650064E+04  0.10100000352E+00 0.  1.
       -3    1    3    3    0  502  0.13701207730E+04  0.90366971563E+01 -0.50229186978E+03  0.14593182405E+04  0.10100000352E+00 0. -1.
</event>
<event>
 5   0  0.1908726E-06  0.3646930E+04  0.7818609E-02  0.8079826E-01
       -2   -1    0    0    0  501  0.00000000000E+00  0.00000000000E+00  0.14792128406E+04  0.14792128406E+04  0.25500000920E-02 0.  1.
        2   -1    0    0  501    0  0.00000000000E+00  0.00000000000E+00 -0.22478343219E+04  0.22478343219E+04  0.25500000920E-02 0. -1.
    10030    2    1    2    0    0  0.00000000000E+00  0.00000000000E+00 -0.76862148126E+03  0.37270471625E+04  0.36469304312E+04 0.  0.
        5    1    3    3  502    0  0.21670653621E+03 -0.14721698693E+04  0.69276694404E+03  0.16414000048E+04  0.46999998093E+01 0.  1.
       -5    1    3    3    0  502 -0.21670653621E+03  0.14721698693E+04 -0.14613884253E+04  0.20856471577E+04  0.46999998093E+01 0. -1.
</event>
<event>
 5   0  0.2565004E-06  0.3457270E+04  0.7818609E-02  0.8123992E-01
        2   -1    0    0  501    0  0.00000000000E+00  0.00000000000E+00  0.22328753412E+04  0.22328753412E+04  0.25500000920E-02 0. -1.
       -2   -1    0    0    0  501  0.00000000000E+00  0.00000000000E+00 -0.13382651954E+04  0.13382651954E+04  0.25500000920E-02 0.  1.
    10030    2    1    2    0    0  0.00000000000E+00  0.00000000000E+00  0.89461014585E+03  0.35711405366E+04  0.34572702265E+04 0.  0.
        3    1    3    3  502    0 -0.12034030609E+04 -0.65349726047E+03 -0.64240215680E+03  0.15125865720E+04  0.10100000352E+00 0.  1.
       -3    1    3    3    0  502  0.12034030609E+04  0.65349726047E+03  0.15370123027E+04  0.20585539646E+04  0.10100000352E+00 0. -1.
</event>
<event>
 5   0  0.1782660E-06  0.2144665E+04  0.7818609E-02  0.8541819E-01
       -2   -1    0    0    0  501  0.00000000000E+00  0.00000000000E+00  0.46601475836E+03  0.46601475836E+03  0.25500000920E-02 0.  1.
        2   -1    0    0  501    0  0.00000000000E+00  0.00000000000E+00 -0.24675114467E+04  0.24675114467E+04  0.25500000920E-02 0. -1.
    10030    2    1    2    0    0  0.00000000000E+00  0.00000000000E+00 -0.20014966883E+04  0.29335262050E+04  0.21446647762E+04 0.  0.
        4    1    3    3  502    0  0.65458353146E+03  0.22525254495E+03 -0.21209267703E+04  0.22310424215E+04  0.12699999809E+01 0. -1.
       -4    1    3    3    0  502 -0.65458353146E+03 -0.22525254495E+03  0.11943008204E+03  0.70248378348E+03  0.12699999809E+01 0.  1.
</event>
<event>
 5   0  0.1908726E-06  0.2321173E+04  0.7818609E-02  0.8469619E-01
        2   -1    0    0  501    0  0.00000000000E+00  0.00000000000E+00  0.29454938291E+04  0.29454938291E+04  0.25500000920E-02 0.  1.
       -2   -1    0    0    0  501  0.00000000000E+00  0.00000000000E+00 -0.45729557570E+03  0.45729557570E+03  0.25500000920E-02 0. -1.
    10030    2    1    2    0    0  0.00000000000E+00  0.00000000000E+00  0.24881982534E+04  0.34027894048E+04  0.23211732347E+04 0.  0.
        5    1    3    3  502    0  0.52809953184E+03 -0.10244515653E+04  0.10444402060E+04  0.15553994854E+04  0.46999998093E+01 0. -1.
       -5    1    3    3    0  502 -0.52809953184E+03  0.10244515653E+04  0.14437580474E+04  0.18473899195E+04  0.46999998093E+01 0.  1.
</event>
<event>
 5   0  0.1125196E-06  0.3591554E+04  0.7818609E-02  0.8092429E-01
       -1   -1    0    0    0  501  0.00000000000E+00  0.00000000000E+00  0.14985591476E+04  0.14985591476E+04  0.50400001928E-02 0.  1.
        1   -1    0    0  501    0  0.00000000000E+00  0.00000000000E+00 -0.21519438757E+04  0.21519438758E+04  0.50400001928E-02 0. -1.
    10030    2    1    2    0    0  0.00000000000E+00  0.00000000000E+00 -0.65338472814E+03  0.36505030234E+04  0.35915540815E+04 0.  0.
        4    1    3    3  502    0 -0.88116949407E+03  0.75290614823E+03 -0.17208787039E+04  0.20747897416E+04  0.12699999809E+01 0. -1.
       -4    1    3    3    0  502  0.88116949407E+03 -0.75290614823E+03  0.10674939757E+04  0.15757132818E+04  0.12699999809E+01 0.  1.
</event>
<event>
 5   0  0.1110956E-06  0.3501609E+04  0.7818609E-02  0.8113409E-01
       -1   -1    0    0    0  501  0.00000000000E+00  0.00000000000E+00  0.15082160107E+04  0.15082160107E+04  0.50400001928E-02 0.  1.
        1   -1    0    0  501    0  0.00000000000E+00  0.00000000000E+00 -0.20324117869E+04  0.20324117869E+04  0.50400001928E-02 0. -1.
    10030    2    1    2    0    0  0.00000000000E+00  0.00000000000E+00 -0.52419577617E+03  0.35406277976E+04  0.35016087716E+04 0.  0.
        1    1    3    3  502    0 -0.12165703267E+04 -0.68076487299E+03  0.80887020262E+03  0.16117553093E+04  0.50400001928E-02 0.  1.
       -1    1    3    3    0  502  0.12165703267E+04  0.68076487299E+03 -0.13330659788E+04  0.19288724883E+04  0.50400001928E-02 0. -1.
</event>
<event>
 5   0  0.3041329E-06  0.3365183E+04  0.7818609E-02  0.8146505E-01
       -2   -1    0    0    0  501  0.00000000000E+00  0.00000000000E+00  0.18905386957E+04  0.18905386957E+04  0.25500000920E-02 0. -1.
        2   -1    0    0  501    0  0.00000000000E+00  0.00000000000E+00 -0.14975168295E+04  0.14975168295E+04  0.25500000920E-02 0.  1.
    10030    2    1    2    0    0  0.00000000000E+00  0.00000000000E+00  0.39302186624E+03  0.33880555252E+04  0.33651826183E+04 0.  0.
        2    1    3    3  502    0 -0.13094926505E+04 -0.10556335044E+04  0.15170658821E+03  0.16888303604E+04  0.25500000920E-02 0.  1.
       -2    1    3    3    0  502  0.13094926505E+04  0.10556335044E+04  0.24131527803E+03  0.16992251648E+04  0.25500000920E-02 0. -1.
</event>
<event>
 5   0  0.1125196E-06  0.3395949E+04  0.7818609E-02  0.8138901E-01
        1   -1    0    0  501    0  0.00000000000E+00  0.00000000000E+00  0.20367363295E+04  0.20367363295E+04  0.50400001928E-02 0. -1.
       -1   -1    0    0    0  501  0.00000000000E+00  0.00000000000E+00 -0.14155575733E+04  0.14155575733E+04  0.50400001928E-02 0.  1.
    10030    2    1    2    0    0  0.00000000000E+00  0.00000000000E+00  0.62117875617E+03  0.34522939028E+04  0.33959490785E+04 0.  0.
        4    1    3    3  502    0  0.81458049827E+03  0.46605309371E+03 -0.11279397283E+04  0.14673092782E+04  0.12699999809E+01 0.  1.
       -4    1    3    3    0  502 -0.81458049827E+03 -0.46605309371E+03  0.17491184844E+04  0.19849846246E+04  0.12699999809E+01 0. -1.
</event>
<event>
 5   0  0.2565004E-06  0.2916201E+04  0.7818609E-02  0.8268073E-01
       -2   -1    0    0    0  501  0.00000000000E+00  0.00000000000E+00  0.73106139027E+03  0.73106139028E+03  0.25500000920E-02 0.  1.
        2   -1    0    0  501    0  0.00000000000E+00  0.00000000000E+00 -0.29081793515E+04  0.29081793515E+04  0.25500000920E-02 0. -1.
    10030    2    1    2    0    0  0.00000000000E+00  0.00000000000E+00 -0.21771179612E+04  0.36392407418E+04  0.29162013921E+04 0.  0.
        3    1    3    3  502    0 -0.98964769837E+03 -0.65899411989E+03 -0.21418531607E+04  0.24497368816E+04  0.10100000352E+00 0. -1.
       -3    1    3    3    0  502  0.98964769837E+03  0.65899411989E+03 -0.35264800501E+02  0.11895038601E+04  0.10100000352E+00 0.  1.
</event>
<event>
 5   0  0.1125196E-06  0.3584488E+04  0.7818609E-02  0.8094054E-01
       -1   -1    0    0    0  501  0.00000000000E+00  0.00000000000E+00  0.12741413064E+04  0.12741413065E+04  0.50400001928E-02 0.  1.
        1   -1    0    0  501    0  0.00000000000E+00  0.00000000000E+00 -0.25210226903E+04  0.25210226904E+04  0.50400001928E-02 0. -1.
    10030    2    1    2    0    0  0.00000000000E+00  0.00000000000E+00 -0.12468813839E+04  0.37951639968E+04  0.35844883285E+04 0.  0.
        4    1    3    3  502    0 -0.33576569495E+02 -0.17571321030E+04 -0.25136488123E+03  0.17753384268E+04  0.12699999809E+01 0. -1.
       -4    1    3    3    0  502  0.33576569495E+02  0.17571321030E+04 -0.99551650268E+03  0.20198255700E+04  0.12699999809E+01 0.  1.
</event>
<event>
 5   0  0.3041329E-06  0.3622744E+04  0.7818609E-02  0.8085302E-01
        2   -1    0    0  501    0  0.00000000000E+00  0.00000000000E+00  0.10728464368E+04  0.10728464368E+04  0.25500000920E-02 0. -1.
       -2   -1    0    0    0  501  0.00000000000E+00  0.00000000000E+00 -0.30582826932E+04  0.30582826932E+04  0.25500000920E-02 0.  1.
    10030    2    1    2    0    0  0.00000000000E+00  0.00000000000E+00 -0.19854362564E+04  0.41311291299E+04  0.36227435404E+04 0.  0.
        2    1    3    3  502    0 -0.15916018517E+04  0.86428911384E+03 -0.95897580377E+03  0.20493478765E+04  0.25500000920E-02 0.  1.
       -2    1    3    3    0  502  0.15916018517E+04 -0.86428911384E+03 -0.10264604526E+04  0.20817812535E+04  0.25500000920E-02 0. -1.
</event>
<event>
 5   0  0.1130707E-06  0.2028897E+04  0.7818609E-02  0.8593228E-01
        1   -1    0    0  501    0  0.00000000000E+00  0.00000000000E+00  0.11796829736E+04  0.11796829736E+04  0.50400001928E-02 0. -1.
       -1   -1    0    0    0  501  0.00000000000E+00  0.00000000000E+00 -0.87235774958E+03  0.87235774959E+03  0.50400001928E-02 0.  1.
    10030    2    1    2    0    0  0.00000000000E+00  0.00000000000E+00  0.30732522400E+03  0.20520407232E+04  0.20288968274E+04 0.  0.
        3    1    3    3  502    0  0.98439153024E+03 -0.24351459213E+03  0.18190120930E+03  0.10302495336E+04  0.10100000352E+00 0.  1.
       -3    1    3    3    0  502 -0.98439153024E+03  0.24351459213E+03  0.12542401470E+03  0.10217911896E+04  0.10100000352E+00 0. -1.
</event>
<event>
 5   0  0.2565004E-06  0.3154542E+04  0.7818609E-02  0.8200927E-01
       -2   -1    0    0    0  501  0.00000000000E+00  0.00000000000E+00  0.13439629594E+04  0.13439629594E+04  0.25500000920E-02 0.  1.
        2   -1    0    0  501    0  0.00000000000E+00  0.00000000000E+00 -0.18510802164E+04  0.18510802164E+04  0.25500000920E-02 0. -1.
    10030    2    1    2    0    0  0.00000000000E+00  0.00000000000E+00 -0.50711725698E+03  0.31950431757E+04  0.31545416438E+04 0.  0.
        3    1    3    3  502    0 -0.79004019787E+02  0.82694320888E+03 -0.16115589233E+04  0.18130633964E+04  0.10100000352E+00 0. -1.
       -3    1    3    3    0  502  0.79004019787E+02 -0.82694320888E+03  0.11044416664E+04  0.13819797793E+04  0.10100000352E+00 0.  1.
</event>
<event>
 5   0  0.1125196E-06  0.2794512E+04  0.7818609E-02  0.8304974E-01
        1   -1    0    0  501    0  0.00000000000E+00  0.00000000000E+00  0.21532158805E+04  0.21532158805E+04  0.50400001928E-02 0.  1.
       -1   -1    0    0    0  501  0.00000000000E+00  0.00000000000E+00 -0.90670150970E+03  0.90670150972E+03  0.50400001928E-02 0. -1.
    10030    2    1    2    0    0  0.00000000000E+00  0.00000000000E+00  0.12465143708E+04  0.30599173902E+04  0.27945118283E+04 0.  0.
        4    1    3    3  502    0 -0.57151423260E+03 -0.10081339546E+04  0.14780102786E+04  0.18781582960E+04  0.12699999809E+01 0.  1.
       -4    1    3    3    0  502  0.57151423260E+03  0.10081339546E+04 -0.23149590778E+03  0.11817590942E+04  0.12699999809E+01 0. -1.
</event>
<event>
 5   0  0.1102175E-06  0.3531740E+04  0.7818609E-02  0.8106309E-01
        1   -1    0    0  501    0  0.00000000000E+00  0.00000000000E+00  0.15129760539E+04  0.15129760539E+04  0.50400001928E-02 0.  1.
       -1   -1    0    0    0  501  0.00000000000E+00  0.00000000000E+00 -0.20610355506E+04  0.20610355506E+04  0.50400001928E-02 0. -1.
    10030    2    1    2    0    0  0.00000000000E+00  0.00000000000E+00 -0.54805949663E+03  0.35740116045E+04  0.35317403270E+04 0.  0.
        5    1    3    3  502    0  0.12058766855E+04  0.12831799836E+04 -0.40822878932E+03  0.18075846551E+04  0.46999998093E+01 0. -1.
       -5    1    3    3    0  502 -0.12058766855E+04 -0.12831799836E+04 -0.13983070732E+03  0.17664269494E+04  0.46999998093E+01 0.  1.
</event>
<event>
 5   0  0.1908726E-06  0.3838191E+04  0.7818609E-02  0.8038009E-01
        2   -1    0    0  501    0  0.00000000000E+00  0.00000000000E+00  0.30486747506E+04  0.30486747506E+04  0.25500000920E-02 0. -1.
       -2   -1    0    0    0  501  0.00000000000E+00  0.00000000000E+00 -0.12080418836E+04  0.12080418836E+04  0.25500000920E-02 0.  1.
    10030    2    1    2    0    0  0.00000000000E+00  0.00000000000E+00  0.18406328670E+04  0.42567166343E+04  0.38381906093E+04 0.  0.
        5    1    3    3  502    0 -0.22320347783E+03 -0.15262809905E+04 -0.34591256772E+03  0.15808323912E+04  0.46999998093E+01 0.  1.
       -5    1    3    3    0  502  0.22320347783E+03  0.15262809905E+04  0.21865454347E+04  0.26758842431E+04  0.46999998093E+01 0. -1.
</event>
<event>
 5   0  0.3378848E-06  0.3470267E+04  0.7818609E-02  0.8120873E-01
       -2   -1    0    0    0  501  0.00000000000E+00  0.00000000000E+00  0.19536182471E+04  0.19536182471E+04  0.25500000920E-02 0. -1.
        2   -1    0    0  501    0  0.00000000000E+00  0.00000000000E+00 -0.15410831943E+04  0.15410831943E+04  0.25500000920E-02 0.  1.
    10030    2    1    2    0    0  0.00000000000E+00  0.00000000000E+00  0.41253505278E+03  0.34947014414E+04  0.34702669919E+04 0.  0.
        1    1    3    3  502    0  0.15810780439E+04 -0.70660479423E+03  0.31468303018E+03  0.17601487226E+04  0.50400001928E-02 0. -1.
       -1    1    3    3    0  502 -0.15810780439E+04  0.70660479423E+03  0.97852022600E+02  0.17345527188E+04  0.50400001928E-02 0.  1.
</event>
<event>
 5   0  0.1110956E-06  0.3454942E+04  0.7818609E-02  0.8124552E-01
       -1   -1    0    0    0  501  0.00000000000E+00  0.00000000000E+00  0.10750844918E+04  0.10750844918E+04  0.50400001928E-02 0. -1.
        1   -1    0    0  501    0  0.00000000000E+00  0.00000000000E+00 -0.27757407959E+04  0.27757407959E+04  0.50400001928E-02 0.  1.
    10030    2    1    2    0    0  0.00000000000E+00  0.00000000000E+00 -0.17006563041E+04  0.38508252877E+04  0.34549418999E+04 0.  0.
        1    1    3    3  502    0 -0.53249888938E+03  0.15087258570E+04 -0.12426618491E+03  0.16047588179E+04  0.50400001928E-02 0. -1.
       -1    1    3    3    0  502  0.53249888938E+03 -0.15087258570E+04 -0.15763901192E+04  0.22460664698E+04  0.50400001928E-02 0.  1.
</event>
<event>
 5   0  0.1102175E-06  0.2240864E+04  0.7818609E-02  0.8501609E-01
        1   -1    0    0  501    0  0.00000000000E+00  0.00000000000E+00  0.20834603385E+04  0.20834603385E+04  0.50400001928E-02 0. -1.
       -1   -1    0    0    0  501  0.00000000000E+00  0.00000000000E+00 -0.60253999426E+03  0.60253999428E+03  0.50400001928E-02 0.  1.
    10030    2    1    2    0    0  0.00000000000E+00  0.00000000000E+00  0.14809203443E+04  0.26860003328E+04  0.22408642801E+04 0.  0.
        5    1    3    3  502    0 -0.44184453491E+03  0.93274528800E+03  0.21783766830E+03  0.10548534045E+04  0.46999998093E+01 0.  1.
       -5    1    3    3    0  502  0.44184453491E+03 -0.93274528800E+03  0.12630826760E+04  0.16311469283E+04  0.46999998093E+01 0. -1.
</event>
<event>
 5   0  0.1782660E-06  0.3572053E+04  0.7818609E-02  0.8096923E-01
        2   -1    0    0  501    0  0.00000000000E+00  0.00000000000E+00  0.19818771409E+04  0.19818771409E+04  0.25500000920E-02 0. -1.
       -2   -1    0    0    0  501  0.00000000000E+00  0.00000000000E+00 -0.16095300768E+04  0.16095300768E+04  0.25500000920E-02 0.  1.
    10030    2    1    2    0    0  0.00000000000E+00  0.00000000000E+00  0.37234706417E+03  0.35914072177E+04  0.35720531165E+04 0.  0.
        4    1    3    3  502    0  0.25012471473E+03 -0.92522432699E+02  0.19617450581E+04  0.19797899029E+04  0.12699999809E+01 0. -1.
       -4    1    3    3    0  502 -0.25012471473E+03  0.92522432699E+02 -0.15893979939E+04  0.16116173149E+04  0.12699999809E+01 0.  1.
</event>
<event>
 5   0  0.1089337E-06  0.2204490E+04  0.7818609E-02  0.8516561E-01
       -1   -1    0    0    0  501  0.00000000000E+00  0.00000000000E+00  0.15096628754E+04  0.15096628754E+04  0.50400001928E-02 0.  1.
        1   -1    0    0  501    0  0.00000000000E+00  0.00000000000E+00 -0.80477865723E+03  0.80477865724E+03  0.50400001928E-02 0. -1.
    10030    2    1    2    0    0  0.00000000000E+00  0.00000000000E+00  0.70488421813E+03  0.23144415326E+04  0.22044903826E+04 0.  0.
        2    1    3    3  502    0  0.10065211752E+03 -0.64569809564E+03  0.12843438723E+04  0.14410399238E+04  0.25500000920E-02 0.  1.
       -2    1    3    3    0  502 -0.10065211752E+03  0.64569809564E+03 -0.57945965420E+03  0.87340160884E+03  0.25500000920E-02 0. -1.
</event>
<event>
 5   0  0.3041329E-06  0.3503723E+04  0.7818609E-02  0.8112908E-01
       -2   -1    0    0    0  501  0.00000000000E+00  0.00000000000E+00  0.18827457416E+04  0.18827457416E+04  0.25500000920E-02 0. -1.
        2   -1    0    0  501    0  0.00000000000E+00  0.00000000000E+00 -0.16300756038E+04  0.16300756038E+04  0.25500000920E-02 0.  1.
    10030    2    1    2    0    0  0.00000000000E+00  0.00000000000E+00  0.25267013787E+03  0.35128213454E+04  0.35037225355E+04 0.  0.
        2    1    3    3  502    0 -0.75727256234E+03  0.15792682766E+04  0.87922672387E+02  0.17536477467E+04  0.25500000920E-02 0.  1.
       -2    1    3    3    0  502  0.75727256234E+03 -0.15792682766E+04  0.16474746548E+03  0.17591735987E+04  0.25500000920E-02 0. -1.
</event>
<event>
 5   0  0.1125196E-06  0.3396523E+04  0.7818609E-02  0.8138760E-01
       -1   -1    0    0    0  501  0.00000000000E+00  0.00000000000E+00  0.14421807835E+04  0.14421807835E+04  0.50400001928E-02 0.  1.
        1   -1    0    0  501    0  0.00000000000E+00  0.00000000000E+00 -0.19998130648E+04  0.19998130648E+04  0.50400001928E-02 0. -1.
    10030    2    1    2    0    0  0.00000000000E+00  0.00000000000E+00 -0.55763228126E+03  0.34419938483E+04  0.33965229118E+04 0.  0.
        4    1    3    3  502    0 -0.13284427958E+03  0.95312966367E+03 -0.16968297501E+04  0.19507271906E+04  0.12699999809E+01 0. -1.
       -4    1    3    3    0  502  0.13284427958E+03 -0.95312966367E+03  0.11391974689E+04  0.14912666577E+04  0.12699999809E+01 0.  1.
</event>
<event>
 5   0  0.1782660E-06  0.3511470E+04  0.7818609E-02  0.8111077E-01
       -2   -1    0    0    0  501  0.00000000000E+00  0.00000000000E+00  0.17705826099E+04  0.17705826099E+04  0.25500000920E-02 0. -1.
        2   -1    0    0  501    0  0.00000000000E+00  0.00000000000E+00 -0.17410114293E+04  0.17410114293E+04  0.25500000920E-02 0.  1.
    10030    2    1    2    0    0  0.00000000000E+00  0.00000000000E+00  0.29571180547E+02  0.35115940392E+04  0.35114695273E+04 0.  0.
        4    1    3    3  502    0  0.77046538292E+03  0.62995095480E+02 -0.15616641846E+04  0.17425217149E+04  0.12699999809E+01 0.  1.
       -4    1    3    3    0  502 -0.77046538292E+03 -0.62995095480E+02  0.15912353652E+04  0.17690723243E+04  0.12699999809E+01 0. -1.
</event>
<event>
 5   0  0.1782660E-06  0.3188789E+04  0.7818609E-02  0.8191784E-01
       -2   -1    0    0    0  501  0.00000000000E+00  0.00000000000E+00  0.24180475914E+04  0.24180475914E+04  0.25500000920E-02 0.  1.
        2   -1    0    0  501    0  0.00000000000E+00  0.00000000000E+00 -0.10513001323E+04  0.10513001324E+04  0.25500000920E-02 0. -1.
    10030    2    1    2    0    0  0.00000000000E+00  0.00000000000E+00  0.13667474591E+04  0.34693477238E+04  0.31887889569E+04 0.  0.
        4    1    3    3  502    0 -0.92576546672E+03  0.41555090447E+03  0.20213572869E+04  0.22617716834E+04  0.12699999809E+01 0.  1.
       -4    1    3    3    0  502  0.92576546672E+03 -0.41555090447E+03 -0.65460982787E+03  0.12075760403E+04  0.12699999809E+01 0. -1.
</event>
<event>
 5   0  0.1125196E-06  0.1991789E+04  0.7818609E-02  0.8610469E-01
        1   -1    0    0  501    0  0.00000000000E+00  0.00000000000E+00  0.18140998514E+04  0.18140998515E+04  0.50400001928E-02 0.  1.
       -1   -1    0    0    0  501  0.00000000000E+00  0.00000000000E+00 -0.54672054428E+03  0.54672054431E+03  0.50400001928E-02 0. -1.
    10030    2    1    2    0    0  0.00000000000E+00  0.00000000000E+00  0.12673793072E+04  0.23608203958E+04  0.19917888023E+04 0.  0.
        4    1    3    3  502    0  0.38569694906E+03  0.63721930412E+03 -0.14984306137E+03  0.75977966148E+03  0.12699999809E+01 0. -1.
       -4    1    3    3    0  502 -0.38569694906E+03 -0.63721930412E+03  0.14172223685E+04  0.16010407343E+04  0.12699999809E+01 0.  1.
</event>
<event>
 5   0  0.1110956E-06  0.3479337E+04  0.7818609E-02  0.8118704E-01
       -1   -1    0    0    0  501  0.00000000000E+00  0.00000000000E+00  0.28806255318E+04  0.28806255318E+04  0.50400001928E-02 0.  1.
        1   -1    0    0  501    0  0.00000000000E+00  0.00000000000E+00 -0.10506215059E+04  0.10506215060E+04  0.50400001928E-02 0. -1.
    10030    2    1    2    0    0  0.00000000000E+00  0.00000000000E+00  0.18300040258E+04  0.39312470377E+04  0.34793373704E+04 0.  0.
        1    1    3    3  502    0 -0.14844789570E+04  0.89967642559E+03  0.78444448818E+03  0.19048487078E+04  0.50400001928E-02 0. -1.
       -1    1    3    3    0  502  0.14844789570E+04 -0.89967642559E+03  0.10455595377E+04  0.20263983299E+04  0.50400001928E-02 0.  1.
</event>
<event>
 5   0  0.1125196E-06  0.3527015E+04  0.7818609E-02  0.8107417E-01
       -1   -1    0    0    0  501  0.00000000000E+00  0.00000000000E+00  0.12977426625E+04  0.12977426626E+04  0.50400001928E-02 0. -1.
        1   -1    0    0  501    0  0.00000000000E+00  0.00000000000E+00 -0.23964368196E+04  0.23964368196E+04  0.50400001928E-02 0.  1.
    10030    2    1    2    0    0  0.00000000000E+00  0.00000000000E+00 -0.10986941571E+04  0.36941794822E+04  0.35270147711E+04 0.  0.
        4    1    3    3  502    0 -0.19591731976E+03 -0.40395534978E+03  0.12368824770E+04  0.13158432260E+04  0.12699999809E+01 0. -1.
       -4    1    3    3    0  502  0.19591731976E+03  0.40395534978E+03 -0.23355766340E+04  0.23783362561E+04  0.12699999809E+01 0.  1.
</event>
<event>
 5   0  0.1130707E-06  0.1881410E+04  0.7818609E-02  0.8664166E-01
       -1   -1    0    0    0  501  0.00000000000E+00  0.00000000000E+00  0.82648038421E+03  0.82648038422E+03  0.50400001928E-02 0. -1.
        1   -1    0    0  501    0  0.00000000000E+00  0.00000000000E+00 -0.10707156859E+04  0.10707156859E+04  0.50400001928E-02 0.  1.
    10030    2    1    2    0    0  0.00000000000E+00  0.00000000000E+00 -0.24423530168E+03  0.18971960701E+04  0.18814095901E+04 0.  0.
        3    1    3    3  502    0  0.74445350504E+03 -0.28299429109E+03 -0.62694662572E+03  0.10135871308E+04  0.10100000352E+00 0.  1.
       -3    1    3    3    0  502 -0.74445350504E+03  0.28299429109E+03  0.38271132404E+03  0.88360893935E+03  0.10100000352E+00 0. -1.
</event>
<event>
 5   0  0.3041329E-06  0.2359816E+04  0.7818609E-02  0.8454703E-01
        2   -1    0    0  501    0  0.00000000000E+00  0.00000000000E+00  0.16048733816E+04  0.16048733816E+04  0.25500000920E-02 0.  1.
       -2   -1    0    0    0  501  0.00000000000E+00  0.00000000000E+00 -0.86747181642E+03  0.86747181643E+03  0.25500000920E-02 0. -1.
    10030    2    1    2    0    0  0.00000000000E+00  0.00000000000E+00  0.73740156521E+03  0.24723451981E+04  0.23598156093E+04 0.  0.
        2    1    3    3  502    0  0.90243224490E+03  0.65035766412E+03 -0.43551753130E+02  0.11132141767E+04  0.25500000920E-02 0. -1.
       -2    1    3    3    0  502 -0.90243224490E+03 -0.65035766412E+03  0.78095331834E+03  0.13591310214E+04  0.25500000920E-02 0.  1.
</event>
<event>
 5   0  0.1125196E-06  0.3289578E+04  0.7818609E-02  0.8165552E-01
       -1   -1    0    0    0  501  0.00000000000E+00  0.00000000000E+00  0.23683391210E+04  0.23683391210E+04  0.50400001928E-02 0. -1.
        1   -1    0    0  501    0  0.00000000000E+00  0.00000000000E+00 -0.11422902451E+04  0.11422902451E+04  0.50400001928E-02 0.  1.
    10030    2    1    2    0    0  0.00000000000E+00  0.00000000000E+00  0.12260488759E+04  0.35106293661E+04  0.32895778908E+04 0.  0.
        4    1    3    3  502    0  0.31627318448E+03  0.12874561891E+04  0.16519711758E+04  0.21181554581E+04  0.12699999809E+01 0. -1.
       -4    1    3    3    0  502 -0.31627318448E+03 -0.12874561891E+04 -0.42592229989E+03  0.13924739080E+04  0.12699999809E+01 0.  1.
</event>
<event>
 5   0  0.1102175E-06  0.3449239E+04  0.7818609E-02  0.8125926E-01
       -1   -1    0    0    0  501  0.00000000000E+00  0.00000000000E+00  0.12811945608E+04  0.12811945609E+04  0.50400001928E-02 0.  1.
        1   -1    0    0  501    0  0.00000000000E+00  0.00000000000E+00 -0.23215155426E+04  0.23215155426E+04  0.50400001928E-02 0. -1.
    10030    2    1    2    0    0  0.00000000000E+00  0.00000000000E+00 -0.10403209817E+04  0.36027101035E+04  0.34492393864E+04 0.  0.
        5    1    3    3  502    0  0.48775274967E+02 -0.13644668349E+04 -0.16206737814E+04  0.21191400064E+04  0.46999998093E+01 0. -1.
       -5    1    3    3    0  502 -0.48775274967E+02  0.13644668349E+04  0.58035279966E+03  0.14835700971E+04  0.46999998093E+01 0.  1.
</event>
<event>
 5   0  0.3378848E-06  0.3512309E+04  0.7818609E-02  0.8110879E-01
        2   -1    0    0  501    0  0.00000000000E+00  0.00000000000E+00  0.25355551096E+04  0.25355551096E+04  0.25500000920E-02 0.  1.
       -2   -1    0    0    0  501  0.00000000000E+00  0.00000000000E+00 -0.12163324826E+04  0.12163324826E+04  0.25500000920E-02 0. -1.
    10030    2    1    2    0    0  0.00000000000E+00  0.00000000000E+00  0.13192226270E+04  0.37518875922E+04  0.35123086659E+04 0.  0.
        1    1    3    3  502    0 -0.14722332803E+04  0.30278247365E+03 -0.31059855451E+03  0.15348027626E+04  0.50400001928E-02 0. -1.
       -1    1    3    3    0  502  0.14722332803E+04 -0.30278247365E+03  0.16298211815E+04  0.22170848296E+04  0.50400001928E-02 0.  1.
</event>
<event>
 5   0  0.1782660E-06  0.3449930E+04  0.7818609E-02  0.8125759E-01
        2   -1    0    0  501    0  0.00000000000E+00  0.00000000000E+00  0.27021669610E+04  0.27021669610E+04  0.25500000920E-02 0. -1.
       -2   -1    0    0    0  501  0.00000000000E+00  0.00000000000E+00 -0.11011550190E+04  0.11011550190E+04  0.25500000920E-02 0.  1.
    10030    2    1    2    0    0  0.00000000000E+00  0.00000000000E+00  0.16010119420E+04  0.38033219800E+04  0.34499302667E+04 0.  0.
        4    1    3    3  502    0 -0.38389884546E+03 -0.16658602205E+04  0.10543880337E+04  0.20085328816E+04  0.12699999809E+01 0. -1.
       -4    1    3    3    0  502  0.38389884546E+03  0.16658602205E+04  0.54662390827E+03  0.17947890984E+04  0.12699999809E+01 0.  1.
</event>
<event>
 5   0  0.1110956E-06  0.2011061E+04  0.7818609E-02  0.8601467E-01
        1   -1    0    0  501    0  0.00000000000E+00  0.00000000000E+00  0.53306931151E+03  0.53306931153E+03  0.50400001928E-02 0. -1.
       -1   -1    0    0    0  501  0.00000000000E+00  0.00000000000E+00 -0.18967348346E+04  0.18967348346E+04  0.50400001928E-02 0.  1.
    10030    2    1    2    0    0  0.00000000000E+00  0.00000000000E+00 -0.13636655231E+04  0.24298041461E+04  0.20110605485E+04 0.  0.
        1    1    3    3  502    0 -0.36503952924E+03 -0.60073626902E+03  0.18687107672E+03  0.72736422936E+03  0.50400001928E-02 0. -1.
       -1    1    3    3    0  502  0.36503952924E+03  0.60073626902E+03 -0.15505365998E+04  0.17024399168E+04  0.50400001928E-02 0.  1.
</event>
<event>
 5   0  0.3378848E-06  0.2023444E+04  0.7818609E-02  0.8595738E-01
       -2   -1    0    0    0  501  0.00000000000E+00  0.00000000000E+00  0.12021047020E+04  0.12021047020E+04  0.25500000920E-02 0. -1.
        2   -1    0    0  501    0  0.00000000000E+00  0.00000000000E+00 -0.85149102513E+03  0.85149102513E+03  0.25500000920E-02 0.  1.
    10030    2    1    2    0    0  0.00000000000E+00  0.00000000000E+00  0.35061367687E+03  0.20535957271E+04  0.20234439602E+04 0.  0.
        1    1    3    3  502    0 -0.16971320278E+03  0.42795912269E+03  0.10896363944E+04  0.11829028083E+04  0.50400001928E-02 0. -1.
       -1    1    3    3    0  502  0.16971320278E+03 -0.42795912269E+03 -0.73902271751E+03  0.87069291884E+03  0.50400001928E-02 0.  1.
</event>
<event>
 5   0  0.3378848E-06  0.2569842E+04  0.7818609E-02  0.8378518E-01
        2   -1    0    0  501    0  0.00000000000E+00  0.00000000000E+00  0.16829879025E+04  0.16829879025E+04  0.25500000920E-02 0. -1.
       -2   -1    0    0    0  501  0.00000000000E+00  0.00000000000E+00 -0.98100664240E+03  0.98100664241E+03  0.25500000920E-02 0.  1.
    10030    2    1    2    0    0  0.00000000000E+00  0.00000000000E+00  0.70198126005E+03  0.26639945449E+04  0.25698422608E+04 0.  0.
        1    1    3    3  502    0 -0.59852390600E+03 -0.39384544663E+03  0.14566882977E+04  0.16233563683E+04  0.50400001928E-02 0. -1.
       -1    1    3    3    0  502  0.59852390600E+03  0.39384544663E+03 -0.75470703762E+03  0.10406381766E+04  0.50400001928E-02 0.  1.
</event>
<event>
 5   0  0.1908726E-06  0.1784393E+04  0.7818609E-02  0.8714643E-01
       -2   -1    0    0    0  501  0.00000000000E+00  0.00000000000E+00  0.66855324493E+03  0.66855324494E+03  0.25500000920E-02 0.  1.
        2   -1    0    0  501    0  0.00000000000E+00  0.00000000000E+00 -0.11906525905E+04  0.11906525905E+04  0.25500000920E-02 0. -1.
    10030    2    1    2    0    0  0.00000000000E+00  0.00000000000E+00 -0.52209934561E+03  0.18592058355E+04  0.17843930654E+04 0.  0.
        5    1    3    3  502    0 -0.76353909984E+02 -0.82454611655E+03 -0.60706697782E+03  0.10267709693E+04  0.46999998093E+01 0.  1.
       -5    1    3    3    0  502  0.76353909984E+02  0.82454611655E+03  0.84967632209E+02  0.83243486616E+03  0.46999998093E+01 0. -1.
</event>
<event>
 5   0  0.1102175E-06  0.2905928E+04  0.7818609E-02  0.8271116E-01
       -1   -1    0    0    0  501  0.00000000000E+00  0.00000000000E+00  0.93593343983E+03  0.93593343984E+03  0.50400001928E-02 0. -1.
        1   -1    0    0  501    0  0.00000000000E+00  0.00000000000E+00 -0.22556142340E+04  0.22556142341E+04  0.50400001928E-02 0.  1.
    10030    2    1    2    0    0  0.00000000000E+00  0.00000000000E+00 -0.13196807942E+04  0.31915476739E+04  0.29059282779E+04 0.  0.
        5    1    3    3  502    0  0.31273522929E+03  0.46079050557E+03 -0.21337384729E+04  0.22052195298E+04  0.46999998093E+01 0.  1.
       -5    1    3    3    0  502 -0.31273522929E+03 -0.46079050557E+03  0.81405767869E+03  0.98632814413E+03  0.46999998093E+01 0. -1.
</event>
<event>
 5   0  0.1110956E-06  0.3522846E+04  0.7818609E-02  0.8108397E-01
        1   -1    0    0  501    0  0.00000000000E+00  0.00000000000E+00  0.16864873249E+04  0.16864873249E+04  0.50400001928E-02 0. -1.
       -1   -1    0    0    0  501  0.00000000000E+00  0.00000000000E+00 -0.18396882583E+04  0.18396882583E+04  0.50400001928E-02 0.  1.
    10030    2    1    2    0    0  0.00000000000E+00  0.00000000000E+00 -0.15320093337E+03  0.35261755832E+04  0.35228459685E+04 0.  0.
        1    1    3    3  502    0  0.16780298727E+04  0.31962950845E+03 -0.50673171127E+03  0.17817756041E+04  0.50400001928E-02 0.  1.
       -1    1    3    3    0  502 -0.16780298727E+04 -0.31962950845E+03  0.35353077790E+03  0.17443999791E+04  0.50400001928E-02 0. -1.
</event>
<event>
 5   0  0.1089337E-06  0.3560426E+04  0.7818609E-02  0.8099617E-01
       -1   -1    0    0    0  501  0.00000000000E+00  0.00000000000E+00  0.21900689723E+04  0.21900689723E+04  0.50400001928E-02 0.  1.
        1   -1    0    0  501    0  0.00000000000E+00  0.00000000000E+00 -0.14470589360E+04  0.14470589360E+04  0.50400001928E-02 0. -1.
    10030    2    1    2    0    0  0.00000000000E+00  0.00000000000E+00  0.74301003631E+03  0.36371279082E+04  0.35604263097E+04 0.  0.
        2    1    3    3  502    0  0.43110513833E+03 -0.17257336767E+04  0.44481816076E+03  0.18335407166E+04  0.25500000920E-02 0. -1.
       -2    1    3    3    0  502 -0.43110513833E+03  0.17257336767E+04  0.29819187555E+03  0.18035871917E+04  0.25500000920E-02 0.  1.
</event>
<event>
 5   0  0.2565004E-06  0.2191489E+04  0.7818609E-02  0.8521979E-01
       -2   -1    0    0    0  501  0.00000000000E+00  0.00000000000E+00  0.80794639833E+03  0.80794639834E+03  0.25500000920E-02 0. -1.
        2   -1    0    0  501    0  0.00000000000E+00  0.00000000000E+00 -0.14860595715E+04  0.14860595715E+04  0.25500000920E-02 0.  1.
    10030    2    1    2    0    0  0.00000000000E+00  0.00000000000E+00 -0.67811317319E+03  0.22940059699E+04  0.21914894282E+04 0.  0.
        3    1    3    3  502    0 -0.81095842280E+03 -0.62739147649E+03  0.65524447199E+02  0.10274079480E+04  0.10100000352E+00 0. -1.
       -3    1    3    3    0  502  0.81095842280E+03  0.62739147649E+03 -0.74363762039E+03  0.12665980218E+04  0.10100000352E+00 0.  1.
</event>
<event>
 5   0  0.3378848E-06  0.3498224E+04  0.7818609E-02  0.8114211E-01
       -2   -1    0    0    0  501  0.00000000000E+00  0.00000000000E+00  0.15436281605E+04  0.15436281605E+04  0.25500000920E-02 0.  1.
        2   -1    0    0  501    0  0.00000000000E+00  0.00000000000E+00 -0.19819496075E+04  0.19819496075E+04  0.25500000920E-02 0. -1.
    10030    2    1    2    0    0  0.00000000000E+00  0.00000000000E+00 -0.43832144691E+03  0.35255777680E+04  0.34982242506E+04 0.  0.
        1    1    3    3  502    0 -0.72028789675E+03  0.20120399613E+03  0.13743718823E+04  0.15646711389E+04  0.50400001928E-02 0.  1.
       -1    1    3    3    0  502  0.72028789675E+03 -0.20120399613E+03 -0.18126933292E+04  0.19609066291E+04  0.50400001928E-02 0. -1.
</event>
<event>
 5   0  0.1782660E-06  0.3462267E+04  0.7818609E-02  0.8122791E-01
        2   -1    0    0  501    0  0.00000000000E+00  0.00000000000E+00  0.18293298704E+04  0.18293298704E+04  0.25500000920E-02 0. -1.
       -2   -1    0    0    0  501  0.00000000000E+00  0.00000000000E+00 -0.16382079254E+04  0.16382079254E+04  0.25500000920E-02 0.  1.
    10030    2    1    2    0    0  0.00000000000E+00  0.00000000000E+00  0.19112194505E+03  0.34675377958E+04  0.34622667095E+04 0.  0.
        4    1    3    3  502    0  0.15932702617E+04  0.40866302703E+03  0.63610990360E+03  0.17635625928E+04  0.12699999809E+01 0. -1.
       -4    1    3    3    0  502 -0.15932702617E+04 -0.40866302703E+03 -0.44498795854E+03  0.17039752030E+04  0.12699999809E+01 0.  1.
</event>
<event>
 5   0  0.3378848E-06  0.3475154E+04  0.7818609E-02  0.8119703E-01
       -2   -1    0    0    0  501  0.00000000000E+00  0.00000000000E+00  0.11911284973E+04  0.11911284973E+04  0.25500000920E-02 0.  1.
        2   -1    0    0  501    0  0.00000000000E+00  0.00000000000E+00 -0.25347175763E+04  0.25347175763E+04  0.25500000920E-02 0. -1.
    10030    2    1    2    0    0  0.00000000000E+00  0.00000000000E+00 -0.13435890791E+04  0.37258460736E+04  0.34751542916E+04 0.  0.
        1    1    3    3  502    0 -0.10819697194E+04 -0.49816577031E+02 -0.21284964358E+04  0.23882288923E+04  0.50400001928E-02 0. -1.
       -1    1    3    3    0  502  0.10819697194E+04  0.49816577031E+02  0.78490735672E+03  0.13376171813E+04  0.50400001928E-02 0.  1.
</event>
<event>
 5   0  0.1110956E-06  0.3429320E+04  0.7818609E-02  0.8130747E-01
       -1   -1    0    0    0  501  0.00000000000E+00  0.00000000000E+00  0.16977818126E+04  0.16977818126E+04  0.50400001928E-02 0.  1.
        1   -1    0    0  501    0  0.00000000000E+00  0.00000000000E+00 -0.17317062373E+04  0.17317062373E+04  0.50400001928E-02 0. -1.
    10030    2    1    2    0    0  0.00000000000E+00  0.00000000000E+00 -0.33924424704E+02  0.34294880499E+04  0.34293202559E+04 0.  0.
        1    1    3    3  502    0  0.34195269648E+03  0.57837570415E+03  0.15606476222E+04  0.16991383412E+04  0.50400001928E-02 0.  1.
       -1    1    3    3    0  502 -0.34195269648E+03 -0.57837570415E+03 -0.15945720469E+04  0.17303497087E+04  0.50400001928E-02 0. -1.
</event>
<event>
 5   0  0.1089337E-06  0.3556286E+04  0.7818609E-02  0.8100579E-01
        1   -1    0    0  501    0  0.00000000000E+00  0.00000000000E+00  0.17997938871E+04  0.17997938871E+04  0.50400001928E-02 0.  1.
       -1   -1    0    0    0  501  0.00000000000E+00  0.00000000000E+00 -0.17567526567E+04  0.17567526567E+04  0.50400001928E-02 0. -1.
    10030    2    1    2    0    0  0.00000000000E+00  0.00000000000E+00  0.43041230451E+02  0.35565465438E+04  0.35562860924E+04 0.  0.
        2    1    3    3  502    0  0.33630299032E+03 -0.44116308515E+03  0.17110430878E+04  0.17987198273E+04  0.25500000920E-02 0.  1.
       -2    1    3    3    0  502 -0.33630299032E+03  0.44116308515E+03 -0.16680018573E+04  0.17578267165E+04  0.25500000920E-02 0. -1.
</event>
<event>
 5   0  0.1110956E-06  0.3227916E+04  0.7818609E-02  0.8181483E-01
       -1   -1    0    0    0  501  0.00000000000E+00  0.00000000000E+00  0.77776967003E+03  0.77776967004E+03  0.50400001928E-02 0.  1.
        1   -1    0    0  501    0  0.00000000000E+00  0.00000000000E+00 -0.33491421182E+04  0.33491421182E+04  0.50400001928E-02 0. -1.
    10030    2    1    2    0    0  0.00000000000E+00  0.00000000000E+00 -0.25713724482E+04  0.41269117883E+04  0.32279164551E+04 0.  0.
        1    1    3    3  502    0 -0.45721678763E+03  0.14833970402E+04 -0.18507617331E+04  0.24155398905E+04  0.50400001928E-02 0. -1.
       -1    1    3    3    0  502  0.45721678763E+03 -0.14833970402E+04 -0.72061071510E+03  0.17113718978E+04  0.50400001928E-02 0.  1.
</event>
<event>
 5   0  0.1908726E-06  0.2351744E+04  0.7818609E-02  0.8457794E-01
        2   -1    0    0  501    0  0.00000000000E+00  0.00000000000E+00  0.17748345533E+04  0.17748345533E+04  0.25500000920E-02 0.  1.
       -2   -1    0    0    0  501  0.00000000000E+00  0.00000000000E+00 -0.77904463380E+03  0.77904463381E+03  0.25500000920E-02 0. -1.
    10030    2    1    2    0    0  0.00000000000E+00  0.00000000000E+00  0.99578991946E+03  0.25538791871E+04  0.23517443183E+04 0.  0.
        5    1    3    3  502    0 -0.52768395188E+02  0.82869793921E+03  0.14019963002E+04  0.16294601848E+04  0.46999998093E+01 0.  1.
       -5    1    3    3    0  502  0.52768395188E+02 -0.82869793921E+03 -0.40620638078E+03  0.92441900227E+03  0.46999998093E+01 0. -1.
</event>
<event>
 5   0  0.2565004E-06  0.2925947E+04  0.7818609E-02  0.8265199E-01
        2   -1    0    0  501    0  0.00000000000E+00  0.00000000000E+00  0.34861180100E+04  0.34861180100E+04  0.25500000920E-02 0. -1.
       -2   -1    0    0    0  501  0.00000000000E+00  0.00000000000E+00 -0.61394712000E+03  0.61394712001E+03  0.25500000920E-02 0.  1.
    10030    2    1    2    0    0  0.00000000000E+00  0.00000000000E+00  0.28721708900E+04  0.41000651300E+04  0.29259474447E+04 0.  0.
        3    1    3    3  502    0 -0.68278969113E+03 -0.89497889015E+03  0.27454392240E+04  0.29672589235E+04  0.10100000352E+00 0.  1.
       -3    1    3    3    0  502  0.68278969113E+03  0.89497889015E+03  0.12673166597E+03  0.11328062065E+04  0.10100000352E+00 0. -1.
</event>
<event>
 5   0  0.1125196E-06  0.3513623E+04  0.7818609E-02  0.8110569E-01
        1   -1    0    0  501    0  0.00000000000E+00  0.00000000000E+00  0.27051912407E+04  0.27051912407E+04  0.50400001928E-02 0.  1.
       -1   -1    0    0    0  501  0.00000000000E+00  0.00000000000E+00 -0.11409124670E+04  0.11409124671E+04  0.50400001928E-02 0. -1.
    10030    2    1    2    0    0  0.00000000000E+00  0.00000000000E+00  0.15642787736E+04  0.38461037077E+04  0.35136228666E+04 0.  0.
        4    1    3    3  502    0 -0.15583976495E+04 -0.79453090602E+03  0.60393973662E+03  0.18505748872E+04  0.12699999809E+01 0.  1.
       -4    1    3    3    0  502  0.15583976495E+04  0.79453090602E+03  0.96033903699E+03  0.19955288205E+04  0.12699999809E+01 0. -1.
</event>
<event>
 5   0  0.2565004E-06  0.2386634E+04  0.7818609E-02  0.8444525E-01
       -2   -1    0    0    0  501  0.00000000000E+00  0.00000000000E+00  0.94604885775E+03  0.94604885775E+03  0.25500000920E-02 0. -1.
        2   -1    0    0  501    0  0.00000000000E+00  0.00000000000E+00 -0.15052135478E+04  0.15052135478E+04  0.25500000920E-02 0.  1.
    10030    2    1    2    0    0  0.00000000000E+00  0.00000000000E+00 -0.55916469002E+03  0.24512624055E+04  0.23866340797E+04 0.  0.
        3    1    3    3  502    0 -0.63976546136E+03  0.17927890699E+03  0.73850388189E+03  0.99339255373E+03  0.10100000352E+00 0. -1.
       -3    1    3    3    0  502  0.63976546136E+03 -0.17927890699E+03 -0.12976685719E+04  0.14578698518E+04  0.10100000352E+00 0.  1.
</event>
<event>
 5   0  0.3378848E-06  0.3561002E+04  0.7818609E-02  0.8099484E-01
       -2   -1    0    0    0  501  0.00000000000E+00  0.00000000000E+00  0.16649121798E+04  0.16649121798E+04  0.25500000920E-02 0. -1.
        2   -1    0    0  501    0  0.00000000000E+00  0.00000000000E+00 -0.19041144689E+04  0.19041144689E+04  0.25500000920E-02 0.  1.
    10030    2    1    2    0    0  0.00000000000E+00  0.00000000000E+00 -0.23920228910E+03  0.35690266488E+04  0.35610017529E+04 0.  0.
        1    1    3    3  502    0  0.59276316304E+03 -0.13860514936E+04  0.82999189324E+03  0.17208699698E+04  0.50400001928E-02 0. -1.
       -1    1    3    3    0  502 -0.59276316304E+03  0.13860514936E+04 -0.10691941823E+04  0.18481566789E+04  0.50400001928E-02 0.  1.
</event>
<event>
 5   0  0.1125196E-06  0.1968751E+04  0.7818609E-02  0.8621371E-01
        1   -1    0    0  501    0  0.00000000000E+00  0.00000000000E+00  0.13801206559E+04  0.13801206559E+04  0.50400001928E-02 0. -1.
       -1   -1    0    0    0  501  0.00000000000E+00  0.00000000000E+00 -0.70210910117E+03  0.70210910119E+03  0.50400001928E-02 0.  1.
    10030    2    1    2    0    0  0.00000000000E+00  0.00000000000E+00  0.67801155476E+03  0.20822297571E+04  0.19687511506E+04 0.  0.
        4    1    3    3  502    0 -0.68674283679E+03  0.22317538832E+03  0.10465745197E+04  0.12715120196E+04  0.12699999809E+01 0. -1.
       -4    1    3    3    0  502  0.68674283679E+03 -0.22317538832E+03 -0.36856296498E+03  0.81071773749E+03  0.12699999809E+01 0.  1.
</event>
<event>
 5   0  0.1782660E-06  0.3529995E+04  0.7818609E-02  0.8106718E-01
        2   -1    0    0  501    0  0.00000000000E+00  0.00000000000E+00  0.22295349447E+04  0.22295349447E+04  0.25500000920E-02 0. -1.
       -2   -1    0    0    0  501  0.00000000000E+00  0.00000000000E+00 -0.13972494790E+04  0.13972494790E+04  0.25500000920E-02 0.  1.
    10030    2    1    2    0    0  0.00000000000E+00  0.00000000000E+00  0.83228546564E+03  0.36267844237E+04  0.35299952067E+04 0.  0.
        4    1    3    3  502    0 -0.33870606946E+03  0.97362915532E+03  0.18880938134E+04  0.21511800005E+04  0.12699999809E+01 0. -1.
       -4    1    3    3    0  502  0.33870606946E+03 -0.97362915532E+03 -0.10558083477E+04  0.14756044232E+04  0.12699999809E+01 0.  1.
</event>
<event>
 5   0  0.1042825E-06  0.3510179E+04  0.7818609E-02  0.8111382E-01
       -3   -1    0    0    0  501  0.00000000000E+00  0.00000000000E+00  0.24908531924E+04  0.24908531944E+04  0.10100000352E+00 0.  1.
        3   -1    0    0  501    0  0.00000000000E+00  0.00000000000E+00 -0.12366605042E+04  0.12366605083E+04  0.10100000352E+00 0. -1.
    10030    2    1    2    0    0  0.00000000000E+00  0.00000000000E+00  0.12541926882E+04  0.37275137027E+04  0.35101793551E+04 0.  0.
        4    1    3    3  502    0 -0.52580664949E+03  0.29782096795E+03  0.23768959341E+04  0.24525101134E+04  0.12699999809E+01 0.  1.
       -4    1    3    3    0  502  0.52580664949E+03 -0.29782096795E+03 -0.11227032459E+04  0.12750035894E+04  0.12699999809E+01 0. -1.
</event>
<event>
 5   0  0.1908726E-06  0.3582537E+04  0.7818609E-02  0.8094504E-01
       -2   -1    0    0    0  501  0.00000000000E+00  0.00000000000E+00  0.15704749161E+04  0.15704749161E+04  0.25500000920E-02 0.  1.
        2   -1    0    0  501    0  0.00000000000E+00  0.00000000000E+00 -0.20431034698E+04  0.20431034698E+04  0.25500000920E-02 0. -1.
    10030    2    1    2    0    0  0.00000000000E+00  0.00000000000E+00 -0.47262855370E+03  0.36135783859E+04  0.35825369504E+04 0.  0.
        5    1    3    3  502    0  0.14619826369E+04 -0.81208279149E+03 -0.88355086793E+03  0.18914428136E+04  0.46999998093E+01 0. -1.
       -5    1    3    3    0  502 -0.14619826369E+04  0.81208279149E+03  0.41092231423E+03  0.17221355723E+04  0.46999998093E+01 0.  1.
</event>
<event>
 5   0  0.1908726E-06  0.3516726E+04  0.7818609E-02  0.8109837E-01
       -2   -1    0    0    0  501  0.00000000000E+00  0.00000000000E+00  0.16009407474E+04  0.16009407474E+04  0.25500000920E-02 0. -1.
        2   -1    0    0  501    0  0.00000000000E+00  0.00000000000E+00 -0.19312649793E+04  0.19312649793E+04  0.25500000920E-02 0.  1.
    10030    2    1    2    0    0  0.00000000000E+00  0.00000000000E+00 -0.33032423187E+03  0.35322057267E+04  0.35167262045E+04 0.  0.
        5    1    3    3  502    0  0.14462706461E+04 -0.26275611146E+03 -0.11343338385E+04  0.18567377044E+04  0.46999998093E+01 0.  1.
       -5    1    3    3    0  502 -0.14462706461E+04  0.26275611146E+03  0.80400960663E+03  0.16754680222E+04  0.46999998093E+01 0. -1.
</event>
<event>
 5   0  0.1102175E-06  0.1896936E+04  0.7818609E-02  0.8656383E-01
       -1   -1    0    0    0  501  0.00000000000E+00  0.00000000000E+00  0.50140791726E+03  0.50140791728E+03  0.50400001928E-02 0. -1.
        1   -1    0    0  501    0  0.00000000000E+00  0.00000000000E+00 -0.17941313094E+04  0.17941313094E+04  0.50400001928E-02 0.  1.
    10030    2    1    2    0    0  0.00000000000E+00  0.00000000000E+00 -0.12927233921E+04  0.22955392267E+04  0.18969361014E+04 0.  0.
        5    1    3    3  502    0 -0.81863464044E+03 -0.45989558278E+03 -0.80827930899E+03  0.12389528453E+04  0.46999998093E+01 0.  1.
       -5    1    3    3    0  502  0.81863464044E+03  0.45989558278E+03 -0.48444408316E+03  0.10565863814E+04  0.46999998093E+01 0. -1.
</event>
<event>
 5   0  0.1089337E-06  0.3486326E+04  0.7818609E-02  0.8117038E-01
        1   -1    0    0  501    0  0.00000000000E+00  0.00000000000E+00  0.12180851379E+04  0.12180851379E+04  0.50400001928E-02 0. -1.
       -1   -1    0    0    0  501  0.00000000000E+00  0.00000000000E+00 -0.24945851533E+04  0.24945851533E+04  0.50400001928E-02 0.  1.
    10030    2    1    2    0    0  0.00000000000E+00  0.00000000000E+00 -0.12765000154E+04  0.37126702912E+04  0.34863259173E+04 0.  0.
        2    1    3    3  502    0 -0.83779016583E+03  0.10575187409E+04 -0.18137146611E+04  0.22604864789E+04  0.25500000920E-02 0.  1.
       -2    1    3    3    0  502  0.83779016583E+03 -0.10575187409E+04  0.53721464568E+03  0.14521838123E+04  0.25500000920E-02 0. -1.
</event>
<event>
 5   0  0.1125196E-06  0.2684809E+04  0.7818609E-02  0.8339951E-01
       -1   -1    0    0    0  501  0.00000000000E+00  0.00000000000E+00  0.11074811227E+04  0.11074811227E+04  0.50400001928E-02 0. -1.
        1   -1    0    0  501    0  0.00000000000E+00  0.00000000000E+00 -0.16271606006E+04  0.16271606006E+04  0.50400001928E-02 0.  1.
    10030    2    1    2    0    0  0.00000000000E+00  0.00000000000E+00 -0.51967947785E+03  0.27346417233E+04  0.26848088563E+04 0.  0.
        4    1    3    3  502    0  0.53843577520E+03  0.40733275097E+03  0.92196104482E+03  0.11427365554E+04  0.12699999809E+01 0. -1.
       -4    1    3    3    0  502 -0.53843577520E+03 -0.40733275097E+03 -0.14416405227E+04  0.15919051679E+04  0.12699999809E+01 0.  1.
</event>
<event>
 5   0  0.1110956E-06  0.3078278E+04  0.7818609E-02  0.8221725E-01
       -1   -1    0    0    0  501  0.00000000000E+00  0.00000000000E+00  0.11310428124E+04  0.11310428125E+04  0.50400001928E-02 0.  1.
        1   -1    0    0  501    0  0.00000000000E+00  0.00000000000E+00 -0.20944826100E+04  0.20944826100E+04  0.50400001928E-02 0. -1.
    10030    2    1    2    0    0  0.00000000000E+00  0.00000000000E+00 -0.96343979756E+03  0.32255254225E+04  0.30782784162E+04 0.  0.
        1    1    3    3  502    0  0.11788885730E+03  0.99012391573E+03  0.74684341157E+03  0.12458002378E+04  0.50400001928E-02 0.  1.
       -1    1    3    3    0  502 -0.11788885730E+03 -0.99012391573E+03 -0.17102832091E+04  0.19797251846E+04  0.50400001928E-02 0. -1.
</event>
<event>
 5   0  0.3378848E-06  0.1971225E+04  0.7818609E-02  0.8620193E-01
       -2   -1    0    0    0  501  0.00000000000E+00  0.00000000000E+00  0.60777728509E+03  0.60777728509E+03  0.25500000920E-02 0. -1.
        2   -1    0    0  501    0  0.00000000000E+00  0.00000000000E+00 -0.15983355461E+04  0.15983355461E+04  0.25500000920E-02 0.  1.
    10030    2    1    2    0    0  0.00000000000E+00  0.00000000000E+00 -0.99055826106E+03  0.22061128312E+04  0.19712250393E+04 0.  0.
        1    1    3    3  502    0  0.63958903277E+03 -0.41179067516E+03 -0.11966855006E+04  0.14179921997E+04  0.50400001928E-02 0.  1.
       -1    1    3    3    0  502 -0.63958903277E+03  0.41179067516E+03  0.20612723953E+03  0.78812063156E+03  0.50400001928E-02 0. -1.
</event>
<event>
 5   0  0.1089337E-06  0.3325644E+04  0.7818609E-02  0.8156401E-01
        1   -1    0    0  501    0  0.00000000000E+00  0.00000000000E+00  0.19709581350E+04  0.19709581350E+04  0.50400001928E-02 0.  1.
       -1   -1    0    0    0  501  0.00000000000E+00  0.00000000000E+00 -0.14028596643E+04  0.14028596643E+04  0.50400001928E-02 0. -1.
    10030    2    1    2    0    0  0.00000000000E+00  0.00000000000E+00  0.56809847064E+03  0.33738177993E+04  0.33256443993E+04 0.  0.
        2    1    3    3  502    0 -0.80377202796E+03 -0.13929132970E+04 -0.14482829606E+03  0.16146925903E+04  0.25500000920E-02 0. -1.
       -2    1    3    3    0  502  0.80377202796E+03  0.13929132970E+04  0.71292676670E+03  0.17591252089E+04  0.25500000920E-02 0.  1.
</event>
<event>
 5   0  0.1782660E-06  0.2568983E+04  0.7818609E-02  0.8378814E-01
       -2   -1    0    0    0  501  0.00000000000E+00  0.00000000000E+00  0.98038250041E+03  0.98038250042E+03  0.25500000920E-02 0. -1.
        2   -1    0    0  501    0  0.00000000000E+00  0.00000000000E+00 -0.16829331918E+04  0.16829331918E+04  0.25500000920E-02 0.  1.
    10030    2    1    2    0    0  0.00000000000E+00  0.00000000000E+00 -0.70255069139E+03  0.26633156922E+04  0.25689828731E+04 0.  0.
        4    1    3    3  502    0 -0.36436016386E+03 -0.12263551881E+04 -0.47043619266E+03  0.13630910463E+04  0.12699999809E+01 0.  1.
       -4    1    3    3    0  502  0.36436016386E+03  0.12263551881E+04 -0.23211449873E+03  0.13002246459E+04  0.12699999809E+01 0. -1.
</event>
<event>
 5   0  0.1110956E-06  0.2401555E+04  0.7818609E-02  0.8438922E-01
        1   -1    0    0  501    0  0.00000000000E+00  0.00000000000E+00  0.72951904141E+03  0.72951904143E+03  0.50400001928E-02 0. -1.
       -1   -1    0    0    0  501  0.00000000000E+00  0.00000000000E+00 -0.19764622036E+04  0.19764622036E+04  0.50400001928E-02 0.  1.
    10030    2    1    2    0    0  0.00000000000E+00  0.00000000000E+00 -0.12469431622E+04  0.27059812451E+04  0.24015551730E+04 0.  0.
        1    1    3    3  502    0  0.10192802045E+04  0.47666764427E+03 -0.10958021631E+04  0.15706452684E+04  0.50400001928E-02 0. -1.
       -1    1    3    3    0  502 -0.10192802045E+04 -0.47666764427E+03 -0.15114099912E+03  0.11353359767E+04  0.50400001928E-02 0.  1.
</event>
<event>
 5   0  0.1908726E-06  0.3419156E+04  0.7818609E-02  0.8133221E-01
       -2   -1    0    0    0  501  0.00000000000E+00  0.00000000000E+00  0.14574948861E+04  0.14574948861E+04  0.25500000920E-02 0.  1.
        2   -1    0    0  501    0  0.00000000000E+00  0.00000000000E+00 -0.20052609326E+04  0.20052609326E+04  0.25500000920E-02 0. -1.
    10030    2    1    2    0    0  0.00000000000E+00  0.00000000000E+00 -0.54776604646E+03  0.34627558187E+04  0.34191563606E+04 0.  0.
        5    1    3    3  502    0  0.11841384962E+04 -0.11135309904E+04 -0.81025923514E+03  0.18162261321E+04  0.46999998093E+01 0. -1.
       -5    1    3    3    0  502 -0.11841384962E+04  0.11135309904E+04  0.26249318868E+03  0.16465296866E+04  0.46999998093E+01 0.  1.
</event>
<event>
 5   0  0.1130707E-06  0.2122625E+04  0.7818609E-02  0.8551342E-01
       -1   -1    0    0    0  501  0.00000000000E+00  0.00000000000E+00  0.95911760775E+03  0.95911760776E+03  0.50400001928E-02 0. -1.
        1   -1    0    0  501    0  0.00000000000E+00  0.00000000000E+00 -0.11743962069E+04  0.11743962069E+04  0.50400001928E-02 0.  1.
    10030    2    1    2    0    0  0.00000000000E+00  0.00000000000E+00 -0.21527859911E+03  0.21335138146E+04  0.21226248661E+04 0.  0.
        3    1    3    3  502    0 -0.68425550046E+03  0.13686719242E+03 -0.91139506088E+03  0.11478585215E+04  0.10100000352E+00 0.  1.
       -3    1    3    3    0  502  0.68425550046E+03 -0.13686719242E+03  0.69611646176E+03  0.98565529310E+03  0.10100000352E+00 0. -1.
</event>
<event>
 5   0  0.4259933E-06  0.1783247E+04  0.7818609E-02  0.8715259E-01
       -2   -1    0    0    0  501  0.00000000000E+00  0.00000000000E+00  0.76045927413E+03  0.76045927413E+03  0.25500000920E-02 0.  1.
        2   -1    0    0  501    0  0.00000000000E+00  0.00000000000E+00 -0.10454113032E+04  0.10454113032E+04  0.25500000920E-02 0. -1.
    10030    2    1    2    0    0  0.00000000000E+00  0.00000000000E+00 -0.28495202907E+03  0.18058705773E+04  0.17832472860E+04 0.  0.
        3    1    3    3  502    0  0.20749092678E+03 -0.16154197255E+03 -0.10052495612E+04  0.10390740994E+04  0.10100000352E+00 0. -1.
       -3    1    3    3    0  502 -0.20749092678E+03  0.16154197255E+03  0.72029753211E+03  0.76679647793E+03  0.10100000352E+00 0.  1.
</event>
<event>
 5   0  0.2565004E-06  0.3488794E+04  0.7818609E-02  0.8116451E-01
        2   -1    0    0  501    0  0.00000000000E+00  0.00000000000E+00  0.13204851250E+04  0.13204851250E+04  0.25500000920E-02 0. -1.
       -2   -1    0    0    0  501  0.00000000000E+00  0.00000000000E+00 -0.23043964667E+04  0.23043964667E+04  0.25500000920E-02 0.  1.
    10030    2    1    2    0    0  0.00000000000E+00  0.00000000000E+00 -0.98391134174E+03  0.36248815917E+04  0.34887942080E+04 0.  0.
        3    1    3    3  502    0  0.61671584481E+03  0.12623241131E+04 -0.15662711428E+04  0.21040451285E+04  0.10100000352E+00 0.  1.
       -3    1    3    3    0  502 -0.61671584481E+03 -0.12623241131E+04  0.58235980105E+03  0.15208364632E+04  0.10100000352E+00 0. -1.
</event>
<event>
 5   0  0.2565004E-06  0.2240616E+04  0.7818609E-02  0.8501710E-01
        2   -1    0    0  501    0  0.00000000000E+00  0.00000000000E+00  0.90920153739E+03  0.90920153739E+03  0.25500000920E-02 0. -1.
       -2   -1    0    0    0  501  0.00000000000E+00  0.00000000000E+00 -0.13804313258E+04  0.13804313258E+04  0.25500000920E-02 0.  1.
    10030    2    1    2    0    0  0.00000000000E+00  0.00000000000E+00 -0.47122978844E+03  0.22896328632E+04  0.22406162400E+04 0.  0.
        3    1    3    3  502    0  0.58015210290E+03  0.66905548279E+03 -0.93683253673E+03  0.12891341721E+04  0.10100000352E+00 0.  1.
       -3    1    3    3    0  502 -0.58015210290E+03 -0.66905548279E+03  0.46560274829E+03  0.10004986911E+04  0.10100000352E+00 0. -1.
</event>
<event>
 5   0  0.1908726E-06  0.3553388E+04  0.7818609E-02  0.8101253E-01
       -2   -1    0    0    0  501  0.00000000000E+00  0.00000000000E+00  0.21218296863E+04  0.21218296863E+04  0.25500000920E-02 0.  1.
        2   -1    0    0  501    0  0.00000000000E+00  0.00000000000E+00 -0.14876979315E+04  0.14876979315E+04  0.25500000920E-02 0. -1.
    10030    2    1    2    0    0  0.00000000000E+00  0.00000000000E+00  0.63413175483E+03  0.36095276178E+04  0.35533880370E+04 0.  0.
        5    1    3    3  502    0 -0.30328889708E+03 -0.17461991554E+04  0.19091077087E+03  0.17826005323E+04  0.46999998093E+01 0. -1.
       -5    1    3    3    0  502  0.30328889708E+03  0.17461991554E+04  0.44322098396E+03  0.18269270855E+04  0.46999998093E+01 0.  1.
</event>
<event>
 5   0  0.1102175E-06  0.3283430E+04  0.7818609E-02  0.8167124E-01
       -1   -1    0    0    0  501  0.00000000000E+00  0.00000000000E+00  0.15821498896E+04  0.15821498896E+04  0.50400001928E-02 0. -1.
        1   -1    0    0  501    0  0.00000000000E+00  0.00000000000E+00 -0.17035225689E+04  0.17035225689E+04  0.50400001928E-02 0.  1.
    10030    2    1    2    0    0  0.00000000000E+00  0.00000000000E+00 -0.12137267928E+03  0.32856724585E+04  0.32834299410E+04 0.  0.
        5    1    3    3  502    0  0.11359829671E+04  0.73423451873E+03 -0.99172402377E+03  0.16772287439E+04  0.46999998093E+01 0.  1.
       -5    1    3    3    0  502 -0.11359829671E+04 -0.73423451873E+03  0.87035134449E+03  0.16084437146E+04  0.46999998093E+01 0. -1.
</event>
<event>
 5   0  0.3041329E-06  0.3444885E+04  0.7818609E-02  0.8126977E-01
       -2   -1    0    0    0  501  0.00000000000E+00  0.00000000000E+00  0.12099237895E+04  0.12099237895E+04  0.25500000920E-02 0. -1.
        2   -1    0    0  501    0  0.00000000000E+00  0.00000000000E+00 -0.24520621667E+04  0.24520621667E+04  0.25500000920E-02 0.  1.
    10030    2    1    2    0    0  0.00000000000E+00  0.00000000000E+00 -0.12421383773E+04  0.36619859562E+04  0.34448851062E+04 0.  0.
        2    1    3    3  502    0  0.15902857703E+04 -0.11814729173E+03 -0.13131284415E+04  0.20657381048E+04  0.25500000920E-02 0.  1.
       -2    1    3    3    0  502 -0.15902857703E+04  0.11814729173E+03  0.70990064194E+02  0.15962478514E+04  0.25500000920E-02 0. -1.
</event>
<event>
 5   0  0.1102175E-06  0.3236259E+04  0.7818609E-02  0.8179306E-01
       -1   -1    0    0    0  501  0.00000000000E+00  0.00000000000E+00  0.20506151607E+04  0.20506151607E+04  0.50400001928E-02 0. -1.
        1   -1    0    0  501    0  0.00000000000E+00  0.00000000000E+00 -0.12768574170E+04  0.12768574170E+04  0.50400001928E-02 0.  1.
    10030    2    1    2    0    0  0.00000000000E+00  0.00000000000E+00  0.77375774363E+03  0.33274725777E+04  0.32362590609E+04 0.  0.
        5    1    3    3  502    0  0.43641176068E+03  0.15569912576E+04  0.44894655386E+03  0.16781692702E+04  0.46999998093E+01 0.  1.
       -5    1    3    3    0  502 -0.43641176068E+03 -0.15569912576E+04  0.32481118977E+03  0.16493033075E+04  0.46999998093E+01 0. -1.
</event>
<event>
 5   0  0.3378848E-06  0.3523803E+04  0.7818609E-02  0.8108172E-01
       -2   -1    0    0    0  501  0.00000000000E+00  0.00000000000E+00  0.18022979683E+04  0.18022979683E+04  0.25500000920E-02 0.  1.
        2   -1    0    0  501    0  0.00000000000E+00  0.00000000000E+00 -0.17224100497E+04  0.17224100497E+04  0.25500000920E-02 0. -1.
    10030    2    1    2    0    0  0.00000000000E+00  0.00000000000E+00  0.79887918675E+02  0.35247080180E+04  0.35238025672E+04 0.  0.
        1    1    3    3  502    0  0.74317303518E+03  0.47506569269E+03 -0.14856700855E+04  0.17277757886E+04  0.50400001928E-02 0. -1.
       -1    1    3    3    0  502 -0.74317303518E+03 -0.47506569269E+03  0.15655580042E+04  0.17969322294E+04  0.50400001928E-02 0.  1.
</event>
<event>
 5   0  0.1125196E-06  0.3523614E+04  0.7818609E-02  0.8108216E-01
       -1   -1    0    0    0  501  0.00000000000E+00  0.00000000000E+00  0.14041135319E+04  0.14041135319E+04  0.50400001928E-02 0. -1.
        1   -1    0    0  501    0  0.00000000000E+00  0.00000000000E+00 -0.22106215920E+04  0.22106215920E+04  0.50400001928E-02 0.  1.
    10030    2    1    2    0    0  0.00000000000E+00  0.00000000000E+00 -0.80650806005E+03  0.36147351239E+04  0.35236138785E+04 0.  0.
        4    1    3    3  502    0  0.10526148556E+04  0.70949919789E+03  0.85004943079E+03  0.15277345299E+04  0.12699999809E+01 0. -1.
       -4    1    3    3    0  502 -0.10526148556E+04 -0.70949919789E+03 -0.16565574908E+04  0.20870005940E+04  0.12699999809E+01 0.  1.
</event>
<event>
 5   0  0.3378848E-06  0.3480836E+04  0.7818609E-02  0.8118347E-01
       -2   -1    0    0    0  501  0.00000000000E+00  0.00000000000E+00  0.15159673720E+04  0.15159673720E+04  0.25500000920E-02 0. -1.
        2   -1    0    0  501    0  0.00000000000E+00  0.00000000000E+00 -0.19981000317E+04  0.19981000317E+04  0.25500000920E-02 0.  1.
    10030    2    1    2    0    0  0.00000000000E+00  0.00000000000E+00 -0.48213265965E+03  0.35140674037E+04  0.34808357928E+04 0.  0.
        1    1    3    3  502    0  0.89640076704E+03 -0.12647013028E+04  0.55772127261E+03  0.16474394491E+04  0.50400001928E-02 0. -1.
       -1    1    3    3    0  502 -0.89640076704E+03  0.12647013028E+04 -0.10398539323E+04  0.18666279546E+04  0.50400001928E-02 0.  1.
</event>
<event>
 5   0  0.1089337E-06  0.3535166E+04  0.7818609E-02  0.8105506E-01
       -1   -1    0    0    0  501  0.00000000000E+00  0.00000000000E+00  0.10923200961E+04  0.10923200961E+04  0.50400001928E-02 0. -1.
        1   -1    0    0  501    0  0.00000000000E+00  0.00000000000E+00 -0.28602883788E+04  0.28602883788E+04  0.50400001928E-02 0.  1.
    10030    2    1    2    0    0  0.00000000000E+00  0.00000000000E+00 -0.17679682827E+04  0.39526084750E+04  0.35351664611E+04 0.  0.
        2    1    3    3  502    0 -0.15759789012E+04  0.79534319569E+03 -0.78354209256E+03  0.19313773600E+04  0.25500000920E-02 0. -1.
       -2    1    3    3    0  502  0.15759789012E+04 -0.79534319569E+03 -0.98442619016E+03  0.20212311149E+04  0.25500000920E-02 0.  1.
</event>
<event>
 5   0  0.2565004E-06  0.3261812E+04  0.7818609E-02  0.8172681E-01
        2   -1    0    0  501    0  0.00000000000E+00  0.00000000000E+00  0.27587347605E+04  0.27587347605E+04  0.25500000920E-02 0. -1.
       -2   -1    0    0    0  501  0.00000000000E+00  0.00000000000E+00 -0.96415715674E+03  0.96415715674E+03  0.25500000920E-02 0.  1.
    10030    2    1    2    0    0  0.00000000000E+00  0.00000000000E+00  0.17945776037E+04  0.37228919172E+04  0.32618116824E+04 0.  0.
        3    1    3    3  502    0  0.78274107597E+03  0.14302533161E+04  0.94216188394E+03  0.18830765162E+04  0.10100000352E+00 0. -1.
       -3    1    3    3    0  502 -0.78274107597E+03 -0.14302533161E+04  0.85241571978E+03  0.18398154010E+04  0.10100000352E+00 0.  1.
</event>
<event>
 5   0  0.1125196E-06  0.3462177E+04  0.7818609E-02  0.8122813E-01
       -1   -1    0    0    0  501  0.00000000000E+00  0.00000000000E+00  0.14127605219E+04  0.14127605219E+04  0.50400001928E-02 0. -1.
        1   -1    0    0  501    0  0.00000000000E+00  0.00000000000E+00 -0.21211428241E+04  0.21211428241E+04  0.50400001928E-02 0.  1.
    10030    2    1    2    0    0  0.00000000000E+00  0.00000000000E+00 -0.70838230218E+03  0.35339033459E+04  0.34621766813E+04 0.  0.
        4    1    3    3  502    0  0.75520444569E+03 -0.69533301917E+03 -0.17769272337E+04  0.20521437008E+04  0.12699999809E+01 0.  1.
       -4    1    3    3    0  502 -0.75520444569E+03  0.69533301917E+03  0.10685449315E+04  0.14817596451E+04  0.12699999809E+01 0. -1.
</event>
<event>
 5   0  0.1102175E-06  0.3204727E+04  0.7818609E-02  0.8187570E-01
       -1   -1    0    0    0  501  0.00000000000E+00  0.00000000000E+00  0.17467621894E+04  0.17467621894E+04  0.50400001928E-02 0. -1.
        1   -1    0    0  501    0  0.00000000000E+00  0.00000000000E+00 -0.14699018744E+04  0.14699018744E+04  0.50400001928E-02 0.  1.
    10030    2    1    2    0    0  0.00000000000E+00  0.00000000000E+00  0.27686031496E+03  0.32166640638E+04  0.32047271436E+04 0.  0.
        5    1    3    3  502    0 -0.12709442808E+04  0.92282411036E+03 -0.17999466559E+03  0.15809250055E+04  0.46999998093E+01 0.  1.
       -5    1    3    3    0  502  0.12709442808E+04 -0.92282411036E+03  0.45685498055E+03  0.16357390583E+04  0.46999998093E+01 0. -1.
</event>
<event>
 5   0  0.3041329E-06  0.3488427E+04  0.7818609E-02  0.8116538E-01
        2   -1    0    0  501    0  0.00000000000E+00  0.00000000000E+00  0.22755085011E+04  0.22755085011E+04  0.25500000920E-02 0. -1.
       -2   -1    0    0    0  501  0.00000000000E+00  0.00000000000E+00 -0.13369671243E+04  0.13369671243E+04  0.25500000920E-02 0.  1.
    10030    2    1    2    0    0  0.00000000000E+00  0.00000000000E+00  0.93854137682E+03  0.36124756254E+04  0.34884266121E+04 0.  0.
        2    1    3    3  502    0 -0.11944582851E+04 -0.60914272090E+03 -0.68596831746E+03  0.15061002562E+04  0.25500000920E-02 0.  1.
       -2    1    3    3    0  502  0.11944582851E+04  0.60914272090E+03  0.16245096943E+04  0.21063753692E+04  0.25500000920E-02 0. -1.
</event>
<event>
 5   0  0.1110956E-06  0.3406174E+04  0.7818609E-02  0.8136393E-01
       -1   -1    0    0    0  501  0.00000000000E+00  0.00000000000E+00  0.90662914540E+03  0.90662914541E+03  0.50400001928E-02 0.  1.
        1   -1    0    0  501    0  0.00000000000E+00  0.00000000000E+00 -0.31992186402E+04  0.31992186402E+04  0.50400001928E-02 0. -1.
    10030    2    1    2    0    0  0.00000000000E+00  0.00000000000E+00 -0.22925894948E+04  0.41058477856E+04  0.34061737253E+04 0.  0.
        1    1    3    3  502    0  0.12227386896E+03 -0.14956245072E+04 -0.17546060083E+03  0.15108375121E+04  0.50400001928E-02 0.  1.
       -1    1    3    3    0  502 -0.12227386896E+03  0.14956245072E+04 -0.21171288940E+04  0.25950102734E+04  0.50400001928E-02 0. -1.
</event>
<event>
 5   0  0.1908726E-06  0.3442620E+04  0.7818609E-02  0.8127525E-01
       -2   -1    0    0    0  501  0.00000000000E+00  0.00000000000E+00  0.15065244028E+04  0.15065244028E+04  0.25500000920E-02 0.  1.
        2   -1    0    0  501    0  0.00000000000E+00  0.00000000000E+00 -0.19667173172E+04  0.19667173172E+04  0.25500000920E-02 0. -1.
    10030    2    1    2    0    0  0.00000000000E+00  0.00000000000E+00 -0.46019291446E+03  0.34732417200E+04  0.34426197186E+04 0.  0.
        5    1    3    3  502    0 -0.44706678274E+02 -0.13493491670E+04 -0.13073693930E+04  0.18793559219E+04  0.46999998093E+01 0. -1.
       -5    1    3    3    0  502  0.44706678274E+02  0.13493491670E+04  0.84717647854E+03  0.15938857981E+04  0.46999998093E+01 0.  1.
</event>
<event>
 5   0  0.1130707E-06  0.3440465E+04  0.7818609E-02  0.8128046E-01
       -1   -1    0    0    0  501  0.00000000000E+00  0.00000000000E+00  0.13090431559E+04  0.13090431559E+04  0.50400001928E-02 0.  1.
        1   -1    0    0  501    0  0.00000000000E+00  0.00000000000E+00 -0.22605819692E+04  0.22605819692E+04  0.50400001928E-02 0. -1.
    10030    2    1    2    0    0  0.00000000000E+00  0.00000000000E+00 -0.95153881331E+03  0.35696251251E+04  0.34404647099E+04 0.  0.
        3    1    3    3  502    0 -0.61900291179E+02 -0.14207012354E+04 -0.14800837514E+04  0.20525280918E+04  0.10100000352E+00 0. -1.
       -3    1    3    3    0  502  0.61900291179E+02  0.14207012354E+04  0.52854493811E+03  0.15170970332E+04  0.10100000352E+00 0.  1.
</event>
<event>
 5   0  0.2565004E-06  0.1924424E+04  0.7818609E-02  0.8642794E-01
        2   -1    0    0  501    0  0.00000000000E+00  0.00000000000E+00  0.11734388486E+04  0.11734388486E+04  0.25500000920E-02 0.  1.
       -2   -1    0    0    0  501  0.00000000000E+00  0.00000000000E+00 -0.78900717758E+03  0.78900717758E+03  0.25500000920E-02 0. -1.
    10030    2    1    2    0    0  0.00000000000E+00  0.00000000000E+00  0.38443167103E+03  0.19624460262E+04  0.19244237309E+04 0.  0.
        3    1    3    3  502    0 -0.52156606388E+03 -0.77589682797E+03  0.42431910149E+03  0.10266906821E+04  0.10100000352E+00 0.  1.
       -3    1    3    3    0  502  0.52156606388E+03  0.77589682797E+03 -0.39887430457E+02  0.93575534407E+03  0.10100000352E+00 0. -1.
</event>
<event>
 5   0  0.1130707E-06  0.2518191E+04  0.7818609E-02  0.8396534E-01
       -1   -1    0    0    0  501  0.00000000000E+00  0.00000000000E+00  0.12784480019E+04  0.12784480019E+04  0.50400001928E-02 0. -1.
        1   -1    0    0  501    0  0.00000000000E+00  0.00000000000E+00 -0.12400355082E+04  0.12400355082E+04  0.50400001928E-02 0.  1.
    10030    2    1    2    0    0  0.00000000000E+00  0.00000000000E+00  0.38412493669E+02  0.25184835101E+04  0.25181905549E+04 0.  0.
        3    1    3    3  502    0 -0.89433339723E+03  0.63393598442E+02 -0.86490447581E+03  0.12457570936E+04  0.10100000352E+00 0.  1.
       -3    1    3    3    0  502  0.89433339723E+03 -0.63393598442E+02  0.90331696948E+03  0.12727264165E+04  0.10100000352E+00 0. -1.
</event>
<event>
 5   0  0.1782660E-06  0.3484615E+04  0.7818609E-02  0.8117446E-01
        2   -1    0    0  501    0  0.00000000000E+00  0.00000000000E+00  0.18506033875E+04  0.18506033875E+04  0.25500000920E-02 0. -1.
       -2   -1    0    0    0  501  0.00000000000E+00  0.00000000000E+00 -0.16403485794E+04  0.16403485794E+04  0.25500000920E-02 0.  1.
    10030    2    1    2    0    0  0.00000000000E+00  0.00000000000E+00  0.21025480804E+03  0.34909519669E+04  0.34846145484E+04 0.  0.
        4    1    3    3  502    0  0.67597074558E+03  0.14674197302E+04  0.75852205389E+03  0.17848289645E+04  0.12699999809E+01 0. -1.
       -4    1    3    3    0  502 -0.67597074558E+03 -0.14674197302E+04 -0.54826724585E+03  0.17061230024E+04  0.12699999809E+01 0.  1.
</event>
<event>
 5   0  0.2565004E-06  0.3685470E+04  0.7818609E-02  0.8071189E-01
       -2   -1    0    0    0  501  0.00000000000E+00  0.00000000000E+00  0.19525821241E+04  0.19525821241E+04  0.25500000920E-02 0. -1.
        2   -1    0    0  501    0  0.00000000000E+00  0.00000000000E+00 -0.17390678565E+04  0.17390678565E+04  0.25500000920E-02 0.  1.
    10030    2    1    2    0    0  0.00000000000E+00  0.00000000000E+00  0.21351426764E+03  0.36916499806E+04  0.36854702871E+04 0.  0.
        3    1    3    3  502    0  0.23656990315E+03 -0.99229427461E+03 -0.14304364031E+04  0.17569181996E+04  0.10100000352E+00 0.  1.
       -3    1    3    3    0  502 -0.23656990315E+03  0.99229427461E+03  0.16439506707E+04  0.19347317810E+04  0.10100000352E+00 0. -1.
</event>
<event>
 5   0  0.2565004E-06  0.3502516E+04  0.7818609E-02  0.8113194E-01
       -2   -1    0    0    0  501  0.00000000000E+00  0.00000000000E+00  0.15570310804E+04  0.15570310804E+04  0.25500000920E-02 0.  1.
        2   -1    0    0  501    0  0.00000000000E+00  0.00000000000E+00 -0.19697134582E+04  0.19697134582E+04  0.25500000920E-02 0. -1.
    10030    2    1    2    0    0  0.00000000000E+00  0.00000000000E+00 -0.41268237781E+03  0.35267445387E+04  0.35025162806E+04 0.  0.
        3    1    3    3  502    0 -0.13314800393E+04 -0.85942153326E+03  0.54410657542E+03  0.16755585464E+04  0.10100000352E+00 0.  1.
       -3    1    3    3    0  502  0.13314800393E+04  0.85942153326E+03 -0.95678895323E+03  0.18511859923E+04  0.10100000352E+00 0. -1.
</event>
<event>
 5   0  0.1110956E-06  0.3372429E+04  0.7818609E-02  0.8144706E-01
        1   -1    0    0  501    0  0.00000000000E+00  0.00000000000E+00  0.18578124593E+04  0.18578124593E+04  0.50400001928E-02 0.  1.
       -1   -1    0    0    0  501  0.00000000000E+00  0.00000000000E+00 -0.15304666071E+04  0.15304666071E+04  0.50400001928E-02 0. -1.
    10030    2    1    2    0    0  0.00000000000E+00  0.00000000000E+00  0.32734585215E+03  0.33882790664E+04  0.33724293506E+04 0.  0.
        1    1    3    3  502    0  0.16250423515E+03 -0.43958475990E+03 -0.14637166929E+04  0.15369153993E+04  0.50400001928E-02 0. -1.
       -1    1    3    3    0  502 -0.16250423515E+03  0.43958475990E+03  0.17910625450E+04  0.18513636671E+04  0.50400001928E-02 0.  1.
</event>
<event>
 5   0  0.1130707E-06  0.3481190E+04  0.7818609E-02  0.8118262E-01
       -1   -1    0    0    0  501  0.00000000000E+00  0.00000000000E+00  0.17267400119E+04  0.17267400119E+04  0.50400001928E-02 0. -1.
        1   -1    0    0  501    0  0.00000000000E+00  0.00000000000E+00 -0.17545614746E+04  0.17545614746E+04  0.50400001928E-02 0.  1.
    10030    2    1    2    0    0  0.00000000000E+00  0.00000000000E+00 -0.27821462691E+02  0.34813014865E+04  0.34811903146E+04 0.  0.
        3    1    3    3  502    0 -0.11559732362E+04 -0.10190582615E+04  0.79538492448E+03  0.17341831078E+04  0.10100000352E+00 0. -1.
       -3    1    3    3    0  502  0.11559732362E+04  0.10190582615E+04 -0.82320638717E+03  0.17471183787E+04  0.10100000352E+00 0.  1.
</event>
<event>
 5   0  0.2565004E-06  0.3552135E+04  0.7818609E-02  0.8101545E-01
       -2   -1    0    0    0  501  0.00000000000E+00  0.00000000000E+00  0.12756940115E+04  0.12756940115E+04  0.25500000920E-02 0. -1.
        2   -1    0    0  501    0  0.00000000000E+00  0.00000000000E+00 -0.24727056147E+04  0.24727056147E+04  0.25500000920E-02 0.  1.
    10030    2    1    2    0    0  0.00000000000E+00  0.00000000000E+00 -0.11970116032E+04  0.37483996261E+04  0.35521349888E+04 0.  0.
        3    1    3    3  502    0 -0.15754801663E+03  0.15555341651E+04  0.29060810658E+03  0.15902707311E+04  0.10100000352E+00 0. -1.
       -3    1    3    3    0  502  0.15754801663E+03 -0.15555341651E+04 -0.14876197098E+04  0.21581288950E+04  0.10100000352E+00 0.  1.
</event>
<event>
 5   0  0.1908726E-06  0.3607036E+04  0.7818609E-02  0.8088882E-01
       -2   -1    0    0    0  501  0.00000000000E+00  0.00000000000E+00  0.20922816204E+04  0.20922816204E+04  0.25500000920E-02 0.  1.
        2   -1    0    0  501    0  0.00000000000E+00  0.00000000000E+00 -0.15546073160E+04  0.15546073161E+04  0.25500000920E-02 0. -1.
    10030    2    1    2    0    0  0.00000000000E+00  0.00000000000E+00  0.53767430438E+03  0.36468889365E+04  0.36070355221E+04 0.  0.
        5    1    3    3  502    0  0.76993900373E+03 -0.27972612985E+03 -0.13556516275E+04  0.15839400880E+04  0.46999998093E+01 0. -1.
       -5    1    3    3    0  502 -0.76993900373E+03  0.27972612985E+03  0.18933259319E+04  0.20629488485E+04  0.46999998093E+01 0.  1.
</event>
<event>
 5   0  0.1782660E-06  0.3474709E+04  0.7818609E-02  0.8119810E-01
       -2   -1    0    0    0  501  0.00000000000E+00  0.00000000000E+00  0.27268336503E+04  0.27268336503E+04  0.25500000920E-02 0. -1.
        2   -1    0    0  501    0  0.00000000000E+00  0.00000000000E+00 -0.11069248202E+04  0.11069248202E+04  0.25500000920E-02 0.  1.
    10030    2    1    2    0    0  0.00000000000E+00  0.00000000000E+00  0.16199088300E+04  0.38337584705E+04  0.34747085334E+04 0.  0.
        4    1    3    3  502    0  0.95736251397E+03 -0.14233319510E+04  0.50582387017E+03  0.17883725077E+04  0.12699999809E+01 0. -1.
       -4    1    3    3    0  502 -0.95736251397E+03  0.14233319510E+04  0.11140849599E+04  0.20453859627E+04  0.12699999809E+01 0.  1.
</event>
<event>
 5   0  0.1110956E-06  0.3457916E+04  0.7818609E-02  0.8123836E-01
       -1   -1    0    0    0  501  0.00000000000E+00  0.00000000000E+00  0.26353022843E+04  0.26353022843E+04  0.50400001928E-02 0. -1.
        1   -1    0    0  501    0  0.00000000000E+00  0.00000000000E+00 -0.11343273395E+04  0.11343273395E+04  0.50400001928E-02 0.  1.
    10030    2    1    2    0    0  0.00000000000E+00  0.00000000000E+00  0.15009749448E+04  0.37696296238E+04  0.34579158052E+04 0.  0.
        1    1    3    3  502    0  0.15022033466E+04  0.72444189932E+03  0.12475080813E+04  0.20827163448E+04  0.50400001928E-02 0. -1.
       -1    1    3    3    0  502 -0.15022033466E+04 -0.72444189932E+03  0.25346686355E+03  0.16869132790E+04  0.50400001928E-02 0.  1.
</event>
<event>
 5   0  0.1089337E-06  0.3469421E+04  0.7818609E-02  0.8121075E-01
       -1   -1    0    0    0  501  0.00000000000E+00  0.00000000000E+00  0.31590253424E+04  0.31590253424E+04  0.50400001928E-02 0.  1.
        1   -1    0    0  501    0  0.00000000000E+00  0.00000000000E+00 -0.95257865870E+03  0.95257865872E+03  0.50400001928E-02 0. -1.
    10030    2    1    2    0    0  0.00000000000E+00  0.00000000000E+00  0.22064466837E+04  0.41116040011E+04  0.34694207721E+04 0.  0.
        2    1    3    3  502    0 -0.83396180154E+03 -0.66417350289E+03 -0.51850078152E+03  0.11855217370E+04  0.25500000920E-02 0. -1.
       -2    1    3    3    0  502  0.83396180154E+03  0.66417350289E+03  0.27249474652E+04  0.29260822642E+04  0.25500000920E-02 0.  1.
</event>
<event>
 5   0  0.1125196E-06  0.1791008E+04  0.7818609E-02  0.8711096E-01
       -1   -1    0    0    0  501  0.00000000000E+00  0.00000000000E+00  0.55511445241E+03  0.55511445243E+03  0.50400001928E-02 0. -1.
        1   -1    0    0  501    0  0.00000000000E+00  0.00000000000E+00 -0.14446159953E+04  0.14446159954E+04  0.50400001928E-02 0.  1.
    10030    2    1    2    0    0  0.00000000000E+00  0.00000000000E+00 -0.88950154294E+03  0.19997304478E+04  0.17910077802E+04 0.  0.
        4    1    3    3  502    0 -0.65683089449E+03 -0.18926878130E+03 -0.10906820900E+04  0.12871823996E+04  0.12699999809E+01 0.  1.
       -4    1    3    3    0  502  0.65683089449E+03  0.18926878130E+03  0.20118054706E+03  0.71254804817E+03  0.12699999809E+01 0. -1.
</event>
<event>
 5   0  0.1908726E-06  0.3534835E+04  0.7818609E-02  0.8105584E-01
        2   -1    0    0  501    0  0.00000000000E+00  0.00000000000E+00  0.10677218819E+04  0.10677218819E+04  0.25500000920E-02 0.  1.
       -2   -1    0    0    0  501  0.00000000000E+00  0.00000000000E+00 -0.29256347632E+04  0.29256347632E+04  0.25500000920E-02 0. -1.
    10030    2    1    2    0    0  0.00000000000E+00  0.00000000000E+00 -0.18579128813E+04  0.39933566451E+04  0.35348347940E+04 0.  0.
        5    1    3    3  502    0  0.15599678420E+04  0.31672511097E+03 -0.17966539929E+04  0.24003754132E+04  0.46999998093E+01 0. -1.
       -5    1    3    3    0  502 -0.15599678420E+04 -0.31672511097E+03 -0.61258888468E+02  0.15929812320E+04  0.46999998093E+01 0.  1.
</event>
<event>
 5   0  0.1782660E-06  0.2007935E+04  0.7818609E-02  0.8602920E-01
        2   -1    0    0  501    0  0.00000000000E+00  0.00000000000E+00  0.24031209803E+04  0.24031209803E+04  0.25500000920E-02 0.  1.
       -2   -1    0    0    0  501  0.00000000000E+00  0.00000000000E+00 -0.41943421360E+03  0.41943421360E+03  0.25500000920E-02 0. -1.
    10030    2    1    2    0    0  0.00000000000E+00  0.00000000000E+00  0.19836867667E+04  0.28225551939E+04  0.20079354158E+04 0.  0.
        4    1    3    3  502    0 -0.79844368980E+03 -0.35488432748E+03  0.16869110763E+04  0.18997699345E+04  0.12699999809E+01 0.  1.
       -4    1    3    3    0  502  0.79844368980E+03  0.35488432748E+03  0.29677569037E+03  0.92278525940E+03  0.12699999809E+01 0. -1.
</event>
<event>
 5   0  0.3378848E-06  0.3298902E+04  0.7818609E-02  0.8163175E-01
        2   -1    0    0  501    0  0.00000000000E+00  0.00000000000E+00  0.17494684674E+04  0.17494684674E+04  0.25500000920E-02 0.  1.
       -2   -1    0    0    0  501  0.00000000000E+00  0.00000000000E+00 -0.15551515205E+04  0.15551515205E+04  0.25500000920E-02 0. -1.
    10030    2    1    2    0    0  0.00000000000E+00  0.00000000000E+00  0.19431694689E+03  0.33046199879E+04  0.32989019671E+04 0.  0.
        1    1    3    3  502    0 -0.99318884498E+03 -0.24300612036E+03 -0.11993849504E+04  0.15760711645E+04  0.50400001928E-02 0. -1.
       -1    1    3    3    0  502  0.99318884498E+03  0.24300612036E+03  0.13937018973E+04  0.17285488234E+04  0.50400001928E-02 0.  1.
</event>
<event>
 5   0  0.1089337E-06  0.2165693E+04  0.7818609E-02  0.8532845E-01
       -1   -1    0    0    0  501  0.00000000000E+00  0.00000000000E+00  0.80991783090E+03  0.80991783091E+03  0.50400001928E-02 0.  1.
        1   -1    0    0  501    0  0.00000000000E+00  0.00000000000E+00 -0.14477472745E+04  0.14477472745E+04  0.50400001928E-02 0. -1.
    10030    2    1    2    0    0  0.00000000000E+00  0.00000000000E+00 -0.63782944360E+03  0.22576651054E+04  0.21656928058E+04 0.  0.
        2    1    3    3  502    0  0.90823993784E+03 -0.45935345004E+03  0.66447380977E+02  0.10199610930E+04  0.25500000920E-02 0.  1.
       -2    1    3    3    0  502 -0.90823993784E+03  0.45935345004E+03 -0.70427682458E+03  0.12377040124E+04  0.25500000920E-02 0. -1.
</event>
<event>
 5   0  0.2565004E-06  0.2896452E+04  0.7818609E-02  0.8273934E-01
        2   -1    0    0  501    0  0.00000000000E+00  0.00000000000E+00  0.16739835948E+04  0.16739835948E+04  0.25500000920E-02 0. -1.
       -2   -1    0    0    0  501  0.00000000000E+00  0.00000000000E+00 -0.12529147979E+04  0.12529147979E+04  0.25500000920E-02 0.  1.
    10030    2    1    2    0    0  0.00000000000E+00  0.00000000000E+00  0.42106879691E+03  0.29268983927E+04  0.28964521867E+04 0.  0.
        3    1    3    3  502    0  0.49328230852E+03  0.40547646701E+03  0.15240517969E+04  0.16524141403E+04  0.10100000352E+00 0. -1.
       -3    1    3    3    0  502 -0.49328230852E+03 -0.40547646701E+03 -0.11029830000E+04  0.12744842524E+04  0.10100000352E+00 0.  1.
</event>
<event>
 5   0  0.2565004E-06  0.3450973E+04  0.7818609E-02  0.8125508E-01
       -2   -1    0    0    0  501  0.00000000000E+00  0.00000000000E+00  0.16329878579E+04  0.16329878580E+04  0.25500000920E-02 0. -1.
        2   -1    0    0  501    0  0.00000000000E+00  0.00000000000E+00 -0.18232246912E+04  0.18232246912E+04  0.25500000920E-02 0.  1.
    10030    2    1    2    0    0  0.00000000000E+00  0.00000000000E+00 -0.19023683323E+03  0.34562125491E+04  0.34509730703E+04 0.  0.
        3    1    3    3  502    0  0.12598984415E+04 -0.18620388366E+03 -0.12610542166E+04  0.17922817068E+04  0.10100000352E+00 0.  1.
       -3    1    3    3    0  502 -0.12598984415E+04  0.18620388366E+03  0.10708173834E+04  0.16639308423E+04  0.10100000352E+00 0. -1.
</event>
<event>
 5   0  0.3041329E-06  0.3529213E+04  0.7818609E-02  0.8106902E-01
       -2   -1    0    0    0  501  0.00000000000E+00  0.00000000000E+00  0.16491444453E+04  0.16491444453E+04  0.25500000920E-02 0.  1.
        2   -1    0    0  501    0  0.00000000000E+00  0.00000000000E+00 -0.18881525138E+04  0.18881525138E+04  0.25500000920E-02 0. -1.
    10030    2    1    2    0    0  0.00000000000E+00  0.00000000000E+00 -0.23900806852E+03  0.35372969590E+04  0.35292130737E+04 0.  0.
        2    1    3    3  502    0  0.56681536852E+02 -0.17263949569E+04  0.24213246518E+03  0.17442134258E+04  0.25500000920E-02 0.  1.
       -2    1    3    3    0  502 -0.56681536852E+02  0.17263949569E+04 -0.48114053369E+03  0.17930835332E+04  0.25500000920E-02 0. -1.
</event>
<event>
 5   0  0.3041329E-06  0.3472826E+04  0.7818609E-02  0.8120260E-01
       -2   -1    0    0    0  501  0.00000000000E+00  0.00000000000E+00  0.12781577240E+04  0.12781577240E+04  0.25500000920E-02 0. -1.
        2   -1    0    0  501    0  0.00000000000E+00  0.00000000000E+00 -0.23589657412E+04  0.23589657412E+04  0.25500000920E-02 0.  1.
    10030    2    1    2    0    0  0.00000000000E+00  0.00000000000E+00 -0.10808080172E+04  0.36371234651E+04  0.34728261014E+04 0.  0.
        2    1    3    3  502    0 -0.17321407240E+04  0.92494270344E+02 -0.62329115367E+03  0.18431924859E+04  0.25500000920E-02 0.  1.
       -2    1    3    3    0  502  0.17321407240E+04 -0.92494270344E+02 -0.45751686350E+03  0.17939309792E+04  0.25500000920E-02 0. -1.
</event>
<event>
 5   0  0.3041329E-06  0.3527774E+04  0.7818609E-02  0.8107239E-01
        2   -1    0    0  501    0  0.00000000000E+00  0.00000000000E+00  0.30349247860E+04  0.30349247860E+04  0.25500000920E-02 0.  1.
       -2   -1    0    0    0  501  0.00000000000E+00  0.00000000000E+00 -0.10251648250E+04  0.10251648250E+04  0.25500000920E-02 0. -1.
    10030    2    1    2    0    0  0.00000000000E+00  0.00000000000E+00  0.20097599610E+04  0.40600896111E+04  0.35277744470E+04 0.  0.
        2    1    3    3  502    0  0.46910893529E+03 -0.14549107741E+04  0.20177109956E+04  0.25314000505E+04  0.25500000920E-02 0. -1.
       -2    1    3    3    0  502 -0.46910893529E+03  0.14549107741E+04 -0.79510346511E+01  0.15286895606E+04  0.25500000920E-02 0.  1.
</event>
<event>
 5   0  0.3041329E-06  0.3258025E+04  0.7818609E-02  0.8173659E-01
       -2   -1    0    0    0  501  0.00000000000E+00  0.00000000000E+00  0.16846173863E+04  0.16846173863E+04  0.25500000920E-02 0.  1.
        2   -1    0    0  501    0  0.00000000000E+00  0.00000000000E+00 -0.15752433353E+04  0.15752433353E+04  0.25500000920E-02 0. -1.
    10030    2    1    2    0    0  0.00000000000E+00  0.00000000000E+00  0.10937405093E+03  0.32598607216E+04  0.32580253592E+04 0.  0.
        2    1    3    3  502    0  0.66913203288E+03  0.11609005748E+04 -0.87225511490E+03  0.15988298244E+04  0.25500000920E-02 0. -1.
       -2    1    3    3    0  502 -0.66913203288E+03 -0.11609005748E+04  0.98162916583E+03  0.16610308971E+04  0.25500000920E-02 0.  1.
</event>
<event>
 5   0  0.3378848E-06  0.1989976E+04  0.7818609E-02  0.8611322E-01
       -2   -1    0    0    0  501  0.00000000000E+00  0.00000000000E+00  0.56804632851E+03  0.56804632852E+03  0.25500000920E-02 0. -1.
        2   -1    0    0  501    0  0.00000000000E+00  0.00000000000E+00 -0.17428175994E+04  0.17428175994E+04  0.25500000920E-02 0.  1.
    10030    2    1    2    0    0  0.00000000000E+00  0.00000000000E+00 -0.11747712709E+04  0.23108639279E+04  0.19899760186E+04 0.  0.
        1    1    3    3  502    0 -0.49837451416E+02 -0.80419512383E+03  0.90518687636E+02  0.81080651305E+03  0.50400001928E-02 0. -1.
       -1    1    3    3    0  502  0.49837451416E+02  0.80419512383E+03 -0.12652899585E+04  0.15000574149E+04  0.50400001928E-02 0.  1.
</event>
<event>
 5   0  0.1782660E-06  0.3541174E+04  0.7818609E-02  0.8104101E-01
       -2   -1    0    0    0  501  0.00000000000E+00  0.00000000000E+00  0.12484393931E+04  0.12484393931E+04  0.25500000920E-02 0.  1.
        2   -1    0    0  501    0  0.00000000000E+00  0.00000000000E+00 -0.25111183955E+04  0.25111183955E+04  0.25500000920E-02 0. -1.
    10030    2    1    2    0    0  0.00000000000E+00  0.00000000000E+00 -0.12626790024E+04  0.37595577886E+04  0.35411744524E+04 0.  0.
        4    1    3    3  502    0  0.13637883829E+04 -0.10719966042E+04 -0.10080184316E+04  0.20062896710E+04  0.12699999809E+01 0.  1.
       -4    1    3    3    0  502 -0.13637883829E+04  0.10719966042E+04 -0.25466057080E+03  0.17532681175E+04  0.12699999809E+01 0. -1.
</event>
<event>
 5   0  0.1782660E-06  0.3464832E+04  0.7818609E-02  0.8122175E-01
       -2   -1    0    0    0  501  0.00000000000E+00  0.00000000000E+00  0.10016649805E+04  0.10016649805E+04  0.25500000920E-02 0. -1.
        2   -1    0    0  501    0  0.00000000000E+00  0.00000000000E+00 -0.29962768621E+04  0.29962768621E+04  0.25500000920E-02 0.  1.
    10030    2    1    2    0    0  0.00000000000E+00  0.00000000000E+00 -0.19946118816E+04  0.39979418426E+04  0.34648322353E+04 0.  0.
        4    1    3    3  502    0 -0.14813539157E+04  0.79323227180E+03 -0.51098705396E+03  0.17563417216E+04  0.12699999809E+01 0.  1.
       -4    1    3    3    0  502  0.14813539157E+04 -0.79323227180E+03 -0.14836248276E+04  0.22416001211E+04  0.12699999809E+01 0. -1.
</event>
<event>
 5   0  0.1102175E-06  0.3524894E+04  0.7818609E-02  0.8107916E-01
        1   -1    0    0  501    0  0.00000000000E+00  0.00000000000E+00  0.14845038995E+04  0.14845038995E+04  0.50400001928E-02 0. -1.
       -1   -1    0    0    0  501  0.00000000000E+00  0.00000000000E+00 -0.20924289452E+04  0.20924289452E+04  0.50400001928E-02 0.  1.
    10030    2    1    2    0    0  0.00000000000E+00  0.00000000000E+00 -0.60792504568E+03  0.35769328448E+04  0.35248937168E+04 0.  0.
        5    1    3    3  502    0  0.12763652780E+04  0.10594218895E+04 -0.90833376024E+03  0.18911835904E+04  0.46999998093E+01 0.  1.
       -5    1    3    3    0  502 -0.12763652780E+04 -0.10594218895E+04  0.30040871456E+03  0.16857492543E+04  0.46999998093E+01 0. -1.
</event>
<event>
 5   0  0.1089337E-06  0.3506701E+04  0.7818609E-02  0.8112204E-01
        1   -1    0    0  501    0  0.00000000000E+00  0.00000000000E+00  0.20279286460E+04  0.20279286460E+04  0.50400001928E-02 0.  1.
       -1   -1    0    0    0  501  0.00000000000E+00  0.00000000000E+00 -0.15159497190E+04  0.15159497190E+04  0.50400001928E-02 0. -1.
    10030    2    1    2    0    0  0.00000000000E+00  0.00000000000E+00  0.51197892699E+03  0.35438783650E+04  0.35067009345E+04 0.  0.
        2    1    3    3  502    0 -0.13305639416E+04 -0.41402929127E+03  0.13314223368E+04  0.19273053977E+04  0.25500000920E-02 0.  1.
       -2    1    3    3    0  502  0.13305639416E+04  0.41402929127E+03 -0.81944340985E+03  0.16165729674E+04  0.25500000920E-02 0. -1.
</event>
<event>
 5   0  0.1125196E-06  0.3547685E+04  0.7818609E-02  0.8102581E-01
        1   -1    0    0  501    0  0.00000000000E+00  0.00000000000E+00  0.11994470322E+04  0.11994470322E+04  0.50400001928E-02 0. -1.
       -1   -1    0    0    0  501  0.00000000000E+00  0.00000000000E+00 -0.26233065140E+04  0.26233065141E+04  0.50400001928E-02 0.  1.
    10030    2    1    2    0    0  0.00000000000E+00  0.00000000000E+00 -0.14238594819E+04  0.38227535462E+04  0.35476849988E+04 0.  0.
        4    1    3    3  502    0  0.38763221747E+03  0.17103223859E+04 -0.99915731190E+03  0.20183603114E+04  0.12699999809E+01 0.  1.
       -4    1    3    3    0  502 -0.38763221747E+03 -0.17103223859E+04 -0.42470216998E+03  0.18043932348E+04  0.12699999809E+01 0. -1.
</event>
<event>
 5   0  0.1089337E-06  0.3502111E+04  0.7818609E-02  0.8113290E-01
        1   -1    0    0  501    0  0.00000000000E+00  0.00000000000E+00  0.21357968957E+04  0.21357968957E+04  0.50400001928E-02 0.  1.
       -1   -1    0    0    0  501  0.00000000000E+00  0.00000000000E+00 -0.14356209177E+04  0.14356209177E+04  0.50400001928E-02 0. -1.
    10030    2    1    2    0    0  0.00000000000E+00  0.00000000000E+00  0.70017597798E+03  0.35714178134E+04  0.35021106204E+04 0.  0.
        2    1    3    3  502    0 -0.25066518223E+03  0.17328823960E+04  0.37243669393E+03  0.17900903673E+04  0.25500000920E-02 0.  1.
       -2    1    3    3    0  502  0.25066518223E+03 -0.17328823960E+04  0.32773928405E+03  0.17813274461E+04  0.25500000920E-02 0. -1.
</event>
<event>
 5   0  0.1782660E-06  0.2891957E+04  0.7818609E-02  0.8275274E-01
       -2   -1    0    0    0  501  0.00000000000E+00  0.00000000000E+00  0.14774754205E+04  0.14774754205E+04  0.25500000920E-02 0. -1.
        2   -1    0    0  501    0  0.00000000000E+00  0.00000000000E+00 -0.14151533250E+04  0.14151533250E+04  0.25500000920E-02 0.  1.
    10030    2    1    2    0    0  0.00000000000E+00  0.00000000000E+00  0.62322095492E+02  0.28926287456E+04  0.28919572984E+04 0.  0.
        4    1    3    3  502    0  0.66077005966E+03 -0.84921794653E+02  0.13148232893E+04  0.14739710573E+04  0.12699999809E+01 0. -1.
       -4    1    3    3    0  502 -0.66077005966E+03  0.84921794653E+02 -0.12525011938E+04  0.14186576882E+04  0.12699999809E+01 0.  1.
</event>
<event>
 5   0  0.3041329E-06  0.3499708E+04  0.7818609E-02  0.8113859E-01
        2   -1    0    0  501    0  0.00000000000E+00  0.00000000000E+00  0.15559628701E+04  0.15559628701E+04  0.25500000920E-02 0.  1.
       -2   -1    0    0    0  501  0.00000000000E+00  0.00000000000E+00 -0.19679067418E+04  0.19679067418E+04  0.25500000920E-02 0. -1.
    10030    2    1    2    0    0  0.00000000000E+00  0.00000000000E+00 -0.41194387169E+03  0.35238696119E+04  0.34997084577E+04 0.  0.
        2    1    3    3  502    0 -0.74289326784E+03  0.87762357803E+03  0.11221781232E+04  0.16066727396E+04  0.25500000920E-02 0.  1.
       -2    1    3    3    0  502  0.74289326784E+03 -0.87762357803E+03 -0.15341219949E+04  0.19171968723E+04  0.25500000920E-02 0. -1.
</event>
<event>
 5   0  0.3041329E-06  0.3484898E+04  0.7818609E-02  0.8117378E-01
       -2   -1    0    0    0  501  0.00000000000E+00  0.00000000000E+00  0.13792430872E+04  0.13792430872E+04  0.25500000920E-02 0. -1.
        2   -1    0    0  501    0  0.00000000000E+00  0.00000000000E+00 -0.22013006326E+04  0.22013006326E+04  0.25500000920E-02 0.  1.
    10030    2    1    2    0    0  0.00000000000E+00  0.00000000000E+00 -0.82205754536E+03  0.35805437198E+04  0.34848980934E+04 0.  0.
        2    1    3    3  502    0  0.39768788916E+03  0.16864916170E+04 -0.22236150605E+03  0.17469557151E+04  0.25500000920E-02 0. -1.
       -2    1    3    3    0  502 -0.39768788916E+03 -0.16864916170E+04 -0.59969603931E+03  0.18335880047E+04  0.25500000920E-02 0.  1.
</event>
<event>
 5   0  0.1782660E-06  0.3539584E+04  0.7818609E-02  0.8104473E-01
        2   -1    0    0  501    0  0.00000000000E+00  0.00000000000E+00  0.30036554063E+04  0.30036554063E+04  0.25500000920E-02 0.  1.
       -2   -1    0    0    0  501  0.00000000000E+00  0.00000000000E+00 -0.10427841836E+04  0.10427841836E+04  0.25500000920E-02 0. -1.
    10030    2    1    2    0    0  0.00000000000E+00  0.00000000000E+00  0.19608712227E+04  0.40464395899E+04  0.35395843545E+04 0.  0.
        4    1    3    3  502    0 -0.88275018445E+03  0.91837062327E+03 -0.42411963799E+03  0.13425839155E+04  0.12699999809E+01 0. -1.
       -4    1    3    3    0  502  0.88275018445E+03 -0.91837062327E+03  0.23849908607E+04  0.27038556745E+04  0.12699999809E+01 0.  1.
</event>
<event>
 5   0  0.1102175E-06  0.3134769E+04  0.7818609E-02  0.8206260E-01
       -1   -1    0    0    0  501  0.00000000000E+00  0.00000000000E+00  0.18886038620E+04  0.18886038620E+04  0.50400001928E-02 0.  1.
        1   -1    0    0  501    0  0.00000000000E+00  0.00000000000E+00 -0.13007989076E+04  0.13007989076E+04  0.50400001928E-02 0. -1.
    10030    2    1    2    0    0  0.00000000000E+00  0.00000000000E+00  0.58780495438E+03  0.31894027696E+04  0.31347687893E+04 0.  0.
        5    1    3    3  502    0 -0.53635254076E+03  0.14693608402E+04  0.19227964449E+03  0.15759723597E+04  0.46999998093E+01 0. -1.
       -5    1    3    3    0  502  0.53635254076E+03 -0.14693608402E+04  0.39552530990E+03  0.16134304099E+04  0.46999998093E+01 0.  1.
</event>
<event>
 5   0  0.2565004E-06  0.3172528E+04  0.7818609E-02  0.8196110E-01
        2   -1    0    0  501    0  0.00000000000E+00  0.00000000000E+00  0.22124025811E+04  0.22124025811E+04  0.25500000920E-02 0.  1.
       -2   -1    0    0    0  501  0.00000000000E+00  0.00000000000E+00 -0.11373308176E+04  0.11373308176E+04  0.25500000920E-02 0. -1.
    10030    2    1    2    0    0  0.00000000000E+00  0.00000000000E+00  0.10750717635E+04  0.33497333986E+04  0.31725281000E+04 0.  0.
        3    1    3    3  502    0  0.50419761401E+03  0.12585392903E+04  0.14069981835E+04  0.19539140917E+04  0.10100000352E+00 0.  1.
       -3    1    3    3    0  502 -0.50419761401E+03 -0.12585392903E+04 -0.33192641999E+03  0.13958193069E+04  0.10100000352E+00 0. -1.
</event>
<event>
 5   0  0.1908726E-06  0.3435114E+04  0.7818609E-02  0.8129342E-01
        2   -1    0    0  501    0  0.00000000000E+00  0.00000000000E+00  0.20346637980E+04  0.20346637980E+04  0.25500000920E-02 0.  1.
       -2   -1    0    0    0  501  0.00000000000E+00  0.00000000000E+00 -0.14498719651E+04  0.14498719651E+04  0.25500000920E-02 0. -1.
    10030    2    1    2    0    0  0.00000000000E+00  0.00000000000E+00  0.58479183296E+03  0.34845357631E+04  0.34351139714E+04 0.  0.
        5    1    3    3  502    0 -0.62759747582E+03 -0.12179207171E+04  0.13430437645E+04  0.19185927416E+04  0.46999998093E+01 0.  1.
       -5    1    3    3    0  502  0.62759747582E+03  0.12179207171E+04 -0.75825193153E+03  0.15659430215E+04  0.46999998093E+01 0. -1.
</event>
<event>
 5   0  0.1125196E-06  0.3631344E+04  0.7818609E-02  0.8083350E-01
        1   -1    0    0  501    0  0.00000000000E+00  0.00000000000E+00  0.22990030061E+04  0.22990030061E+04  0.50400001928E-02 0. -1.
       -1   -1    0    0    0  501  0.00000000000E+00  0.00000000000E+00 -0.14339537673E+04  0.14339537673E+04  0.50400001928E-02 0.  1.
    10030    2    1    2    0    0  0.00000000000E+00  0.00000000000E+00  0.86504923876E+03  0.37329567734E+04  0.36313435650E+04 0.  0.
        4    1    3    3  502    0 -0.15029343808E+04 -0.85641294069E+03  0.99969470563E+03  0.19979104073E+04  0.12699999809E+01 0.  1.
       -4    1    3    3    0  502  0.15029343808E+04  0.85641294069E+03 -0.13464546687E+03  0.17350463662E+04  0.12699999809E+01 0. -1.
</event>
<event>
 5   0  0.1125196E-06  0.3398631E+04  0.7818609E-02  0.8138242E-01
       -1   -1    0    0    0  501  0.00000000000E+00  0.00000000000E+00  0.12964702657E+04  0.12964702657E+04  0.50400001928E-02 0. -1.
        1   -1    0    0  501    0  0.00000000000E+00  0.00000000000E+00 -0.22273344402E+04  0.22273344402E+04  0.50400001928E-02 0.  1.
    10030    2    1    2    0    0  0.00000000000E+00  0.00000000000E+00 -0.93086417448E+03  0.35238047059E+04  0.33986308264E+04 0.  0.
        4    1    3    3  502    0  0.96521248023E+02  0.38559584455E+03 -0.21784542125E+04  0.22144220183E+04  0.12699999809E+01 0.  1.
       -4    1    3    3    0  502 -0.96521248023E+02 -0.38559584455E+03  0.12475900380E+04  0.13093826875E+04  0.12699999809E+01 0. -1.
</event>
<event>
 5   0  0.1908726E-06  0.3440153E+04  0.7818609E-02  0.8128121E-01
        2   -1    0    0  501    0  0.00000000000E+00  0.00000000000E+00  0.15002700204E+04  0.15002700204E+04  0.25500000920E-02 0.  1.
       -2   -1    0    0    0  501  0.00000000000E+00  0.00000000000E+00 -0.19720869519E+04  0.19720869519E+04  0.25500000920E-02 0. -1.
    10030    2    1    2    0    0  0.00000000000E+00  0.00000000000E+00 -0.47181693151E+03  0.34723569723E+04  0.34401528638E+04 0.  0.
        5    1    3    3  502    0  0.40160158997E+02  0.14829914549E+04 -0.11145540064E+04  0.18555670876E+04  0.46999998093E+01 0. -1.
       -5    1    3    3    0  502 -0.40160158997E+02 -0.14829914549E+04  0.64273707485E+03  0.16167898846E+04  0.46999998093E+01 0.  1.
</event>
<event>
 5   0  0.2565004E-06  0.3508283E+04  0.7818609E-02  0.8111830E-01
        2   -1    0    0  501    0  0.00000000000E+00  0.00000000000E+00  0.22081385912E+04  0.22081385912E+04  0.25500000920E-02 0. -1.
       -2   -1    0    0    0  501  0.00000000000E+00  0.00000000000E+00 -0.13934868095E+04  0.13934868095E+04  0.25500000920E-02 0.  1.
    10030    2    1    2    0    0  0.00000000000E+00  0.00000000000E+00  0.81465178169E+03  0.36016254006E+04  0.35082827709E+04 0.  0.
        3    1    3    3  502    0  0.24920163484E+03  0.71200164642E+03 -0.12184647365E+04  0.14330750586E+04  0.10100000352E+00 0.  1.
       -3    1    3    3    0  502 -0.24920163484E+03 -0.71200164642E+03  0.20331165182E+04  0.21685503420E+04  0.10100000352E+00 0. -1.
</event>
<event>
 5   0  0.1908726E-06  0.3000653E+04  0.7818609E-02  0.8243544E-01
        2   -1    0    0  501    0  0.00000000000E+00  0.00000000000E+00  0.21378559377E+04  0.21378559377E+04  0.25500000920E-02 0.  1.
       -2   -1    0    0    0  501  0.00000000000E+00  0.00000000000E+00 -0.10529147034E+04  0.10529147034E+04  0.25500000920E-02 0. -1.
    10030    2    1    2    0    0  0.00000000000E+00  0.00000000000E+00  0.10849412342E+04  0.31907706411E+04  0.30006532293E+04 0.  0.
        5    1    3    3  502    0  0.44966911721E+03  0.61978389905E+02 -0.97813757654E+03  0.10783407831E+04  0.46999998093E+01 0. -1.
       -5    1    3    3    0  502 -0.44966911721E+03 -0.61978389905E+02  0.20630788108E+04  0.21124298581E+04  0.46999998093E+01 0.  1.
</event>
<event>
 5   0  0.2565004E-06  0.3478104E+04  0.7818609E-02  0.8118999E-01
        2   -1    0    0  501    0  0.00000000000E+00  0.00000000000E+00  0.28913681128E+04  0.28913681128E+04  0.25500000920E-02 0.  1.
       -2   -1    0    0    0  501  0.00000000000E+00  0.00000000000E+00 -0.10459757733E+04  0.10459757733E+04  0.25500000920E-02 0. -1.
    10030    2    1    2    0    0  0.00000000000E+00  0.00000000000E+00  0.18453923395E+04  0.39373438862E+04  0.34781035050E+04 0.  0.
        3    1    3    3  502    0 -0.95357289134E+03 -0.11691852341E+04  0.19017651138E+04  0.24275514267E+04  0.10100000352E+00 0.  1.
       -3    1    3    3    0  502  0.95357289134E+03  0.11691852341E+04 -0.56372774372E+02  0.15097924595E+04  0.10100000352E+00 0. -1.
</event>
<event>
 5   0  0.1782660E-06  0.3565690E+04  0.7818609E-02  0.8098396E-01
        2   -1    0    0  501    0  0.00000000000E+00  0.00000000000E+00  0.24560768669E+04  0.24560768669E+04  0.25500000920E-02 0.  1.
       -2   -1    0    0    0  501  0.00000000000E+00  0.00000000000E+00 -0.12941516240E+04  0.12941516240E+04  0.25500000920E-02 0. -1.
    10030    2    1    2    0    0  0.00000000000E+00  0.00000000000E+00  0.11619252428E+04  0.37502284909E+04  0.35656897599E+04 0.  0.
        4    1    3    3  502    0 -0.67863998579E+03  0.21425105995E+03 -0.11382863844E+04  0.13424430166E+04  0.12699999809E+01 0. -1.
       -4    1    3    3    0  502  0.67863998579E+03 -0.21425105995E+03  0.23002116273E+04  0.24077854743E+04  0.12699999809E+01 0.  1.
</event>
<event>
 5   0  0.1110956E-06  0.1855160E+04  0.7818609E-02  0.8677504E-01
        1   -1    0    0  501    0  0.00000000000E+00  0.00000000000E+00  0.73867333094E+03  0.73867333096E+03  0.50400001928E-02 0. -1.
       -1   -1    0    0    0  501  0.00000000000E+00  0.00000000000E+00 -0.11647975597E+04  0.11647975597E+04  0.50400001928E-02 0.  1.
    10030    2    1    2    0    0  0.00000000000E+00  0.00000000000E+00 -0.42612422879E+03  0.19034708907E+04  0.18551602554E+04 0.  0.
        1    1    3    3  502    0 -0.84979142669E+03 -0.32242534714E+03 -0.40309126383E+03  0.99427669205E+03  0.50400001928E-02 0.  1.
       -1    1    3    3    0  502  0.84979142669E+03  0.32242534714E+03 -0.23032964960E+02  0.90919419865E+03  0.50400001928E-02 0. -1.
</event>
<event>
 5   0  0.1125196E-06  0.3488178E+04  0.7818609E-02  0.8116597E-01
       -1   -1    0    0    0  501  0.00000000000E+00  0.00000000000E+00  0.13763807507E+04  0.13763807507E+04  0.50400001928E-02 0. -1.
        1   -1    0    0  501    0  0.00000000000E+00  0.00000000000E+00 -0.22100325687E+04  0.22100325687E+04  0.50400001928E-02 0.  1.
    10030    2    1    2    0    0  0.00000000000E+00  0.00000000000E+00 -0.83365181799E+03  0.35864133193E+04  0.34881779117E+04 0.  0.
        4    1    3    3  502    0  0.12565292730E+04 -0.84354089176E+03  0.47442995291E+03  0.15860367092E+04  0.12699999809E+01 0. -1.
       -4    1    3    3    0  502 -0.12565292730E+04  0.84354089176E+03 -0.13080817709E+04  0.20003766101E+04  0.12699999809E+01 0.  1.
</event>
<event>
 5   0  0.1089337E-06  0.2002943E+04  0.7818609E-02  0.8605246E-01
       -1   -1    0    0    0  501  0.00000000000E+00  0.00000000000E+00  0.68938940632E+03  0.68938940634E+03  0.50400001928E-02 0.  1.
        1   -1    0    0  501    0  0.00000000000E+00  0.00000000000E+00 -0.14548311604E+04  0.14548311604E+04  0.50400001928E-02 0. -1.
    10030    2    1    2    0    0  0.00000000000E+00  0.00000000000E+00 -0.76544175411E+03  0.21442205668E+04  0.20029430247E+04 0.  0.
        2    1    3    3  502    0 -0.23148106158E+03 -0.80648922778E+03 -0.96803712068E+03  0.12810559018E+04  0.25500000920E-02 0. -1.
       -2    1    3    3    0  502  0.23148106158E+03  0.80648922778E+03  0.20259536657E+03  0.86316466503E+03  0.25500000920E-02 0.  1.
</event>
<event>
 5   0  0.1548794E-06  0.1834501E+04  0.7818609E-02  0.8688164E-01
        1   -1    0    0  501    0  0.00000000000E+00  0.00000000000E+00  0.97721651513E+03  0.97721651515E+03  0.50400001928E-02 0.  1.
       -1   -1    0    0    0  501  0.00000000000E+00  0.00000000000E+00 -0.86096469581E+03  0.86096469583E+03  0.50400001928E-02 0. -1.
    10030    2    1    2    0    0  0.00000000000E+00  0.00000000000E+00  0.11625181932E+03  0.18381812110E+04  0.18345014797E+04 0.  0.
        3    1    3    3  502    0 -0.50400440620E+03  0.73581168931E+03  0.27282101001E+03  0.93266853560E+03  0.10100000352E+00 0.  1.
       -3    1    3    3    0  502  0.50400440620E+03 -0.73581168931E+03 -0.15656919068E+03  0.90551267537E+03  0.10100000352E+00 0. -1.
</event>
<event>
 5   0  0.3041329E-06  0.3019900E+04  0.7818609E-02  0.8238071E-01
        2   -1    0    0  501    0  0.00000000000E+00  0.00000000000E+00  0.11133851228E+04  0.11133851228E+04  0.25500000920E-02 0.  1.
       -2   -1    0    0    0  501  0.00000000000E+00  0.00000000000E+00 -0.20477631370E+04  0.20477631370E+04  0.25500000920E-02 0. -1.
    10030    2    1    2    0    0  0.00000000000E+00  0.00000000000E+00 -0.93437801422E+03  0.31611482598E+04  0.30199000062E+04 0.  0.
        2    1    3    3  502    0 -0.88233008848E+03 -0.11393721809E+04 -0.93913560053E+03  0.17200729716E+04  0.25500000920E-02 0. -1.
       -2    1    3    3    0  502  0.88233008848E+03  0.11393721809E+04  0.47575863081E+01  0.14410752882E+04  0.25500000920E-02 0.  1.
</event>
<event>
 5   0  0.1908726E-06  0.2279450E+04  0.7818609E-02  0.8486068E-01
       -2   -1    0    0    0  501  0.00000000000E+00  0.00000000000E+00  0.12413066562E+04  0.12413066562E+04  0.25500000920E-02 0.  1.
        2   -1    0    0  501    0  0.00000000000E+00  0.00000000000E+00 -0.10464563133E+04  0.10464563133E+04  0.25500000920E-02 0. -1.
    10030    2    1    2    0    0  0.00000000000E+00  0.00000000000E+00  0.19485034292E+03  0.22877629694E+04  0.22794500978E+04 0.  0.
        5    1    3    3  502    0 -0.94813628674E+02  0.10804552481E+04 -0.25396295144E+03  0.11139535170E+04  0.46999998093E+01 0. -1.
       -5    1    3    3    0  502  0.94813628674E+02 -0.10804552481E+04  0.44881329435E+03  0.11738094524E+04  0.46999998093E+01 0.  1.
</event>
<event>
 5   0  0.2565004E-06  0.3511400E+04  0.7818609E-02  0.8111094E-01
       -2   -1    0    0    0  501  0.00000000000E+00  0.00000000000E+00  0.17591529299E+04  0.17591529299E+04  0.25500000920E-02 0. -1.
        2   -1    0    0  501    0  0.00000000000E+00  0.00000000000E+00 -0.17522535761E+04  0.17522535761E+04  0.25500000920E-02 0.  1.
    10030    2    1    2    0    0  0.00000000000E+00  0.00000000000E+00  0.68993538615E+01  0.35114065060E+04  0.35113997279E+04 0.  0.
        3    1    3    3  502    0  0.41685486728E+03 -0.16453528476E+04 -0.44546992236E+03  0.17548211976E+04  0.10100000352E+00 0. -1.
       -3    1    3    3    0  502 -0.41685486728E+03  0.16453528476E+04  0.45236927622E+03  0.17565853084E+04  0.10100000352E+00 0.  1.
</event>
<event>
 5   0  0.1125196E-06  0.3445866E+04  0.7818609E-02  0.8126740E-01
        1   -1    0    0  501    0  0.00000000000E+00  0.00000000000E+00  0.17152746925E+04  0.17152746925E+04  0.50400001928E-02 0.  1.
       -1   -1    0    0    0  501  0.00000000000E+00  0.00000000000E+00 -0.17306256054E+04  0.17306256054E+04  0.50400001928E-02 0. -1.
    10030    2    1    2    0    0  0.00000000000E+00  0.00000000000E+00 -0.15350912882E+02  0.34459002979E+04  0.34458661048E+04 0.  0.
        4    1    3    3  502    0  0.32868881759E+03 -0.11946203868E+04 -0.12049101572E+04  0.17282836305E+04  0.12699999809E+01 0. -1.
       -4    1    3    3    0  502 -0.32868881759E+03  0.11946203868E+04  0.11895592444E+04  0.17176166674E+04  0.12699999809E+01 0.  1.
</event>
<event>
 5   0  0.2565004E-06  0.3180544E+04  0.7818609E-02  0.8193974E-01
       -2   -1    0    0    0  501  0.00000000000E+00  0.00000000000E+00  0.14164572445E+04  0.14164572445E+04  0.25500000920E-02 0. -1.
        2   -1    0    0  501    0  0.00000000000E+00  0.00000000000E+00 -0.17854155182E+04  0.17854155182E+04  0.25500000920E-02 0.  1.
    10030    2    1    2    0    0  0.00000000000E+00  0.00000000000E+00 -0.36895827368E+03  0.32018727627E+04  0.31805438184E+04 0.  0.
        3    1    3    3  502    0 -0.35673325285E+03 -0.64241630360E+03 -0.16042585922E+04  0.17645404392E+04  0.10100000352E+00 0.  1.
       -3    1    3    3    0  502  0.35673325285E+03  0.64241630360E+03  0.12353003185E+04  0.14373323234E+04  0.10100000352E+00 0. -1.
</event>
<event>
 5   0  0.2565004E-06  0.3393759E+04  0.7818609E-02  0.8139440E-01
        2   -1    0    0  501    0  0.00000000000E+00  0.00000000000E+00  0.11859294390E+04  0.11859294390E+04  0.25500000920E-02 0. -1.
       -2   -1    0    0    0  501  0.00000000000E+00  0.00000000000E+00 -0.24279689556E+04  0.24279689556E+04  0.25500000920E-02 0.  1.
    10030    2    1    2    0    0  0.00000000000E+00  0.00000000000E+00 -0.12420395166E+04  0.36138983946E+04  0.33937588962E+04 0.  0.
        3    1    3    3  502    0 -0.42529602232E+03  0.25702538812E+03 -0.23487499936E+04  0.24007426558E+04  0.10100000352E+00 0.  1.
       -3    1    3    3    0  502  0.42529602232E+03 -0.25702538812E+03  0.11067104769E+04  0.12131557389E+04  0.10100000352E+00 0. -1.
</event>
<event>
 5   0  0.2565004E-06  0.3476619E+04  0.7818609E-02  0.8119353E-01
        2   -1    0    0  501    0  0.00000000000E+00  0.00000000000E+00  0.19931014736E+04  0.19931014736E+04  0.25500000920E-02 0.  1.
       -2   -1    0    0    0  501  0.00000000000E+00  0.00000000000E+00 -0.15160895112E+04  0.15160895112E+04  0.25500000920E-02 0. -1.
    10030    2    1    2    0    0  0.00000000000E+00  0.00000000000E+00  0.47701196247E+03  0.35091909848E+04  0.34766191847E+04 0.  0.
        3    1    3    3  502    0 -0.77432600626E+03 -0.69571524533E+03 -0.11667006402E+04  0.15635827003E+04  0.10100000352E+00 0. -1.
       -3    1    3    3    0  502  0.77432600626E+03  0.69571524533E+03  0.16437126026E+04  0.19456082845E+04  0.10100000352E+00 0.  1.
</event>
<event>
 5   0  0.3378848E-06  0.3471509E+04  0.7818609E-02  0.8120575E-01
        2   -1    0    0  501    0  0.00000000000E+00  0.00000000000E+00  0.19787990534E+04  0.19787990534E+04  0.25500000920E-02 0.  1.
       -2   -1    0    0    0  501  0.00000000000E+00  0.00000000000E+00 -0.15225620671E+04  0.15225620671E+04  0.25500000920E-02 0. -1.
    10030    2    1    2    0    0  0.00000000000E+00  0.00000000000E+00  0.45623698623E+03  0.35013611205E+04  0.34715093992E+04 0.  0.
        1    1    3    3  502    0  0.30923968013E+02  0.15598784811E+04  0.99536160171E+03  0.18506544480E+04  0.50400001928E-02 0.  1.
       -1    1    3    3    0  502 -0.30923968013E+02 -0.15598784811E+04 -0.53912461548E+03  0.16507066725E+04  0.50400001928E-02 0. -1.
</event>
<event>
 5   0  0.1089337E-06  0.3367556E+04  0.7818609E-02  0.8145915E-01
       -1   -1    0    0    0  501  0.00000000000E+00  0.00000000000E+00  0.10821242957E+04  0.10821242957E+04  0.50400001928E-02 0.  1.
        1   -1    0    0  501    0  0.00000000000E+00  0.00000000000E+00 -0.26199471356E+04  0.26199471356E+04  0.50400001928E-02 0. -1.
    10030    2    1    2    0    0  0.00000000000E+00  0.00000000000E+00 -0.15378228399E+04  0.37020714313E+04  0.33675560568E+04 0.  0.
        2    1    3    3  502    0  0.18048107410E+03 -0.11040108406E+04 -0.21523686781E+04  0.24257172714E+04  0.25500000920E-02 0. -1.
       -2    1    3    3    0  502 -0.18048107410E+03  0.11040108406E+04  0.61454583820E+03  0.12763541599E+04  0.25500000920E-02 0.  1.
</event>
<event>
 5   0  0.1908726E-06  0.1798949E+04  0.7818609E-02  0.8706859E-01
       -2   -1    0    0    0  501  0.00000000000E+00  0.00000000000E+00  0.64359956173E+03  0.64359956173E+03  0.25500000920E-02 0.  1.
        2   -1    0    0  501    0  0.00000000000E+00  0.00000000000E+00 -0.12570774546E+04  0.12570774546E+04  0.25500000920E-02 0. -1.
    10030    2    1    2    0    0  0.00000000000E+00  0.00000000000E+00 -0.61347789291E+03  0.19006770164E+04  0.17989491364E+04 0.  0.
        5    1    3    3  502    0 -0.81905561861E+03 -0.21670245136E+03 -0.62584519338E+03  0.10533358225E+04  0.46999998093E+01 0. -1.
       -5    1    3    3    0  502  0.81905561861E+03  0.21670245136E+03  0.12367300466E+02  0.84734119392E+03  0.46999998093E+01 0.  1.
</event>
<event>
 5   0  0.1130707E-06  0.1948026E+04  0.7818609E-02  0.8631313E-01
       -1   -1    0    0    0  501  0.00000000000E+00  0.00000000000E+00  0.59546439106E+03  0.59546439108E+03  0.50400001928E-02 0. -1.
        1   -1    0    0  501    0  0.00000000000E+00  0.00000000000E+00 -0.15932120143E+04  0.15932120143E+04  0.50400001928E-02 0.  1.
    10030    2    1    2    0    0  0.00000000000E+00  0.00000000000E+00 -0.99774762325E+03  0.21886764054E+04  0.19480256897E+04 0.  0.
        3    1    3    3  502    0  0.87802098175E+03  0.41798857836E+03 -0.43666486925E+03  0.10659791341E+04  0.10100000352E+00 0. -1.
       -3    1    3    3    0  502 -0.87802098175E+03 -0.41798857836E+03 -0.56108275400E+03  0.11226972713E+04  0.10100000352E+00 0.  1.
</event>
<event>
 5   0  0.3041329E-06  0.2517791E+04  0.7818609E-02  0.8396675E-01
       -2   -1    0    0    0  501  0.00000000000E+00  0.00000000000E+00  0.16897742980E+04  0.16897742980E+04  0.25500000920E-02 0.  1.
        2   -1    0    0  501    0  0.00000000000E+00  0.00000000000E+00 -0.93788714455E+03  0.93788714456E+03  0.25500000920E-02 0. -1.
    10030    2    1    2    0    0  0.00000000000E+00  0.00000000000E+00  0.75188715344E+03  0.26276614426E+04  0.25177907707E+04 0.  0.
        2    1    3    3  502    0 -0.22159598354E+03  0.41393771606E+03  0.15949769457E+04  0.16626486911E+04  0.25500000920E-02 0.  1.
       -2    1    3    3    0  502  0.22159598354E+03 -0.41393771606E+03 -0.84308979225E+03  0.96501275147E+03  0.25500000920E-02 0. -1.
</event>
<event>
 5   0  0.1110956E-06  0.3140189E+04  0.7818609E-02  0.8204794E-01
       -1   -1    0    0    0  501  0.00000000000E+00  0.00000000000E+00  0.13352849554E+04  0.13352849554E+04  0.50400001928E-02 0. -1.
        1   -1    0    0  501    0  0.00000000000E+00  0.00000000000E+00 -0.18461950471E+04  0.18461950471E+04  0.50400001928E-02 0.  1.
    10030    2    1    2    0    0  0.00000000000E+00  0.00000000000E+00 -0.51091009167E+03  0.31814800025E+04  0.31401888294E+04 0.  0.
        1    1    3    3  502    0 -0.24499531841E+02 -0.10677682474E+04 -0.14214429349E+04  0.17779846103E+04  0.50400001928E-02 0.  1.
       -1    1    3    3    0  502  0.24499531841E+02  0.10677682474E+04  0.91053284325E+03  0.14034953922E+04  0.50400001928E-02 0. -1.
</event>
<event>
 5   0  0.1102175E-06  0.2251385E+04  0.7818609E-02  0.8497340E-01
        1   -1    0    0  501    0  0.00000000000E+00  0.00000000000E+00  0.16920957145E+04  0.16920957145E+04  0.50400001928E-02 0. -1.
       -1   -1    0    0    0  501  0.00000000000E+00  0.00000000000E+00 -0.74888401502E+03  0.74888401504E+03  0.50400001928E-02 0.  1.
    10030    2    1    2    0    0  0.00000000000E+00  0.00000000000E+00  0.94321169952E+03  0.24409797296E+04  0.22513848472E+04 0.  0.
        5    1    3    3  502    0 -0.10571710137E+04  0.38669143041E+03  0.46669351319E+03  0.12185917035E+04  0.46999998093E+01 0. -1.
       -5    1    3    3    0  502  0.10571710137E+04 -0.38669143041E+03  0.47651818633E+03  0.12223880261E+04  0.46999998093E+01 0.  1.
</event>
<event>
 5   0  0.1089337E-06  0.3435291E+04  0.7818609E-02  0.8129299E-01
        1   -1    0    0  501    0  0.00000000000E+00  0.00000000000E+00  0.21323079038E+04  0.21323079039E+04  0.50400001928E-02 0. -1.
       -1   -1    0    0    0  501  0.00000000000E+00  0.00000000000E+00 -0.13836207341E+04  0.13836207341E+04  0.50400001928E-02 0.  1.
    10030    2    1    2    0    0  0.00000000000E+00  0.00000000000E+00  0.74868716971E+03  0.35159286380E+04  0.34352906295E+04 0.  0.
        2    1    3    3  502    0 -0.54514533393E+03  0.16208897909E+04  0.20982750608E+03  0.17229320160E+04  0.25500000920E-02 0.  1.
       -2    1    3    3    0  502  0.54514533393E+03 -0.16208897909E+04  0.53885966363E+03  0.17929966220E+04  0.25500000920E-02 0. -1.
</event>
<event>
 5   0  0.1782660E-06  0.2950878E+04  0.7818609E-02  0.8257899E-01
       -2   -1    0    0    0  501  0.00000000000E+00  0.00000000000E+00  0.75515889375E+03  0.75515889376E+03  0.25500000920E-02 0.  1.
        2   -1    0    0  501    0  0.00000000000E+00  0.00000000000E+00 -0.28827319777E+04  0.28827319777E+04  0.25500000920E-02 0. -1.
    10030    2    1    2    0    0  0.00000000000E+00  0.00000000000E+00 -0.21275730840E+04  0.36378908715E+04  0.29508783040E+04 0.  0.
        4    1    3    3  502    0 -0.12441427221E+03 -0.14498192310E+04 -0.13644126951E+04  0.19947627250E+04  0.12699999809E+01 0. -1.
       -4    1    3    3    0  502  0.12441427221E+03  0.14498192310E+04 -0.76316038888E+03  0.16431281465E+04  0.12699999809E+01 0.  1.
</event>
<event>
 5   0  0.1130707E-06  0.2527799E+04  0.7818609E-02  0.8393149E-01
        1   -1    0    0  501    0  0.00000000000E+00  0.00000000000E+00  0.17780387669E+04  0.17780387669E+04  0.50400001928E-02 0.  1.
       -1   -1    0    0    0  501  0.00000000000E+00  0.00000000000E+00 -0.89842903191E+03  0.89842903192E+03  0.50400001928E-02 0. -1.
    10030    2    1    2    0    0  0.00000000000E+00  0.00000000000E+00  0.87960973499E+03  0.26764677988E+04  0.25277987642E+04 0.  0.
        3    1    3    3  502    0 -0.27495784079E+03 -0.45127434310E+03  0.16554553995E+04  0.17377522657E+04  0.10100000352E+00 0.  1.
       -3    1    3    3    0  502  0.27495784079E+03  0.45127434310E+03 -0.77584566448E+03  0.93871553318E+03  0.10100000352E+00 0. -1.
</event>
<event>
 5   0  0.1089337E-06  0.3563192E+04  0.7818609E-02  0.8098976E-01
       -1   -1    0    0    0  501  0.00000000000E+00  0.00000000000E+00  0.19125439208E+04  0.19125439209E+04  0.50400001928E-02 0.  1.
        1   -1    0    0  501    0  0.00000000000E+00  0.00000000000E+00 -0.16596133470E+04  0.16596133470E+04  0.50400001928E-02 0. -1.
    10030    2    1    2    0    0  0.00000000000E+00  0.00000000000E+00  0.25293057382E+03  0.35721572679E+04  0.35631915008E+04 0.  0.
        2    1    3    3  502    0 -0.36905940616E+02 -0.36997398875E+03 -0.16202852713E+04  0.16623980152E+04  0.25500000920E-02 0. -1.
       -2    1    3    3    0  502  0.36905940616E+02  0.36997398875E+03  0.18732158451E+04  0.19097592526E+04  0.25500000920E-02 0.  1.
</event>
<event>
 5   0  0.1102175E-06  0.2106225E+04  0.7818609E-02  0.8558506E-01
       -1   -1    0    0    0  501  0.00000000000E+00  0.00000000000E+00  0.89548732419E+03  0.89548732421E+03  0.50400001928E-02 0. -1.
        1   -1    0    0  501    0  0.00000000000E+00  0.00000000000E+00 -0.12384828424E+04  0.12384828424E+04  0.50400001928E-02 0.  1.
    10030    2    1    2    0    0  0.00000000000E+00  0.00000000000E+00 -0.34299551818E+03  0.21339701666E+04  0.21062247616E+04 0.  0.
        5    1    3    3  502    0  0.23645718344E+03 -0.69172746001E+03  0.59652799116E+03  0.94353940710E+03  0.46999998093E+01 0. -1.
       -5    1    3    3    0  502 -0.23645718344E+03  0.69172746001E+03 -0.93952350933E+03  0.11904307595E+04  0.46999998093E+01 0.  1.
</event>
<event>
 5   0  0.1089337E-06  0.3517459E+04  0.7818609E-02  0.8109665E-01
        1   -1    0    0  501    0  0.00000000000E+00  0.00000000000E+00  0.11324732164E+04  0.11324732164E+04  0.50400001928E-02 0.  1.
       -1   -1    0    0    0  501  0.00000000000E+00  0.00000000000E+00 -0.27313044312E+04  0.27313044313E+04  0.50400001928E-02 0. -1.
    10030    2    1    2    0    0  0.00000000000E+00  0.00000000000E+00 -0.15988312149E+04  0.38637776476E+04  0.35174588067E+04 0.  0.
        2    1    3    3  502    0  0.78206347633E+03  0.11133670140E+04  0.42472095086E+03  0.14253411083E+04  0.25500000920E-02 0.  1.
       -2    1    3    3    0  502 -0.78206347633E+03 -0.11133670140E+04 -0.20235521657E+04  0.24384365393E+04  0.25500000920E-02 0. -1.
</event>
<event>
 5   0  0.1125196E-06  0.2461055E+04  0.7818609E-02  0.8416993E-01
        1   -1    0    0  501    0  0.00000000000E+00  0.00000000000E+00  0.11561998647E+04  0.11561998647E+04  0.50400001928E-02 0. -1.
       -1   -1    0    0    0  501  0.00000000000E+00  0.00000000000E+00 -0.13096333612E+04  0.13096333612E+04  0.50400001928E-02 0.  1.
    10030    2    1    2    0    0  0.00000000000E+00  0.00000000000E+00 -0.15343349647E+03  0.24658332259E+04  0.24610549892E+04 0.  0.
        4    1    3    3  502    0  0.57963339938E+03 -0.79331897479E+03  0.66557685261E+03  0.11867282895E+04  0.12699999809E+01 0. -1.
       -4    1    3    3    0  502 -0.57963339938E+03  0.79331897479E+03 -0.81901034908E+03  0.12791049364E+04  0.12699999809E+01 0.  1.
</event>
<event>
 5   0  0.1782660E-06  0.2737356E+04  0.7818609E-02  0.8322985E-01
       -2   -1    0    0    0  501  0.00000000000E+00  0.00000000000E+00  0.10915325614E+04  0.10915325614E+04  0.25500000920E-02 0. -1.
        2   -1    0    0  501    0  0.00000000000E+00  0.00000000000E+00 -0.17161922880E+04  0.17161922880E+04  0.25500000920E-02 0.  1.
    10030    2    1    2    0    0  0.00000000000E+00  0.00000000000E+00 -0.62465972656E+03  0.28077248494E+04  0.27373562165E+04 0.  0.
        4    1    3    3  502    0  0.11983893594E+04 -0.47227353891E+03 -0.78693271622E+03  0.15094515776E+04  0.12699999809E+01 0.  1.
       -4    1    3    3    0  502 -0.11983893594E+04  0.47227353891E+03  0.16227298966E+03  0.12982732718E+04  0.12699999809E+01 0. -1.
</event>
<event>
 5   0  0.1125196E-06  0.1756995E+04  0.7818609E-02  0.8729510E-01
       -1   -1    0    0    0  501  0.00000000000E+00  0.00000000000E+00  0.46958691261E+03  0.46958691263E+03  0.50400001928E-02 0.  1.
        1   -1    0    0  501    0  0.00000000000E+00  0.00000000000E+00 -0.16434816554E+04  0.16434816554E+04  0.50400001928E-02 0. -1.
    10030    2    1    2    0    0  0.00000000000E+00  0.00000000000E+00 -0.11738947428E+04  0.21130685680E+04  0.17569945663E+04 0.  0.
        4    1    3    3  502    0  0.74471173848E+03  0.19273163610E+03 -0.76680602697E+02  0.77306053108E+03  0.12699999809E+01 0.  1.
       -4    1    3    3    0  502 -0.74471173848E+03 -0.19273163610E+03 -0.10972141401E+04  0.13400080370E+04  0.12699999809E+01 0. -1.
</event>
<event>
 5   0  0.3041329E-06  0.3324849E+04  0.7818609E-02  0.8156601E-01
       -2   -1    0    0    0  501  0.00000000000E+00  0.00000000000E+00  0.12243977403E+04  0.12243977403E+04  0.25500000920E-02 0.  1.
        2   -1    0    0  501    0  0.00000000000E+00  0.00000000000E+00 -0.22571542891E+04  0.22571542891E+04  0.25500000920E-02 0. -1.
    10030    2    1    2    0    0  0.00000000000E+00  0.00000000000E+00 -0.10327565488E+04  0.34815520294E+04  0.33248486348E+04 0.  0.
        2    1    3    3  502    0 -0.35102129117E+03 -0.21538861129E+03  0.11701354591E+04  0.12404939312E+04  0.25500000920E-02 0.  1.
       -2    1    3    3    0  502  0.35102129117E+03  0.21538861129E+03 -0.22028920080E+04  0.22410580982E+04  0.25500000920E-02 0. -1.
</event>
<event>
 5   0  0.2892500E-06  0.1809396E+04  0.7818609E-02  0.8701319E-01
       -2   -1    0    0    0  501  0.00000000000E+00  0.00000000000E+00  0.45371089697E+03  0.45371089697E+03  0.25500000920E-02 0. -1.
        2   -1    0    0  501    0  0.00000000000E+00  0.00000000000E+00 -0.18039652581E+04  0.18039652581E+04  0.25500000920E-02 0.  1.
    10030    2    1    2    0    0  0.00000000000E+00  0.00000000000E+00 -0.13502543611E+04  0.22576761551E+04  0.18093962478E+04 0.  0.
        3    1    3    3  502    0 -0.45255165788E+03 -0.62160500536E+03 -0.80271872548E+02  0.77307138704E+03  0.10100000352E+00 0. -1.
       -3    1    3    3    0  502  0.45255165788E+03  0.62160500536E+03 -0.12699824886E+04  0.14846047680E+04  0.10100000352E+00 0.  1.
</event>
<event>
 5   0  0.1130707E-06  0.3475419E+04  0.7818609E-02  0.8119640E-01
        1   -1    0    0  501    0  0.00000000000E+00  0.00000000000E+00  0.23554719454E+04  0.23554719455E+04  0.50400001928E-02 0. -1.
       -1   -1    0    0    0  501  0.00000000000E+00  0.00000000000E+00 -0.12819654782E+04  0.12819654782E+04  0.50400001928E-02 0.  1.
    10030    2    1    2    0    0  0.00000000000E+00  0.00000000000E+00  0.10735064672E+04  0.36374374237E+04  0.34754186620E+04 0.  0.
        3    1    3    3  502    0  0.14655397685E+04  0.97306748915E+01 -0.44043886888E+03  0.15303228112E+04  0.10100000352E+00 0.  1.
       -3    1    3    3    0  502 -0.14655397685E+04 -0.97306748915E+01  0.15139453361E+04  0.21071146125E+04  0.10100000352E+00 0. -1.
</event>
<event>
 5   0  0.1042825E-06  0.3449190E+04  0.7818609E-02  0.8125938E-01
        3   -1    0    0  501    0  0.00000000000E+00  0.00000000000E+00  0.10534877944E+04  0.10534877992E+04  0.10100000352E+00 0.  1.
       -3   -1    0    0    0  501  0.00000000000E+00  0.00000000000E+00 -0.28232197076E+04  0.28232197094E+04  0.10100000352E+00 0. -1.
    10030    2    1    2    0    0  0.00000000000E+00  0.00000000000E+00 -0.17697319133E+04  0.38767075086E+04  0.34491897690E+04 0.  0.
        3    1    3    3  502    0  0.28466572986E+03  0.21635302465E+03 -0.27811033808E+04  0.28039934440E+04  0.10100000352E+00 0. -1.
       -3    1    3    3    0  502 -0.28466572986E+03 -0.21635302465E+03  0.10113714675E+04  0.10727140647E+04  0.10100000352E+00 0.  1.
</event>
<event>
 5   0  0.1110956E-06  0.1878547E+04  0.7818609E-02  0.8665609E-01
       -1   -1    0    0    0  501  0.00000000000E+00  0.00000000000E+00  0.58569332717E+03  0.58569332719E+03  0.50400001928E-02 0.  1.
        1   -1    0    0  501    0  0.00000000000E+00  0.00000000000E+00 -0.15063086065E+04  0.15063086065E+04  0.50400001928E-02 0. -1.
    10030    2    1    2    0    0  0.00000000000E+00  0.00000000000E+00 -0.92061527931E+03  0.20920019337E+04  0.18785472041E+04 0.  0.
        1    1    3    3  502    0  0.64596496637E+03 -0.35514849938E+03 -0.11085438269E+04  0.13312665438E+04  0.50400001928E-02 0. -1.
       -1    1    3    3    0  502 -0.64596496637E+03  0.35514849938E+03  0.18792854762E+03  0.76073538989E+03  0.50400001928E-02 0.  1.
</event>
<event>
 5   0  0.1782660E-06  0.2212298E+04  0.7818609E-02  0.8513327E-01
        2   -1    0    0  501    0  0.00000000000E+00  0.00000000000E+00  0.13081879925E+04  0.13081879925E+04  0.25500000920E-02 0. -1.
       -2   -1    0    0    0  501  0.00000000000E+00  0.00000000000E+00 -0.93531352041E+03  0.93531352041E+03  0.25500000920E-02 0.  1.
    10030    2    1    2    0    0  0.00000000000E+00  0.00000000000E+00  0.37287447206E+03  0.22435015129E+04  0.22122982770E+04 0.  0.
        4    1    3    3  502    0 -0.10963172222E+04 -0.21318288700E+02  0.33408743921E+03  0.11462905177E+04  0.12699999809E+01 0. -1.
       -4    1    3    3    0  502  0.10963172222E+04  0.21318288700E+02  0.38787032849E+02  0.10972109952E+04  0.12699999809E+01 0.  1.
</event>
<event>
 5   0  0.1782660E-06  0.3118020E+04  0.7818609E-02  0.8210810E-01
       -2   -1    0    0    0  501  0.00000000000E+00  0.00000000000E+00  0.13390205187E+04  0.13390205187E+04  0.25500000920E-02 0. -1.
        2   -1    0    0  501    0  0.00000000000E+00  0.00000000000E+00 -0.18151422226E+04  0.18151422226E+04  0.25500000920E-02 0.  1.
    10030    2    1    2    0    0  0.00000000000E+00  0.00000000000E+00 -0.47612170398E+03  0.31541627413E+04  0.31180203209E+04 0.  0.
        4    1    3    3  502    0 -0.64378303457E+03  0.94353961820E+03 -0.13113910778E+04  0.17391008535E+04  0.12699999809E+01 0.  1.
       -4    1    3    3    0  502  0.64378303457E+03 -0.94353961820E+03  0.83526937381E+03  0.14150618879E+04  0.12699999809E+01 0. -1.
</event>
<event>
 5   0  0.3041329E-06  0.3397351E+04  0.7818609E-02  0.8138557E-01
        2   -1    0    0  501    0  0.00000000000E+00  0.00000000000E+00  0.19883550189E+04  0.19883550189E+04  0.25500000920E-02 0. -1.
       -2   -1    0    0    0  501  0.00000000000E+00  0.00000000000E+00 -0.14511987950E+04  0.14511987950E+04  0.25500000920E-02 0.  1.
    10030    2    1    2    0    0  0.00000000000E+00  0.00000000000E+00  0.53715622395E+03  0.34395538139E+04  0.33973509724E+04 0.  0.
        2    1    3    3  502    0 -0.71394481828E+03 -0.10892760907E+04 -0.83550020467E+03  0.15473526416E+04  0.25500000920E-02 0.  1.
       -2    1    3    3    0  502  0.71394481828E+03  0.10892760907E+04  0.13726564286E+04  0.18922011723E+04  0.25500000920E-02 0. -1.
</event>
<event>
 5   0  0.1042825E-06  0.3509712E+04  0.7818609E-02  0.8111492E-01
        3   -1    0    0  501    0  0.00000000000E+00  0.00000000000E+00  0.15943886733E+04  0.15943886765E+04  0.10100000352E+00 0. -1.
       -3   -1    0    0    0  501  0.00000000000E+00  0.00000000000E+00 -0.19314733279E+04  0.19314733305E+04  0.10100000352E+00 0.  1.
    10030    2    1    2    0    0  0.00000000000E+00  0.00000000000E+00 -0.33708465463E+03  0.35258620070E+04  0.35097117870E+04 0.  0.
        5    1    3    3  502    0  0.14576572954E+04 -0.71650850804E+03  0.49885487426E+03  0.16991255129E+04  0.46999998093E+01 0. -1.
       -5    1    3    3    0  502 -0.14576572954E+04  0.71650850804E+03 -0.83593952889E+03  0.18267364941E+04  0.46999998093E+01 0.  1.
</event>
<event>
 5   0  0.1110956E-06  0.1846484E+04  0.7818609E-02  0.8681963E-01
        1   -1    0    0  501    0  0.00000000000E+00  0.00000000000E+00  0.13507453139E+04  0.13507453139E+04  0.50400001928E-02 0. -1.
       -1   -1    0    0    0  501  0.00000000000E+00  0.00000000000E+00 -0.63104121110E+03  0.63104121112E+03  0.50400001928E-02 0.  1.
    10030    2    1    2    0    0  0.00000000000E+00  0.00000000000E+00  0.71970410281E+03  0.19817865250E+04  0.18464841822E+04 0.  0.
        1    1    3    3  502    0 -0.71135602458E+03  0.21402109986E+02  0.99107184056E+03  0.12201265661E+04  0.50400001928E-02 0. -1.
       -1    1    3    3    0  502  0.71135602458E+03 -0.21402109986E+02 -0.27136773775E+03  0.76165995899E+03  0.50400001928E-02 0.  1.
</event>
<event>
 5   0  0.3378848E-06  0.2452060E+04  0.7818609E-02  0.8420266E-01
        2   -1    0    0  501    0  0.00000000000E+00  0.00000000000E+00  0.17809602250E+04  0.17809602250E+04  0.25500000920E-02 0.  1.
       -2   -1    0    0    0  501  0.00000000000E+00  0.00000000000E+00 -0.84401080875E+03  0.84401080875E+03  0.25500000920E-02 0. -1.
    10030    2    1    2    0    0  0.00000000000E+00  0.00000000000E+00  0.93694941625E+03  0.26249710338E+04  0.24520600970E+04 0.  0.
        1    1    3    3  502    0  0.35423462894E+03 -0.40509917647E+03  0.16477750362E+04  0.17334214966E+04  0.50400001928E-02 0.  1.
       -1    1    3    3    0  502 -0.35423462894E+03  0.40509917647E+03 -0.71082561994E+03  0.89154953710E+03  0.50400001928E-02 0. -1.
</event>
<event>
 5   0  0.1130707E-06  0.2751766E+04  0.7818609E-02  0.8318401E-01
       -1   -1    0    0    0  501  0.00000000000E+00  0.00000000000E+00  0.11745623936E+04  0.11745623936E+04  0.50400001928E-02 0. -1.
        1   -1    0    0  501    0  0.00000000000E+00  0.00000000000E+00 -0.16117101825E+04  0.16117101826E+04  0.50400001928E-02 0.  1.
    10030    2    1    2    0    0  0.00000000000E+00  0.00000000000E+00 -0.43714778899E+03  0.27862725761E+04  0.27517661018E+04 0.  0.
        3    1    3    3  502    0 -0.85393446472E+03 -0.11929800183E+03  0.86707370389E+03  0.12228053408E+04  0.10100000352E+00 0. -1.
       -3    1    3    3    0  502  0.85393446472E+03  0.11929800183E+03 -0.13042214929E+04  0.15634672353E+04  0.10100000352E+00 0.  1.
</event>
<event>
 5   0  0.1208558E-06  0.1924278E+04  0.7818609E-02  0.8642865E-01
       -1   -1    0    0    0  501  0.00000000000E+00  0.00000000000E+00  0.81845556511E+03  0.81845556513E+03  0.50400001928E-02 0.  1.
        1   -1    0    0  501    0  0.00000000000E+00  0.00000000000E+00 -0.11310468802E+04  0.11310468802E+04  0.50400001928E-02 0. -1.
    10030    2    1    2    0    0  0.00000000000E+00  0.00000000000E+00 -0.31259131512E+03  0.19495024454E+04  0.19242781645E+04 0.  0.
        1    1    3    3  502    0 -0.37010288492E+03  0.59045965114E+02 -0.10540543941E+04  0.11187015854E+04  0.50400001928E-02 0. -1.
       -1    1    3    3    0  502  0.37010288492E+03 -0.59045965114E+02  0.74146307898E+03  0.83080085998E+03  0.50400001928E-02 0.  1.
</event>
<event>
 5   0  0.1130707E-06  0.3479391E+04  0.7818609E-02  0.8118691E-01
       -1   -1    0    0    0  501  0.00000000000E+00  0.00000000000E+00  0.14362502369E+04  0.14362502369E+04  0.50400001928E-02 0.  1.
        1   -1    0    0  501    0  0.00000000000E+00  0.00000000000E+00 -0.21072516931E+04  0.21072516931E+04  0.50400001928E-02 0. -1.
    10030    2    1    2    0    0  0.00000000000E+00  0.00000000000E+00 -0.67100145620E+03  0.35435019301E+04  0.34793911787E+04 0.  0.
        3    1    3    3  502    0  0.47774432482E+03 -0.10198461087E+04  0.10149085309E+04  0.15160359698E+04  0.10100000352E+00 0.  1.
       -3    1    3    3    0  502 -0.47774432482E+03  0.10198461087E+04 -0.16859099871E+04  0.20274659603E+04  0.10100000352E+00 0. -1.
</event>
<event>
 5   0  0.1782660E-06  0.3589892E+04  0.7818609E-02  0.8092811E-01
        2   -1    0    0  501    0  0.00000000000E+00  0.00000000000E+00  0.24094990798E+04  0.24094990798E+04  0.25500000920E-02 0. -1.
       -2   -1    0    0    0  501  0.00000000000E+00  0.00000000000E+00 -0.13371374346E+04  0.13371374346E+04  0.25500000920E-02 0.  1.
    10030    2    1    2    0    0  0.00000000000E+00  0.00000000000E+00  0.10723616452E+04  0.37466365145E+04  0.35898921535E+04 0.  0.
        4    1    3    3  502    0  0.24229397142E+03 -0.76047569489E+03  0.22141100735E+04  0.23535748728E+04  0.12699999809E+01 0. -1.
       -4    1    3    3    0  502 -0.24229397142E+03  0.76047569489E+03 -0.11417484283E+04  0.13930616417E+04  0.12699999809E+01 0.  1.
</event>
<event>
 5   0  0.1102175E-06  0.3600831E+04  0.7818609E-02  0.8090301E-01
        1   -1    0    0  501    0  0.00000000000E+00  0.00000000000E+00  0.22358158069E+04  0.22358158069E+04  0.50400001928E-02 0. -1.
       -1   -1    0    0    0  501  0.00000000000E+00  0.00000000000E+00 -0.14498042873E+04  0.14498042873E+04  0.50400001928E-02 0.  1.
    10030    2    1    2    0    0  0.00000000000E+00  0.00000000000E+00  0.78601151954E+03  0.36856200942E+04  0.36008306500E+04 0.  0.
        5    1    3    3  502    0  0.12389393416E+04 -0.11512731807E+03  0.17248952426E+04  0.21268546446E+04  0.46999998093E+01 0.  1.
       -5    1    3    3    0  502 -0.12389393416E+04  0.11512731807E+03 -0.93888372305E+03  0.15587654496E+04  0.46999998093E+01 0. -1.
</event>
<event>
 5   0  0.1908726E-06  0.3535596E+04  0.7818609E-02  0.8105406E-01
       -2   -1    0    0    0  501  0.00000000000E+00  0.00000000000E+00  0.13464143460E+04  0.13464143460E+04  0.25500000920E-02 0.  1.
        2   -1    0    0  501    0  0.00000000000E+00  0.00000000000E+00 -0.23210610260E+04  0.23210610260E+04  0.25500000920E-02 0. -1.
    10030    2    1    2    0    0  0.00000000000E+00  0.00000000000E+00 -0.97464667999E+03  0.36674753720E+04  0.35355960535E+04 0.  0.
        5    1    3    3  502    0  0.13196165850E+04 -0.32991540809E+03  0.68388747714E+03  0.15224835892E+04  0.46999998093E+01 0. -1.
       -5    1    3    3    0  502 -0.13196165850E+04  0.32991540809E+03 -0.16585341571E+04  0.21449917828E+04  0.46999998093E+01 0.  1.
</event>
<event>
 5   0  0.1110956E-06  0.3401999E+04  0.7818609E-02  0.8137416E-01
        1   -1    0    0  501    0  0.00000000000E+00  0.00000000000E+00  0.21100370583E+04  0.21100370583E+04  0.50400001928E-02 0. -1.
       -1   -1    0    0    0  501  0.00000000000E+00  0.00000000000E+00 -0.13712554485E+04  0.13712554485E+04  0.50400001928E-02 0.  1.
    10030    2    1    2    0    0  0.00000000000E+00  0.00000000000E+00  0.73878160983E+03  0.34812925068E+04  0.34019993020E+04 0.  0.
        1    1    3    3  502    0 -0.12384869990E+04 -0.19438149289E+03  0.15458680123E+04  0.19903120667E+04  0.50400001928E-02 0.  1.
       -1    1    3    3    0  502  0.12384869990E+04  0.19438149289E+03 -0.80708640251E+03  0.14909804400E+04  0.50400001928E-02 0. -1.
</event>
<event>
 5   0  0.3041329E-06  0.3317354E+04  0.7818609E-02  0.8158494E-01
        2   -1    0    0  501    0  0.00000000000E+00  0.00000000000E+00  0.16694641989E+04  0.16694641989E+04  0.25500000920E-02 0.  1.
       -2   -1    0    0    0  501  0.00000000000E+00  0.00000000000E+00 -0.16479591444E+04  0.16479591444E+04  0.25500000920E-02 0. -1.
    10030    2    1    2    0    0  0.00000000000E+00  0.00000000000E+00  0.21505054517E+02  0.33174233433E+04  0.33173536398E+04 0.  0.
        2    1    3    3  502    0 -0.37302931254E+03 -0.61348756108E+03 -0.14845015949E+04  0.16490187509E+04  0.25500000920E-02 0. -1.
       -2    1    3    3    0  502  0.37302931254E+03  0.61348756108E+03  0.15060066494E+04  0.16684045924E+04  0.25500000920E-02 0.  1.
</event>
<event>
 5   0  0.1125196E-06  0.3592542E+04  0.7818609E-02  0.8092202E-01
        1   -1    0    0  501    0  0.00000000000E+00  0.00000000000E+00  0.19367377103E+04  0.19367377103E+04  0.50400001928E-02 0.  1.
       -1   -1    0    0    0  501  0.00000000000E+00  0.00000000000E+00 -0.16659917792E+04  0.16659917793E+04  0.50400001928E-02 0. -1.
    10030    2    1    2    0    0  0.00000000000E+00  0.00000000000E+00  0.27074593102E+03  0.36027294895E+04  0.35925417764E+04 0.  0.
        4    1    3    3  502    0 -0.81577617989E+03  0.10955007318E+04 -0.10345435694E+04  0.17134452542E+04  0.12699999809E+01 0.  1.
       -4    1    3    3    0  502  0.81577617989E+03 -0.10955007318E+04  0.13052895004E+04  0.18892842354E+04  0.12699999809E+01 0. -1.
</event>
<event>
 5   0  0.1782660E-06  0.1940781E+04  0.7818609E-02  0.8634819E-01
       -2   -1    0    0    0  501  0.00000000000E+00  0.00000000000E+00  0.13151371358E+04  0.13151371358E+04  0.25500000920E-02 0.  1.
        2   -1    0    0  501    0  0.00000000000E+00  0.00000000000E+00 -0.71601489423E+03  0.71601489424E+03  0.25500000920E-02 0. -1.
    10030    2    1    2    0    0  0.00000000000E+00  0.00000000000E+00  0.59912224154E+03  0.20311520300E+04  0.19407810564E+04 0.  0.
        4    1    3    3  502    0  0.41782666989E+03  0.27633660823E+03 -0.57023079600E+03  0.75901635076E+03  0.12699999809E+01 0. -1.
       -4    1    3    3    0  502 -0.41782666989E+03 -0.27633660823E+03  0.11693530375E+04  0.12721356792E+04  0.12699999809E+01 0.  1.
</event>
<event>
 5   0  0.3378848E-06  0.3523060E+04  0.7818609E-02  0.8108347E-01
       -2   -1    0    0    0  501  0.00000000000E+00  0.00000000000E+00  0.11852303553E+04  0.11852303553E+04  0.25500000920E-02 0. -1.
        2   -1    0    0  501    0  0.00000000000E+00  0.00000000000E+00 -0.26180468684E+04  0.26180468684E+04  0.25500000920E-02 0.  1.
    10030    2    1    2    0    0  0.00000000000E+00  0.00000000000E+00 -0.14328165131E+04  0.38032772238E+04  0.35230603856E+04 0.  0.
        1    1    3    3  502    0 -0.80259713066E+02 -0.15941565133E+04 -0.15207994762E+04  0.22046785836E+04  0.50400001928E-02 0. -1.
       -1    1    3    3    0  502  0.80259713066E+02  0.15941565133E+04  0.87982963054E+02  0.15985986401E+04  0.50400001928E-02 0.  1.
</event>
<event>
 5   0  0.3378848E-06  0.3494136E+04  0.7818609E-02  0.8115181E-01
        2   -1    0    0  501    0  0.00000000000E+00  0.00000000000E+00  0.19844855914E+04  0.19844855914E+04  0.25500000920E-02 0.  1.
       -2   -1    0    0    0  501  0.00000000000E+00  0.00000000000E+00 -0.15380544289E+04  0.15380544289E+04  0.25500000920E-02 0. -1.
    10030    2    1    2    0    0  0.00000000000E+00  0.00000000000E+00  0.44643116244E+03  0.35225400203E+04  0.34941361467E+04 0.  0.
        1    1    3    3  502    0  0.48264901554E+03  0.44992482995E+02 -0.14689019993E+04  0.15468185024E+04  0.50400001928E-02 0. -1.
       -1    1    3    3    0  502 -0.48264901554E+03 -0.44992482995E+02  0.19153331618E+04  0.19757215179E+04  0.50400001928E-02 0.  1.
</event>
<event>
 5   0  0.3378848E-06  0.2464970E+04  0.7818609E-02  0.8415572E-01
        2   -1    0    0  501    0  0.00000000000E+00  0.00000000000E+00  0.12787164990E+04  0.12787164990E+04  0.25500000920E-02 0.  1.
       -2   -1    0    0    0  501  0.00000000000E+00  0.00000000000E+00 -0.11879252604E+04  0.11879252604E+04  0.25500000920E-02 0. -1.
    10030    2    1    2    0    0  0.00000000000E+00  0.00000000000E+00  0.90791238565E+02  0.24666417594E+04  0.24649702879E+04 0.  0.
        1    1    3    3  502    0 -0.10672455543E+04 -0.34718223211E+03  0.55512404048E+03  0.12520827751E+04  0.50400001928E-02 0.  1.
       -1    1    3    3    0  502  0.10672455543E+04  0.34718223211E+03 -0.46433280191E+03  0.12145589843E+04  0.50400001928E-02 0. -1.
</event>
<event>
 5   0  0.2565004E-06  0.2193488E+04  0.7818609E-02  0.8521143E-01
       -2   -1    0    0    0  501  0.00000000000E+00  0.00000000000E+00  0.81138412958E+03  0.81138412958E+03  0.25500000920E-02 0.  1.
        2   -1    0    0  501    0  0.00000000000E+00  0.00000000000E+00 -0.14824641271E+04  0.14824641271E+04  0.25500000920E-02 0. -1.
    10030    2    1    2    0    0  0.00000000000E+00  0.00000000000E+00 -0.67107999747E+03  0.22938482566E+04  0.21934884229E+04 0.  0.
        3    1    3    3  502    0 -0.22997619354E+03  0.10501446672E+04 -0.10845254714E+03  0.10804882401E+04  0.10100000352E+00 0.  1.
       -3    1    3    3    0  502  0.22997619354E+03 -0.10501446672E+04 -0.56262745034E+03  0.12133600166E+04  0.10100000352E+00 0. -1.
</event>
<event>
 5   0  0.1102175E-06  0.3481320E+04  0.7818609E-02  0.8118231E-01
       -1   -1    0    0    0  501  0.00000000000E+00  0.00000000000E+00  0.15265753572E+04  0.15265753572E+04  0.50400001928E-02 0. -1.
        1   -1    0    0  501    0  0.00000000000E+00  0.00000000000E+00 -0.19847679000E+04  0.19847679000E+04  0.50400001928E-02 0.  1.
    10030    2    1    2    0    0  0.00000000000E+00  0.00000000000E+00 -0.45819254279E+03  0.35113432572E+04  0.34813203046E+04 0.  0.
        5    1    3    3  502    0  0.34071742494E+03  0.79898611536E+03 -0.17505508505E+04  0.19542050932E+04  0.46999998093E+01 0.  1.
       -5    1    3    3    0  502 -0.34071742494E+03 -0.79898611536E+03  0.12923583077E+04  0.15571381640E+04  0.46999998093E+01 0. -1.
</event>
<event>
 5   0  0.1110956E-06  0.3497975E+04  0.7818609E-02  0.8114270E-01
        1   -1    0    0  501    0  0.00000000000E+00  0.00000000000E+00  0.21809071075E+04  0.21809071075E+04  0.50400001928E-02 0.  1.
       -1   -1    0    0    0  501  0.00000000000E+00  0.00000000000E+00 -0.14026075599E+04  0.14026075599E+04  0.50400001928E-02 0. -1.
    10030    2    1    2    0    0  0.00000000000E+00  0.00000000000E+00  0.77829954757E+03  0.35835146673E+04  0.34979747262E+04 0.  0.
        1    1    3    3  502    0 -0.60901154089E+03  0.12332030484E+04  0.14959737276E+04  0.20321471918E+04  0.50400001928E-02 0.  1.
       -1    1    3    3    0  502  0.60901154089E+03 -0.12332030484E+04 -0.71767418006E+03  0.15513674755E+04  0.50400001928E-02 0. -1.
</event>
<event>
 5   0  0.1089337E-06  0.2324399E+04  0.7818609E-02  0.8468363E-01
       -1   -1    0    0    0  501  0.00000000000E+00  0.00000000000E+00  0.66145477526E+03  0.66145477528E+03  0.50400001928E-02 0.  1.
        1   -1    0    0  501    0  0.00000000000E+00  0.00000000000E+00 -0.20420250711E+04  0.20420250711E+04  0.50400001928E-02 0. -1.
    10030    2    1    2    0    0  0.00000000000E+00  0.00000000000E+00 -0.13805702959E+04  0.27034798464E+04  0.23243986186E+04 0.  0.
        2    1    3    3  502    0  0.37444805725E+03 -0.62015304843E+03 -0.17472921402E+04  0.18915155232E+04  0.25500000920E-02 0. -1.
       -2    1    3    3    0  502 -0.37444805725E+03  0.62015304843E+03  0.36672184438E+03  0.81196432323E+03  0.25500000920E-02 0.  1.
</event>
<event>
 5   0  0.1782660E-06  0.2125520E+04  0.7818609E-02  0.8550084E-01
        2   -1    0    0  501    0  0.00000000000E+00  0.00000000000E+00  0.86438468132E+03  0.86438468132E+03  0.25500000920E-02 0.  1.
       -2   -1    0    0    0  501  0.00000000000E+00  0.00000000000E+00 -0.13066624986E+04  0.13066624986E+04  0.25500000920E-02 0. -1.
    10030    2    1    2    0    0  0.00000000000E+00  0.00000000000E+00 -0.44227781730E+03  0.21710471799E+04  0.21255202163E+04 0.  0.
        4    1    3    3  502    0  0.55712968230E+03  0.84381732044E+03 -0.55531050070E+03  0.11535998085E+04  0.12699999809E+01 0. -1.
       -4    1    3    3    0  502 -0.55712968230E+03 -0.84381732044E+03  0.11303268339E+03  0.10174473714E+04  0.12699999809E+01 0.  1.
</event>
<event>
 5   0  0.1125196E-06  0.3293247E+04  0.7818609E-02  0.8164616E-01
       -1   -1    0    0    0  501  0.00000000000E+00  0.00000000000E+00  0.17825164193E+04  0.17825164193E+04  0.50400001928E-02 0.  1.
        1   -1    0    0  501    0  0.00000000000E+00  0.00000000000E+00 -0.15210904972E+04  0.15210904972E+04  0.50400001928E-02 0. -1.
    10030    2    1    2    0    0  0.00000000000E+00  0.00000000000E+00  0.26142592204E+03  0.33036069165E+04  0.32932469003E+04 0.  0.
        4    1    3    3  502    0 -0.11025236902E+04 -0.60531605106E+03  0.11967890203E+04  0.17361657701E+04  0.12699999809E+01 0.  1.
       -4    1    3    3    0  502  0.11025236902E+04  0.60531605106E+03 -0.93536309825E+03  0.15674411465E+04  0.12699999809E+01 0. -1.
</event>
<event>
 5   0  0.1908726E-06  0.1750504E+04  0.7818609E-02  0.8733073E-01
       -2   -1    0    0    0  501  0.00000000000E+00  0.00000000000E+00  0.96089535818E+03  0.96089535818E+03  0.25500000920E-02 0. -1.
        2   -1    0    0  501    0  0.00000000000E+00  0.00000000000E+00 -0.79724147459E+03  0.79724147459E+03  0.25500000920E-02 0.  1.
    10030    2    1    2    0    0  0.00000000000E+00  0.00000000000E+00  0.16365388359E+03  0.17581368328E+04  0.17505035073E+04 0.  0.
        5    1    3    3  502    0 -0.34230356863E+03  0.80419481496E+03  0.35337857373E+02  0.87474104034E+03  0.46999998093E+01 0.  1.
       -5    1    3    3    0  502  0.34230356863E+03 -0.80419481496E+03  0.12831602622E+03  0.88339579243E+03  0.46999998093E+01 0. -1.
</event>
<event>
 5   0  0.1110956E-06  0.2069692E+04  0.7818609E-02  0.8574713E-01
        1   -1    0    0  501    0  0.00000000000E+00  0.00000000000E+00  0.17155860732E+04  0.17155860732E+04  0.50400001928E-02 0. -1.
       -1   -1    0    0    0  501  0.00000000000E+00  0.00000000000E+00 -0.62422203869E+03  0.62422203872E+03  0.50400001928E-02 0.  1.
    10030    2    1    2    0    0  0.00000000000E+00  0.00000000000E+00  0.10913640345E+04  0.23398081120E+04  0.20696923793E+04 0.  0.
        1    1    3    3  502    0  0.90007265878E+03 -0.11817186340E+03 -0.15956549781E+02  0.90793721803E+03  0.50400001928E-02 0.  1.
       -1    1    3    3    0  502 -0.90007265878E+03  0.11817186340E+03  0.11073205843E+04  0.14318708939E+04  0.50400001928E-02 0. -1.
</event>
<event>
 5   0  0.1125196E-06  0.1880085E+04  0.7818609E-02  0.8664834E-01
       -1   -1    0    0    0  501  0.00000000000E+00  0.00000000000E+00  0.78632984684E+03  0.78632984686E+03  0.50400001928E-02 0. -1.
        1   -1    0    0  501    0  0.00000000000E+00  0.00000000000E+00 -0.11238026147E+04  0.11238026147E+04  0.50400001928E-02 0.  1.
    10030    2    1    2    0    0  0.00000000000E+00  0.00000000000E+00 -0.33747276789E+03  0.19101324616E+04  0.18800846129E+04 0.  0.
        4    1    3    3  502    0 -0.32798635578E+03 -0.85021369748E+03  0.65688254057E+02  0.91364924374E+03  0.12699999809E+01 0.  1.
       -4    1    3    3    0  502  0.32798635578E+03  0.85021369748E+03 -0.40316102195E+03  0.99648321786E+03  0.12699999809E+01 0. -1.
</event>
<event>
 5   0  0.1110956E-06  0.3435011E+04  0.7818609E-02  0.8129367E-01
        1   -1    0    0  501    0  0.00000000000E+00  0.00000000000E+00  0.16104662413E+04  0.16104662413E+04  0.50400001928E-02 0.  1.
       -1   -1    0    0    0  501  0.00000000000E+00  0.00000000000E+00 -0.18316587619E+04  0.18316587619E+04  0.50400001928E-02 0. -1.
    10030    2    1    2    0    0  0.00000000000E+00  0.00000000000E+00 -0.22119252067E+03  0.34421250032E+04  0.34350106851E+04 0.  0.
        1    1    3    3  502    0 -0.61608010816E+03  0.85876054001E+03  0.12460171687E+04  0.16338859047E+04  0.50400001928E-02 0.  1.
       -1    1    3    3    0  502  0.61608010816E+03 -0.85876054001E+03 -0.14672096894E+04  0.18082390985E+04  0.50400001928E-02 0. -1.
</event>
<event>
 5   0  0.1908726E-06  0.2831027E+04  0.7818609E-02  0.8293700E-01
        2   -1    0    0  501    0  0.00000000000E+00  0.00000000000E+00  0.17649484389E+04  0.17649484389E+04  0.25500000920E-02 0.  1.
       -2   -1    0    0    0  501  0.00000000000E+00  0.00000000000E+00 -0.11352615868E+04  0.11352615868E+04  0.25500000920E-02 0. -1.
    10030    2    1    2    0    0  0.00000000000E+00  0.00000000000E+00  0.62968685216E+03  0.29002100257E+04  0.28310267857E+04 0.  0.
        5    1    3    3  502    0  0.12501940494E+04 -0.39208647422E+03 -0.23391391770E+03  0.13309600953E+04  0.46999998093E+01 0. -1.
       -5    1    3    3    0  502 -0.12501940494E+04  0.39208647422E+03  0.86360076986E+03  0.15692499304E+04  0.46999998093E+01 0.  1.
</event>
<event>
 5   0  0.1130707E-06  0.3689476E+04  0.7818609E-02  0.8070298E-01
       -1   -1    0    0    0  501  0.00000000000E+00  0.00000000000E+00  0.24271932279E+04  0.24271932279E+04  0.50400001928E-02 0.  1.
        1   -1    0    0  501    0  0.00000000000E+00  0.00000000000E+00 -0.14020551198E+04  0.14020551198E+04  0.50400001928E-02 0. -1.
    10030    2    1    2    0    0  0.00000000000E+00  0.00000000000E+00  0.10251381081E+04  0.38292483477E+04  0.36894762186E+04 0.  0.
        3    1    3    3  502    0  0.63758260669E+03 -0.88533138776E+03  0.20564491339E+04  0.23279403551E+04  0.10100000352E+00 0.  1.
       -3    1    3    3    0  502 -0.63758260669E+03  0.88533138776E+03 -0.10313110258E+04  0.15013079926E+04  0.10100000352E+00 0. -1.
</event>
<event>
 5   0  0.1908726E-06  0.3394847E+04  0.7818609E-02  0.8139172E-01
       -2   -1    0    0    0  501  0.00000000000E+00  0.00000000000E+00  0.28621717614E+04  0.28621717614E+04  0.25500000920E-02 0. -1.
        2   -1    0    0  501    0  0.00000000000E+00  0.00000000000E+00 -0.10066647332E+04  0.10066647332E+04  0.25500000920E-02 0.  1.
    10030    2    1    2    0    0  0.00000000000E+00  0.00000000000E+00  0.18555070282E+04  0.38688364947E+04  0.33948474915E+04 0.  0.
        5    1    3    3  502    0  0.43274167506E+03  0.50076377731E+03 -0.85355532331E+03  0.10800965225E+04  0.46999998093E+01 0.  1.
       -5    1    3    3    0  502 -0.43274167506E+03 -0.50076377731E+03  0.27090623515E+04  0.27887399721E+04  0.46999998093E+01 0. -1.
</event>
<event>
 5   0  0.2565004E-06  0.3429870E+04  0.7818609E-02  0.8130614E-01
       -2   -1    0    0    0  501  0.00000000000E+00  0.00000000000E+00  0.29667606567E+04  0.29667606567E+04  0.25500000920E-02 0. -1.
        2   -1    0    0  501    0  0.00000000000E+00  0.00000000000E+00 -0.99131768420E+03  0.99131768420E+03  0.25500000920E-02 0.  1.
    10030    2    1    2    0    0  0.00000000000E+00  0.00000000000E+00  0.19754429725E+04  0.39580783409E+04  0.34298701455E+04 0.  0.
        3    1    3    3  502    0  0.19654557974E+03 -0.64957650133E+03 -0.82975808771E+03  0.10719506940E+04  0.10100000352E+00 0.  1.
       -3    1    3    3    0  502 -0.19654557974E+03  0.64957650133E+03  0.28052010602E+04  0.28861276469E+04  0.10100000352E+00 0. -1.
</event>
<event>
 5   0  0.1102175E-06  0.3334309E+04  0.7818609E-02  0.8154220E-01
        1   -1    0    0  501    0  0.00000000000E+00  0.00000000000E+00  0.98819748834E+03  0.98819748835E+03  0.50400001928E-02 0.  1.
       -1   -1    0    0    0  501  0.00000000000E+00  0.00000000000E+00 -0.28125996023E+04  0.28125996023E+04  0.50400001928E-02 0. -1.
    10030    2    1    2    0    0  0.00000000000E+00  0.00000000000E+00 -0.18244021139E+04  0.38007970906E+04  0.33343088415E+04 0.  0.
        5    1    3    3  502    0  0.16435027195E+04 -0.47380689145E+02 -0.12265250287E+04  0.20512756652E+04  0.46999998093E+01 0. -1.
       -5    1    3    3    0  502 -0.16435027195E+04  0.47380689145E+02 -0.59787708527E+03  0.17495214254E+04  0.46999998093E+01 0.  1.
</event>
<event>
 5   0  0.1125196E-06  0.3537107E+04  0.7818609E-02  0.8105052E-01
        1   -1    0    0  501    0  0.00000000000E+00  0.00000000000E+00  0.34115824197E+04  0.34115824197E+04  0.50400001928E-02 0. -1.
       -1   -1    0    0    0  501  0.00000000000E+00  0.00000000000E+00 -0.91681269112E+03  0.91681269113E+03  0.50400001928E-02 0.  1.
    10030    2    1    2    0    0  0.00000000000E+00  0.00000000000E+00  0.24947697285E+04  0.43283951108E+04  0.35371073261E+04 0.  0.
        4    1    3    3  502    0 -0.13572102955E+04  0.84573367481E+03  0.21716672181E+04  0.26969288745E+04  0.12699999809E+01 0.  1.
       -4    1    3    3    0  502  0.13572102955E+04 -0.84573367481E+03  0.32310251040E+03  0.16314662363E+04  0.12699999809E+01 0. -1.
</event>
<event>
 5   0  0.2565004E-06  0.3412800E+04  0.7818609E-02  0.8134772E-01
        2   -1    0    0  501    0  0.00000000000E+00  0.00000000000E+00  0.22247492860E+04  0.22247492860E+04  0.25500000920E-02 0. -1.
       -2   -1    0    0    0  501  0.00000000000E+00  0.00000000000E+00 -0.13088217693E+04  0.13088217693E+04  0.25500000920E-02 0.  1.
    10030    2    1    2    0    0  0.00000000000E+00  0.00000000000E+00  0.91592751663E+03  0.35335710553E+04  0.34127996113E+04 0.  0.
        3    1    3    3  502    0 -0.11947274053E+04  0.11796566004E+03 -0.79759531798E+03  0.14413354125E+04  0.10100000352E+00 0. -1.
       -3    1    3    3    0  502  0.11947274053E+04 -0.11796566004E+03  0.17135228346E+04  0.20922356428E+04  0.10100000352E+00 0.  1.
</event>
<event>
 5   0  0.1110956E-06  0.3491086E+04  0.7818609E-02  0.8115906E-01
       -1   -1    0    0    0  501  0.00000000000E+00  0.00000000000E+00  0.20971263781E+04  0.20971263781E+04  0.50400001928E-02 0.  1.
        1   -1    0    0  501    0  0.00000000000E+00  0.00000000000E+00 -0.14529029954E+04  0.14529029954E+04  0.50400001928E-02 0. -1.
    10030    2    1    2    0    0  0.00000000000E+00  0.00000000000E+00  0.64422338273E+03  0.35500293735E+04  0.34910864764E+04 0.  0.
        1    1    3    3  502    0 -0.11491739902E+04  0.12524258646E+04 -0.81771459043E+02  0.17017220624E+04  0.50400001928E-02 0.  1.
       -1    1    3    3    0  502  0.11491739902E+04 -0.12524258646E+04  0.72599484178E+03  0.18483073111E+04  0.50400001928E-02 0. -1.
</event>
<event>
 5   0  0.1782660E-06  0.2667225E+04  0.7818609E-02  0.8345718E-01
        2   -1    0    0  501    0  0.00000000000E+00  0.00000000000E+00  0.13058825441E+04  0.13058825441E+04  0.25500000920E-02 0. -1.
       -2   -1    0    0    0  501  0.00000000000E+00  0.00000000000E+00 -0.13619317969E+04  0.13619317969E+04  0.25500000920E-02 0.  1.
    10030    2    1    2    0    0  0.00000000000E+00  0.00000000000E+00 -0.56049252876E+02  0.26678143410E+04  0.26672254947E+04 0.  0.
        4    1    3    3  502    0 -0.55645701785E+03 -0.45477367723E+03  0.10956368662E+04  0.13102996855E+04  0.12699999809E+01 0. -1.
       -4    1    3    3    0  502  0.55645701785E+03  0.45477367723E+03 -0.11516861191E+04  0.13575146556E+04  0.12699999809E+01 0.  1.
</event>
<event>
 5   0  0.1908726E-06  0.3536114E+04  0.7818609E-02  0.8105284E-01
       -2   -1    0    0    0  501  0.00000000000E+00  0.00000000000E+00  0.21790334168E+04  0.21790334168E+04  0.25500000920E-02 0.  1.
        2   -1    0    0  501    0  0.00000000000E+00  0.00000000000E+00 -0.14345931553E+04  0.14345931553E+04  0.25500000920E-02 0. -1.
    10030    2    1    2    0    0  0.00000000000E+00  0.00000000000E+00  0.74444026154E+03  0.36136265721E+04  0.35361144918E+04 0.  0.
        5    1    3    3  502    0 -0.15587584891E+04  0.15300074608E+03 -0.46604537056E+03  0.16341228941E+04  0.46999998093E+01 0. -1.
       -5    1    3    3    0  502  0.15587584891E+04 -0.15300074608E+03  0.12104856321E+04  0.19795036780E+04  0.46999998093E+01 0.  1.
</event>
<event>
 5   0  0.1782660E-06  0.3438231E+04  0.7818609E-02  0.8128586E-01
        2   -1    0    0  501    0  0.00000000000E+00  0.00000000000E+00  0.23544168447E+04  0.23544168447E+04  0.25500000920E-02 0. -1.
       -2   -1    0    0    0  501  0.00000000000E+00  0.00000000000E+00 -0.12552398963E+04  0.12552398963E+04  0.25500000920E-02 0.  1.
    10030    2    1    2    0    0  0.00000000000E+00  0.00000000000E+00  0.10991769484E+04  0.36096567411E+04  0.34382309149E+04 0.  0.
        4    1    3    3  502    0 -0.14184959463E+04 -0.93172763001E+03  0.83731339641E+03  0.18924435164E+04  0.12699999809E+01 0. -1.
       -4    1    3    3    0  502  0.14184959463E+04  0.93172763001E+03  0.26186355202E+03  0.17172132246E+04  0.12699999809E+01 0.  1.
</event>
<event>
 5   0  0.3041329E-06  0.3464464E+04  0.7818609E-02  0.8122263E-01
       -2   -1    0    0    0  501  0.00000000000E+00  0.00000000000E+00  0.17117042998E+04  0.17117042998E+04  0.25500000920E-02 0. -1.
        2   -1    0    0  501    0  0.00000000000E+00  0.00000000000E+00 -0.17530063785E+04  0.17530063785E+04  0.25500000920E-02 0.  1.
    10030    2    1    2    0    0  0.00000000000E+00  0.00000000000E+00 -0.41302078642E+02  0.34647106783E+04  0.34644644929E+04 0.  0.
        2    1    3    3  502    0  0.17075311548E+04  0.22498169516E+03  0.16469736142E+03  0.17301458403E+04  0.25500000920E-02 0. -1.
       -2    1    3    3    0  502 -0.17075311548E+04 -0.22498169516E+03 -0.20599944006E+03  0.17345648380E+04  0.25500000920E-02 0.  1.
</event>
<event>
 5   0  0.1089337E-06  0.2581891E+04  0.7818609E-02  0.8374379E-01
       -1   -1    0    0    0  501  0.00000000000E+00  0.00000000000E+00  0.13974913688E+04  0.13974913688E+04  0.50400001928E-02 0. -1.
        1   -1    0    0  501    0  0.00000000000E+00  0.00000000000E+00 -0.11925228352E+04  0.11925228353E+04  0.50400001928E-02 0.  1.
    10030    2    1    2    0    0  0.00000000000E+00  0.00000000000E+00  0.20496853360E+03  0.25900142041E+04  0.25818910662E+04 0.  0.
        2    1    3    3  502    0 -0.11617748846E+03 -0.39689351832E+03 -0.11242772797E+04  0.11979236517E+04  0.25500000920E-02 0.  1.
       -2    1    3    3    0  502  0.11617748846E+03  0.39689351832E+03  0.13292458133E+04  0.13920905524E+04  0.25500000920E-02 0. -1.
</event>
<event>
 5   0  0.1130707E-06  0.3439050E+04  0.7818609E-02  0.8128388E-01
       -1   -1    0    0    0  501  0.00000000000E+00  0.00000000000E+00  0.26809983729E+04  0.26809983729E+04  0.50400001928E-02 0. -1.
        1   -1    0    0  501    0  0.00000000000E+00  0.00000000000E+00 -0.11028598263E+04  0.11028598263E+04  0.50400001928E-02 0.  1.
    10030    2    1    2    0    0  0.00000000000E+00  0.00000000000E+00  0.15781385466E+04  0.37838581992E+04  0.34390495198E+04 0.  0.
        3    1    3    3  502    0  0.14264175099E+04 -0.85514777076E+02 -0.26327079564E+03  0.14530282900E+04  0.10100000352E+00 0.  1.
       -3    1    3    3    0  502 -0.14264175099E+04  0.85514777076E+02  0.18414093423E+04  0.23308299092E+04  0.10100000352E+00 0. -1.
</event>
<event>
 5   0  0.1125196E-06  0.3436940E+04  0.7818609E-02  0.8128899E-01
       -1   -1    0    0    0  501  0.00000000000E+00  0.00000000000E+00  0.16895322234E+04  0.16895322234E+04  0.50400001928E-02 0. -1.
        1   -1    0    0  501    0  0.00000000000E+00  0.00000000000E+00 -0.17479030769E+04  0.17479030769E+04  0.50400001928E-02 0.  1.
    10030    2    1    2    0    0  0.00000000000E+00  0.00000000000E+00 -0.58370853428E+02  0.34374353003E+04  0.34369396689E+04 0.  0.
        4    1    3    3  502    0 -0.28451535855E+01  0.10825945590E+04 -0.13639631693E+04  0.17413834196E+04  0.12699999809E+01 0.  1.
       -4    1    3    3    0  502  0.28451535855E+01 -0.10825945590E+04  0.13055923159E+04  0.16960518807E+04  0.12699999809E+01 0. -1.
</event>
<event>
 5   0  0.2565004E-06  0.3181533E+04  0.7818609E-02  0.8193711E-01
       -2   -1    0    0    0  501  0.00000000000E+00  0.00000000000E+00  0.81909493858E+03  0.81909493858E+03  0.25500000920E-02 0. -1.
        2   -1    0    0  501    0  0.00000000000E+00  0.00000000000E+00 -0.30894328614E+04  0.30894328614E+04  0.25500000920E-02 0.  1.
    10030    2    1    2    0    0  0.00000000000E+00  0.00000000000E+00 -0.22703379228E+04  0.39085278000E+04  0.31815334792E+04 0.  0.
        3    1    3    3  502    0 -0.15726430476E+03 -0.15273743436E+03  0.80044797710E+03  0.82992635797E+03  0.10100000352E+00 0. -1.
       -3    1    3    3    0  502  0.15726430476E+03  0.15273743436E+03 -0.30707858999E+04  0.30786014420E+04  0.10100000352E+00 0.  1.
</event>
<event>
 5   0  0.3378848E-06  0.2567708E+04  0.7818609E-02  0.8379254E-01
       -2   -1    0    0    0  501  0.00000000000E+00  0.00000000000E+00  0.11001993615E+04  0.11001993615E+04  0.25500000920E-02 0.  1.
        2   -1    0    0  501    0  0.00000000000E+00  0.00000000000E+00 -0.14981653807E+04  0.14981653807E+04  0.25500000920E-02 0. -1.
    10030    2    1    2    0    0  0.00000000000E+00  0.00000000000E+00 -0.39796601920E+03  0.25983647422E+04  0.25677076121E+04 0.  0.
        1    1    3    3  502    0  0.22435378089E+03 -0.57347135594E+03  0.94100021568E+03  0.11245823318E+04  0.50400001928E-02 0.  1.
       -1    1    3    3    0  502 -0.22435378089E+03  0.57347135594E+03 -0.13389662349E+04  0.14737824104E+04  0.50400001928E-02 0. -1.
</event>
<event>
 5   0  0.2565004E-06  0.3409327E+04  0.7818609E-02  0.8135621E-01
       -2   -1    0    0    0  501  0.00000000000E+00  0.00000000000E+00  0.12953788069E+04  0.12953788069E+04  0.25500000920E-02 0.  1.
        2   -1    0    0  501    0  0.00000000000E+00  0.00000000000E+00 -0.22432651195E+04  0.22432651195E+04  0.25500000920E-02 0. -1.
    10030    2    1    2    0    0  0.00000000000E+00  0.00000000000E+00 -0.94788631259E+03  0.35386439264E+04  0.34093272615E+04 0.  0.
        3    1    3    3  502    0 -0.12671521380E+04 -0.11394671013E+04 -0.51820170224E+03  0.17811773719E+04  0.10100000352E+00 0. -1.
       -3    1    3    3    0  502  0.12671521380E+04  0.11394671013E+04 -0.42968461035E+03  0.17574665545E+04  0.10100000352E+00 0.  1.
</event>
<event>
 5   0  0.1908726E-06  0.3371685E+04  0.7818609E-02  0.8144891E-01
        2   -1    0    0  501    0  0.00000000000E+00  0.00000000000E+00  0.15557218923E+04  0.15557218924E+04  0.25500000920E-02 0.  1.
       -2   -1    0    0    0  501  0.00000000000E+00  0.00000000000E+00 -0.18268466117E+04  0.18268466117E+04  0.25500000920E-02 0. -1.
    10030    2    1    2    0    0  0.00000000000E+00  0.00000000000E+00 -0.27112471932E+03  0.33825685040E+04  0.33716851975E+04 0.  0.
        5    1    3    3  502    0  0.98986581914E+03 -0.81818155102E+03  0.96011117934E+03  0.16034621782E+04  0.46999998093E+01 0.  1.
       -5    1    3    3    0  502 -0.98986581914E+03  0.81818155102E+03 -0.12312358987E+04  0.17791063258E+04  0.46999998093E+01 0. -1.
</event>
<event>
 5   0  0.1782660E-06  0.1982454E+04  0.7818609E-02  0.8614868E-01
        2   -1    0    0  501    0  0.00000000000E+00  0.00000000000E+00  0.20305392124E+04  0.20305392124E+04  0.25500000920E-02 0. -1.
       -2   -1    0    0    0  501  0.00000000000E+00  0.00000000000E+00 -0.48387679407E+03  0.48387679407E+03  0.25500000920E-02 0.  1.
    10030    2    1    2    0    0  0.00000000000E+00  0.00000000000E+00  0.15466624183E+04  0.25144160065E+04  0.19824538374E+04 0.  0.
        4    1    3    3  502    0  0.77713332230E+03 -0.21502621481E+03  0.42131045280E+02  0.80743365768E+03  0.12699999809E+01 0.  1.
       -4    1    3    3    0  502 -0.77713332230E+03  0.21502621481E+03  0.15045313730E+04  0.17069823488E+04  0.12699999809E+01 0. -1.
</event>
<event>
 5   0  0.1125196E-06  0.3069199E+04  0.7818609E-02  0.8224242E-01
        1   -1    0    0  501    0  0.00000000000E+00  0.00000000000E+00  0.14251934363E+04  0.14251934364E+04  0.50400001928E-02 0. -1.
       -1   -1    0    0    0  501  0.00000000000E+00  0.00000000000E+00 -0.16524044518E+04  0.16524044518E+04  0.50400001928E-02 0.  1.
    10030    2    1    2    0    0  0.00000000000E+00  0.00000000000E+00 -0.22721101546E+03  0.30775978882E+04  0.30691992304E+04 0.  0.
        4    1    3    3  502    0 -0.17463211321E+03  0.13804807428E+04  0.53529041818E+03  0.14908926524E+04  0.12699999809E+01 0.  1.
       -4    1    3    3    0  502  0.17463211321E+03 -0.13804807428E+04 -0.76250143364E+03  0.15867052358E+04  0.12699999809E+01 0. -1.
</event>
<event>
 5   0  0.3378848E-06  0.3405145E+04  0.7818609E-02  0.8136645E-01
       -2   -1    0    0    0  501  0.00000000000E+00  0.00000000000E+00  0.19187345911E+04  0.19187345911E+04  0.25500000920E-02 0. -1.
        2   -1    0    0  501    0  0.00000000000E+00  0.00000000000E+00 -0.15107626204E+04  0.15107626204E+04  0.25500000920E-02 0.  1.
    10030    2    1    2    0    0  0.00000000000E+00  0.00000000000E+00  0.40797197067E+03  0.34294972116E+04  0.34051446365E+04 0.  0.
        1    1    3    3  502    0  0.47667079013E+03 -0.38324545525E+03 -0.13962954701E+04  0.15243795987E+04  0.50400001928E-02 0.  1.
       -1    1    3    3    0  502 -0.47667079013E+03  0.38324545525E+03  0.18042674407E+04  0.19051176129E+04  0.50400001928E-02 0. -1.
</event>
<event>
 5   0  0.1125196E-06  0.3106079E+04  0.7818609E-02  0.8214071E-01
        1   -1    0    0  501    0  0.00000000000E+00  0.00000000000E+00  0.15773763012E+04  0.15773763012E+04  0.50400001928E-02 0. -1.
       -1   -1    0    0    0  501  0.00000000000E+00  0.00000000000E+00 -0.15290786581E+04  0.15290786581E+04  0.50400001928E-02 0.  1.
    10030    2    1    2    0    0  0.00000000000E+00  0.00000000000E+00  0.48297643122E+02  0.31064549594E+04  0.31060794826E+04 0.  0.
        4    1    3    3  502    0  0.70836875936E+03 -0.12881676497E+04 -0.47667975582E+03  0.15454408418E+04  0.12699999809E+01 0.  1.
       -4    1    3    3    0  502 -0.70836875936E+03  0.12881676497E+04  0.52497739894E+03  0.15610141176E+04  0.12699999809E+01 0. -1.
</event>
<event>
 5   0  0.1102175E-06  0.3410528E+04  0.7818609E-02  0.8135327E-01
        1   -1    0    0  501    0  0.00000000000E+00  0.00000000000E+00  0.27495880611E+04  0.27495880611E+04  0.50400001928E-02 0.  1.
       -1   -1    0    0    0  501  0.00000000000E+00  0.00000000000E+00 -0.10575856729E+04  0.10575856729E+04  0.50400001928E-02 0. -1.
    10030    2    1    2    0    0  0.00000000000E+00  0.00000000000E+00  0.16920023882E+04  0.38071737340E+04  0.34105277830E+04 0.  0.
        5    1    3    3  502    0 -0.39588087968E+03 -0.16878465551E+03  0.26879622116E+04  0.27222000059E+04  0.46999998093E+01 0.  1.
       -5    1    3    3    0  502  0.39588087968E+03  0.16878465551E+03 -0.99595982340E+03  0.10849737281E+04  0.46999998093E+01 0. -1.
</event>
<event>
 5   0  0.2565004E-06  0.2446557E+04  0.7818609E-02  0.8422276E-01
        2   -1    0    0  501    0  0.00000000000E+00  0.00000000000E+00  0.24611449631E+04  0.24611449631E+04  0.25500000920E-02 0. -1.
       -2   -1    0    0    0  501  0.00000000000E+00  0.00000000000E+00 -0.60801407414E+03  0.60801407414E+03  0.25500000920E-02 0.  1.
    10030    2    1    2    0    0  0.00000000000E+00  0.00000000000E+00  0.18531308890E+04  0.30691590373E+04  0.24465573985E+04 0.  0.
        3    1    3    3  502    0 -0.67969663302E+03  0.35992380581E+02 -0.34852505044E+03  0.76469123533E+03  0.10100000352E+00 0.  1.
       -3    1    3    3    0  502  0.67969663302E+03 -0.35992380581E+02  0.22016559394E+04  0.23044678020E+04  0.10100000352E+00 0. -1.
</event>
<event>
 5   0  0.1130707E-06  0.2398552E+04  0.7818609E-02  0.8440046E-01
        1   -1    0    0  501    0  0.00000000000E+00  0.00000000000E+00  0.88131022641E+03  0.88131022642E+03  0.50400001928E-02 0. -1.
       -1   -1    0    0    0  501  0.00000000000E+00  0.00000000000E+00 -0.16319603362E+04  0.16319603362E+04  0.50400001928E-02 0.  1.
    10030    2    1    2    0    0  0.00000000000E+00  0.00000000000E+00 -0.75065010978E+03  0.25132705626E+04  0.23985523412E+04 0.  0.
        3    1    3    3  502    0 -0.92321035473E+03  0.60711367799E+02 -0.11748804488E+04  0.14954421783E+04  0.10100000352E+00 0.  1.
       -3    1    3    3    0  502  0.92321035473E+03 -0.60711367799E+02  0.42423033905E+03  0.10178283844E+04  0.10100000352E+00 0. -1.
</event>
<event>
 5   0  0.1908726E-06  0.3497280E+04  0.7818609E-02  0.8114435E-01
       -2   -1    0    0    0  501  0.00000000000E+00  0.00000000000E+00  0.10944685846E+04  0.10944685846E+04  0.25500000920E-02 0. -1.
        2   -1    0    0  501    0  0.00000000000E+00  0.00000000000E+00 -0.27938147860E+04  0.27938147860E+04  0.25500000920E-02 0.  1.
    10030    2    1    2    0    0  0.00000000000E+00  0.00000000000E+00 -0.16993462014E+04  0.38882833706E+04  0.34972803802E+04 0.  0.
        5    1    3    3  502    0  0.50698251776E+03  0.20019635267E+03 -0.26969416228E+04  0.27514770688E+04  0.46999998093E+01 0.  1.
       -5    1    3    3    0  502 -0.50698251776E+03 -0.20019635267E+03  0.99759542144E+03  0.11368063018E+04  0.46999998093E+01 0. -1.
</event>
<event>
 5   0  0.3041329E-06  0.3688556E+04  0.7818609E-02  0.8070503E-01
        2   -1    0    0  501    0  0.00000000000E+00  0.00000000000E+00  0.30779754273E+04  0.30779754273E+04  0.25500000920E-02 0.  1.
       -2   -1    0    0    0  501  0.00000000000E+00  0.00000000000E+00 -0.11050646439E+04  0.11050646439E+04  0.25500000920E-02 0. -1.
    10030    2    1    2    0    0  0.00000000000E+00  0.00000000000E+00  0.19729107834E+04  0.41830400712E+04  0.36885562593E+04 0.  0.
        2    1    3    3  502    0 -0.31274780639E+03  0.13236921106E+04  0.23989801946E+04  0.27577305830E+04  0.25500000920E-02 0.  1.
       -2    1    3    3    0  502  0.31274780639E+03 -0.13236921106E+04 -0.42606941128E+03  0.14253094882E+04  0.25500000920E-02 0. -1.
</event>
<event>
 5   0  0.3378848E-06  0.3556010E+04  0.7818609E-02  0.8100643E-01
       -2   -1    0    0    0  501  0.00000000000E+00  0.00000000000E+00  0.21643704829E+04  0.21643704829E+04  0.25500000920E-02 0.  1.
        2   -1    0    0  501    0  0.00000000000E+00  0.00000000000E+00 -0.14606101187E+04  0.14606101187E+04  0.25500000920E-02 0. -1.
    10030    2    1    2    0    0  0.00000000000E+00  0.00000000000E+00  0.70376036422E+03  0.36249806015E+04  0.35560098019E+04 0.  0.
        1    1    3    3  502    0  0.44290841749E+03 -0.16536400242E+04 -0.13765075160E+03  0.17174518699E+04  0.50400001928E-02 0. -1.
       -1    1    3    3    0  502 -0.44290841749E+03  0.16536400242E+04  0.84141111582E+03  0.19075287316E+04  0.50400001928E-02 0.  1.
</event>
<event>
 5   0  0.1110956E-06  0.3259288E+04  0.7818609E-02  0.8173332E-01
        1   -1    0    0  501    0  0.00000000000E+00  0.00000000000E+00  0.77117122637E+03  0.77117122639E+03  0.50400001928E-02 0.  1.
       -1   -1    0    0    0  501  0.00000000000E+00  0.00000000000E+00 -0.34437742703E+04  0.34437742703E+04  0.50400001928E-02 0. -1.
    10030    2    1    2    0    0  0.00000000000E+00  0.00000000000E+00 -0.26726030439E+04  0.42149454967E+04  0.32592880372E+04 0.  0.
        1    1    3    3  502    0 -0.32183689375E+03  0.26357118780E+03  0.70135296007E+03  0.81544143373E+03  0.50400001928E-02 0.  1.
       -1    1    3    3    0  502  0.32183689375E+03 -0.26357118780E+03 -0.33739560040E+04  0.33995040629E+04  0.50400001928E-02 0. -1.
</event>
<event>
 5   0  0.1908726E-06  0.3164014E+04  0.7818609E-02  0.8198386E-01
       -2   -1    0    0    0  501  0.00000000000E+00  0.00000000000E+00  0.11488106593E+04  0.11488106594E+04  0.25500000920E-02 0. -1.
        2   -1    0    0  501    0  0.00000000000E+00  0.00000000000E+00 -0.21785538169E+04  0.21785538169E+04  0.25500000920E-02 0.  1.
    10030    2    1    2    0    0  0.00000000000E+00  0.00000000000E+00 -0.10297431575E+04  0.33273644762E+04  0.31640138096E+04 0.  0.
        5    1    3    3  502    0  0.78110310991E+03 -0.40276097406E+03  0.86848268214E+03  0.12355657529E+04  0.46999998093E+01 0. -1.
       -5    1    3    3    0  502 -0.78110310991E+03  0.40276097406E+03 -0.18982258397E+04  0.20917987233E+04  0.46999998093E+01 0.  1.
</event>
<event>
 5   0  0.1782660E-06  0.3653131E+04  0.7818609E-02  0.8078429E-01
       -2   -1    0    0    0  501  0.00000000000E+00  0.00000000000E+00  0.16259000643E+04  0.16259000643E+04  0.25500000920E-02 0.  1.
        2   -1    0    0  501    0  0.00000000000E+00  0.00000000000E+00 -0.20519964611E+04  0.20519964611E+04  0.25500000920E-02 0. -1.
    10030    2    1    2    0    0  0.00000000000E+00  0.00000000000E+00 -0.42609639680E+03  0.36778965254E+04  0.36531308096E+04 0.  0.
        4    1    3    3  502    0 -0.85957748140E+03  0.96181230189E+03  0.10889254162E+04  0.16881103416E+04  0.12699999809E+01 0.  1.
       -4    1    3    3    0  502  0.85957748140E+03 -0.96181230189E+03 -0.15150218130E+04  0.19897861838E+04  0.12699999809E+01 0. -1.
</event>
<event>
 5   0  0.3041329E-06  0.3506446E+04  0.7818609E-02  0.8112264E-01
        2   -1    0    0  501    0  0.00000000000E+00  0.00000000000E+00  0.21712939442E+04  0.21712939442E+04  0.25500000920E-02 0.  1.
       -2   -1    0    0    0  501  0.00000000000E+00  0.00000000000E+00 -0.14156490859E+04  0.14156490859E+04  0.25500000920E-02 0. -1.
    10030    2    1    2    0    0  0.00000000000E+00  0.00000000000E+00  0.75564485829E+03  0.35869430301E+04  0.35064456575E+04 0.  0.
        2    1    3    3  502    0 -0.82194268334E+03  0.82867087380E+02 -0.12040718142E+04  0.14602211006E+04  0.25500000920E-02 0. -1.
       -2    1    3    3    0  502  0.82194268334E+03 -0.82867087380E+02  0.19597166725E+04  0.21267219295E+04  0.25500000920E-02 0.  1.
</event>
<event>
 5   0  0.1908726E-06  0.2234878E+04  0.7818609E-02  0.8504050E-01
       -2   -1    0    0    0  501  0.00000000000E+00  0.00000000000E+00  0.46529240659E+03  0.46529240660E+03  0.25500000920E-02 0. -1.
        2   -1    0    0  501    0  0.00000000000E+00  0.00000000000E+00 -0.26836243806E+04  0.26836243806E+04  0.25500000920E-02 0.  1.
    10030    2    1    2    0    0  0.00000000000E+00  0.00000000000E+00 -0.22183319740E+04  0.31489167872E+04  0.22348781143E+04 0.  0.
        5    1    3    3  502    0 -0.11399605682E+03  0.58547314368E+03  0.22221528307E+03  0.63653407212E+03  0.46999998093E+01 0. -1.
       -5    1    3    3    0  502  0.11399605682E+03 -0.58547314368E+03 -0.24405472571E+04  0.25123827150E+04  0.46999998093E+01 0.  1.
</event>
<event>
 5   0  0.3041329E-06  0.2782106E+04  0.7818609E-02  0.8308845E-01
       -2   -1    0    0    0  501  0.00000000000E+00  0.00000000000E+00  0.98661652163E+03  0.98661652164E+03  0.25500000920E-02 0. -1.
        2   -1    0    0  501    0  0.00000000000E+00  0.00000000000E+00 -0.19612770088E+04  0.19612770088E+04  0.25500000920E-02 0.  1.
    10030    2    1    2    0    0  0.00000000000E+00  0.00000000000E+00 -0.97466048715E+03  0.29478935304E+04  0.27821058933E+04 0.  0.
        2    1    3    3  502    0  0.10983316105E+04 -0.48732417613E+03 -0.12299598053E+04  0.17194819865E+04  0.25500000920E-02 0.  1.
       -2    1    3    3    0  502 -0.10983316105E+04  0.48732417613E+03  0.25529931820E+03  0.12284115439E+04  0.25500000920E-02 0. -1.
</event>
<event>
 5   0  0.2565004E-06  0.2719634E+04  0.7818609E-02  0.8328662E-01
       -2   -1    0    0    0  501  0.00000000000E+00  0.00000000000E+00  0.12727472596E+04  0.12727472596E+04  0.25500000920E-02 0. -1.
        2   -1    0    0  501    0  0.00000000000E+00  0.00000000000E+00 -0.14528436581E+04  0.14528436581E+04  0.25500000920E-02 0.  1.
    10030    2    1    2    0    0  0.00000000000E+00  0.00000000000E+00 -0.18009639851E+03  0.27255909177E+04  0.27196343758E+04 0.  0.
        3    1    3    3  502    0  0.33260369992E+03 -0.12199653982E+04 -0.59130560788E+03  0.13959165899E+04  0.10100000352E+00 0.  1.
       -3    1    3    3    0  502 -0.33260369992E+03  0.12199653982E+04  0.41120920937E+03  0.13296743278E+04  0.10100000352E+00 0. -1.
</event>
<event>
 5   0  0.1102175E-06  0.2293628E+04  0.7818609E-02  0.8480438E-01
       -1   -1    0    0    0  501  0.00000000000E+00  0.00000000000E+00  0.81246806530E+03  0.81246806531E+03  0.50400001928E-02 0. -1.
        1   -1    0    0  501    0  0.00000000000E+00  0.00000000000E+00 -0.16187498016E+04  0.16187498016E+04  0.50400001928E-02 0.  1.
    10030    2    1    2    0    0  0.00000000000E+00  0.00000000000E+00 -0.80628173633E+03  0.24312178670E+04  0.22936281473E+04 0.  0.
        5    1    3    3  502    0  0.36739925272E+03 -0.37175598843E+02 -0.15539948680E+04  0.15972746714E+04  0.46999998093E+01 0.  1.
       -5    1    3    3    0  502 -0.36739925272E+03  0.37175598843E+02  0.74771313171E+03  0.83394319554E+03  0.46999998093E+01 0. -1.
</event>
<event>
 5   0  0.1782660E-06  0.3507326E+04  0.7818609E-02  0.8112056E-01
        2   -1    0    0  501    0  0.00000000000E+00  0.00000000000E+00  0.19877249731E+04  0.19877249731E+04  0.25500000920E-02 0.  1.
       -2   -1    0    0    0  501  0.00000000000E+00  0.00000000000E+00 -0.15471627327E+04  0.15471627327E+04  0.25500000920E-02 0. -1.
    10030    2    1    2    0    0  0.00000000000E+00  0.00000000000E+00  0.44056224048E+03  0.35348877058E+04  0.35073260477E+04 0.  0.
        4    1    3    3  502    0  0.14463431233E+04  0.71264409072E+03 -0.47474834594E+03  0.16808205244E+04  0.12699999809E+01 0. -1.
       -4    1    3    3    0  502 -0.14463431233E+04 -0.71264409072E+03  0.91531058643E+03  0.18540671814E+04  0.12699999809E+01 0.  1.
</event>
<event>
 5   0  0.3041329E-06  0.3264476E+04  0.7818609E-02  0.8171994E-01
        2   -1    0    0  501    0  0.00000000000E+00  0.00000000000E+00  0.10572326258E+04  0.10572326258E+04  0.25500000920E-02 0.  1.
       -2   -1    0    0    0  501  0.00000000000E+00  0.00000000000E+00 -0.25199759014E+04  0.25199759014E+04  0.25500000920E-02 0. -1.
    10030    2    1    2    0    0  0.00000000000E+00  0.00000000000E+00 -0.14627432757E+04  0.35772085272E+04  0.32644759084E+04 0.  0.
        2    1    3    3  502    0  0.20811757020E+03 -0.11289855577E+04  0.54007575029E+03  0.12687013552E+04  0.25500000920E-02 0.  1.
       -2    1    3    3    0  502 -0.20811757020E+03  0.11289855577E+04 -0.20028190259E+04  0.23085071720E+04  0.25500000920E-02 0. -1.
</event>
<event>
 5   0  0.2565004E-06  0.3476104E+04  0.7818609E-02  0.8119476E-01
        2   -1    0    0  501    0  0.00000000000E+00  0.00000000000E+00  0.23229199026E+04  0.23229199026E+04  0.25500000920E-02 0.  1.
       -2   -1    0    0    0  501  0.00000000000E+00  0.00000000000E+00 -0.13004427753E+04  0.13004427753E+04  0.25500000920E-02 0. -1.
    10030    2    1    2    0    0  0.00000000000E+00  0.00000000000E+00  0.10224771273E+04  0.36233626779E+04  0.34761037987E+04 0.  0.
        3    1    3    3  502    0 -0.14042560072E+04 -0.10211839404E+04  0.43000896498E+03  0.17887591492E+04  0.10100000352E+00 0. -1.
       -3    1    3    3    0  502  0.14042560072E+04  0.10211839404E+04  0.59246816229E+03  0.18346035286E+04  0.10100000352E+00 0.  1.
</event>
<event>
 5   0  0.1089337E-06  0.3478507E+04  0.7818609E-02  0.8118902E-01
        1   -1    0    0  501    0  0.00000000000E+00  0.00000000000E+00  0.25375161550E+04  0.25375161551E+04  0.50400001928E-02 0.  1.
       -1   -1    0    0    0  501  0.00000000000E+00  0.00000000000E+00 -0.11921118974E+04  0.11921118974E+04  0.50400001928E-02 0. -1.
    10030    2    1    2    0    0  0.00000000000E+00  0.00000000000E+00  0.13454042576E+04  0.37296280525E+04  0.34785072651E+04 0.  0.
        2    1    3    3  502    0  0.42670214413E+02  0.98075383787E+03  0.22120744343E+04  0.24201182080E+04  0.25500000920E-02 0.  1.
       -2    1    3    3    0  502 -0.42670214413E+02 -0.98075383787E+03 -0.86667017668E+03  0.13095098445E+04  0.25500000920E-02 0. -1.
</event>
<event>
 5   0  0.3378848E-06  0.3280150E+04  0.7818609E-02  0.8167965E-01
        2   -1    0    0  501    0  0.00000000000E+00  0.00000000000E+00  0.16348144036E+04  0.16348144036E+04  0.25500000920E-02 0. -1.
       -2   -1    0    0    0  501  0.00000000000E+00  0.00000000000E+00 -0.16453527561E+04  0.16453527561E+04  0.25500000920E-02 0.  1.
    10030    2    1    2    0    0  0.00000000000E+00  0.00000000000E+00 -0.10538352489E+02  0.32801671597E+04  0.32801502311E+04 0.  0.
        1    1    3    3  502    0  0.14333742047E+04  0.57788678701E+03  0.54367047940E+03  0.16383199747E+04  0.50400001928E-02 0.  1.
       -1    1    3    3    0  502 -0.14333742047E+04 -0.57788678701E+03 -0.55420883189E+03  0.16418471850E+04  0.50400001928E-02 0. -1.
</event>
<event>
 5   0  0.1089337E-06  0.2258539E+04  0.7818609E-02  0.8494450E-01
       -1   -1    0    0    0  501  0.00000000000E+00  0.00000000000E+00  0.86523404225E+03  0.86523404227E+03  0.50400001928E-02 0.  1.
        1   -1    0    0  501    0  0.00000000000E+00  0.00000000000E+00 -0.14738787871E+04  0.14738787871E+04  0.50400001928E-02 0. -1.
    10030    2    1    2    0    0  0.00000000000E+00  0.00000000000E+00 -0.60864474482E+03  0.23391128293E+04  0.22585394402E+04 0.  0.
        2    1    3    3  502    0  0.40200354632E+03  0.73116953567E+03  0.48376734240E+03  0.96449291481E+03  0.25500000920E-02 0.  1.
       -2    1    3    3    0  502 -0.40200354632E+03 -0.73116953567E+03 -0.10924120872E+04  0.13746199145E+04  0.25500000920E-02 0. -1.
</event>
<event>
 5   0  0.3041329E-06  0.3452115E+04  0.7818609E-02  0.8125233E-01
        2   -1    0    0  501    0  0.00000000000E+00  0.00000000000E+00  0.19902357063E+04  0.19902357063E+04  0.25500000920E-02 0.  1.
       -2   -1    0    0    0  501  0.00000000000E+00  0.00000000000E+00 -0.14969452798E+04  0.14969452798E+04  0.25500000920E-02 0. -1.
    10030    2    1    2    0    0  0.00000000000E+00  0.00000000000E+00  0.49329042653E+03  0.34871809861E+04  0.34521146831E+04 0.  0.
        2    1    3    3  502    0  0.73661580722E+03  0.73010977764E+03  0.16403742698E+04  0.19407449291E+04  0.25500000920E-02 0.  1.
       -2    1    3    3    0  502 -0.73661580722E+03 -0.73010977764E+03 -0.11470838433E+04  0.15464360570E+04  0.25500000920E-02 0. -1.
</event>
<event>
 5   0  0.3683443E-06  0.1890800E+04  0.7818609E-02  0.8659449E-01
       -2   -1    0    0    0  501  0.00000000000E+00  0.00000000000E+00  0.45640641839E+03  0.45640641840E+03  0.25500000920E-02 0.  1.
        2   -1    0    0  501    0  0.00000000000E+00  0.00000000000E+00 -0.19583008749E+04  0.19583008749E+04  0.25500000920E-02 0. -1.
    10030    2    1    2    0    0  0.00000000000E+00  0.00000000000E+00 -0.15018944565E+04  0.24147072933E+04  0.18907999243E+04 0.  0.
        3    1    3    3  502    0  0.82955853499E+02  0.10407447643E+03 -0.19462771842E+04  0.19508224056E+04  0.10100000352E+00 0. -1.
       -3    1    3    3    0  502 -0.82955853499E+02 -0.10407447643E+03  0.44438272763E+03  0.46388488776E+03  0.10100000352E+00 0.  1.
</event>
<event>
 5   0  0.1125196E-06  0.3507548E+04  0.7818609E-02  0.8112003E-01
       -1   -1    0    0    0  501  0.00000000000E+00  0.00000000000E+00  0.16673218810E+04  0.16673218810E+04  0.50400001928E-02 0. -1.
        1   -1    0    0  501    0  0.00000000000E+00  0.00000000000E+00 -0.18447087528E+04  0.18447087528E+04  0.50400001928E-02 0.  1.
    10030    2    1    2    0    0  0.00000000000E+00  0.00000000000E+00 -0.17738687176E+03  0.35120306338E+04  0.35075480140E+04 0.  0.
        4    1    3    3  502    0  0.90827379137E+03 -0.12705610617E+04 -0.88748171871E+03  0.17963607949E+04  0.12699999809E+01 0.  1.
       -4    1    3    3    0  502 -0.90827379137E+03  0.12705610617E+04  0.71009484695E+03  0.17156698389E+04  0.12699999809E+01 0. -1.
</event>
<event>
 5   0  0.1089337E-06  0.3838280E+04  0.7818609E-02  0.8037990E-01
       -1   -1    0    0    0  501  0.00000000000E+00  0.00000000000E+00  0.12592050942E+04  0.12592050942E+04  0.50400001928E-02 0.  1.
        1   -1    0    0  501    0  0.00000000000E+00  0.00000000000E+00 -0.29249398012E+04  0.29249398012E+04  0.50400001928E-02 0. -1.
    10030    2    1    2    0    0  0.00000000000E+00  0.00000000000E+00 -0.16657347071E+04  0.41841448954E+04  0.38382803951E+04 0.  0.
        2    1    3    3  502    0 -0.85687380617E+03 -0.44153867082E+03  0.97615897577E+03  0.13718875550E+04  0.25500000920E-02 0.  1.
       -2    1    3    3    0  502  0.85687380617E+03  0.44153867082E+03 -0.26418936828E+04  0.28122573404E+04  0.25500000920E-02 0. -1.
</event>
<event>
 5   0  0.1110956E-06  0.3471783E+04  0.7818609E-02  0.8120510E-01
       -1   -1    0    0    0  501  0.00000000000E+00  0.00000000000E+00  0.16574319294E+04  0.16574319295E+04  0.50400001928E-02 0.  1.
        1   -1    0    0  501    0  0.00000000000E+00  0.00000000000E+00 -0.18180653413E+04  0.18180653413E+04  0.50400001928E-02 0. -1.
    10030    2    1    2    0    0  0.00000000000E+00  0.00000000000E+00 -0.16063341181E+03  0.34754972707E+04  0.34717831421E+04 0.  0.
        1    1    3    3  502    0  0.13965600657E+04  0.66993541817E+03  0.70418361735E+03  0.17014899496E+04  0.50400001928E-02 0.  1.
       -1    1    3    3    0  502 -0.13965600657E+04 -0.66993541817E+03 -0.86481702916E+03  0.17740073211E+04  0.50400001928E-02 0. -1.
</event>
<event>
 5   0  0.1130707E-06  0.2599127E+04  0.7818609E-02  0.8368498E-01
        1   -1    0    0  501    0  0.00000000000E+00  0.00000000000E+00  0.21748683062E+04  0.21748683062E+04  0.50400001928E-02 0.  1.
       -1   -1    0    0    0  501  0.00000000000E+00  0.00000000000E+00 -0.77653696576E+03  0.77653696577E+03  0.50400001928E-02 0. -1.
    10030    2    1    2    0    0  0.00000000000E+00  0.00000000000E+00  0.13983313404E+04  0.29514052720E+04  0.25991272654E+04 0.  0.
        3    1    3    3  502    0  0.26297978745E+03 -0.10773411768E+04  0.14685230152E+04  0.18402125519E+04  0.10100000352E+00 0.  1.
       -3    1    3    3    0  502 -0.26297978745E+03  0.10773411768E+04 -0.70191674730E+02  0.11111927201E+04  0.10100000352E+00 0. -1.
</event>
<event>
 5   0  0.1130707E-06  0.3192911E+04  0.7818609E-02  0.8190692E-01
       -1   -1    0    0    0  501  0.00000000000E+00  0.00000000000E+00  0.12083450804E+04  0.12083450804E+04  0.50400001928E-02 0.  1.
        1   -1    0    0  501    0  0.00000000000E+00  0.00000000000E+00 -0.21092238502E+04  0.21092238502E+04  0.50400001928E-02 0. -1.
    10030    2    1    2    0    0  0.00000000000E+00  0.00000000000E+00 -0.90087876985E+03  0.33175689306E+04  0.31929110623E+04 0.  0.
        3    1    3    3  502    0  0.95837080472E+03 -0.65420544001E+03 -0.15897009959E+04  0.19681485268E+04  0.10100000352E+00 0. -1.
       -3    1    3    3    0  502 -0.95837080472E+03  0.65420544001E+03  0.68882222601E+03  0.13494204039E+04  0.10100000352E+00 0.  1.
</event>
<event>
 5   0  0.1125196E-06  0.3062544E+04  0.7818609E-02  0.8226093E-01
        1   -1    0    0  501    0  0.00000000000E+00  0.00000000000E+00  0.25707787983E+04  0.25707787983E+04  0.50400001928E-02 0. -1.
       -1   -1    0    0    0  501  0.00000000000E+00  0.00000000000E+00 -0.91209466538E+03  0.91209466540E+03  0.50400001928E-02 0.  1.
    10030    2    1    2    0    0  0.00000000000E+00  0.00000000000E+00  0.16586841329E+04  0.34828734637E+04  0.30625437975E+04 0.  0.
        4    1    3    3  502    0  0.75544916763E+03 -0.15438578100E+03  0.23338894786E+04  0.24579625964E+04  0.12699999809E+01 0. -1.
       -4    1    3    3    0  502 -0.75544916763E+03  0.15438578100E+03 -0.67520534564E+03  0.10249108673E+04  0.12699999809E+01 0.  1.
</event>
<event>
 5   0  0.2565004E-06  0.3489947E+04  0.7818609E-02  0.8116177E-01
        2   -1    0    0  501    0  0.00000000000E+00  0.00000000000E+00  0.17824878406E+04  0.17824878406E+04  0.25500000920E-02 0. -1.
       -2   -1    0    0    0  501  0.00000000000E+00  0.00000000000E+00 -0.17082482962E+04  0.17082482962E+04  0.25500000920E-02 0.  1.
    10030    2    1    2    0    0  0.00000000000E+00  0.00000000000E+00  0.74239544453E+02  0.34907361368E+04  0.34899465994E+04 0.  0.
        3    1    3    3  502    0  0.40961929442E+03 -0.15740535241E+04  0.66932236855E+03  0.17588134939E+04  0.10100000352E+00 0. -1.
       -3    1    3    3    0  502 -0.40961929442E+03  0.15740535241E+04 -0.59508282409E+03  0.17319226429E+04  0.10100000352E+00 0.  1.
</event>
<event>
 5   0  0.1130707E-06  0.3525537E+04  0.7818609E-02  0.8107765E-01
       -1   -1    0    0    0  501  0.00000000000E+00  0.00000000000E+00  0.16875448255E+04  0.16875448255E+04  0.50400001928E-02 0. -1.
        1   -1    0    0  501    0  0.00000000000E+00  0.00000000000E+00 -0.18413449658E+04  0.18413449658E+04  0.50400001928E-02 0.  1.
    10030    2    1    2    0    0  0.00000000000E+00  0.00000000000E+00 -0.15380014028E+03  0.35288897913E+04  0.35255366507E+04 0.  0.
        3    1    3    3  502    0 -0.11227149158E+04 -0.45037279974E+01 -0.14371786560E+04  0.18237301240E+04  0.10100000352E+00 0.  1.
       -3    1    3    3    0  502  0.11227149158E+04  0.45037279974E+01  0.12833785158E+04  0.17051596672E+04  0.10100000352E+00 0. -1.
</event>
<event>
 5   0  0.1130707E-06  0.3503309E+04  0.7818609E-02  0.8113006E-01
        1   -1    0    0  501    0  0.00000000000E+00  0.00000000000E+00  0.14420665302E+04  0.14420665302E+04  0.50400001928E-02 0.  1.
       -1   -1    0    0    0  501  0.00000000000E+00  0.00000000000E+00 -0.21277053524E+04  0.21277053524E+04  0.50400001928E-02 0. -1.
    10030    2    1    2    0    0  0.00000000000E+00  0.00000000000E+00 -0.68563882213E+03  0.35697718826E+04  0.35033085361E+04 0.  0.
        3    1    3    3  502    0  0.47268736691E+03 -0.14168155082E+04 -0.12753277082E+04  0.19639909126E+04  0.10100000352E+00 0. -1.
       -3    1    3    3    0  502 -0.47268736691E+03  0.14168155082E+04  0.58968888603E+03  0.16057809700E+04  0.10100000352E+00 0.  1.
</event>
<event>
 5   0  0.2565004E-06  0.3222541E+04  0.7818609E-02  0.8182889E-01
       -2   -1    0    0    0  501  0.00000000000E+00  0.00000000000E+00  0.15928673379E+04  0.15928673379E+04  0.25500000920E-02 0.  1.
        2   -1    0    0  501    0  0.00000000000E+00  0.00000000000E+00 -0.16298859571E+04  0.16298859571E+04  0.25500000920E-02 0. -1.
    10030    2    1    2    0    0  0.00000000000E+00  0.00000000000E+00 -0.37018619231E+02  0.32227532951E+04  0.32225406782E+04 0.  0.
        3    1    3    3  502    0 -0.58255297834E+03 -0.14636307320E+04 -0.35707145624E+03  0.16152655903E+04  0.10100000352E+00 0. -1.
       -3    1    3    3    0  502  0.58255297834E+03  0.14636307320E+04  0.32005283701E+03  0.16074877047E+04  0.10100000352E+00 0.  1.
</event>
<event>
 5   0  0.1089337E-06  0.2729093E+04  0.7818609E-02  0.8325627E-01
        1   -1    0    0  501    0  0.00000000000E+00  0.00000000000E+00  0.21782620285E+04  0.21782620285E+04  0.50400001928E-02 0.  1.
       -1   -1    0    0    0  501  0.00000000000E+00  0.00000000000E+00 -0.85480399376E+03  0.85480399378E+03  0.50400001928E-02 0. -1.
    10030    2    1    2    0    0  0.00000000000E+00  0.00000000000E+00  0.13234580348E+04  0.30330660223E+04  0.27290929493E+04 0.  0.
        2    1    3    3  502    0 -0.92151066327E+03  0.82859408765E+03  0.12965191322E+04  0.17935194241E+04  0.25500000920E-02 0.  1.
       -2    1    3    3    0  502  0.92151066327E+03 -0.82859408765E+03  0.26938902604E+02  0.12395465982E+04  0.25500000920E-02 0. -1.
</event>
<event>
 5   0  0.1042825E-06  0.2158378E+04  0.7818609E-02  0.8535954E-01
       -3   -1    0    0    0  501  0.00000000000E+00  0.00000000000E+00  0.10159154836E+04  0.10159154886E+04  0.10100000352E+00 0. -1.
        3   -1    0    0  501    0  0.00000000000E+00  0.00000000000E+00 -0.11464037088E+04  0.11464037132E+04  0.10100000352E+00 0.  1.
    10030    2    1    2    0    0  0.00000000000E+00  0.00000000000E+00 -0.13048822522E+03  0.21623192018E+04  0.21583783620E+04 0.  0.
        4    1    3    3  502    0  0.60965091536E+03  0.60999240308E+03  0.58469513977E+03  0.10419380931E+04  0.12699999809E+01 0. -1.
       -4    1    3    3    0  502 -0.60965091536E+03 -0.60999240308E+03 -0.71518336500E+03  0.11203811088E+04  0.12699999809E+01 0.  1.
</event>
<event>
 5   0  0.1130707E-06  0.3514905E+04  0.7818609E-02  0.8110267E-01
       -1   -1    0    0    0  501  0.00000000000E+00  0.00000000000E+00  0.17290741328E+04  0.17290741328E+04  0.50400001928E-02 0.  1.
        1   -1    0    0  501    0  0.00000000000E+00  0.00000000000E+00 -0.17862969686E+04  0.17862969686E+04  0.50400001928E-02 0. -1.
    10030    2    1    2    0    0  0.00000000000E+00  0.00000000000E+00 -0.57222835770E+02  0.35153711015E+04  0.35149053370E+04 0.  0.
        3    1    3    3  502    0 -0.13113072627E+04 -0.13176509445E+03 -0.11914137926E+04  0.17766135237E+04  0.10100000352E+00 0. -1.
       -3    1    3    3    0  502  0.13113072627E+04  0.13176509445E+03  0.11341909568E+04  0.17387575777E+04  0.10100000352E+00 0.  1.
</event>
<event>
 5   0  0.3378848E-06  0.2847839E+04  0.7818609E-02  0.8288568E-01
        2   -1    0    0  501    0  0.00000000000E+00  0.00000000000E+00  0.18031559568E+04  0.18031559568E+04  0.25500000920E-02 0.  1.
       -2   -1    0    0    0  501  0.00000000000E+00  0.00000000000E+00 -0.11244437212E+04  0.11244437212E+04  0.25500000920E-02 0. -1.
    10030    2    1    2    0    0  0.00000000000E+00  0.00000000000E+00  0.67871223556E+03  0.29275996780E+04  0.28478394576E+04 0.  0.
        1    1    3    3  502    0 -0.93330968482E+03 -0.65657151904E+03  0.12149107440E+04  0.16667817023E+04  0.50400001928E-02 0.  1.
       -1    1    3    3    0  502  0.93330968482E+03  0.65657151904E+03 -0.53619850842E+03  0.12608179757E+04  0.50400001928E-02 0. -1.
</event>
<event>
 5   0  0.2565004E-06  0.3257751E+04  0.7818609E-02  0.8173730E-01
       -2   -1    0    0    0  501  0.00000000000E+00  0.00000000000E+00  0.16501089101E+04  0.16501089101E+04  0.25500000920E-02 0.  1.
        2   -1    0    0  501    0  0.00000000000E+00  0.00000000000E+00 -0.16079153812E+04  0.16079153812E+04  0.25500000920E-02 0. -1.
    10030    2    1    2    0    0  0.00000000000E+00  0.00000000000E+00  0.42193528903E+02  0.32580242913E+04  0.32577510630E+04 0.  0.
        3    1    3    3  502    0  0.11337455771E+04 -0.24439402289E+03  0.11649269310E+04  0.16438254886E+04  0.10100000352E+00 0.  1.
       -3    1    3    3    0  502 -0.11337455771E+04  0.24439402289E+03 -0.11227334021E+04  0.16141988027E+04  0.10100000352E+00 0. -1.
</event>
<event>
 5   0  0.1130707E-06  0.3440981E+04  0.7818609E-02  0.8127921E-01
       -1   -1    0    0    0  501  0.00000000000E+00  0.00000000000E+00  0.15326471149E+04  0.15326471150E+04  0.50400001928E-02 0.  1.
        1   -1    0    0  501    0  0.00000000000E+00  0.00000000000E+00 -0.19313565661E+04  0.19313565662E+04  0.50400001928E-02 0. -1.
    10030    2    1    2    0    0  0.00000000000E+00  0.00000000000E+00 -0.39870945120E+03  0.34640036811E+04  0.34409812955E+04 0.  0.
        3    1    3    3  502    0 -0.95869832423E+03 -0.51493798167E+03 -0.15408713206E+04  0.18864114182E+04  0.10100000352E+00 0. -1.
       -3    1    3    3    0  502  0.95869832423E+03  0.51493798167E+03  0.11421618694E+04  0.15775922629E+04  0.10100000352E+00 0.  1.
</event>
<event>
 5   0  0.1782660E-06  0.3524858E+04  0.7818609E-02  0.8107924E-01
        2   -1    0    0  501    0  0.00000000000E+00  0.00000000000E+00  0.12118607142E+04  0.12118607142E+04  0.25500000920E-02 0.  1.
       -2   -1    0    0    0  501  0.00000000000E+00  0.00000000000E+00 -0.25631298283E+04  0.25631298283E+04  0.25500000920E-02 0. -1.
    10030    2    1    2    0    0  0.00000000000E+00  0.00000000000E+00 -0.13512691142E+04  0.37749905425E+04  0.35248582067E+04 0.  0.
        4    1    3    3  502    0 -0.12596975203E+04  0.64213878709E+02 -0.19939163713E+04  0.23593781751E+04  0.12699999809E+01 0. -1.
       -4    1    3    3    0  502  0.12596975203E+04 -0.64213878709E+02  0.64264725711E+03  0.14156123674E+04  0.12699999809E+01 0.  1.
</event>
<event>
 5   0  0.1102175E-06  0.3593030E+04  0.7818609E-02  0.8092090E-01
       -1   -1    0    0    0  501  0.00000000000E+00  0.00000000000E+00  0.22028331306E+04  0.22028331307E+04  0.50400001928E-02 0.  1.
        1   -1    0    0  501    0  0.00000000000E+00  0.00000000000E+00 -0.14651435529E+04  0.14651435529E+04  0.50400001928E-02 0. -1.
    10030    2    1    2    0    0  0.00000000000E+00  0.00000000000E+00  0.73768957773E+03  0.36679766836E+04  0.35930303420E+04 0.  0.
        5    1    3    3  502    0  0.75343161305E+03 -0.53917115414E+03 -0.12024422906E+04  0.15179770358E+04  0.46999998093E+01 0. -1.
       -5    1    3    3    0  502 -0.75343161305E+03  0.53917115414E+03  0.19401318683E+04  0.21499996478E+04  0.46999998093E+01 0.  1.
</event>
<event>
 5   0  0.1125196E-06  0.3297799E+04  0.7818609E-02  0.8163456E-01
        1   -1    0    0  501    0  0.00000000000E+00  0.00000000000E+00  0.19221317420E+04  0.19221317420E+04  0.50400001928E-02 0.  1.
       -1   -1    0    0    0  501  0.00000000000E+00  0.00000000000E+00 -0.14145075016E+04  0.14145075017E+04  0.50400001928E-02 0. -1.
    10030    2    1    2    0    0  0.00000000000E+00  0.00000000000E+00  0.50762424034E+03  0.33366392437E+04  0.32977991256E+04 0.  0.
        4    1    3    3  502    0  0.14357681649E+04 -0.48876613871E+02  0.10726953020E+04  0.17929015508E+04  0.12699999809E+01 0.  1.
       -4    1    3    3    0  502 -0.14357681649E+04  0.48876613871E+02 -0.56507106169E+03  0.15437376929E+04  0.12699999809E+01 0. -1.
</event>
<event>
 5   0  0.1908726E-06  0.2021899E+04  0.7818609E-02  0.8596450E-01
        2   -1    0    0  501    0  0.00000000000E+00  0.00000000000E+00  0.12052660490E+04  0.12052660490E+04  0.25500000920E-02 0.  1.
       -2   -1    0    0    0  501  0.00000000000E+00  0.00000000000E+00 -0.84796090260E+03  0.84796090260E+03  0.25500000920E-02 0. -1.
    10030    2    1    2    0    0  0.00000000000E+00  0.00000000000E+00  0.35730514640E+03  0.20532269516E+04  0.20218985996E+04 0.  0.
        5    1    3    3  502    0 -0.12539641524E+03 -0.30347368403E+03 -0.79228757432E+03  0.85764924548E+03  0.46999998093E+01 0. -1.
       -5    1    3    3    0  502  0.12539641524E+03  0.30347368403E+03  0.11495927207E+04  0.11955777061E+04  0.46999998093E+01 0.  1.
</event>
<event>
 5   0  0.1908726E-06  0.1962122E+04  0.7818609E-02  0.8624538E-01
        2   -1    0    0  501    0  0.00000000000E+00  0.00000000000E+00  0.13237015988E+04  0.13237015988E+04  0.25500000920E-02 0. -1.
       -2   -1    0    0    0  501  0.00000000000E+00  0.00000000000E+00 -0.72711278696E+03  0.72711278696E+03  0.25500000920E-02 0.  1.
    10030    2    1    2    0    0  0.00000000000E+00  0.00000000000E+00  0.59658881184E+03  0.20508143858E+04  0.19621216666E+04 0.  0.
        5    1    3    3  502    0  0.83373502850E+03 -0.32036609822E+03 -0.12589523125E+03  0.90200899878E+03  0.46999998093E+01 0.  1.
       -5    1    3    3    0  502 -0.83373502850E+03  0.32036609822E+03  0.72248404310E+03  0.11488053870E+04  0.46999998093E+01 0. -1.
</event>
<event>
 5   0  0.1089337E-06  0.2156844E+04  0.7818609E-02  0.8536609E-01
       -1   -1    0    0    0  501  0.00000000000E+00  0.00000000000E+00  0.67271922673E+03  0.67271922675E+03  0.50400001928E-02 0. -1.
        1   -1    0    0  501    0  0.00000000000E+00  0.00000000000E+00 -0.17287949705E+04  0.17287949705E+04  0.50400001928E-02 0.  1.
    10030    2    1    2    0    0  0.00000000000E+00  0.00000000000E+00 -0.10560757437E+04  0.24015141972E+04  0.21568436343E+04 0.  0.
        2    1    3    3  502    0 -0.10769621331E+04  0.51042425620E+01 -0.46584328601E+03  0.11734067737E+04  0.25500000920E-02 0.  1.
       -2    1    3    3    0  502  0.10769621331E+04 -0.51042425620E+01 -0.59023245772E+03  0.12281074235E+04  0.25500000920E-02 0. -1.
</event>
<event>
 5   0  0.1089337E-06  0.2339301E+04  0.7818609E-02  0.8462585E-01
       -1   -1    0    0    0  501  0.00000000000E+00  0.00000000000E+00  0.95297729858E+03  0.95297729859E+03  0.50400001928E-02 0.  1.
        1   -1    0    0  501    0  0.00000000000E+00  0.00000000000E+00 -0.14355872875E+04  0.14355872875E+04  0.50400001928E-02 0. -1.
    10030    2    1    2    0    0  0.00000000000E+00  0.00000000000E+00 -0.48260998896E+03  0.23885645861E+04  0.23393008316E+04 0.  0.
        2    1    3    3  502    0  0.63110594598E+03 -0.26868001161E+03 -0.12086735273E+04  0.13897393134E+04  0.25500000920E-02 0. -1.
       -2    1    3    3    0  502 -0.63110594598E+03  0.26868001161E+03  0.72606353834E+03  0.99882527271E+03  0.25500000920E-02 0.  1.
</event>
<event>
 5   0  0.1531921E-06  0.1766632E+04  0.7818609E-02  0.8724248E-01
       -1   -1    0    0    0  501  0.00000000000E+00  0.00000000000E+00  0.44056221003E+03  0.44056221006E+03  0.50400001928E-02 0.  1.
        1   -1    0    0  501    0  0.00000000000E+00  0.00000000000E+00 -0.17710270612E+04  0.17710270613E+04  0.50400001928E-02 0. -1.
    10030    2    1    2    0    0  0.00000000000E+00  0.00000000000E+00 -0.13304648512E+04  0.22115892713E+04  0.17666324985E+04 0.  0.
        1    1    3    3  502    0  0.12587926970E+03  0.37590436472E+02 -0.17587289008E+04  0.17636286395E+04  0.50400001928E-02 0. -1.
       -1    1    3    3    0  502 -0.12587926970E+03 -0.37590436472E+02  0.42826404960E+03  0.44796063182E+03  0.50400001928E-02 0.  1.
</event>
<event>
 5   0  0.1782660E-06  0.3531523E+04  0.7818609E-02  0.8106360E-01
        2   -1    0    0  501    0  0.00000000000E+00  0.00000000000E+00  0.19441519014E+04  0.19441519014E+04  0.25500000920E-02 0. -1.
       -2   -1    0    0    0  501  0.00000000000E+00  0.00000000000E+00 -0.16037397559E+04  0.16037397559E+04  0.25500000920E-02 0.  1.
    10030    2    1    2    0    0  0.00000000000E+00  0.00000000000E+00  0.34041214550E+03  0.35478916572E+04  0.35315230118E+04 0.  0.
        4    1    3    3  502    0 -0.62703520662E+03  0.14160342619E+04  0.10224219707E+04  0.18557140082E+04  0.12699999809E+01 0. -1.
       -4    1    3    3    0  502  0.62703520662E+03 -0.14160342619E+04 -0.68200982519E+03  0.16921776490E+04  0.12699999809E+01 0.  1.
</event>
<event>
 5   0  0.1130707E-06  0.3544241E+04  0.7818609E-02  0.8103385E-01
        1   -1    0    0  501    0  0.00000000000E+00  0.00000000000E+00  0.34836057489E+04  0.34836057489E+04  0.50400001928E-02 0.  1.
       -1   -1    0    0    0  501  0.00000000000E+00  0.00000000000E+00 -0.90148300503E+03  0.90148300504E+03  0.50400001928E-02 0. -1.
    10030    2    1    2    0    0  0.00000000000E+00  0.00000000000E+00  0.25821227439E+04  0.43850887540E+04  0.35442411763E+04 0.  0.
        3    1    3    3  502    0 -0.89610121150E+03 -0.14115722350E+03 -0.59243126476E+03  0.10834655309E+04  0.10100000352E+00 0. -1.
       -3    1    3    3    0  502  0.89610121150E+03  0.14115722350E+03  0.31745540087E+04  0.33016232231E+04  0.10100000352E+00 0.  1.
</event>
<event>
 5   0  0.1782660E-06  0.3915313E+04  0.7818609E-02  0.8021852E-01
       -2   -1    0    0    0  501  0.00000000000E+00  0.00000000000E+00  0.15767370254E+04  0.15767370254E+04  0.25500000920E-02 0.  1.
        2   -1    0    0  501    0  0.00000000000E+00  0.00000000000E+00 -0.24306011234E+04  0.24306011234E+04  0.25500000920E-02 0. -1.
    10030    2    1    2    0    0  0.00000000000E+00  0.00000000000E+00 -0.85386409804E+03  0.40073381488E+04  0.39153129046E+04 0.  0.
        4    1    3    3  502    0  0.92160087519E+03  0.15633210208E+04  0.32455711863E+03  0.18435454221E+04  0.12699999809E+01 0.  1.
       -4    1    3    3    0  502 -0.92160087519E+03 -0.15633210208E+04 -0.11784212167E+04  0.21637927267E+04  0.12699999809E+01 0. -1.
</event>
<event>
 5   0  0.1125196E-06  0.1773684E+04  0.7818609E-02  0.8720420E-01
        1   -1    0    0  501    0  0.00000000000E+00  0.00000000000E+00  0.72287220343E+03  0.72287220345E+03  0.50400001928E-02 0.  1.
       -1   -1    0    0    0  501  0.00000000000E+00  0.00000000000E+00 -0.10880056575E+04  0.10880056575E+04  0.50400001928E-02 0. -1.
    10030    2    1    2    0    0  0.00000000000E+00  0.00000000000E+00 -0.36513345410E+03  0.18108778610E+04  0.17736843541E+04 0.  0.
        4    1    3    3  502    0 -0.10730107340E+03  0.56002478450E+03  0.51090103546E+03  0.76561267004E+03  0.12699999809E+01 0.  1.
       -4    1    3    3    0  502  0.10730107340E+03 -0.56002478450E+03 -0.87603448955E+03  0.10452651909E+04  0.12699999809E+01 0. -1.
</event>
<event>
 5   0  0.1130707E-06  0.3580393E+04  0.7818609E-02  0.8094998E-01
       -1   -1    0    0    0  501  0.00000000000E+00  0.00000000000E+00  0.14576929223E+04  0.14576929223E+04  0.50400001928E-02 0. -1.
        1   -1    0    0  501    0  0.00000000000E+00  0.00000000000E+00 -0.21985444024E+04  0.21985444024E+04  0.50400001928E-02 0.  1.
    10030    2    1    2    0    0  0.00000000000E+00  0.00000000000E+00 -0.74085148008E+03  0.36562373247E+04  0.35803925007E+04 0.  0.
        3    1    3    3  502    0 -0.50657566854E+03  0.11903413994E+04 -0.16340843911E+04  0.20841697058E+04  0.10100000352E+00 0.  1.
       -3    1    3    3    0  502  0.50657566854E+03 -0.11903413994E+04  0.89323291100E+03  0.15720676190E+04  0.10100000352E+00 0. -1.
</event>
<event>
 5   0  0.3378848E-06  0.3624273E+04  0.7818609E-02  0.8084954E-01
        2   -1    0    0  501    0  0.00000000000E+00  0.00000000000E+00  0.21474659542E+04  0.21474659542E+04  0.25500000920E-02 0.  1.
       -2   -1    0    0    0  501  0.00000000000E+00  0.00000000000E+00 -0.15291693559E+04  0.15291693559E+04  0.25500000920E-02 0. -1.
    10030    2    1    2    0    0  0.00000000000E+00  0.00000000000E+00  0.61829659833E+03  0.36766353101E+04  0.36242732403E+04 0.  0.
        1    1    3    3  502    0 -0.53014125560E+03  0.14967490900E+04 -0.57669831066E+03  0.16893455925E+04  0.50400001928E-02 0. -1.
       -1    1    3    3    0  502  0.53014125560E+03 -0.14967490900E+04  0.11949949090E+04  0.19872897176E+04  0.50400001928E-02 0.  1.
</event>
<event>
 5   0  0.1125196E-06  0.2730336E+04  0.7818609E-02  0.8325229E-01
       -1   -1    0    0    0  501  0.00000000000E+00  0.00000000000E+00  0.11300743333E+04  0.11300743333E+04  0.50400001928E-02 0.  1.
        1   -1    0    0  501    0  0.00000000000E+00  0.00000000000E+00 -0.16491686058E+04  0.16491686058E+04  0.50400001928E-02 0. -1.
    10030    2    1    2    0    0  0.00000000000E+00  0.00000000000E+00 -0.51909427252E+03  0.27792429390E+04  0.27303355930E+04 0.  0.
        4    1    3    3  502    0  0.74139744635E+03 -0.48418948214E+03  0.79808895035E+03  0.11920810432E+04  0.12699999809E+01 0.  1.
       -4    1    3    3    0  502 -0.74139744635E+03  0.48418948214E+03 -0.13171832229E+04  0.15871618958E+04  0.12699999809E+01 0. -1.
</event>
<event>
 5   0  0.1102175E-06  0.2510056E+04  0.7818609E-02  0.8399412E-01
        1   -1    0    0  501    0  0.00000000000E+00  0.00000000000E+00  0.11674399542E+04  0.11674399542E+04  0.50400001928E-02 0.  1.
       -1   -1    0    0    0  501  0.00000000000E+00  0.00000000000E+00 -0.13491874579E+04  0.13491874579E+04  0.50400001928E-02 0. -1.
    10030    2    1    2    0    0  0.00000000000E+00  0.00000000000E+00 -0.18174750377E+03  0.25166274121E+04  0.25100560504E+04 0.  0.
        5    1    3    3  502    0  0.79394574516E+03 -0.69137951059E+03  0.59408225134E+03  0.12088470893E+04  0.46999998093E+01 0.  1.
       -5    1    3    3    0  502 -0.79394574516E+03  0.69137951059E+03 -0.77582975511E+03  0.13077803228E+04  0.46999998093E+01 0. -1.
</event>
<event>
 5   0  0.3041329E-06  0.3909930E+04  0.7818609E-02  0.8022967E-01
        2   -1    0    0  501    0  0.00000000000E+00  0.00000000000E+00  0.14804939422E+04  0.14804939422E+04  0.25500000920E-02 0. -1.
       -2   -1    0    0    0  501  0.00000000000E+00  0.00000000000E+00 -0.25814959265E+04  0.25814959265E+04  0.25500000920E-02 0.  1.
    10030    2    1    2    0    0  0.00000000000E+00  0.00000000000E+00 -0.11010019844E+04  0.40619898687E+04  0.39099304756E+04 0.  0.
        2    1    3    3  502    0 -0.12287531122E+04  0.71345000077E+03  0.84449499811E+03  0.16528813981E+04  0.25500000920E-02 0. -1.
       -2    1    3    3    0  502  0.12287531122E+04 -0.71345000077E+03 -0.19454969825E+04  0.24091084706E+04  0.25500000920E-02 0.  1.
</event>
<event>
 5   0  0.1125196E-06  0.3547153E+04  0.7818609E-02  0.8102705E-01
       -1   -1    0    0    0  501  0.00000000000E+00  0.00000000000E+00  0.12666209975E+04  0.12666209975E+04  0.50400001928E-02 0. -1.
        1   -1    0    0  501    0  0.00000000000E+00  0.00000000000E+00 -0.24834368348E+04  0.24834368348E+04  0.50400001928E-02 0.  1.
    10030    2    1    2    0    0  0.00000000000E+00  0.00000000000E+00 -0.12168158374E+04  0.37500578323E+04  0.35471527968E+04 0.  0.
        4    1    3    3  502    0 -0.17621133176E+04  0.87802121542E+02 -0.79993104084E+03  0.19371741893E+04  0.12699999809E+01 0.  1.
       -4    1    3    3    0  502  0.17621133176E+04 -0.87802121542E+02 -0.41688479654E+03  0.18128836430E+04  0.12699999809E+01 0. -1.
</event>
<event>
 5   0  0.1102175E-06  0.1786923E+04  0.7818609E-02  0.8713285E-01
        1   -1    0    0  501    0  0.00000000000E+00  0.00000000000E+00  0.13224114329E+04  0.13224114329E+04  0.50400001928E-02 0.  1.
       -1   -1    0    0    0  501  0.00000000000E+00  0.00000000000E+00 -0.60364988233E+03  0.60364988235E+03  0.50400001928E-02 0. -1.
    10030    2    1    2    0    0  0.00000000000E+00  0.00000000000E+00  0.71876155058E+03  0.19260613153E+04  0.17869230603E+04 0.  0.
        5    1    3    3  502    0 -0.76261671323E+01 -0.23997056059E+02 -0.60325403984E+03  0.60379760161E+03  0.46999998093E+01 0. -1.
       -5    1    3    3    0  502  0.76261671323E+01  0.23997056059E+02  0.13220155904E+04  0.13222637137E+04  0.46999998093E+01 0.  1.
</event>
<event>
 5   0  0.1110956E-06  0.3449766E+04  0.7818609E-02  0.8125799E-01
       -1   -1    0    0    0  501  0.00000000000E+00  0.00000000000E+00  0.15029502533E+04  0.15029502533E+04  0.50400001928E-02 0. -1.
        1   -1    0    0  501    0  0.00000000000E+00  0.00000000000E+00 -0.19795874749E+04  0.19795874749E+04  0.50400001928E-02 0.  1.
    10030    2    1    2    0    0  0.00000000000E+00  0.00000000000E+00 -0.47663722156E+03  0.34825377282E+04  0.34497660772E+04 0.  0.
        1    1    3    3  502    0 -0.11844184974E+03  0.10051757467E+04 -0.16483026526E+04  0.19342462067E+04  0.50400001928E-02 0.  1.
       -1    1    3    3    0  502  0.11844184974E+03 -0.10051757467E+04  0.11716654310E+04  0.15482915216E+04  0.50400001928E-02 0. -1.
</event>
<event>
 5   0  0.1089337E-06  0.2284661E+04  0.7818609E-02  0.8483994E-01
        1   -1    0    0  501    0  0.00000000000E+00  0.00000000000E+00  0.21916510513E+04  0.21916510513E+04  0.50400001928E-02 0.  1.
       -1   -1    0    0    0  501  0.00000000000E+00  0.00000000000E+00 -0.59540448114E+03  0.59540448117E+03  0.50400001928E-02 0. -1.
    10030    2    1    2    0    0  0.00000000000E+00  0.00000000000E+00  0.15962465702E+04  0.27870555325E+04  0.22846609001E+04 0.  0.
        2    1    3    3  502    0 -0.13594808751E+03 -0.99547186265E+03  0.14612287187E+04  0.17733120087E+04  0.25500000920E-02 0. -1.
       -2    1    3    3    0  502  0.13594808751E+03  0.99547186265E+03  0.13501785148E+03  0.10137435238E+04  0.25500000920E-02 0.  1.
</event>
<event>
 5   0  0.2807925E-06  0.1801614E+04  0.7818609E-02  0.8705442E-01
        2   -1    0    0  501    0  0.00000000000E+00  0.00000000000E+00  0.13312675108E+04  0.13312675108E+04  0.25500000920E-02 0.  1.
       -2   -1    0    0    0  501  0.00000000000E+00  0.00000000000E+00 -0.60953438321E+03  0.60953438321E+03  0.25500000920E-02 0. -1.
    10030    2    1    2    0    0  0.00000000000E+00  0.00000000000E+00  0.72173312754E+03  0.19408018940E+04  0.18016140775E+04 0.  0.
        3    1    3    3  502    0 -0.50389094677E+03 -0.73091597167E+03  0.52533474340E+03  0.10315623329E+04  0.10100000352E+00 0. -1.
       -3    1    3    3    0  502  0.50389094677E+03  0.73091597167E+03  0.19639838414E+03  0.90923956105E+03  0.10100000352E+00 0.  1.
</event>
<event>
 5   0  0.3378848E-06  0.2184963E+04  0.7818609E-02  0.8524713E-01
        2   -1    0    0  501    0  0.00000000000E+00  0.00000000000E+00  0.17642736990E+04  0.17642736990E+04  0.25500000920E-02 0. -1.
       -2   -1    0    0    0  501  0.00000000000E+00  0.00000000000E+00 -0.67649103399E+03  0.67649103400E+03  0.25500000920E-02 0.  1.
    10030    2    1    2    0    0  0.00000000000E+00  0.00000000000E+00  0.10877826650E+04  0.24407647330E+04  0.21849625524E+04 0.  0.
        1    1    3    3  502    0  0.42442740914E+03 -0.39838500964E+03  0.15766055589E+04  0.16806350972E+04  0.50400001928E-02 0. -1.
       -1    1    3    3    0  502 -0.42442740914E+03  0.39838500964E+03 -0.48882289392E+03  0.76012963578E+03  0.50400001928E-02 0.  1.
</event>
<event>
 5   0  0.1042825E-06  0.2091251E+04  0.7818609E-02  0.8565107E-01
        3   -1    0    0  501    0  0.00000000000E+00  0.00000000000E+00  0.14870470033E+04  0.14870470067E+04  0.10100000352E+00 0. -1.
       -3   -1    0    0    0  501  0.00000000000E+00  0.00000000000E+00 -0.73523736655E+03  0.73523737349E+03  0.10100000352E+00 0.  1.
    10030    2    1    2    0    0  0.00000000000E+00  0.00000000000E+00  0.75180963670E+03  0.22222843802E+04  0.20912508545E+04 0.  0.
        3    1    3    3  502    0  0.73547768379E+03 -0.73305140116E+03  0.24557969050E+03  0.10670525642E+04  0.10100000352E+00 0.  1.
       -3    1    3    3    0  502 -0.73547768379E+03  0.73305140116E+03  0.50622994620E+03  0.11552318160E+04  0.10100000352E+00 0. -1.
</event>
<event>
 5   0  0.1102175E-06  0.3498525E+04  0.7818609E-02  0.8114140E-01
        1   -1    0    0  501    0  0.00000000000E+00  0.00000000000E+00  0.16841542686E+04  0.16841542686E+04  0.50400001928E-02 0. -1.
       -1   -1    0    0    0  501  0.00000000000E+00  0.00000000000E+00 -0.18168874807E+04  0.18168874807E+04  0.50400001928E-02 0.  1.
    10030    2    1    2    0    0  0.00000000000E+00  0.00000000000E+00 -0.13273321213E+03  0.35010417493E+04  0.34985247212E+04 0.  0.
        5    1    3    3  502    0  0.44870775937E+03  0.33042030380E+03  0.15929519333E+04  0.16876119763E+04  0.46999998093E+01 0. -1.
       -5    1    3    3    0  502 -0.44870775937E+03 -0.33042030380E+03 -0.17256851455E+04  0.18134297730E+04  0.46999998093E+01 0.  1.
</event>
<event>
 5   0  0.1782660E-06  0.3509174E+04  0.7818609E-02  0.8111619E-01
       -2   -1    0    0    0  501  0.00000000000E+00  0.00000000000E+00  0.29755832287E+04  0.29755832287E+04  0.25500000920E-02 0.  1.
        2   -1    0    0  501    0  0.00000000000E+00  0.00000000000E+00 -0.10346124975E+04  0.10346124975E+04  0.25500000920E-02 0. -1.
    10030    2    1    2    0    0  0.00000000000E+00  0.00000000000E+00  0.19409707312E+04  0.40101957262E+04  0.35091740315E+04 0.  0.
        4    1    3    3  502    0  0.11391947878E+04  0.91224697110E+03  0.20835120692E+04  0.25438127794E+04  0.12699999809E+01 0.  1.
       -4    1    3    3    0  502 -0.11391947878E+04 -0.91224697110E+03 -0.14254133806E+03  0.14663829468E+04  0.12699999809E+01 0. -1.
</event>
<event>
 5   0  0.1908726E-06  0.3449041E+04  0.7818609E-02  0.8125974E-01
        2   -1    0    0  501    0  0.00000000000E+00  0.00000000000E+00  0.27877340449E+04  0.27877340449E+04  0.25500000920E-02 0. -1.
       -2   -1    0    0    0  501  0.00000000000E+00  0.00000000000E+00 -0.10668056061E+04  0.10668056061E+04  0.25500000920E-02 0.  1.
    10030    2    1    2    0    0  0.00000000000E+00  0.00000000000E+00  0.17209284388E+04  0.38545396511E+04  0.34490406246E+04 0.  0.
        5    1    3    3  502    0  0.87091010518E+03 -0.57884712839E+02 -0.80171511359E+03  0.11851600165E+04  0.46999998093E+01 0.  1.
       -5    1    3    3    0  502 -0.87091010518E+03  0.57884712839E+02  0.25226435523E+04  0.26693796346E+04  0.46999998093E+01 0. -1.
</event>
<event>
 5   0  0.1089337E-06  0.3504399E+04  0.7818609E-02  0.8112748E-01
       -1   -1    0    0    0  501  0.00000000000E+00  0.00000000000E+00  0.11931544368E+04  0.11931544369E+04  0.50400001928E-02 0.  1.
        1   -1    0    0  501    0  0.00000000000E+00  0.00000000000E+00 -0.25731815305E+04  0.25731815305E+04  0.50400001928E-02 0. -1.
    10030    2    1    2    0    0  0.00000000000E+00  0.00000000000E+00 -0.13800270937E+04  0.37663359674E+04  0.35043989271E+04 0.  0.
        2    1    3    3  502    0 -0.11046232427E+04 -0.90980048291E+02 -0.21485552918E+04  0.24175937871E+04  0.25500000920E-02 0. -1.
       -2    1    3    3    0  502  0.11046232427E+04  0.90980048291E+02  0.76852819813E+03  0.13487421803E+04  0.25500000920E-02 0.  1.
</event>
<event>
 5   0  0.1102175E-06  0.2172402E+04  0.7818609E-02  0.8530004E-01
       -1   -1    0    0    0  501  0.00000000000E+00  0.00000000000E+00  0.56517304985E+03  0.56517304987E+03  0.50400001928E-02 0. -1.
        1   -1    0    0  501    0  0.00000000000E+00  0.00000000000E+00 -0.20875593533E+04  0.20875593533E+04  0.50400001928E-02 0.  1.
    10030    2    1    2    0    0  0.00000000000E+00  0.00000000000E+00 -0.15223863035E+04  0.26527324032E+04  0.21724017000E+04 0.  0.
        5    1    3    3  502    0  0.11471877199E+03 -0.91254601199E+03 -0.55578247813E+02  0.92141828301E+03  0.46999998093E+01 0. -1.
       -5    1    3    3    0  502 -0.11471877199E+03  0.91254601199E+03 -0.14668080557E+04  0.17313141202E+04  0.46999998093E+01 0.  1.
</event>
<event>
 5   0  0.2565004E-06  0.3473401E+04  0.7818609E-02  0.8120123E-01
        2   -1    0    0  501    0  0.00000000000E+00  0.00000000000E+00  0.28944018983E+04  0.28944018983E+04  0.25500000920E-02 0.  1.
       -2   -1    0    0    0  501  0.00000000000E+00  0.00000000000E+00 -0.10420560390E+04  0.10420560390E+04  0.25500000920E-02 0. -1.
    10030    2    1    2    0    0  0.00000000000E+00  0.00000000000E+00  0.18523458593E+04  0.39364579373E+04  0.34734012019E+04 0.  0.
        3    1    3    3  502    0  0.11447889615E+04  0.12269279942E+04  0.41904147271E+03  0.17295923899E+04  0.10100000352E+00 0. -1.
       -3    1    3    3    0  502 -0.11447889615E+04 -0.12269279942E+04  0.14333043866E+04  0.22068655474E+04  0.10100000352E+00 0.  1.
</event>
<event>
 5   0  0.1110956E-06  0.2026391E+04  0.7818609E-02  0.8594381E-01
        1   -1    0    0  501    0  0.00000000000E+00  0.00000000000E+00  0.14583717934E+04  0.14583717934E+04  0.50400001928E-02 0. -1.
       -1   -1    0    0    0  501  0.00000000000E+00  0.00000000000E+00 -0.70391165311E+03  0.70391165313E+03  0.50400001928E-02 0.  1.
    10030    2    1    2    0    0  0.00000000000E+00  0.00000000000E+00  0.75446014025E+03  0.21622834465E+04  0.20263907816E+04 0.  0.
        1    1    3    3  502    0  0.59832748631E+03 -0.41506847795E+02  0.12485994518E+04  0.13851783966E+04  0.50400001928E-02 0. -1.
       -1    1    3    3    0  502 -0.59832748631E+03  0.41506847795E+02 -0.49413931159E+03  0.77710504989E+03  0.50400001928E-02 0.  1.
</event>
<event>
 5   0  0.1089337E-06  0.3233925E+04  0.7818609E-02  0.8179915E-01
        1   -1    0    0  501    0  0.00000000000E+00  0.00000000000E+00  0.20681166896E+04  0.20681166896E+04  0.50400001928E-02 0.  1.
       -1   -1    0    0    0  501  0.00000000000E+00  0.00000000000E+00 -0.12642267613E+04  0.12642267613E+04  0.50400001928E-02 0. -1.
    10030    2    1    2    0    0  0.00000000000E+00  0.00000000000E+00  0.80388992837E+03  0.33323434509E+04  0.32339254565E+04 0.  0.
        2    1    3    3  502    0 -0.55186874243E+03 -0.11103589100E+03  0.19638857286E+04  0.20429721567E+04  0.25500000920E-02 0.  1.
       -2    1    3    3    0  502  0.55186874243E+03  0.11103589100E+03 -0.11599958002E+04  0.12893712943E+04  0.25500000920E-02 0. -1.
</event>
<event>
 5   0  0.1042825E-06  0.2820648E+04  0.7818609E-02  0.8296887E-01
       -3   -1    0    0    0  501  0.00000000000E+00  0.00000000000E+00  0.13450572162E+04  0.13450572200E+04  0.10100000352E+00 0.  1.
        3   -1    0    0  501    0  0.00000000000E+00  0.00000000000E+00 -0.14787574926E+04  0.14787574961E+04  0.10100000352E+00 0. -1.
    10030    2    1    2    0    0  0.00000000000E+00  0.00000000000E+00 -0.13370027644E+03  0.28238147160E+04  0.28206477601E+04 0.  0.
        5    1    3    3  502    0  0.51388730372E+03 -0.11264355819E+04 -0.74292612784E+03  0.14439177963E+04  0.46999998093E+01 0. -1.
       -5    1    3    3    0  502 -0.51388730372E+03  0.11264355819E+04  0.60922585140E+03  0.13798969197E+04  0.46999998093E+01 0.  1.
</event>
<event>
 5   0  0.2565004E-06  0.2708833E+04  0.7818609E-02  0.8332145E-01
        2   -1    0    0  501    0  0.00000000000E+00  0.00000000000E+00  0.13601042316E+04  0.13601042316E+04  0.25500000920E-02 0.  1.
       -2   -1    0    0    0  501  0.00000000000E+00  0.00000000000E+00 -0.13487525660E+04  0.13487525660E+04  0.25500000920E-02 0. -1.
    10030    2    1    2    0    0  0.00000000000E+00  0.00000000000E+00  0.11351665582E+02  0.27088567976E+04  0.27088330125E+04 0.  0.
        3    1    3    3  502    0  0.77938052189E+03  0.11071170888E+04  0.41756834855E+02  0.13545795989E+04  0.10100000352E+00 0. -1.
       -3    1    3    3    0  502 -0.77938052189E+03 -0.11071170888E+04 -0.30405169272E+02  0.13542771987E+04  0.10100000352E+00 0.  1.
</event>
<event>
 5   0  0.1130707E-06  0.3589040E+04  0.7818609E-02  0.8093007E-01
       -1   -1    0    0    0  501  0.00000000000E+00  0.00000000000E+00  0.20372324292E+04  0.20372324292E+04  0.50400001928E-02 0.  1.
        1   -1    0    0  501    0  0.00000000000E+00  0.00000000000E+00 -0.15807240446E+04  0.15807240446E+04  0.50400001928E-02 0. -1.
    10030    2    1    2    0    0  0.00000000000E+00  0.00000000000E+00  0.45650838466E+03  0.36179564738E+04  0.35890401420E+04 0.  0.
        3    1    3    3  502    0 -0.21955653749E+03 -0.20762848529E+03 -0.15548919730E+04  0.15839834971E+04  0.10100000352E+00 0. -1.
       -3    1    3    3    0  502  0.21955653749E+03  0.20762848529E+03  0.20114003577E+04  0.20339729767E+04  0.10100000352E+00 0.  1.
</event>
<event>
 5   0  0.2565004E-06  0.2697341E+04  0.7818609E-02  0.8335868E-01
        2   -1    0    0  501    0  0.00000000000E+00  0.00000000000E+00  0.69296371027E+03  0.69296371028E+03  0.25500000920E-02 0.  1.
       -2   -1    0    0    0  501  0.00000000000E+00  0.00000000000E+00 -0.26248297331E+04  0.26248297331E+04  0.25500000920E-02 0. -1.
    10030    2    1    2    0    0  0.00000000000E+00  0.00000000000E+00 -0.19318660228E+04  0.33177934434E+04  0.26973407280E+04 0.  0.
        3    1    3    3  502    0  0.47758277556E+03  0.92814927710E+03 -0.20164089252E+04  0.22705619023E+04  0.10100000352E+00 0. -1.
       -3    1    3    3    0  502 -0.47758277556E+03 -0.92814927710E+03  0.84542902423E+02  0.10472315411E+04  0.10100000352E+00 0.  1.
</event>
<event>
 5   0  0.1782660E-06  0.3394992E+04  0.7818609E-02  0.8139136E-01
       -2   -1    0    0    0  501  0.00000000000E+00  0.00000000000E+00  0.15770503268E+04  0.15770503268E+04  0.25500000920E-02 0.  1.
        2   -1    0    0  501    0  0.00000000000E+00  0.00000000000E+00 -0.18271408741E+04  0.18271408741E+04  0.25500000920E-02 0. -1.
    10030    2    1    2    0    0  0.00000000000E+00  0.00000000000E+00 -0.25009054725E+03  0.34041912009E+04  0.33949922608E+04 0.  0.
        4    1    3    3  502    0 -0.44184066085E+03 -0.98099593410E+03 -0.14415824257E+04  0.17988156369E+04  0.12699999809E+01 0. -1.
       -4    1    3    3    0  502  0.44184066085E+03  0.98099593410E+03  0.11914918785E+04  0.16053755641E+04  0.12699999809E+01 0.  1.
</event>
<event>
 5   0  0.1102175E-06  0.3664841E+04  0.7818609E-02  0.8075798E-01
       -1   -1    0    0    0  501  0.00000000000E+00  0.00000000000E+00  0.28161805429E+04  0.28161805429E+04  0.50400001928E-02 0.  1.
        1   -1    0    0  501    0  0.00000000000E+00  0.00000000000E+00 -0.11923118940E+04  0.11923118940E+04  0.50400001928E-02 0. -1.
    10030    2    1    2    0    0  0.00000000000E+00  0.00000000000E+00  0.16238686488E+04  0.40084924369E+04  0.36648413647E+04 0.  0.
        5    1    3    3  502    0  0.59346519829E+03 -0.13532464921E+04  0.19971822819E+04  0.24843985524E+04  0.46999998093E+01 0.  1.
       -5    1    3    3    0  502 -0.59346519829E+03  0.13532464921E+04 -0.37331363311E+03  0.15240938845E+04  0.46999998093E+01 0. -1.
</event>
<event>
 5   0  0.1782660E-06  0.3306349E+04  0.7818609E-02  0.8161282E-01
        2   -1    0    0  501    0  0.00000000000E+00  0.00000000000E+00  0.27483695907E+04  0.27483695907E+04  0.25500000920E-02 0.  1.
       -2   -1    0    0    0  501  0.00000000000E+00  0.00000000000E+00 -0.99440246642E+03  0.99440246643E+03  0.25500000920E-02 0. -1.
    10030    2    1    2    0    0  0.00000000000E+00  0.00000000000E+00  0.17539671243E+04  0.37427720571E+04  0.33063487412E+04 0.  0.
        4    1    3    3  502    0  0.42689948889E+03 -0.10128066639E+04  0.22748781572E+04  0.25264783306E+04  0.12699999809E+01 0.  1.
       -4    1    3    3    0  502 -0.42689948889E+03  0.10128066639E+04 -0.52091103290E+03  0.12162937265E+04  0.12699999809E+01 0. -1.
</event>
<event>
 5   0  0.3378848E-06  0.3494950E+04  0.7818609E-02  0.8114988E-01
       -2   -1    0    0    0  501  0.00000000000E+00  0.00000000000E+00  0.14293997322E+04  0.14293997322E+04  0.25500000920E-02 0.  1.
        2   -1    0    0  501    0  0.00000000000E+00  0.00000000000E+00 -0.21363301099E+04  0.21363301099E+04  0.25500000920E-02 0. -1.
    10030    2    1    2    0    0  0.00000000000E+00  0.00000000000E+00 -0.70693037763E+03  0.35657298421E+04  0.34949504643E+04 0.  0.
        1    1    3    3  502    0  0.10500154643E+04  0.31412599729E+03 -0.17420808953E+04  0.20581675012E+04  0.50400001928E-02 0. -1.
       -1    1    3    3    0  502 -0.10500154643E+04 -0.31412599729E+03  0.10351505176E+04  0.15075623409E+04  0.50400001928E-02 0.  1.
</event>
<event>
 5   0  0.1102175E-06  0.3589515E+04  0.7818609E-02  0.8092898E-01
        1   -1    0    0  501    0  0.00000000000E+00  0.00000000000E+00  0.15719244445E+04  0.15719244445E+04  0.50400001928E-02 0. -1.
       -1   -1    0    0    0  501  0.00000000000E+00  0.00000000000E+00 -0.20491787793E+04  0.20491787793E+04  0.50400001928E-02 0.  1.
    10030    2    1    2    0    0  0.00000000000E+00  0.00000000000E+00 -0.47725433486E+03  0.36211032238E+04  0.35895148499E+04 0.  0.
        5    1    3    3  502    0  0.33529273930E+03  0.95528284654E+03  0.12563539737E+04  0.16135160164E+04  0.46999998093E+01 0. -1.
       -5    1    3    3    0  502 -0.33529273930E+03 -0.95528284654E+03 -0.17336083086E+04  0.20075872074E+04  0.46999998093E+01 0.  1.
</event>
<event>
 5   0  0.1908726E-06  0.3576259E+04  0.7818609E-02  0.8095952E-01
        2   -1    0    0  501    0  0.00000000000E+00  0.00000000000E+00  0.24838319511E+04  0.24838319511E+04  0.25500000920E-02 0.  1.
       -2   -1    0    0    0  501  0.00000000000E+00  0.00000000000E+00 -0.12872880210E+04  0.12872880210E+04  0.25500000920E-02 0. -1.
    10030    2    1    2    0    0  0.00000000000E+00  0.00000000000E+00  0.11965439301E+04  0.37711199721E+04  0.35762590045E+04 0.  0.
        5    1    3    3  502    0 -0.27981795987E+03 -0.52792013732E+03  0.23754468333E+04  0.24494422855E+04  0.46999998093E+01 0.  1.
       -5    1    3    3    0  502  0.27981795987E+03  0.52792013732E+03 -0.11789029032E+04  0.13216776866E+04  0.46999998093E+01 0. -1.
</event>
<event>
 5   0  0.2074294E-06  0.1832549E+04  0.7818609E-02  0.8689179E-01
       -2   -1    0    0    0  501  0.00000000000E+00  0.00000000000E+00  0.48227782358E+03  0.48227782359E+03  0.25500000920E-02 0.  1.
        2   -1    0    0  501    0  0.00000000000E+00  0.00000000000E+00 -0.17408202175E+04  0.17408202175E+04  0.25500000920E-02 0. -1.
    10030    2    1    2    0    0  0.00000000000E+00  0.00000000000E+00 -0.12585423940E+04  0.22230980411E+04  0.18325490288E+04 0.  0.
        4    1    3    3  502    0  0.51626192688E+03  0.72650943152E+03 -0.37131588191E+03  0.96551511034E+03  0.12699999809E+01 0. -1.
       -4    1    3    3    0  502 -0.51626192688E+03 -0.72650943152E+03 -0.88722651204E+03  0.12575829308E+04  0.12699999809E+01 0.  1.
</event>
<event>
 5   0  0.1102175E-06  0.3452948E+04  0.7818609E-02  0.8125032E-01
        1   -1    0    0  501    0  0.00000000000E+00  0.00000000000E+00  0.24077387179E+04  0.24077387179E+04  0.50400001928E-02 0.  1.
       -1   -1    0    0    0  501  0.00000000000E+00  0.00000000000E+00 -0.12379716496E+04  0.12379716497E+04  0.50400001928E-02 0. -1.
    10030    2    1    2    0    0  0.00000000000E+00  0.00000000000E+00  0.11697670682E+04  0.36457103675E+04  0.34529478841E+04 0.  0.
        5    1    3    3  502    0  0.11539102028E+04 -0.83207677158E+03  0.16176674296E+04  0.21542354822E+04  0.46999998093E+01 0.  1.
       -5    1    3    3    0  502 -0.11539102028E+04  0.83207677158E+03 -0.44790036132E+03  0.14914748854E+04  0.46999998093E+01 0. -1.
</event>
<event>
 5   0  0.1110956E-06  0.3545559E+04  0.7818609E-02  0.8103077E-01
        1   -1    0    0  501    0  0.00000000000E+00  0.00000000000E+00  0.23914093713E+04  0.23914093713E+04  0.50400001928E-02 0.  1.
       -1   -1    0    0    0  501  0.00000000000E+00  0.00000000000E+00 -0.13141821660E+04  0.13141821660E+04  0.50400001928E-02 0. -1.
    10030    2    1    2    0    0  0.00000000000E+00  0.00000000000E+00  0.10772272053E+04  0.37055915374E+04  0.35455592210E+04 0.  0.
        1    1    3    3  502    0 -0.15608106233E+04  0.80426100910E+03  0.79415303802E+03  0.19270818925E+04  0.50400001928E-02 0. -1.
       -1    1    3    3    0  502  0.15608106233E+04 -0.80426100910E+03  0.28307416729E+03  0.17785096449E+04  0.50400001928E-02 0.  1.
</event>
<event>
 5   0  0.1110956E-06  0.3364549E+04  0.7818609E-02  0.8146662E-01
        1   -1    0    0  501    0  0.00000000000E+00  0.00000000000E+00  0.24124427863E+04  0.24124427863E+04  0.50400001928E-02 0. -1.
       -1   -1    0    0    0  501  0.00000000000E+00  0.00000000000E+00 -0.11731041537E+04  0.11731041538E+04  0.50400001928E-02 0.  1.
    10030    2    1    2    0    0  0.00000000000E+00  0.00000000000E+00  0.12393386326E+04  0.35855469401E+04  0.33645485006E+04 0.  0.
        1    1    3    3  502    0  0.53326352918E+03 -0.98100730040E+03 -0.72127396534E+03  0.13292785442E+04  0.50400001928E-02 0.  1.
       -1    1    3    3    0  502 -0.53326352918E+03  0.98100730040E+03  0.19606125979E+04  0.22562683958E+04  0.50400001928E-02 0. -1.
</event>
<event>
 5   0  0.1102175E-06  0.3380512E+04  0.7818609E-02  0.8142706E-01
       -1   -1    0    0    0  501  0.00000000000E+00  0.00000000000E+00  0.33573308881E+04  0.33573308881E+04  0.50400001928E-02 0. -1.
        1   -1    0    0  501    0  0.00000000000E+00  0.00000000000E+00 -0.85096335637E+03  0.85096335638E+03  0.50400001928E-02 0.  1.
    10030    2    1    2    0    0  0.00000000000E+00  0.00000000000E+00  0.25063675317E+04  0.42082942445E+04  0.33805121275E+04 0.  0.
        5    1    3    3  502    0 -0.14950780926E+04 -0.39362693373E+03  0.21036604575E+04  0.26106723419E+04  0.46999998093E+01 0. -1.
       -5    1    3    3    0  502  0.14950780926E+04  0.39362693373E+03  0.40270707419E+03  0.15976219026E+04  0.46999998093E+01 0.  1.
</event>
<event>
 5   0  0.1782660E-06  0.3487126E+04  0.7818609E-02  0.8116848E-01
       -2   -1    0    0    0  501  0.00000000000E+00  0.00000000000E+00  0.15177039339E+04  0.15177039340E+04  0.25500000920E-02 0. -1.
        2   -1    0    0  501    0  0.00000000000E+00  0.00000000000E+00 -0.20030334769E+04  0.20030334769E+04  0.25500000920E-02 0.  1.
    10030    2    1    2    0    0  0.00000000000E+00  0.00000000000E+00 -0.48532954294E+03  0.35207374108E+04  0.34871259155E+04 0.  0.
        4    1    3    3  502    0  0.13926928659E+04  0.63845904585E+03 -0.10830256156E+04  0.18762114670E+04  0.12699999809E+01 0.  1.
       -4    1    3    3    0  502 -0.13926928659E+04 -0.63845904585E+03  0.59769607266E+03  0.16445259439E+04  0.12699999809E+01 0. -1.
</event>
<event>
 5   0  0.1089337E-06  0.3443136E+04  0.7818609E-02  0.8127400E-01
       -1   -1    0    0    0  501  0.00000000000E+00  0.00000000000E+00  0.11930472606E+04  0.11930472606E+04  0.50400001928E-02 0. -1.
        1   -1    0    0  501    0  0.00000000000E+00  0.00000000000E+00 -0.24842234744E+04  0.24842234744E+04  0.50400001928E-02 0.  1.
    10030    2    1    2    0    0  0.00000000000E+00  0.00000000000E+00 -0.12911762139E+04  0.36772707350E+04  0.34431357864E+04 0.  0.
        2    1    3    3  502    0  0.11058312054E+04 -0.12512753504E+04 -0.10926753034E+04  0.19956181940E+04  0.25500000920E-02 0.  1.
       -2    1    3    3    0  502 -0.11058312054E+04  0.12512753504E+04 -0.19850091042E+03  0.16816525411E+04  0.25500000920E-02 0. -1.
</event>
<event>
 5   0  0.3378848E-06  0.2761555E+04  0.7818609E-02  0.8315304E-01
       -2   -1    0    0    0  501  0.00000000000E+00  0.00000000000E+00  0.10324638549E+04  0.10324638549E+04  0.25500000920E-02 0.  1.
        2   -1    0    0  501    0  0.00000000000E+00  0.00000000000E+00 -0.18465987900E+04  0.18465987900E+04  0.25500000920E-02 0. -1.
    10030    2    1    2    0    0  0.00000000000E+00  0.00000000000E+00 -0.81413493509E+03  0.28790626448E+04  0.27615550004E+04 0.  0.
        1    1    3    3  502    0  0.34158808496E+03  0.87917472859E+03 -0.14583995861E+04  0.17368246820E+04  0.50400001928E-02 0. -1.
       -1    1    3    3    0  502 -0.34158808496E+03 -0.87917472859E+03  0.64426465100E+03  0.11422379628E+04  0.50400001928E-02 0.  1.
</event>
<event>
 5   0  0.3378848E-06  0.3459026E+04  0.7818609E-02  0.8123569E-01
        2   -1    0    0  501    0  0.00000000000E+00  0.00000000000E+00  0.12690046276E+04  0.12690046276E+04  0.25500000920E-02 0.  1.
       -2   -1    0    0    0  501  0.00000000000E+00  0.00000000000E+00 -0.23571354164E+04  0.23571354164E+04  0.25500000920E-02 0. -1.
    10030    2    1    2    0    0  0.00000000000E+00  0.00000000000E+00 -0.10881307888E+04  0.36261400440E+04  0.34590263088E+04 0.  0.
        1    1    3    3  502    0 -0.93626373365E+02  0.16538755691E+04 -0.10652205305E+04  0.19694580662E+04  0.50400001928E-02 0. -1.
       -1    1    3    3    0  502  0.93626373365E+02 -0.16538755691E+04 -0.22910258309E+02  0.16566819778E+04  0.50400001928E-02 0.  1.
</event>
<event>
 5   0  0.3378848E-06  0.3532277E+04  0.7818609E-02  0.8106183E-01
        2   -1    0    0  501    0  0.00000000000E+00  0.00000000000E+00  0.13028610967E+04  0.13028610967E+04  0.25500000920E-02 0. -1.
       -2   -1    0    0    0  501  0.00000000000E+00  0.00000000000E+00 -0.23941503192E+04  0.23941503192E+04  0.25500000920E-02 0.  1.
    10030    2    1    2    0    0  0.00000000000E+00  0.00000000000E+00 -0.10912892225E+04  0.36970114160E+04  0.35322770620E+04 0.  0.
        1    1    3    3  502    0  0.39291703877E+03 -0.32988891595E+03  0.12231515176E+04  0.13263898866E+04  0.50400001928E-02 0. -1.
       -1    1    3    3    0  502 -0.39291703877E+03  0.32988891595E+03 -0.23144407401E+04  0.23706215294E+04  0.50400001928E-02 0.  1.
</event>
<event>
 5   0  0.1908726E-06  0.1822837E+04  0.7818609E-02  0.8694249E-01
       -2   -1    0    0    0  501  0.00000000000E+00  0.00000000000E+00  0.82868071727E+03  0.82868071728E+03  0.25500000920E-02 0. -1.
        2   -1    0    0  501    0  0.00000000000E+00  0.00000000000E+00 -0.10024168908E+04  0.10024168908E+04  0.25500000920E-02 0.  1.
    10030    2    1    2    0    0  0.00000000000E+00  0.00000000000E+00 -0.17373617355E+03  0.18310976081E+04  0.18228368529E+04 0.  0.
        5    1    3    3  502    0  0.82754084506E+03 -0.93085223820E+02  0.28517874971E+03  0.88024866851E+03  0.46999998093E+01 0. -1.
       -5    1    3    3    0  502 -0.82754084506E+03  0.93085223820E+02 -0.45891492326E+03  0.95084893959E+03  0.46999998093E+01 0.  1.
</event>
<event>
 5   0  0.2565004E-06  0.3436853E+04  0.7818609E-02  0.8128920E-01
        2   -1    0    0  501    0  0.00000000000E+00  0.00000000000E+00  0.10598190349E+04  0.10598190349E+04  0.25500000920E-02 0.  1.
       -2   -1    0    0    0  501  0.00000000000E+00  0.00000000000E+00 -0.27863157515E+04  0.27863157515E+04  0.25500000920E-02 0. -1.
    10030    2    1    2    0    0  0.00000000000E+00  0.00000000000E+00 -0.17264967165E+04  0.38461347864E+04  0.34368534858E+04 0.  0.
        3    1    3    3  502    0  0.13005128664E+04  0.47543439518E+03  0.27559360473E+03  0.14118510633E+04  0.10100000352E+00 0.  1.
       -3    1    3    3    0  502 -0.13005128664E+04 -0.47543439518E+03 -0.20020903213E+04  0.24342837231E+04  0.10100000352E+00 0. -1.
</event>
<event>
 5   0  0.2565004E-06  0.3483635E+04  0.7818609E-02  0.8117679E-01
        2   -1    0    0  501    0  0.00000000000E+00  0.00000000000E+00  0.18144782650E+04  0.18144782650E+04  0.25500000920E-02 0. -1.
       -2   -1    0    0    0  501  0.00000000000E+00  0.00000000000E+00 -0.16720662452E+04  0.16720662452E+04  0.25500000920E-02 0.  1.
    10030    2    1    2    0    0  0.00000000000E+00  0.00000000000E+00  0.14241201973E+03  0.34865445102E+04  0.34836348027E+04 0.  0.
        3    1    3    3  502    0  0.16295500966E+04  0.39943501175E+03  0.53951350027E+03  0.17624008265E+04  0.10100000352E+00 0.  1.
       -3    1    3    3    0  502 -0.16295500966E+04 -0.39943501175E+03 -0.39710148054E+03  0.17241436837E+04  0.10100000352E+00 0. -1.
</event>
<event>
 5   0  0.1782660E-06  0.3471165E+04  0.7818609E-02  0.8120658E-01
       -2   -1    0    0    0  501  0.00000000000E+00  0.00000000000E+00  0.14830367587E+04  0.14830367587E+04  0.25500000920E-02 0.  1.
        2   -1    0    0  501    0  0.00000000000E+00  0.00000000000E+00 -0.20311346002E+04  0.20311346002E+04  0.25500000920E-02 0. -1.
    10030    2    1    2    0    0  0.00000000000E+00  0.00000000000E+00 -0.54809784153E+03  0.35141713589E+04  0.34711653800E+04 0.  0.
        4    1    3    3  502    0  0.11596735993E+04 -0.87175929634E+03 -0.12384467802E+04  0.19075007649E+04  0.12699999809E+01 0. -1.
       -4    1    3    3    0  502 -0.11596735993E+04  0.87175929634E+03  0.69034893864E+03  0.16066705940E+04  0.12699999809E+01 0.  1.
</event>
<event>
 5   0  0.1782660E-06  0.2387978E+04  0.7818609E-02  0.8444018E-01
       -2   -1    0    0    0  501  0.00000000000E+00  0.00000000000E+00  0.10899051822E+04  0.10899051822E+04  0.25500000920E-02 0.  1.
        2   -1    0    0  501    0  0.00000000000E+00  0.00000000000E+00 -0.13080126124E+04  0.13080126124E+04  0.25500000920E-02 0. -1.
    10030    2    1    2    0    0  0.00000000000E+00  0.00000000000E+00 -0.21810743022E+03  0.23979177946E+04  0.23879779937E+04 0.  0.
        4    1    3    3  502    0 -0.69309244241E+03  0.38200295751E+03 -0.10068135234E+04  0.12806164442E+04  0.12699999809E+01 0. -1.
       -4    1    3    3    0  502  0.69309244241E+03 -0.38200295751E+03  0.78870609318E+03  0.11173013504E+04  0.12699999809E+01 0.  1.
</event>
<event>
 5   0  0.1908726E-06  0.2574321E+04  0.7818609E-02  0.8376976E-01
        2   -1    0    0  501    0  0.00000000000E+00  0.00000000000E+00  0.21485551773E+04  0.21485551773E+04  0.25500000920E-02 0. -1.
       -2   -1    0    0    0  501  0.00000000000E+00  0.00000000000E+00 -0.77111445989E+03  0.77111445990E+03  0.25500000920E-02 0.  1.
    10030    2    1    2    0    0  0.00000000000E+00  0.00000000000E+00  0.13774407174E+04  0.29196696372E+04  0.25743208542E+04 0.  0.
        5    1    3    3  502    0 -0.32956804791E+03 -0.10385209385E+04 -0.88499494356E+02  0.10931583089E+04  0.46999998093E+01 0.  1.
       -5    1    3    3    0  502  0.32956804791E+03  0.10385209385E+04  0.14659402118E+04  0.18265113283E+04  0.46999998093E+01 0. -1.
</event>
<event>
 5   0  0.3378848E-06  0.3109797E+04  0.7818609E-02  0.8213054E-01
        2   -1    0    0  501    0  0.00000000000E+00  0.00000000000E+00  0.25885743117E+04  0.25885743117E+04  0.25500000920E-02 0. -1.
       -2   -1    0    0    0  501  0.00000000000E+00  0.00000000000E+00 -0.93399246636E+03  0.93399246636E+03  0.25500000920E-02 0.  1.
    10030    2    1    2    0    0  0.00000000000E+00  0.00000000000E+00  0.16545818453E+04  0.35225667781E+04  0.31097967173E+04 0.  0.
        1    1    3    3  502    0 -0.24072548977E+03 -0.77233179867E+03 -0.67684080452E+03  0.10547789547E+04  0.50400001928E-02 0.  1.
       -1    1    3    3    0  502  0.24072548977E+03  0.77233179867E+03  0.23314226499E+04  0.24677878233E+04  0.50400001928E-02 0. -1.
</event>
<event>
 5   0  0.1089337E-06  0.3512100E+04  0.7818609E-02  0.8110928E-01
       -1   -1    0    0    0  501  0.00000000000E+00  0.00000000000E+00  0.11912525200E+04  0.11912525200E+04  0.50400001928E-02 0.  1.
        1   -1    0    0  501    0  0.00000000000E+00  0.00000000000E+00 -0.25886302698E+04  0.25886302698E+04  0.50400001928E-02 0. -1.
    10030    2    1    2    0    0  0.00000000000E+00  0.00000000000E+00 -0.13973777499E+04  0.37798827898E+04  0.35121004155E+04 0.  0.
        2    1    3    3  502    0  0.10133966344E+04 -0.86477571898E+03 -0.19299922372E+04  0.23451396160E+04  0.25500000920E-02 0. -1.
       -2    1    3    3    0  502 -0.10133966344E+04  0.86477571898E+03  0.53261448736E+03  0.14347431738E+04  0.25500000920E-02 0.  1.
</event>
<event>
 5   0  0.1782660E-06  0.3334375E+04  0.7818609E-02  0.8154203E-01
        2   -1    0    0  501    0  0.00000000000E+00  0.00000000000E+00  0.22999378299E+04  0.22999378299E+04  0.25500000920E-02 0. -1.
       -2   -1    0    0    0  501  0.00000000000E+00  0.00000000000E+00 -0.12085172139E+04  0.12085172139E+04  0.25500000920E-02 0.  1.
    10030    2    1    2    0    0  0.00000000000E+00  0.00000000000E+00  0.10914206160E+04  0.35084550438E+04  0.33343751789E+04 0.  0.
        4    1    3    3  502    0  0.14481041738E+04  0.77543344579E+03  0.24585860215E+03  0.16609487626E+04  0.12699999809E+01 0. -1.
       -4    1    3    3    0  502 -0.14481041738E+04 -0.77543344579E+03  0.84556201383E+03  0.18475062812E+04  0.12699999809E+01 0.  1.
</event>
<event>
 5   0  0.3041329E-06  0.3521347E+04  0.7818609E-02  0.8108750E-01
       -2   -1    0    0    0  501  0.00000000000E+00  0.00000000000E+00  0.19016741692E+04  0.19016741692E+04  0.25500000920E-02 0. -1.
        2   -1    0    0  501    0  0.00000000000E+00  0.00000000000E+00 -0.16301275298E+04  0.16301275298E+04  0.25500000920E-02 0.  1.
    10030    2    1    2    0    0  0.00000000000E+00  0.00000000000E+00  0.27154663940E+03  0.35318016990E+04  0.35213471376E+04 0.  0.
        2    1    3    3  502    0 -0.14407859286E+04 -0.97473859352E+03  0.40859560903E+03  0.17868771053E+04  0.25500000920E-02 0.  1.
       -2    1    3    3    0  502  0.14407859286E+04  0.97473859352E+03 -0.13704896962E+03  0.17449245937E+04  0.25500000920E-02 0. -1.
</event>
<event>
 5   0  0.1089337E-06  0.3539053E+04  0.7818609E-02  0.8104597E-01
       -1   -1    0    0    0  501  0.00000000000E+00  0.00000000000E+00  0.17053485486E+04  0.17053485486E+04  0.50400001928E-02 0.  1.
        1   -1    0    0  501    0  0.00000000000E+00  0.00000000000E+00 -0.18361192623E+04  0.18361192623E+04  0.50400001928E-02 0. -1.
    10030    2    1    2    0    0  0.00000000000E+00  0.00000000000E+00 -0.13077071370E+03  0.35414678108E+04  0.35390525958E+04 0.  0.
        2    1    3    3  502    0  0.88711124006E+03 -0.38233635596E+03  0.14182173666E+04  0.17159510308E+04  0.25500000920E-02 0.  1.
       -2    1    3    3    0  502 -0.88711124006E+03  0.38233635596E+03 -0.15489880803E+04  0.18255167800E+04  0.25500000920E-02 0. -1.
</event>
<event>
 5   0  0.1908726E-06  0.3549225E+04  0.7818609E-02  0.8102222E-01
       -2   -1    0    0    0  501  0.00000000000E+00  0.00000000000E+00  0.23881729090E+04  0.23881729090E+04  0.25500000920E-02 0. -1.
        2   -1    0    0  501    0  0.00000000000E+00  0.00000000000E+00 -0.13186857231E+04  0.13186857231E+04  0.25500000920E-02 0.  1.
    10030    2    1    2    0    0  0.00000000000E+00  0.00000000000E+00  0.10694871859E+04  0.37068586320E+04  0.35492249967E+04 0.  0.
        5    1    3    3  502    0 -0.69836306026E+03  0.14514651390E+03 -0.11623718300E+04  0.13637847468E+04  0.46999998093E+01 0.  1.
       -5    1    3    3    0  502  0.69836306026E+03 -0.14514651390E+03  0.22318590160E+04  0.23430738852E+04  0.46999998093E+01 0. -1.
</event>
<event>
 5   0  0.1782660E-06  0.3491855E+04  0.7818609E-02  0.8115723E-01
        2   -1    0    0  501    0  0.00000000000E+00  0.00000000000E+00  0.17581872753E+04  0.17581872753E+04  0.25500000920E-02 0.  1.
       -2   -1    0    0    0  501  0.00000000000E+00  0.00000000000E+00 -0.17337535747E+04  0.17337535747E+04  0.25500000920E-02 0. -1.
    10030    2    1    2    0    0  0.00000000000E+00  0.00000000000E+00  0.24433700619E+02  0.34919408499E+04  0.34918553655E+04 0.  0.
        4    1    3    3  502    0 -0.13556336246E+04 -0.33026191026E+03 -0.10373070117E+04  0.17386267290E+04  0.12699999809E+01 0. -1.
       -4    1    3    3    0  502  0.13556336246E+04  0.33026191026E+03  0.10617407123E+04  0.17533141209E+04  0.12699999809E+01 0.  1.
</event>
<event>
 5   0  0.1782660E-06  0.3490884E+04  0.7818609E-02  0.8115954E-01
        2   -1    0    0  501    0  0.00000000000E+00  0.00000000000E+00  0.18978635920E+04  0.18978635920E+04  0.25500000920E-02 0. -1.
       -2   -1    0    0    0  501  0.00000000000E+00  0.00000000000E+00 -0.16052613000E+04  0.16052613000E+04  0.25500000920E-02 0.  1.
    10030    2    1    2    0    0  0.00000000000E+00  0.00000000000E+00  0.29260229194E+03  0.35031248920E+04  0.34908835426E+04 0.  0.
        4    1    3    3  502    0 -0.14794072134E+04  0.79477885503E+03 -0.33102028955E+03  0.17116936573E+04  0.12699999809E+01 0.  1.
       -4    1    3    3    0  502  0.14794072134E+04 -0.79477885503E+03  0.62362258150E+03  0.17914312347E+04  0.12699999809E+01 0. -1.
</event>
<event>
 5   0  0.1908726E-06  0.3512909E+04  0.7818609E-02  0.8110737E-01
        2   -1    0    0  501    0  0.00000000000E+00  0.00000000000E+00  0.11884321764E+04  0.11884321764E+04  0.25500000920E-02 0. -1.
       -2   -1    0    0    0  501  0.00000000000E+00  0.00000000000E+00 -0.25959689957E+04  0.25959689957E+04  0.25500000920E-02 0.  1.
    10030    2    1    2    0    0  0.00000000000E+00  0.00000000000E+00 -0.14075368193E+04  0.37844011721E+04  0.35129093831E+04 0.  0.
        5    1    3    3  502    0 -0.79520895808E+03 -0.13691919348E+04  0.11529847437E+03  0.15875640678E+04  0.46999998093E+01 0. -1.
       -5    1    3    3    0  502  0.79520895808E+03  0.13691919348E+04 -0.15228352937E+04  0.21968371043E+04  0.46999998093E+01 0.  1.
</event>
<event>
 5   0  0.1908726E-06  0.3522325E+04  0.7818609E-02  0.8108520E-01
       -2   -1    0    0    0  501  0.00000000000E+00  0.00000000000E+00  0.16762827464E+04  0.16762827464E+04  0.25500000920E-02 0.  1.
        2   -1    0    0  501    0  0.00000000000E+00  0.00000000000E+00 -0.18503401266E+04  0.18503401266E+04  0.25500000920E-02 0. -1.
    10030    2    1    2    0    0  0.00000000000E+00  0.00000000000E+00 -0.17405738022E+03  0.35266228730E+04  0.35223249306E+04 0.  0.
        5    1    3    3  502    0 -0.56075733825E+03  0.15915169473E+04 -0.59192186329E+03  0.17882305691E+04  0.46999998093E+01 0. -1.
       -5    1    3    3    0  502  0.56075733825E+03 -0.15915169473E+04  0.41786448307E+03  0.17383923039E+04  0.46999998093E+01 0.  1.
</event>
<event>
 5   0  0.2565004E-06  0.3285895E+04  0.7818609E-02  0.8166494E-01
        2   -1    0    0  501    0  0.00000000000E+00  0.00000000000E+00  0.15035234126E+04  0.15035234126E+04  0.25500000920E-02 0. -1.
       -2   -1    0    0    0  501  0.00000000000E+00  0.00000000000E+00 -0.17953009339E+04  0.17953009339E+04  0.25500000920E-02 0.  1.
    10030    2    1    2    0    0  0.00000000000E+00  0.00000000000E+00 -0.29177752129E+03  0.32988243464E+04  0.32858953037E+04 0.  0.
        3    1    3    3  502    0  0.56909271239E+03  0.15406281383E+04 -0.18936505402E+03  0.16532576053E+04  0.10100000352E+00 0. -1.
       -3    1    3    3    0  502 -0.56909271239E+03 -0.15406281383E+04 -0.10241246726E+03  0.16455667411E+04  0.10100000352E+00 0.  1.
</event>
<event>
 5   0  0.2565004E-06  0.3448923E+04  0.7818609E-02  0.8126002E-01
        2   -1    0    0  501    0  0.00000000000E+00  0.00000000000E+00  0.14826589559E+04  0.14826589559E+04  0.25500000920E-02 0.  1.
       -2   -1    0    0    0  501  0.00000000000E+00  0.00000000000E+00 -0.20056986410E+04  0.20056986411E+04  0.25500000920E-02 0. -1.
    10030    2    1    2    0    0  0.00000000000E+00  0.00000000000E+00 -0.52303968515E+03  0.34883575970E+04  0.34489227611E+04 0.  0.
        3    1    3    3  502    0 -0.16141339151E+03  0.78765709604E+03  0.12814753051E+04  0.15128241642E+04  0.10100000352E+00 0.  1.
       -3    1    3    3    0  502  0.16141339151E+03 -0.78765709604E+03 -0.18045149902E+04  0.19755334328E+04  0.10100000352E+00 0. -1.
</event>
<event>
 5   0  0.1110956E-06  0.3491542E+04  0.7818609E-02  0.8115797E-01
        1   -1    0    0  501    0  0.00000000000E+00  0.00000000000E+00  0.11945533641E+04  0.11945533641E+04  0.50400001928E-02 0. -1.
       -1   -1    0    0    0  501  0.00000000000E+00  0.00000000000E+00 -0.25513434466E+04  0.25513434466E+04  0.50400001928E-02 0.  1.
    10030    2    1    2    0    0  0.00000000000E+00  0.00000000000E+00 -0.13567900825E+04  0.37458968108E+04  0.34915417209E+04 0.  0.
        1    1    3    3  502    0 -0.36194185273E+03  0.57494200773E+03  0.10469100588E+04  0.12480308042E+04  0.50400001928E-02 0. -1.
       -1    1    3    3    0  502  0.36194185273E+03 -0.57494200773E+03 -0.24037001414E+04  0.24978660065E+04  0.50400001928E-02 0.  1.
</event>
<event>
 5   0  0.3041329E-06  0.2530649E+04  0.7818609E-02  0.8392147E-01
       -2   -1    0    0    0  501  0.00000000000E+00  0.00000000000E+00  0.10125734655E+04  0.10125734655E+04  0.25500000920E-02 0.  1.
        2   -1    0    0  501    0  0.00000000000E+00  0.00000000000E+00 -0.15811655433E+04  0.15811655433E+04  0.25500000920E-02 0. -1.
    10030    2    1    2    0    0  0.00000000000E+00  0.00000000000E+00 -0.56859207779E+03  0.25937390088E+04  0.25306491450E+04 0.  0.
        2    1    3    3  502    0 -0.51706404275E+03 -0.81741623734E+03  0.55183714691E+03  0.11135747690E+04  0.25500000920E-02 0.  1.
       -2    1    3    3    0  502  0.51706404275E+03  0.81741623734E+03 -0.11204292247E+04  0.14801642399E+04  0.25500000920E-02 0. -1.
</event>
<event>
 5   0  0.1089337E-06  0.3527138E+04  0.7818609E-02  0.8107389E-01
        1   -1    0    0  501    0  0.00000000000E+00  0.00000000000E+00  0.22420598456E+04  0.22420598456E+04  0.50400001928E-02 0. -1.
       -1   -1    0    0    0  501  0.00000000000E+00  0.00000000000E+00 -0.13871952423E+04  0.13871952423E+04  0.50400001928E-02 0.  1.
    10030    2    1    2    0    0  0.00000000000E+00  0.00000000000E+00  0.85486460323E+03  0.36292550879E+04  0.35271375084E+04 0.  0.
        2    1    3    3  502    0  0.47569680728E+03  0.12024381139E+04 -0.80646512405E+03  0.15239851924E+04  0.25500000920E-02 0.  1.
       -2    1    3    3    0  502 -0.47569680728E+03 -0.12024381139E+04  0.16613297273E+04  0.21052698955E+04  0.25500000920E-02 0. -1.
</event>
<event>
 5   0  0.3378848E-06  0.3900568E+04  0.7818609E-02  0.8024911E-01
        2   -1    0    0  501    0  0.00000000000E+00  0.00000000000E+00  0.17520641425E+04  0.17520641425E+04  0.25500000920E-02 0.  1.
       -2   -1    0    0    0  501  0.00000000000E+00  0.00000000000E+00 -0.21709296189E+04  0.21709296189E+04  0.25500000920E-02 0. -1.
    10030    2    1    2    0    0  0.00000000000E+00  0.00000000000E+00 -0.41886547641E+03  0.39229937614E+04  0.39005681336E+04 0.  0.
        1    1    3    3  502    0 -0.13044842982E+04 -0.31150918021E+03  0.12146495939E+04  0.18094449120E+04  0.50400001928E-02 0.  1.
       -1    1    3    3    0  502  0.13044842982E+04  0.31150918021E+03 -0.16335150703E+04  0.21135488494E+04  0.50400001928E-02 0. -1.
</event>
<event>
 5   0  0.1908726E-06  0.3554262E+04  0.7818609E-02  0.8101050E-01
        2   -1    0    0  501    0  0.00000000000E+00  0.00000000000E+00  0.15126396157E+04  0.15126396157E+04  0.25500000920E-02 0. -1.
       -2   -1    0    0    0  501  0.00000000000E+00  0.00000000000E+00 -0.20878695036E+04  0.20878695036E+04  0.25500000920E-02 0.  1.
    10030    2    1    2    0    0  0.00000000000E+00  0.00000000000E+00 -0.57522988791E+03  0.36005091194E+04  0.35542617370E+04 0.  0.
        5    1    3    3  502    0  0.16974324667E+04  0.42814692153E+03  0.22282685074E+02  0.17507442342E+04  0.46999998093E+01 0. -1.
       -5    1    3    3    0  502 -0.16974324667E+04 -0.42814692153E+03 -0.59751257299E+03  0.18497648852E+04  0.46999998093E+01 0.  1.
</event>
<event>
 5   0  0.1102175E-06  0.3516140E+04  0.7818609E-02  0.8109975E-01
       -1   -1    0    0    0  501  0.00000000000E+00  0.00000000000E+00  0.20780260413E+04  0.20780260413E+04  0.50400001928E-02 0. -1.
        1   -1    0    0  501    0  0.00000000000E+00  0.00000000000E+00 -0.14873783024E+04  0.14873783024E+04  0.50400001928E-02 0.  1.
    10030    2    1    2    0    0  0.00000000000E+00  0.00000000000E+00  0.59064773897E+03  0.35654043437E+04  0.35161404100E+04 0.  0.
        5    1    3    3  502    0 -0.11729412721E+04 -0.12405547767E+04  0.72075109837E+03  0.18531787873E+04  0.46999998093E+01 0.  1.
       -5    1    3    3    0  502  0.11729412721E+04  0.12405547767E+04 -0.13010335940E+03  0.17122255564E+04  0.46999998093E+01 0. -1.
</event>
<event>
 5   0  0.3041329E-06  0.1898305E+04  0.7818609E-02  0.8655701E-01
       -2   -1    0    0    0  501  0.00000000000E+00  0.00000000000E+00  0.77338135660E+03  0.77338135660E+03  0.25500000920E-02 0.  1.
        2   -1    0    0  501    0  0.00000000000E+00  0.00000000000E+00 -0.11648722009E+04  0.11648722009E+04  0.25500000920E-02 0. -1.
    10030    2    1    2    0    0  0.00000000000E+00  0.00000000000E+00 -0.39149084432E+03  0.19382535575E+04  0.18983049734E+04 0.  0.
        2    1    3    3  502    0  0.74291838499E+03  0.44732232854E+03 -0.58969583725E+03  0.10486973695E+04  0.25500000920E-02 0. -1.
       -2    1    3    3    0  502 -0.74291838499E+03 -0.44732232854E+03  0.19820499293E+03  0.88955618799E+03  0.25500000920E-02 0.  1.
</event>
<event>
 5   0  0.1125196E-06  0.2073326E+04  0.7818609E-02  0.8573086E-01
       -1   -1    0    0    0  501  0.00000000000E+00  0.00000000000E+00  0.11778360198E+04  0.11778360199E+04  0.50400001928E-02 0. -1.
        1   -1    0    0  501    0  0.00000000000E+00  0.00000000000E+00 -0.91241034043E+03  0.91241034045E+03  0.50400001928E-02 0.  1.
    10030    2    1    2    0    0  0.00000000000E+00  0.00000000000E+00  0.26542567941E+03  0.20902463603E+04  0.20733256029E+04 0.  0.
        4    1    3    3  502    0  0.38419197002E+03 -0.96200275408E+03  0.17323267049E+03  0.10502685084E+04  0.12699999809E+01 0. -1.
       -4    1    3    3    0  502 -0.38419197002E+03  0.96200275408E+03  0.92193008921E+02  0.10399778519E+04  0.12699999809E+01 0.  1.
</event>
<event>
 5   0  0.3041329E-06  0.3548558E+04  0.7818609E-02  0.8102378E-01
        2   -1    0    0  501    0  0.00000000000E+00  0.00000000000E+00  0.14140361213E+04  0.14140361213E+04  0.25500000920E-02 0. -1.
       -2   -1    0    0    0  501  0.00000000000E+00  0.00000000000E+00 -0.22262984876E+04  0.22262984876E+04  0.25500000920E-02 0.  1.
    10030    2    1    2    0    0  0.00000000000E+00  0.00000000000E+00 -0.81226236626E+03  0.36403346089E+04  0.35485582865E+04 0.  0.
        2    1    3    3  502    0  0.84681689273E+03 -0.13974063476E+04 -0.11155531784E+04  0.19784595634E+04  0.25500000920E-02 0.  1.
       -2    1    3    3    0  502 -0.84681689273E+03  0.13974063476E+04  0.30329081216E+03  0.16618750455E+04  0.25500000920E-02 0. -1.
</event>
<event>
 5   0  0.1110956E-06  0.1805178E+04  0.7818609E-02  0.8703551E-01
        1   -1    0    0  501    0  0.00000000000E+00  0.00000000000E+00  0.17250383571E+04  0.17250383572E+04  0.50400001928E-02 0.  1.
       -1   -1    0    0    0  501  0.00000000000E+00  0.00000000000E+00 -0.47225998255E+03  0.47225998257E+03  0.50400001928E-02 0. -1.
    10030    2    1    2    0    0  0.00000000000E+00  0.00000000000E+00  0.12527783746E+04  0.21972983397E+04  0.18051776472E+04 0.  0.
        1    1    3    3  502    0 -0.45285570684E+03  0.73855781965E+03  0.93461428967E+03  0.12743821306E+04  0.50400001928E-02 0.  1.
       -1    1    3    3    0  502  0.45285570684E+03 -0.73855781965E+03  0.31816408493E+03  0.92291620917E+03  0.50400001928E-02 0. -1.
</event>
<event>
 5   0  0.1042825E-06  0.2228540E+04  0.7818609E-02  0.8506642E-01
        4   -1    0    0  501    0  0.00000000000E+00  0.00000000000E+00  0.69733639256E+03  0.69733754903E+03  0.12699999809E+01 0. -1.
       -4   -1    0    0    0  501  0.00000000000E+00  0.00000000000E+00 -0.17804827640E+04  0.17804832169E+04  0.12699999809E+01 0.  1.
    10030    2    1    2    0    0  0.00000000000E+00  0.00000000000E+00 -0.10831463714E+04  0.24778207660E+04  0.22285398103E+04 0.  0.
        3    1    3    3  502    0  0.25550754830E+02 -0.43133041370E+03  0.60039724507E+03  0.73971320723E+03  0.10100000352E+00 0. -1.
       -3    1    3    3    0  502 -0.25550754830E+02  0.43133041370E+03 -0.16835436165E+04  0.17381075587E+04  0.10100000352E+00 0.  1.
</event>
<event>
 5   0  0.2565004E-06  0.3519816E+04  0.7818609E-02  0.8109110E-01
       -2   -1    0    0    0  501  0.00000000000E+00  0.00000000000E+00  0.20225070564E+04  0.20225070564E+04  0.25500000920E-02 0.  1.
        2   -1    0    0  501    0  0.00000000000E+00  0.00000000000E+00 -0.15314047863E+04  0.15314047863E+04  0.25500000920E-02 0. -1.
    10030    2    1    2    0    0  0.00000000000E+00  0.00000000000E+00  0.49110227009E+03  0.35539118428E+04  0.35198164649E+04 0.  0.
        3    1    3    3  502    0  0.12958242246E+03 -0.16259999581E+04  0.91271609221E+03  0.18691490425E+04  0.10100000352E+00 0.  1.
       -3    1    3    3    0  502 -0.12958242246E+03  0.16259999581E+04 -0.42161382212E+03  0.16847628003E+04  0.10100000352E+00 0. -1.
</event>
<event>
 5   0  0.1102175E-06  0.3392342E+04  0.7818609E-02  0.8139788E-01
        1   -1    0    0  501    0  0.00000000000E+00  0.00000000000E+00  0.16019826971E+04  0.16019826971E+04  0.50400001928E-02 0. -1.
       -1   -1    0    0    0  501  0.00000000000E+00  0.00000000000E+00 -0.17958972361E+04  0.17958972361E+04  0.50400001928E-02 0.  1.
    10030    2    1    2    0    0  0.00000000000E+00  0.00000000000E+00 -0.19391453900E+03  0.33978799333E+04  0.33923421397E+04 0.  0.
        5    1    3    3  502    0  0.11419281763E+04  0.12512857861E+04 -0.11623535702E+02  0.16940700325E+04  0.46999998093E+01 0.  1.
       -5    1    3    3    0  502 -0.11419281763E+04 -0.12512857861E+04 -0.18229100330E+03  0.17038099008E+04  0.46999998093E+01 0. -1.
</event>
<event>
 5   0  0.1125196E-06  0.2547640E+04  0.7818609E-02  0.8386207E-01
        1   -1    0    0  501    0  0.00000000000E+00  0.00000000000E+00  0.29576622306E+04  0.29576622306E+04  0.50400001928E-02 0.  1.
       -1   -1    0    0    0  501  0.00000000000E+00  0.00000000000E+00 -0.54861477383E+03  0.54861477386E+03  0.50400001928E-02 0. -1.
    10030    2    1    2    0    0  0.00000000000E+00  0.00000000000E+00  0.24090474567E+04  0.35062770044E+04  0.25476398456E+04 0.  0.
        4    1    3    3  502    0  0.63615702666E+03 -0.50924375006E+03  0.25520113333E+04  0.26789528585E+04  0.12699999809E+01 0.  1.
       -4    1    3    3    0  502 -0.63615702666E+03  0.50924375006E+03 -0.14296387662E+03  0.82732414594E+03  0.12699999809E+01 0. -1.
</event>
<event>
 5   0  0.1908726E-06  0.3382500E+04  0.7818609E-02  0.8142215E-01
       -2   -1    0    0    0  501  0.00000000000E+00  0.00000000000E+00  0.98691063723E+03  0.98691063724E+03  0.25500000920E-02 0.  1.
        2   -1    0    0  501    0  0.00000000000E+00  0.00000000000E+00 -0.28982626518E+04  0.28982626518E+04  0.25500000920E-02 0. -1.
    10030    2    1    2    0    0  0.00000000000E+00  0.00000000000E+00 -0.19113520145E+04  0.38851732890E+04  0.33824998096E+04 0.  0.
        5    1    3    3  502    0  0.52350577510E+03 -0.15970356616E+04 -0.73858278278E+03  0.18357853409E+04  0.46999998093E+01 0. -1.
       -5    1    3    3    0  502 -0.52350577510E+03  0.15970356616E+04 -0.11727692317E+04  0.20493879481E+04  0.46999998093E+01 0.  1.
</event>
<event>
 5   0  0.1908726E-06  0.3449479E+04  0.7818609E-02  0.8125868E-01
        2   -1    0    0  501    0  0.00000000000E+00  0.00000000000E+00  0.29984118144E+04  0.29984118144E+04  0.25500000920E-02 0. -1.
       -2   -1    0    0    0  501  0.00000000000E+00  0.00000000000E+00 -0.99210085774E+03  0.99210085775E+03  0.25500000920E-02 0.  1.
    10030    2    1    2    0    0  0.00000000000E+00  0.00000000000E+00  0.20063109567E+04  0.39905126722E+04  0.34494793421E+04 0.  0.
        5    1    3    3  502    0 -0.48840727927E+03 -0.15506511385E+04  0.16693658072E+04  0.23302070534E+04  0.46999998093E+01 0. -1.
       -5    1    3    3    0  502  0.48840727927E+03  0.15506511385E+04  0.33694514954E+03  0.16603056187E+04  0.46999998093E+01 0.  1.
</event>
<event>
 5   0  0.1782660E-06  0.3457908E+04  0.7818609E-02  0.8123838E-01
       -2   -1    0    0    0  501  0.00000000000E+00  0.00000000000E+00  0.15277476758E+04  0.15277476758E+04  0.25500000920E-02 0.  1.
        2   -1    0    0  501    0  0.00000000000E+00  0.00000000000E+00 -0.19566597462E+04  0.19566597462E+04  0.25500000920E-02 0. -1.
    10030    2    1    2    0    0  0.00000000000E+00  0.00000000000E+00 -0.42891207032E+03  0.34844074220E+04  0.34579082577E+04 0.  0.
        4    1    3    3  502    0  0.59392512030E+03  0.24286298396E+03 -0.18322347657E+04  0.19413436911E+04  0.12699999809E+01 0. -1.
       -4    1    3    3    0  502 -0.59392512030E+03 -0.24286298396E+03  0.14033226953E+04  0.15430637309E+04  0.12699999809E+01 0.  1.
</event>
<event>
 5   0  0.1089337E-06  0.3303785E+04  0.7818609E-02  0.8161933E-01
       -1   -1    0    0    0  501  0.00000000000E+00  0.00000000000E+00  0.14574128560E+04  0.14574128560E+04  0.50400001928E-02 0. -1.
        1   -1    0    0  501    0  0.00000000000E+00  0.00000000000E+00 -0.18723243865E+04  0.18723243865E+04  0.50400001928E-02 0.  1.
    10030    2    1    2    0    0  0.00000000000E+00  0.00000000000E+00 -0.41491153048E+03  0.33297372425E+04  0.33037854843E+04 0.  0.
        2    1    3    3  502    0 -0.25326034413E+02 -0.16504291296E+04 -0.14220220850E+03  0.16567375133E+04  0.25500000920E-02 0. -1.
       -2    1    3    3    0  502  0.25326034413E+02  0.16504291296E+04 -0.27270932198E+03  0.16729997293E+04  0.25500000920E-02 0.  1.
</event>
<event>
 5   0  0.1089337E-06  0.3475357E+04  0.7818609E-02  0.8119655E-01
       -1   -1    0    0    0  501  0.00000000000E+00  0.00000000000E+00  0.24116843121E+04  0.24116843121E+04  0.50400001928E-02 0.  1.
        1   -1    0    0  501    0  0.00000000000E+00  0.00000000000E+00 -0.12520408243E+04  0.12520408244E+04  0.50400001928E-02 0. -1.
    10030    2    1    2    0    0  0.00000000000E+00  0.00000000000E+00  0.11596434878E+04  0.36637251365E+04  0.34753573711E+04 0.  0.
        2    1    3    3  502    0 -0.95623198379E+03  0.47035973436E+03  0.20267713724E+04  0.22898515416E+04  0.25500000920E-02 0.  1.
       -2    1    3    3    0  502  0.95623198379E+03 -0.47035973436E+03 -0.86712788461E+03  0.13738735949E+04  0.25500000920E-02 0. -1.
</event>
<event>
 5   0  0.2565004E-06  0.3526652E+04  0.7818609E-02  0.8107503E-01
       -2   -1    0    0    0  501  0.00000000000E+00  0.00000000000E+00  0.19941145244E+04  0.19941145244E+04  0.25500000920E-02 0.  1.
        2   -1    0    0  501    0  0.00000000000E+00  0.00000000000E+00 -0.15592477729E+04  0.15592477729E+04  0.25500000920E-02 0. -1.
    10030    2    1    2    0    0  0.00000000000E+00  0.00000000000E+00  0.43486675155E+03  0.35533622973E+04  0.35266520277E+04 0.  0.
        3    1    3    3  502    0  0.61514453136E+03 -0.36461752611E+03 -0.14065962076E+04  0.15779295409E+04  0.10100000352E+00 0. -1.
       -3    1    3    3    0  502 -0.61514453136E+03  0.36461752611E+03  0.18414629591E+04  0.19754327563E+04  0.10100000352E+00 0.  1.
</event>
<event>
 5   0  0.1782660E-06  0.3398225E+04  0.7818609E-02  0.8138342E-01
        2   -1    0    0  501    0  0.00000000000E+00  0.00000000000E+00  0.21666740799E+04  0.21666740799E+04  0.25500000920E-02 0.  1.
       -2   -1    0    0    0  501  0.00000000000E+00  0.00000000000E+00 -0.13324493800E+04  0.13324493800E+04  0.25500000920E-02 0. -1.
    10030    2    1    2    0    0  0.00000000000E+00  0.00000000000E+00  0.83422469985E+03  0.34991234599E+04  0.33982251452E+04 0.  0.
        4    1    3    3  502    0  0.33423702621E+03  0.28977411268E+03 -0.12721147930E+04  0.13468337260E+04  0.12699999809E+01 0. -1.
       -4    1    3    3    0  502 -0.33423702621E+03 -0.28977411268E+03  0.21063394929E+04  0.21522897338E+04  0.12699999809E+01 0.  1.
</event>
<event>
 5   0  0.1782660E-06  0.3472782E+04  0.7818609E-02  0.8120271E-01
       -2   -1    0    0    0  501  0.00000000000E+00  0.00000000000E+00  0.11808867400E+04  0.11808867400E+04  0.25500000920E-02 0.  1.
        2   -1    0    0  501    0  0.00000000000E+00  0.00000000000E+00 -0.25532111630E+04  0.25532111630E+04  0.25500000920E-02 0. -1.
    10030    2    1    2    0    0  0.00000000000E+00  0.00000000000E+00 -0.13723244230E+04  0.37340979030E+04  0.34727817132E+04 0.  0.
        4    1    3    3  502    0  0.60861492429E+03 -0.11157020814E+04  0.58601820739E+03  0.13995078466E+04  0.12699999809E+01 0.  1.
       -4    1    3    3    0  502 -0.60861492429E+03  0.11157020814E+04 -0.19583426304E+04  0.23345900564E+04  0.12699999809E+01 0. -1.
</event>
<event>
 5   0  0.1130707E-06  0.2008851E+04  0.7818609E-02  0.8602494E-01
       -1   -1    0    0    0  501  0.00000000000E+00  0.00000000000E+00  0.72580444771E+03  0.72580444773E+03  0.50400001928E-02 0.  1.
        1   -1    0    0  501    0  0.00000000000E+00  0.00000000000E+00 -0.13900032305E+04  0.13900032305E+04  0.50400001928E-02 0. -1.
    10030    2    1    2    0    0  0.00000000000E+00  0.00000000000E+00 -0.66419878277E+03  0.21158076782E+04  0.20088509422E+04 0.  0.
        3    1    3    3  502    0 -0.13991114228E+03  0.22009154924E+03 -0.13537204754E+04  0.13786132719E+04  0.10100000352E+00 0. -1.
       -3    1    3    3    0  502  0.13991114228E+03 -0.22009154924E+03  0.68952169266E+03  0.73719440627E+03  0.10100000352E+00 0.  1.
</event>
<event>
 5   0  0.1125196E-06  0.3486787E+04  0.7818609E-02  0.8116929E-01
        1   -1    0    0  501    0  0.00000000000E+00  0.00000000000E+00  0.20799265686E+04  0.20799265686E+04  0.50400001928E-02 0.  1.
       -1   -1    0    0    0  501  0.00000000000E+00  0.00000000000E+00 -0.14613112547E+04  0.14613112547E+04  0.50400001928E-02 0. -1.
    10030    2    1    2    0    0  0.00000000000E+00  0.00000000000E+00  0.61861531391E+03  0.35412378234E+04  0.34867865457E+04 0.  0.
        4    1    3    3  502    0 -0.38026682571E+03  0.75878468487E+02  0.20355742648E+04  0.20721787088E+04  0.12699999809E+01 0.  1.
       -4    1    3    3    0  502  0.38026682571E+03 -0.75878468487E+02 -0.14169589509E+04  0.14690591146E+04  0.12699999809E+01 0. -1.
</event>
<event>
 5   0  0.2565004E-06  0.3416023E+04  0.7818609E-02  0.8133985E-01
        2   -1    0    0  501    0  0.00000000000E+00  0.00000000000E+00  0.15275908830E+04  0.15275908830E+04  0.25500000920E-02 0. -1.
       -2   -1    0    0    0  501  0.00000000000E+00  0.00000000000E+00 -0.19097409057E+04  0.19097409057E+04  0.25500000920E-02 0.  1.
    10030    2    1    2    0    0  0.00000000000E+00  0.00000000000E+00 -0.38215002266E+03  0.34373317887E+04  0.34160227145E+04 0.  0.
        3    1    3    3  502    0 -0.16377202288E+04  0.46106627679E+03 -0.39827277397E+02  0.17018507224E+04  0.10100000352E+00 0.  1.
       -3    1    3    3    0  502  0.16377202288E+04 -0.46106627679E+03 -0.34232274526E+03  0.17354810663E+04  0.10100000352E+00 0. -1.
</event>
<event>
 5   0  0.3041329E-06  0.3497420E+04  0.7818609E-02  0.8114402E-01
        2   -1    0    0  501    0  0.00000000000E+00  0.00000000000E+00  0.22894616293E+04  0.22894616293E+04  0.25500000920E-02 0. -1.
       -2   -1    0    0    0  501  0.00000000000E+00  0.00000000000E+00 -0.13356791774E+04  0.13356791774E+04  0.25500000920E-02 0.  1.
    10030    2    1    2    0    0  0.00000000000E+00  0.00000000000E+00  0.95378245192E+03  0.36251408067E+04  0.34974197493E+04 0.  0.
        2    1    3    3  502    0  0.10250820566E+04 -0.56990452219E+03 -0.86755051947E+03  0.14588448482E+04  0.25500000920E-02 0.  1.
       -2    1    3    3    0  502 -0.10250820566E+04  0.56990452219E+03  0.18213329714E+04  0.21662959585E+04  0.25500000920E-02 0. -1.
</event>
<event>
 5   0  0.1130707E-06  0.3471606E+04  0.7818609E-02  0.8120552E-01
        1   -1    0    0  501    0  0.00000000000E+00  0.00000000000E+00  0.17682225862E+04  0.17682225862E+04  0.50400001928E-02 0.  1.
       -1   -1    0    0    0  501  0.00000000000E+00  0.00000000000E+00 -0.17039778312E+04  0.17039778312E+04  0.50400001928E-02 0. -1.
    10030    2    1    2    0    0  0.00000000000E+00  0.00000000000E+00  0.64244754984E+02  0.34722004174E+04  0.34716060189E+04 0.  0.
        3    1    3    3  502    0 -0.74468565561E+03 -0.11185073960E+04 -0.10668817382E+04  0.17157657690E+04  0.10100000352E+00 0. -1.
       -3    1    3    3    0  502  0.74468565561E+03  0.11185073960E+04  0.11311264932E+04  0.17564346485E+04  0.10100000352E+00 0.  1.
</event>
<event>
 5   0  0.1782660E-06  0.1838739E+04  0.7818609E-02  0.8685965E-01
        2   -1    0    0  501    0  0.00000000000E+00  0.00000000000E+00  0.98843830892E+03  0.98843830892E+03  0.25500000920E-02 0.  1.
       -2   -1    0    0    0  501  0.00000000000E+00  0.00000000000E+00 -0.85512717354E+03  0.85512717355E+03  0.25500000920E-02 0. -1.
    10030    2    1    2    0    0  0.00000000000E+00  0.00000000000E+00  0.13331113537E+03  0.18435654825E+04  0.18387391956E+04 0.  0.
        4    1    3    3  502    0 -0.16466892722E+03 -0.28932406052E+03 -0.79257373278E+03  0.85965051177E+03  0.12699999809E+01 0. -1.
       -4    1    3    3    0  502  0.16466892722E+03  0.28932406052E+03  0.92588486815E+03  0.98391497070E+03  0.12699999809E+01 0.  1.
</event>
<event>
 5   0  0.1782660E-06  0.3405597E+04  0.7818609E-02  0.8136534E-01
       -2   -1    0    0    0  501  0.00000000000E+00  0.00000000000E+00  0.15119270621E+04  0.15119270621E+04  0.25500000920E-02 0. -1.
        2   -1    0    0  501    0  0.00000000000E+00  0.00000000000E+00 -0.19177661053E+04  0.19177661053E+04  0.25500000920E-02 0.  1.
    10030    2    1    2    0    0  0.00000000000E+00  0.00000000000E+00 -0.40583904316E+03  0.34296931674E+04  0.34055968483E+04 0.  0.
        4    1    3    3  502    0  0.72161150952E+03  0.57311733470E+03  0.12391106992E+04  0.15442096968E+04  0.12699999809E+01 0. -1.
       -4    1    3    3    0  502 -0.72161150952E+03 -0.57311733470E+03 -0.16449497423E+04  0.18854834705E+04  0.12699999809E+01 0.  1.
</event>
<event>
 5   0  0.1102175E-06  0.3313517E+04  0.7818609E-02  0.8159464E-01
       -1   -1    0    0    0  501  0.00000000000E+00  0.00000000000E+00  0.19556585392E+04  0.19556585392E+04  0.50400001928E-02 0.  1.
        1   -1    0    0  501    0  0.00000000000E+00  0.00000000000E+00 -0.14035418929E+04  0.14035418929E+04  0.50400001928E-02 0. -1.
    10030    2    1    2    0    0  0.00000000000E+00  0.00000000000E+00  0.55211664628E+03  0.33592004321E+04  0.33135169762E+04 0.  0.
        5    1    3    3  502    0  0.50782315205E+03 -0.12482769365E+04  0.12530602360E+04  0.18401798035E+04  0.46999998093E+01 0.  1.
       -5    1    3    3    0  502 -0.50782315205E+03  0.12482769365E+04 -0.70094358976E+03  0.15190206286E+04  0.46999998093E+01 0. -1.
</event>
<event>
 5   0  0.1782660E-06  0.3697129E+04  0.7818609E-02  0.8068598E-01
        2   -1    0    0  501    0  0.00000000000E+00  0.00000000000E+00  0.23617092198E+04  0.23617092198E+04  0.25500000920E-02 0.  1.
       -2   -1    0    0    0  501  0.00000000000E+00  0.00000000000E+00 -0.14469145512E+04  0.14469145512E+04  0.25500000920E-02 0. -1.
    10030    2    1    2    0    0  0.00000000000E+00  0.00000000000E+00  0.91479466866E+03  0.38086237710E+04  0.36971293922E+04 0.  0.
        4    1    3    3  502    0 -0.12510113814E+04 -0.94692122119E+03  0.14643728095E+04  0.21461776752E+04  0.12699999809E+01 0.  1.
       -4    1    3    3    0  502  0.12510113814E+04  0.94692122119E+03 -0.54957814088E+03  0.16624460957E+04  0.12699999809E+01 0. -1.
</event>
<event>
 5   0  0.3041329E-06  0.3246415E+04  0.7818609E-02  0.8176665E-01
       -2   -1    0    0    0  501  0.00000000000E+00  0.00000000000E+00  0.19294140321E+04  0.19294140321E+04  0.25500000920E-02 0.  1.
        2   -1    0    0  501    0  0.00000000000E+00  0.00000000000E+00 -0.13655974086E+04  0.13655974086E+04  0.25500000920E-02 0. -1.
    10030    2    1    2    0    0  0.00000000000E+00  0.00000000000E+00  0.56381662359E+03  0.32950114407E+04  0.32464151320E+04 0.  0.
        2    1    3    3  502    0 -0.14209397045E+02  0.15624946243E+04  0.72804639457E+03  0.17238453847E+04  0.25500000920E-02 0.  1.
       -2    1    3    3    0  502  0.14209397045E+02 -0.15624946243E+04 -0.16422977098E+03  0.15711660560E+04  0.25500000920E-02 0. -1.
</event>
<event>
 5   0  0.1908726E-06  0.3532657E+04  0.7818609E-02  0.8106094E-01
       -2   -1    0    0    0  501  0.00000000000E+00  0.00000000000E+00  0.15021713850E+04  0.15021713850E+04  0.25500000920E-02 0. -1.
        2   -1    0    0  501    0  0.00000000000E+00  0.00000000000E+00 -0.20769377411E+04  0.20769377411E+04  0.25500000920E-02 0.  1.
    10030    2    1    2    0    0  0.00000000000E+00  0.00000000000E+00 -0.57476635614E+03  0.35791091261E+04  0.35326570414E+04 0.  0.
        5    1    3    3  502    0  0.14596380453E+04  0.69928444398E+02 -0.12926301009E+04  0.19509863860E+04  0.46999998093E+01 0.  1.
       -5    1    3    3    0  502 -0.14596380453E+04 -0.69928444398E+02  0.71786374479E+03  0.16281227401E+04  0.46999998093E+01 0. -1.
</event>
<event>
 5   0  0.1908726E-06  0.2861329E+04  0.7818609E-02  0.8284477E-01
       -2   -1    0    0    0  501  0.00000000000E+00  0.00000000000E+00  0.90073767112E+03  0.90073767112E+03  0.25500000920E-02 0. -1.
        2   -1    0    0  501    0  0.00000000000E+00  0.00000000000E+00 -0.22723614303E+04  0.22723614303E+04  0.25500000920E-02 0.  1.
    10030    2    1    2    0    0  0.00000000000E+00  0.00000000000E+00 -0.13716237592E+04  0.31730991014E+04  0.28613294412E+04 0.  0.
        5    1    3    3  502    0  0.81680738158E+03  0.10698651201E+04 -0.14823082482E+03  0.13541713855E+04  0.46999998093E+01 0. -1.
       -5    1    3    3    0  502 -0.81680738158E+03 -0.10698651201E+04 -0.12233929344E+04  0.18189277159E+04  0.46999998093E+01 0.  1.
</event>
<event>
 5   0  0.1782660E-06  0.3536053E+04  0.7818609E-02  0.8105298E-01
       -2   -1    0    0    0  501  0.00000000000E+00  0.00000000000E+00  0.20862572831E+04  0.20862572831E+04  0.25500000920E-02 0.  1.
        2   -1    0    0  501    0  0.00000000000E+00  0.00000000000E+00 -0.14983380008E+04  0.14983380008E+04  0.25500000920E-02 0. -1.
    10030    2    1    2    0    0  0.00000000000E+00  0.00000000000E+00  0.58791928226E+03  0.35845952839E+04  0.35360534876E+04 0.  0.
        4    1    3    3  502    0  0.13677853563E+04  0.63051182660E+03 -0.64478448622E+03  0.16383316486E+04  0.12699999809E+01 0. -1.
       -4    1    3    3    0  502 -0.13677853563E+04 -0.63051182660E+03  0.12327037685E+04  0.19462636353E+04  0.12699999809E+01 0.  1.
</event>
<event>
 5   0  0.1125196E-06  0.3751944E+04  0.7818609E-02  0.8056547E-01
       -1   -1    0    0    0  501  0.00000000000E+00  0.00000000000E+00  0.16712229728E+04  0.16712229729E+04  0.50400001928E-02 0.  1.
        1   -1    0    0  501    0  0.00000000000E+00  0.00000000000E+00 -0.21058057220E+04  0.21058057220E+04  0.50400001928E-02 0. -1.
    10030    2    1    2    0    0  0.00000000000E+00  0.00000000000E+00 -0.43458274920E+03  0.37770286949E+04  0.37519439756E+04 0.  0.
        4    1    3    3  502    0  0.19276280949E+03 -0.96139828867E+03  0.13927215529E+04  0.17032671860E+04  0.12699999809E+01 0.  1.
       -4    1    3    3    0  502 -0.19276280949E+03  0.96139828867E+03 -0.18273043021E+04  0.20737615089E+04  0.12699999809E+01 0. -1.
</event>
<event>
 5   0  0.1110956E-06  0.3552767E+04  0.7818609E-02  0.8101397E-01
       -1   -1    0    0    0  501  0.00000000000E+00  0.00000000000E+00  0.16813289820E+04  0.16813289820E+04  0.50400001928E-02 0.  1.
        1   -1    0    0  501    0  0.00000000000E+00  0.00000000000E+00 -0.18768122685E+04  0.18768122685E+04  0.50400001928E-02 0. -1.
    10030    2    1    2    0    0  0.00000000000E+00  0.00000000000E+00 -0.19548328656E+03  0.35581412505E+04  0.35527672937E+04 0.  0.
        1    1    3    3  502    0 -0.39351574157E+03  0.22639698694E+03 -0.18177294497E+04  0.18735662750E+04  0.50400001928E-02 0. -1.
       -1    1    3    3    0  502  0.39351574157E+03 -0.22639698694E+03  0.16222461631E+04  0.16845749756E+04  0.50400001928E-02 0.  1.
</event>
<event>
 5   0  0.3378848E-06  0.3552505E+04  0.7818609E-02  0.8101458E-01
        2   -1    0    0  501    0  0.00000000000E+00  0.00000000000E+00  0.18046619627E+04  0.18046619627E+04  0.25500000920E-02 0.  1.
       -2   -1    0    0    0  501  0.00000000000E+00  0.00000000000E+00 -0.17482900428E+04  0.17482900428E+04  0.25500000920E-02 0. -1.
    10030    2    1    2    0    0  0.00000000000E+00  0.00000000000E+00  0.56371919928E+02  0.35529520055E+04  0.35525047727E+04 0.  0.
        1    1    3    3  502    0  0.39434749006E+02 -0.63776981586E+03 -0.16293600392E+04  0.17501770124E+04  0.50400001928E-02 0. -1.
       -1    1    3    3    0  502 -0.39434749006E+02  0.63776981586E+03  0.16857319592E+04  0.18027749931E+04  0.50400001928E-02 0.  1.
</event>
<event>
 5   0  0.1908726E-06  0.2395143E+04  0.7818609E-02  0.8441324E-01
       -2   -1    0    0    0  501  0.00000000000E+00  0.00000000000E+00  0.52691017248E+03  0.52691017248E+03  0.25500000920E-02 0.  1.
        2   -1    0    0  501    0  0.00000000000E+00  0.00000000000E+00 -0.27218636687E+04  0.27218636687E+04  0.25500000920E-02 0. -1.
    10030    2    1    2    0    0  0.00000000000E+00  0.00000000000E+00 -0.21949534962E+04  0.32487738412E+04  0.23951431316E+04 0.  0.
        5    1    3    3  502    0 -0.30272471011E+03  0.81195608465E+03 -0.22186554799E+04  0.23818835324E+04  0.46999998093E+01 0. -1.
       -5    1    3    3    0  502  0.30272471011E+03 -0.81195608465E+03  0.23701983619E+02  0.86689030883E+03  0.46999998093E+01 0.  1.
</event>
<event>
 5   0  0.3041329E-06  0.2641574E+04  0.7818609E-02  0.8354215E-01
        2   -1    0    0  501    0  0.00000000000E+00  0.00000000000E+00  0.11906232145E+04  0.11906232145E+04  0.25500000920E-02 0.  1.
       -2   -1    0    0    0  501  0.00000000000E+00  0.00000000000E+00 -0.14651805881E+04  0.14651805881E+04  0.25500000920E-02 0. -1.
    10030    2    1    2    0    0  0.00000000000E+00  0.00000000000E+00 -0.27455737360E+03  0.26558038026E+04  0.26415737897E+04 0.  0.
        2    1    3    3  502    0 -0.48673760141E+03  0.23940123378E+03  0.10734725323E+04  0.12027342686E+04  0.25500000920E-02 0.  1.
       -2    1    3    3    0  502  0.48673760141E+03 -0.23940123378E+03 -0.13480299059E+04  0.14530695340E+04  0.25500000920E-02 0. -1.
</event>
<event>
 5   0  0.1089337E-06  0.2754183E+04  0.7818609E-02  0.8317636E-01
       -1   -1    0    0    0  501  0.00000000000E+00  0.00000000000E+00  0.10768907876E+04  0.10768907876E+04  0.50400001928E-02 0.  1.
        1   -1    0    0  501    0  0.00000000000E+00  0.00000000000E+00 -0.17609780713E+04  0.17609780713E+04  0.50400001928E-02 0. -1.
    10030    2    1    2    0    0  0.00000000000E+00  0.00000000000E+00 -0.68408728376E+03  0.28378688589E+04  0.27541830456E+04 0.  0.
        2    1    3    3  502    0 -0.77403109521E+03  0.16035616332E+03  0.81984636896E+03  0.11388530652E+04  0.25500000920E-02 0.  1.
       -2    1    3    3    0  502  0.77403109521E+03 -0.16035616332E+03 -0.15039336527E+04  0.16990157937E+04  0.25500000920E-02 0. -1.
</event>
<event>
 5   0  0.1089337E-06  0.3616645E+04  0.7818609E-02  0.8086689E-01
       -1   -1    0    0    0  501  0.00000000000E+00  0.00000000000E+00  0.17088838429E+04  0.17088838429E+04  0.50400001928E-02 0.  1.
        1   -1    0    0  501    0  0.00000000000E+00  0.00000000000E+00 -0.19135478684E+04  0.19135478684E+04  0.50400001928E-02 0. -1.
    10030    2    1    2    0    0  0.00000000000E+00  0.00000000000E+00 -0.20466402547E+03  0.36224317113E+04  0.36166454263E+04 0.  0.
        2    1    3    3  502    0 -0.81823751992E+03 -0.13534310337E+04 -0.98051458479E+03  0.18608323549E+04  0.25500000920E-02 0. -1.
       -2    1    3    3    0  502  0.81823751992E+03  0.13534310337E+04  0.77585055932E+03  0.17615993564E+04  0.25500000920E-02 0.  1.
</event>
<event>
 5   0  0.1042825E-06  0.3467533E+04  0.7818609E-02  0.8121528E-01
        3   -1    0    0  501    0  0.00000000000E+00  0.00000000000E+00  0.14029138977E+04  0.14029139013E+04  0.10100000352E+00 0.  1.
       -3   -1    0    0    0  501  0.00000000000E+00  0.00000000000E+00 -0.21426447645E+04  0.21426447668E+04  0.10100000352E+00 0. -1.
    10030    2    1    2    0    0  0.00000000000E+00  0.00000000000E+00 -0.73973086680E+03  0.35455586681E+04  0.34675329146E+04 0.  0.
        2    1    3    3  502    0  0.78016010047E+01 -0.15159668958E+04  0.49033127086E+03  0.15933114100E+04  0.25500000920E-02 0.  1.
       -2    1    3    3    0  502 -0.78016010047E+01  0.15159668958E+04 -0.12300621377E+04  0.19522472581E+04  0.25500000920E-02 0. -1.
</event>
<event>
 5   0  0.2565004E-06  0.3070298E+04  0.7818609E-02  0.8223937E-01
       -2   -1    0    0    0  501  0.00000000000E+00  0.00000000000E+00  0.16382038601E+04  0.16382038601E+04  0.25500000920E-02 0. -1.
        2   -1    0    0  501    0  0.00000000000E+00  0.00000000000E+00 -0.14385774478E+04  0.14385774478E+04  0.25500000920E-02 0.  1.
    10030    2    1    2    0    0  0.00000000000E+00  0.00000000000E+00  0.19962641223E+03  0.30767813079E+04  0.30702984403E+04 0.  0.
        3    1    3    3  502    0  0.15272001658E+04  0.44844816789E+02 -0.49940322347E+02  0.15286744094E+04  0.10100000352E+00 0.  1.
       -3    1    3    3    0  502 -0.15272001658E+04 -0.44844816789E+02  0.24956673458E+03  0.15481068985E+04  0.10100000352E+00 0. -1.
</event>
<event>
 5   0  0.1125196E-06  0.2773996E+04  0.7818609E-02  0.8311387E-01
        1   -1    0    0  501    0  0.00000000000E+00  0.00000000000E+00  0.14972370972E+04  0.14972370973E+04  0.50400001928E-02 0.  1.
       -1   -1    0    0    0  501  0.00000000000E+00  0.00000000000E+00 -0.12848756956E+04  0.12848756956E+04  0.50400001928E-02 0. -1.
    10030    2    1    2    0    0  0.00000000000E+00  0.00000000000E+00  0.21236140163E+03  0.27821127929E+04  0.27739960756E+04 0.  0.
        4    1    3    3  502    0 -0.10167614568E+04  0.65525985973E+03  0.78683621792E+03  0.14430115005E+04  0.12699999809E+01 0.  1.
       -4    1    3    3    0  502  0.10167614568E+04 -0.65525985973E+03 -0.57447481629E+03  0.13391012924E+04  0.12699999809E+01 0. -1.
</event>
<event>
 5   0  0.1102175E-06  0.3441045E+04  0.7818609E-02  0.8127905E-01
        1   -1    0    0  501    0  0.00000000000E+00  0.00000000000E+00  0.18293719974E+04  0.18293719974E+04  0.50400001928E-02 0.  1.
       -1   -1    0    0    0  501  0.00000000000E+00  0.00000000000E+00 -0.16181498622E+04  0.16181498622E+04  0.50400001928E-02 0. -1.
    10030    2    1    2    0    0  0.00000000000E+00  0.00000000000E+00  0.21122213523E+03  0.34475218597E+04  0.34410452166E+04 0.  0.
        5    1    3    3  502    0  0.16941197695E+04  0.26087014697E+03 -0.43265146084E+02  0.17146396093E+04  0.46999998093E+01 0.  1.
       -5    1    3    3    0  502 -0.16941197695E+04 -0.26087014697E+03  0.25448728131E+03  0.17328822503E+04  0.46999998093E+01 0. -1.
</event>
<event>
 5   0  0.1110956E-06  0.3482229E+04  0.7818609E-02  0.8118014E-01
        1   -1    0    0  501    0  0.00000000000E+00  0.00000000000E+00  0.14985315843E+04  0.14985315843E+04  0.50400001928E-02 0.  1.
       -1   -1    0    0    0  501  0.00000000000E+00  0.00000000000E+00 -0.20229665817E+04  0.20229665817E+04  0.50400001928E-02 0. -1.
    10030    2    1    2    0    0  0.00000000000E+00  0.00000000000E+00 -0.52443499733E+03  0.35214981660E+04  0.34822287786E+04 0.  0.
        1    1    3    3  502    0  0.56957299028E+03  0.26283940369E+02 -0.19258759060E+04  0.20085074663E+04  0.50400001928E-02 0. -1.
       -1    1    3    3    0  502 -0.56957299028E+03 -0.26283940369E+02  0.14014409087E+04  0.15129906997E+04  0.50400001928E-02 0.  1.
</event>
<event>
 5   0  0.3041329E-06  0.3447338E+04  0.7818609E-02  0.8126385E-01
        2   -1    0    0  501    0  0.00000000000E+00  0.00000000000E+00  0.17913246910E+04  0.17913246910E+04  0.25500000920E-02 0.  1.
       -2   -1    0    0    0  501  0.00000000000E+00  0.00000000000E+00 -0.16585683791E+04  0.16585683791E+04  0.25500000920E-02 0. -1.
    10030    2    1    2    0    0  0.00000000000E+00  0.00000000000E+00  0.13275631186E+03  0.34498930701E+04  0.34473378072E+04 0.  0.
        2    1    3    3  502    0  0.60488767486E+03 -0.93619573761E+02  0.16789013997E+04  0.17869984985E+04  0.25500000920E-02 0.  1.
       -2    1    3    3    0  502 -0.60488767486E+03  0.93619573761E+02 -0.15461450878E+04  0.16628945716E+04  0.25500000920E-02 0. -1.
</event>
<event>
 5   0  0.1782660E-06  0.3168926E+04  0.7818609E-02  0.8197072E-01
        2   -1    0    0  501    0  0.00000000000E+00  0.00000000000E+00  0.19187179225E+04  0.19187179225E+04  0.25500000920E-02 0. -1.
       -2   -1    0    0    0  501  0.00000000000E+00  0.00000000000E+00 -0.13084375675E+04  0.13084375675E+04  0.25500000920E-02 0.  1.
    10030    2    1    2    0    0  0.00000000000E+00  0.00000000000E+00  0.61028035497E+03  0.32271554900E+04  0.31689257556E+04 0.  0.
        4    1    3    3  502    0  0.11868825288E+04  0.10454232172E+04  0.40132763396E+03  0.16317675457E+04  0.12699999809E+01 0.  1.
       -4    1    3    3    0  502 -0.11868825288E+04 -0.10454232172E+04  0.20895272101E+03  0.15953879443E+04  0.12699999809E+01 0. -1.
</event>
<event>
 5   0  0.1125196E-06  0.3434614E+04  0.7818609E-02  0.8129463E-01
        1   -1    0    0  501    0  0.00000000000E+00  0.00000000000E+00  0.18752190466E+04  0.18752190467E+04  0.50400001928E-02 0.  1.
       -1   -1    0    0    0  501  0.00000000000E+00  0.00000000000E+00 -0.15726928180E+04  0.15726928180E+04  0.50400001928E-02 0. -1.
    10030    2    1    2    0    0  0.00000000000E+00  0.00000000000E+00  0.30252622865E+03  0.34479118647E+04  0.34346141133E+04 0.  0.
        4    1    3    3  502    0  0.41060531443E+03  0.15477557560E+04 -0.47162071023E+03  0.16693029418E+04  0.12699999809E+01 0. -1.
       -4    1    3    3    0  502 -0.41060531443E+03 -0.15477557560E+04  0.77414693888E+03  0.17786089228E+04  0.12699999809E+01 0.  1.
</event>
<event>
 5   0  0.3041329E-06  0.1798864E+04  0.7818609E-02  0.8706904E-01
       -2   -1    0    0    0  501  0.00000000000E+00  0.00000000000E+00  0.39606724630E+03  0.39606724631E+03  0.25500000920E-02 0.  1.
        2   -1    0    0  501    0  0.00000000000E+00  0.00000000000E+00 -0.20425265522E+04  0.20425265522E+04  0.25500000920E-02 0. -1.
    10030    2    1    2    0    0  0.00000000000E+00  0.00000000000E+00 -0.16464593059E+04  0.24385937985E+04  0.17988639382E+04 0.  0.
        2    1    3    3  502    0  0.50268694516E+03 -0.18694760855E+03 -0.18020416788E+04  0.18801589787E+04  0.25500000920E-02 0. -1.
       -2    1    3    3    0  502 -0.50268694516E+03  0.18694760855E+03  0.15558237290E+03  0.55843481978E+03  0.25500000920E-02 0.  1.
</event>
<event>
 5   0  0.1782660E-06  0.3293171E+04  0.7818609E-02  0.8164635E-01
        2   -1    0    0  501    0  0.00000000000E+00  0.00000000000E+00  0.26678005865E+04  0.26678005865E+04  0.25500000920E-02 0. -1.
       -2   -1    0    0    0  501  0.00000000000E+00  0.00000000000E+00 -0.10162843553E+04  0.10162843553E+04  0.25500000920E-02 0.  1.
    10030    2    1    2    0    0  0.00000000000E+00  0.00000000000E+00  0.16515162312E+04  0.36840849417E+04  0.32931711155E+04 0.  0.
        4    1    3    3  502    0  0.13426061036E+03  0.51738733250E+03  0.25680398282E+04  0.26230794375E+04  0.12699999809E+01 0. -1.
       -4    1    3    3    0  502 -0.13426061036E+03 -0.51738733250E+03 -0.91652359699E+03  0.10610055043E+04  0.12699999809E+01 0.  1.
</event>
<event>
 5   0  0.3378848E-06  0.3510870E+04  0.7818609E-02  0.8111219E-01
       -2   -1    0    0    0  501  0.00000000000E+00  0.00000000000E+00  0.12932926928E+04  0.12932926928E+04  0.25500000920E-02 0.  1.
        2   -1    0    0  501    0  0.00000000000E+00  0.00000000000E+00 -0.23827180306E+04  0.23827180306E+04  0.25500000920E-02 0. -1.
    10030    2    1    2    0    0  0.00000000000E+00  0.00000000000E+00 -0.10894253378E+04  0.36760107234E+04  0.35108698740E+04 0.  0.
        1    1    3    3  502    0  0.61519399462E+03 -0.13423132186E+04  0.44930183226E+03  0.15434184671E+04  0.50400001928E-02 0.  1.
       -1    1    3    3    0  502 -0.61519399462E+03  0.13423132186E+04 -0.15387271700E+04  0.21325922563E+04  0.50400001928E-02 0. -1.
</event>
<event>
 5   0  0.1110956E-06  0.2031951E+04  0.7818609E-02  0.8591826E-01
        1   -1    0    0  501    0  0.00000000000E+00  0.00000000000E+00  0.12101716981E+04  0.12101716981E+04  0.50400001928E-02 0. -1.
       -1   -1    0    0    0  501  0.00000000000E+00  0.00000000000E+00 -0.85294223757E+03  0.85294223758E+03  0.50400001928E-02 0.  1.
    10030    2    1    2    0    0  0.00000000000E+00  0.00000000000E+00  0.35722946054E+03  0.20631139357E+04  0.20319513341E+04 0.  0.
        1    1    3    3  502    0  0.11212613736E+03 -0.93575437804E+03 -0.20667566665E+03  0.96484369610E+03  0.50400001928E-02 0.  1.
       -1    1    3    3    0  502 -0.11212613736E+03  0.93575437804E+03  0.56390512718E+03  0.10982702396E+04  0.50400001928E-02 0. -1.
</event>
<event>
 5   0  0.3041329E-06  0.3614807E+04  0.7818609E-02  0.8087108E-01
       -2   -1    0    0    0  501  0.00000000000E+00  0.00000000000E+00  0.16282139961E+04  0.16282139961E+04  0.25500000920E-02 0. -1.
        2   -1    0    0  501    0  0.00000000000E+00  0.00000000000E+00 -0.20063129864E+04  0.20063129864E+04  0.25500000920E-02 0.  1.
    10030    2    1    2    0    0  0.00000000000E+00  0.00000000000E+00 -0.37809899030E+03  0.36345269825E+04  0.36148067085E+04 0.  0.
        2    1    3    3  502    0  0.50039948727E+03 -0.17310750892E+04 -0.33012271472E+03  0.18319393052E+04  0.25500000920E-02 0.  1.
       -2    1    3    3    0  502 -0.50039948727E+03  0.17310750892E+04 -0.47976275580E+02  0.18025876773E+04  0.25500000920E-02 0. -1.
</event>
<event>
 5   0  0.1130707E-06  0.2692195E+04  0.7818609E-02  0.8337542E-01
        1   -1    0    0  501    0  0.00000000000E+00  0.00000000000E+00  0.12484078401E+04  0.12484078401E+04  0.50400001928E-02 0.  1.
       -1   -1    0    0    0  501  0.00000000000E+00  0.00000000000E+00 -0.14514317305E+04  0.14514317305E+04  0.50400001928E-02 0. -1.
    10030    2    1    2    0    0  0.00000000000E+00  0.00000000000E+00 -0.20302389041E+03  0.26998395707E+04  0.26921952023E+04 0.  0.
        3    1    3    3  502    0  0.71929243437E+02 -0.79468026725E+03  0.98567342591E+03  0.12681650744E+04  0.10100000352E+00 0.  1.
       -3    1    3    3    0  502 -0.71929243437E+02  0.79468026725E+03 -0.11886973163E+04  0.14316744963E+04  0.10100000352E+00 0. -1.
</event>
<event>
 5   0  0.1908726E-06  0.3375092E+04  0.7818609E-02  0.8144047E-01
       -2   -1    0    0    0  501  0.00000000000E+00  0.00000000000E+00  0.17005300124E+04  0.17005300124E+04  0.25500000920E-02 0. -1.
        2   -1    0    0  501    0  0.00000000000E+00  0.00000000000E+00 -0.16746613371E+04  0.16746613371E+04  0.25500000920E-02 0.  1.
    10030    2    1    2    0    0  0.00000000000E+00  0.00000000000E+00  0.25868675277E+02  0.33751913494E+04  0.33750922146E+04 0.  0.
        5    1    3    3  502    0  0.15814202610E+04 -0.58235561212E+03 -0.75168608889E+02  0.16869204222E+04  0.46999998093E+01 0.  1.
       -5    1    3    3    0  502 -0.15814202610E+04  0.58235561212E+03  0.10103728417E+03  0.16882709273E+04  0.46999998093E+01 0. -1.
</event>
<event>
 5   0  0.3041329E-06  0.2992005E+04  0.7818609E-02  0.8246018E-01
       -2   -1    0    0    0  501  0.00000000000E+00  0.00000000000E+00  0.11799016236E+04  0.11799016236E+04  0.25500000920E-02 0. -1.
        2   -1    0    0  501    0  0.00000000000E+00  0.00000000000E+00 -0.18967884510E+04  0.18967884510E+04  0.25500000920E-02 0.  1.
    10030    2    1    2    0    0  0.00000000000E+00  0.00000000000E+00 -0.71688682733E+03  0.30766900746E+04  0.29920051958E+04 0.  0.
        2    1    3    3  502    0 -0.23748488823E+03 -0.10359257869E+04  0.72420095381E+03  0.12860825517E+04  0.25500000920E-02 0. -1.
       -2    1    3    3    0  502  0.23748488823E+03  0.10359257869E+04 -0.14410877811E+04  0.17906075229E+04  0.25500000920E-02 0.  1.
</event>
<event>
 5   0  0.1110956E-06  0.2128035E+04  0.7818609E-02  0.8548993E-01
       -1   -1    0    0    0  501  0.00000000000E+00  0.00000000000E+00  0.11862890854E+04  0.11862890854E+04  0.50400001928E-02 0.  1.
        1   -1    0    0  501    0  0.00000000000E+00  0.00000000000E+00 -0.95434893578E+03  0.95434893579E+03  0.50400001928E-02 0. -1.
    10030    2    1    2    0    0  0.00000000000E+00  0.00000000000E+00  0.23194014965E+03  0.21406380212E+04  0.21280354567E+04 0.  0.
        1    1    3    3  502    0 -0.33095800981E+03  0.10109347958E+04  0.91097936357E+02  0.10676240909E+04  0.50400001928E-02 0. -1.
       -1    1    3    3    0  502  0.33095800981E+03 -0.10109347958E+04  0.14084221329E+03  0.10730139303E+04  0.50400001928E-02 0.  1.
</event>
<event>
 5   0  0.1110956E-06  0.3530935E+04  0.7818609E-02  0.8106498E-01
        1   -1    0    0  501    0  0.00000000000E+00  0.00000000000E+00  0.19239324076E+04  0.19239324076E+04  0.50400001928E-02 0. -1.
       -1   -1    0    0    0  501  0.00000000000E+00  0.00000000000E+00 -0.16200549604E+04  0.16200549604E+04  0.50400001928E-02 0.  1.
    10030    2    1    2    0    0  0.00000000000E+00  0.00000000000E+00  0.30387744723E+03  0.35439873680E+04  0.35309354231E+04 0.  0.
        1    1    3    3  502    0  0.16294358263E+04 -0.47399818234E+03 -0.33683244271E+03  0.17300842417E+04  0.50400001928E-02 0. -1.
       -1    1    3    3    0  502 -0.16294358263E+04  0.47399818234E+03  0.64070988994E+03  0.18139031264E+04  0.50400001928E-02 0.  1.
</event>
<event>
 5   0  0.1110956E-06  0.1915314E+04  0.7818609E-02  0.8647271E-01
       -1   -1    0    0    0  501  0.00000000000E+00  0.00000000000E+00  0.50833519156E+03  0.50833519159E+03  0.50400001928E-02 0.  1.
        1   -1    0    0  501    0  0.00000000000E+00  0.00000000000E+00 -0.18041385431E+04  0.18041385431E+04  0.50400001928E-02 0. -1.
    10030    2    1    2    0    0  0.00000000000E+00  0.00000000000E+00 -0.12958033516E+04  0.23124737347E+04  0.19153141904E+04 0.  0.
        1    1    3    3  502    0 -0.57881488727E+03  0.16009689901E+03 -0.15485383547E+04  0.16609120165E+04  0.50400001928E-02 0. -1.
       -1    1    3    3    0  502  0.57881488727E+03 -0.16009689901E+03  0.25273500309E+03  0.65156171819E+03  0.50400001928E-02 0.  1.
</event>
<event>
 5   0  0.1908726E-06  0.1759742E+04  0.7818609E-02  0.8728006E-01
        2   -1    0    0  501    0  0.00000000000E+00  0.00000000000E+00  0.10373355522E+04  0.10373355522E+04  0.25500000920E-02 0. -1.
       -2   -1    0    0    0  501  0.00000000000E+00  0.00000000000E+00 -0.74630927904E+03  0.74630927905E+03  0.25500000920E-02 0.  1.
    10030    2    1    2    0    0  0.00000000000E+00  0.00000000000E+00  0.29102627319E+03  0.17836448313E+04  0.17597421949E+04 0.  0.
        5    1    3    3  502    0  0.68015940980E+03  0.13912035940E+03 -0.40236553838E+03  0.80242844766E+03  0.46999998093E+01 0.  1.
       -5    1    3    3    0  502 -0.68015940980E+03 -0.13912035940E+03  0.69339181157E+03  0.98121638362E+03  0.46999998093E+01 0. -1.
</event>
<event>
 5   0  0.2565004E-06  0.2462745E+04  0.7818609E-02  0.8416379E-01
       -2   -1    0    0    0  501  0.00000000000E+00  0.00000000000E+00  0.12278179708E+04  0.12278179708E+04  0.25500000920E-02 0.  1.
        2   -1    0    0  501    0  0.00000000000E+00  0.00000000000E+00 -0.12349370134E+04  0.12349370134E+04  0.25500000920E-02 0. -1.
    10030    2    1    2    0    0  0.00000000000E+00  0.00000000000E+00 -0.71190426402E+01  0.24627549842E+04  0.24627446948E+04 0.  0.
        3    1    3    3  502    0 -0.11519820861E+03  0.69894250249E+03 -0.10107809845E+04  0.12342890495E+04  0.10100000352E+00 0. -1.
       -3    1    3    3    0  502  0.11519820861E+03 -0.69894250249E+03  0.10036619418E+04  0.12284659347E+04  0.10100000352E+00 0.  1.
</event>
<event>
 5   0  0.1089337E-06  0.3431980E+04  0.7818609E-02  0.8130102E-01
       -1   -1    0    0    0  501  0.00000000000E+00  0.00000000000E+00  0.22665150600E+04  0.22665150600E+04  0.50400001928E-02 0.  1.
        1   -1    0    0  501    0  0.00000000000E+00  0.00000000000E+00 -0.12991845188E+04  0.12991845188E+04  0.50400001928E-02 0. -1.
    10030    2    1    2    0    0  0.00000000000E+00  0.00000000000E+00  0.96733054126E+03  0.35656995788E+04  0.34319797654E+04 0.  0.
        2    1    3    3  502    0 -0.99606682633E+03  0.12673509526E+03  0.19294336801E+04  0.21750690180E+04  0.25500000920E-02 0.  1.
       -2    1    3    3    0  502  0.99606682633E+03 -0.12673509526E+03 -0.96210313887E+03  0.13906305608E+04  0.25500000920E-02 0. -1.
</event>
<event>
 5   0  0.1110956E-06  0.3537748E+04  0.7818609E-02  0.8104902E-01
        1   -1    0    0  501    0  0.00000000000E+00  0.00000000000E+00  0.22827991333E+04  0.22827991334E+04  0.50400001928E-02 0. -1.
       -1   -1    0    0    0  501  0.00000000000E+00  0.00000000000E+00 -0.13706484297E+04  0.13706484298E+04  0.50400001928E-02 0.  1.
    10030    2    1    2    0    0  0.00000000000E+00  0.00000000000E+00  0.91215070361E+03  0.36534475631E+04  0.35377478981E+04 0.  0.
        1    1    3    3  502    0  0.17426653876E+03  0.13852068292E+04  0.15777597257E+04  0.21067730154E+04  0.50400001928E-02 0. -1.
       -1    1    3    3    0  502 -0.17426653876E+03 -0.13852068292E+04 -0.66560902206E+03  0.15466745477E+04  0.50400001928E-02 0.  1.
</event>
<event>
 5   0  0.1102175E-06  0.3473412E+04  0.7818609E-02  0.8120120E-01
        1   -1    0    0  501    0  0.00000000000E+00  0.00000000000E+00  0.17823283649E+04  0.17823283649E+04  0.50400001928E-02 0. -1.
       -1   -1    0    0    0  501  0.00000000000E+00  0.00000000000E+00 -0.16922510749E+04  0.16922510749E+04  0.50400001928E-02 0.  1.
    10030    2    1    2    0    0  0.00000000000E+00  0.00000000000E+00  0.90077290005E+02  0.34745794397E+04  0.34734116319E+04 0.  0.
        5    1    3    3  502    0 -0.99914566177E+03 -0.63746853549E+03  0.13149010745E+04  0.17702104714E+04  0.46999998093E+01 0. -1.
       -5    1    3    3    0  502  0.99914566177E+03  0.63746853549E+03 -0.12248237845E+04  0.17043689684E+04  0.46999998093E+01 0.  1.
</event>
<event>
 5   0  0.3041329E-06  0.3441969E+04  0.7818609E-02  0.8127682E-01
        2   -1    0    0  501    0  0.00000000000E+00  0.00000000000E+00  0.20930945472E+04  0.20930945472E+04  0.25500000920E-02 0.  1.
       -2   -1    0    0    0  501  0.00000000000E+00  0.00000000000E+00 -0.14150279661E+04  0.14150279661E+04  0.25500000920E-02 0. -1.
    10030    2    1    2    0    0  0.00000000000E+00  0.00000000000E+00  0.67806658117E+03  0.35081225133E+04  0.34419688086E+04 0.  0.
        2    1    3    3  502    0 -0.61162319956E+02 -0.34410428866E+02  0.20916356000E+04  0.20928125550E+04  0.25500000920E-02 0.  1.
       -2    1    3    3    0  502  0.61162319956E+02  0.34410428866E+02 -0.14135690189E+04  0.14153099583E+04  0.25500000920E-02 0. -1.
</event>
<event>
 5   0  0.1102175E-06  0.3495485E+04  0.7818609E-02  0.8114861E-01
       -1   -1    0    0    0  501  0.00000000000E+00  0.00000000000E+00  0.27016729783E+04  0.27016729783E+04  0.50400001928E-02 0. -1.
        1   -1    0    0  501    0  0.00000000000E+00  0.00000000000E+00 -0.11306339417E+04  0.11306339417E+04  0.50400001928E-02 0.  1.
    10030    2    1    2    0    0  0.00000000000E+00  0.00000000000E+00  0.15710390367E+04  0.38323069200E+04  0.34954846122E+04 0.  0.
        5    1    3    3  502    0 -0.76855812590E+03 -0.15680107230E+04  0.86489667387E+03  0.19486938104E+04  0.46999998093E+01 0.  1.
       -5    1    3    3    0  502  0.76855812590E+03  0.15680107230E+04  0.70614236281E+03  0.18836131096E+04  0.46999998093E+01 0. -1.
</event>
<event>
 5   0  0.1908726E-06  0.1773893E+04  0.7818609E-02  0.8720307E-01
        2   -1    0    0  501    0  0.00000000000E+00  0.00000000000E+00  0.76643098404E+03  0.76643098405E+03  0.25500000920E-02 0. -1.
       -2   -1    0    0    0  501  0.00000000000E+00  0.00000000000E+00 -0.10264120258E+04  0.10264120258E+04  0.25500000920E-02 0.  1.
    10030    2    1    2    0    0  0.00000000000E+00  0.00000000000E+00 -0.25998104180E+03  0.17928430099E+04  0.17738928705E+04 0.  0.
        5    1    3    3  502    0  0.44639534481E+02 -0.85196468905E+03 -0.37510010283E+03  0.93196496531E+03  0.46999998093E+01 0. -1.
       -5    1    3    3    0  502 -0.44639534481E+02  0.85196468905E+03  0.11511906103E+03  0.86087804458E+03  0.46999998093E+01 0.  1.
</event>
<event>
 5   0  0.2565004E-06  0.3447538E+04  0.7818609E-02  0.8126337E-01
       -2   -1    0    0    0  501  0.00000000000E+00  0.00000000000E+00  0.18900968822E+04  0.18900968822E+04  0.25500000920E-02 0.  1.
        2   -1    0    0  501    0  0.00000000000E+00  0.00000000000E+00 -0.15720774979E+04  0.15720774979E+04  0.25500000920E-02 0. -1.
    10030    2    1    2    0    0  0.00000000000E+00  0.00000000000E+00  0.31801938424E+03  0.34621743801E+04  0.34475375429E+04 0.  0.
        3    1    3    3  502    0 -0.43361229195E+03 -0.55001351739E+03  0.17407664054E+04  0.18763800727E+04  0.10100000352E+00 0.  1.
       -3    1    3    3    0  502  0.43361229195E+03  0.55001351739E+03 -0.14227470211E+04  0.15857943074E+04  0.10100000352E+00 0. -1.
</event>
<event>
 5   0  0.1089337E-06  0.3444414E+04  0.7818609E-02  0.8127091E-01
        1   -1    0    0  501    0  0.00000000000E+00  0.00000000000E+00  0.12801770074E+04  0.12801770074E+04  0.50400001928E-02 0.  1.
       -1   -1    0    0    0  501  0.00000000000E+00  0.00000000000E+00 -0.23168648932E+04  0.23168648932E+04  0.50400001928E-02 0. -1.
    10030    2    1    2    0    0  0.00000000000E+00  0.00000000000E+00 -0.10366878858E+04  0.35970419007E+04  0.34444141247E+04 0.  0.
        2    1    3    3  502    0 -0.13400874810E+04 -0.19685681028E+03  0.59246703194E+03  0.14783789245E+04  0.25500000920E-02 0.  1.
       -2    1    3    3    0  502  0.13400874810E+04  0.19685681028E+03 -0.16291549177E+04  0.21186629761E+04  0.25500000920E-02 0. -1.
</event>
<event>
 5   0  0.1102175E-06  0.3402037E+04  0.7818609E-02  0.8137407E-01
        1   -1    0    0  501    0  0.00000000000E+00  0.00000000000E+00  0.20231144429E+04  0.20231144429E+04  0.50400001928E-02 0.  1.
       -1   -1    0    0    0  501  0.00000000000E+00  0.00000000000E+00 -0.14302028381E+04  0.14302028381E+04  0.50400001928E-02 0. -1.
    10030    2    1    2    0    0  0.00000000000E+00  0.00000000000E+00  0.59291160476E+03  0.34533172810E+04  0.34020370475E+04 0.  0.
        5    1    3    3  502    0 -0.78673988020E+03 -0.92816160208E+03  0.15030695452E+04  0.19338261934E+04  0.46999998093E+01 0.  1.
       -5    1    3    3    0  502  0.78673988020E+03  0.92816160208E+03 -0.91015794046E+03  0.15194910876E+04  0.46999998093E+01 0. -1.
</event>
<event>
 5   0  0.3378848E-06  0.2117152E+04  0.7818609E-02  0.8553725E-01
        2   -1    0    0  501    0  0.00000000000E+00  0.00000000000E+00  0.16738493570E+04  0.16738493570E+04  0.25500000920E-02 0.  1.
       -2   -1    0    0    0  501  0.00000000000E+00  0.00000000000E+00 -0.66946489638E+03  0.66946489638E+03  0.25500000920E-02 0. -1.
    10030    2    1    2    0    0  0.00000000000E+00  0.00000000000E+00  0.10043844606E+04  0.23433142534E+04  0.21171522254E+04 0.  0.
        1    1    3    3  502    0 -0.10373638180E+04 -0.14817294464E+03  0.66823229006E+03  0.12428247286E+04  0.50400001928E-02 0.  1.
       -1    1    3    3    0  502  0.10373638180E+04  0.14817294464E+03  0.33615217053E+03  0.11004895248E+04  0.50400001928E-02 0. -1.
</event>
<event>
 5   0  0.2565004E-06  0.3494970E+04  0.7818609E-02  0.8114983E-01
        2   -1    0    0  501    0  0.00000000000E+00  0.00000000000E+00  0.22134844429E+04  0.22134844429E+04  0.25500000920E-02 0.  1.
       -2   -1    0    0    0  501  0.00000000000E+00  0.00000000000E+00 -0.13795912797E+04  0.13795912797E+04  0.25500000920E-02 0. -1.
    10030    2    1    2    0    0  0.00000000000E+00  0.00000000000E+00  0.83389316326E+03  0.35930757226E+04  0.34949700057E+04 0.  0.
        3    1    3    3  502    0  0.38243652588E+03 -0.16595308307E+04  0.14284603335E+02  0.17030867078E+04  0.10100000352E+00 0. -1.
       -3    1    3    3    0  502 -0.38243652588E+03  0.16595308307E+04  0.81960855992E+03  0.18899890148E+04  0.10100000352E+00 0.  1.
</event>
<event>
 5   0  0.1125196E-06  0.3530369E+04  0.7818609E-02  0.8106630E-01
       -1   -1    0    0    0  501  0.00000000000E+00  0.00000000000E+00  0.15341025846E+04  0.15341025846E+04  0.50400001928E-02 0. -1.
        1   -1    0    0  501    0  0.00000000000E+00  0.00000000000E+00 -0.20310740904E+04  0.20310740904E+04  0.50400001928E-02 0.  1.
    10030    2    1    2    0    0  0.00000000000E+00  0.00000000000E+00 -0.49697150584E+03  0.35651766750E+04  0.35303688258E+04 0.  0.
        4    1    3    3  502    0  0.81439868483E+03  0.14830803337E+04 -0.75653835908E+03  0.18534088582E+04  0.12699999809E+01 0.  1.
       -4    1    3    3    0  502 -0.81439868483E+03 -0.14830803337E+04  0.25956685324E+03  0.17117678167E+04  0.12699999809E+01 0. -1.
</event>
<event>
 5   0  0.3041329E-06  0.3532393E+04  0.7818609E-02  0.8106156E-01
        2   -1    0    0  501    0  0.00000000000E+00  0.00000000000E+00  0.10187017083E+04  0.10187017083E+04  0.25500000920E-02 0. -1.
       -2   -1    0    0    0  501  0.00000000000E+00  0.00000000000E+00 -0.30621829018E+04  0.30621829018E+04  0.25500000920E-02 0.  1.
    10030    2    1    2    0    0  0.00000000000E+00  0.00000000000E+00 -0.20434811935E+04  0.40808846102E+04  0.35323934964E+04 0.  0.
        2    1    3    3  502    0 -0.23394514344E+03  0.45387605023E+03  0.93156786904E+03  0.10623335134E+04  0.25500000920E-02 0. -1.
       -2    1    3    3    0  502  0.23394514344E+03 -0.45387605023E+03 -0.29750490625E+04  0.30185510967E+04  0.25500000920E-02 0.  1.
</event>
<event>
 5   0  0.2565004E-06  0.3531039E+04  0.7818609E-02  0.8106473E-01
        2   -1    0    0  501    0  0.00000000000E+00  0.00000000000E+00  0.17703441409E+04  0.17703441409E+04  0.25500000920E-02 0. -1.
       -2   -1    0    0    0  501  0.00000000000E+00  0.00000000000E+00 -0.17607080231E+04  0.17607080231E+04  0.25500000920E-02 0.  1.
    10030    2    1    2    0    0  0.00000000000E+00  0.00000000000E+00  0.96361177749E+01  0.35310521640E+04  0.35310390157E+04 0.  0.
        3    1    3    3  502    0  0.18890242394E+03 -0.10871966042E+04  0.13830026204E+04  0.17692870995E+04  0.10100000352E+00 0. -1.
       -3    1    3    3    0  502 -0.18890242394E+03  0.10871966042E+04 -0.13733665026E+04  0.17617650646E+04  0.10100000352E+00 0.  1.
</event>
<event>
 5   0  0.1908726E-06  0.3530669E+04  0.7818609E-02  0.8106560E-01
       -2   -1    0    0    0  501  0.00000000000E+00  0.00000000000E+00  0.14591715790E+04  0.14591715790E+04  0.25500000920E-02 0.  1.
        2   -1    0    0  501    0  0.00000000000E+00  0.00000000000E+00 -0.21357370006E+04  0.21357370006E+04  0.25500000920E-02 0. -1.
    10030    2    1    2    0    0  0.00000000000E+00  0.00000000000E+00 -0.67656542169E+03  0.35949085796E+04  0.35306694728E+04 0.  0.
        5    1    3    3  502    0  0.15769355644E+04 -0.73609026663E+03 -0.36529294366E+02  0.17406639924E+04  0.46999998093E+01 0. -1.
       -5    1    3    3    0  502 -0.15769355644E+04  0.73609026663E+03 -0.64003612732E+03  0.18542445872E+04  0.46999998093E+01 0.  1.
</event>
<event>
 5   0  0.2565004E-06  0.3206660E+04  0.7818609E-02  0.8187060E-01
        2   -1    0    0  501    0  0.00000000000E+00  0.00000000000E+00  0.16940923063E+04  0.16940923063E+04  0.25500000920E-02 0. -1.
       -2   -1    0    0    0  501  0.00000000000E+00  0.00000000000E+00 -0.15174306822E+04  0.15174306822E+04  0.25500000920E-02 0.  1.
    10030    2    1    2    0    0  0.00000000000E+00  0.00000000000E+00  0.17666162412E+03  0.32115229885E+04  0.32066603463E+04 0.  0.
        3    1    3    3  502    0 -0.11394250749E+04  0.36147409400E+03 -0.98179996212E+03  0.15468950184E+04  0.10100000352E+00 0.  1.
       -3    1    3    3    0  502  0.11394250749E+04 -0.36147409400E+03  0.11584615862E+04  0.16646279701E+04  0.10100000352E+00 0. -1.
</event>
<event>
 5   0  0.1908726E-06  0.3452277E+04  0.7818609E-02  0.8125194E-01
       -2   -1    0    0    0  501  0.00000000000E+00  0.00000000000E+00  0.14023958732E+04  0.14023958732E+04  0.25500000920E-02 0.  1.
        2   -1    0    0  501    0  0.00000000000E+00  0.00000000000E+00 -0.21246174038E+04  0.21246174038E+04  0.25500000920E-02 0. -1.
    10030    2    1    2    0    0  0.00000000000E+00  0.00000000000E+00 -0.72222153065E+03  0.35270132770E+04  0.34522773233E+04 0.  0.
        5    1    3    3  502    0 -0.37757713596E+03  0.15344816177E+04  0.34842693255E+03  0.16182156056E+04  0.46999998093E+01 0.  1.
       -5    1    3    3    0  502  0.37757713596E+03 -0.15344816177E+04 -0.10706484632E+04  0.19087976715E+04  0.46999998093E+01 0. -1.
</event>
<event>
 5   0  0.1110956E-06  0.3468429E+04  0.7818609E-02  0.8121313E-01
       -1   -1    0    0    0  501  0.00000000000E+00  0.00000000000E+00  0.17597632296E+04  0.17597632296E+04  0.50400001928E-02 0. -1.
        1   -1    0    0  501    0  0.00000000000E+00  0.00000000000E+00 -0.17090365379E+04  0.17090365379E+04  0.50400001928E-02 0.  1.
    10030    2    1    2    0    0  0.00000000000E+00  0.00000000000E+00  0.50726691682E+02  0.34687997675E+04  0.34684288417E+04 0.  0.
        1    1    3    3  502    0 -0.83075865382E+03  0.10246362814E+04 -0.11005724050E+04  0.17179345357E+04  0.50400001928E-02 0.  1.
       -1    1    3    3    0  502  0.83075865382E+03 -0.10246362814E+04  0.11512990967E+04  0.17508652319E+04  0.50400001928E-02 0. -1.
</event>
<event>
 5   0  0.1110956E-06  0.3506835E+04  0.7818609E-02  0.8112172E-01
       -1   -1    0    0    0  501  0.00000000000E+00  0.00000000000E+00  0.16442053155E+04  0.16442053155E+04  0.50400001928E-02 0. -1.
        1   -1    0    0  501    0  0.00000000000E+00  0.00000000000E+00 -0.18698835575E+04  0.18698835575E+04  0.50400001928E-02 0.  1.
    10030    2    1    2    0    0  0.00000000000E+00  0.00000000000E+00 -0.22567824201E+03  0.35140888730E+04  0.35068347464E+04 0.  0.
        1    1    3    3  502    0 -0.16102827438E+04  0.68597530414E+03 -0.21745743941E+03  0.17637631278E+04  0.50400001928E-02 0.  1.
       -1    1    3    3    0  502  0.16102827438E+04 -0.68597530414E+03 -0.82208025991E+01  0.17503257452E+04  0.50400001928E-02 0. -1.
</event>
<event>
 5   0  0.1130707E-06  0.1998458E+04  0.7818609E-02  0.8607342E-01
       -1   -1    0    0    0  501  0.00000000000E+00  0.00000000000E+00  0.66706306255E+03  0.66706306256E+03  0.50400001928E-02 0. -1.
        1   -1    0    0  501    0  0.00000000000E+00  0.00000000000E+00 -0.14967971587E+04  0.14967971588E+04  0.50400001928E-02 0.  1.
    10030    2    1    2    0    0  0.00000000000E+00  0.00000000000E+00 -0.82973409620E+03  0.21638602213E+04  0.19984575019E+04 0.  0.
        3    1    3    3  502    0 -0.57805759896E+03  0.81488229644E+03 -0.43280117612E+03  0.10888069678E+04  0.10100000352E+00 0.  1.
       -3    1    3    3    0  502  0.57805759896E+03 -0.81488229644E+03 -0.39693292008E+03  0.10750532536E+04  0.10100000352E+00 0. -1.
</event>
<event>
 5   0  0.2565004E-06  0.3368642E+04  0.7818609E-02  0.8145646E-01
        2   -1    0    0  501    0  0.00000000000E+00  0.00000000000E+00  0.21557550424E+04  0.21557550424E+04  0.25500000920E-02 0.  1.
       -2   -1    0    0    0  501  0.00000000000E+00  0.00000000000E+00 -0.13159834258E+04  0.13159834258E+04  0.25500000920E-02 0. -1.
    10030    2    1    2    0    0  0.00000000000E+00  0.00000000000E+00  0.83977161659E+03  0.34717384682E+04  0.33686424006E+04 0.  0.
        3    1    3    3  502    0 -0.74167860085E+03 -0.13260851085E+04  0.11690078051E+04  0.19170728000E+04  0.10100000352E+00 0.  1.
       -3    1    3    3    0  502  0.74167860085E+03  0.13260851085E+04 -0.32923618850E+03  0.15546656682E+04  0.10100000352E+00 0. -1.
</event>
<event>
 5   0  0.1235669E-06  0.1914932E+04  0.7818609E-02  0.8647459E-01
       -1   -1    0    0    0  501  0.00000000000E+00  0.00000000000E+00  0.76553609009E+03  0.76553609011E+03  0.50400001928E-02 0.  1.
        1   -1    0    0  501    0  0.00000000000E+00  0.00000000000E+00 -0.11975154515E+04  0.11975154516E+04  0.50400001928E-02 0. -1.
    10030    2    1    2    0    0  0.00000000000E+00  0.00000000000E+00 -0.43197936145E+03  0.19630515417E+04  0.19149321624E+04 0.  0.
        1    1    3    3  502    0 -0.22077190679E+03  0.73292784498E+03  0.37363108061E+03  0.85177675784E+03  0.50400001928E-02 0.  1.
       -1    1    3    3    0  502  0.22077190679E+03 -0.73292784498E+03 -0.80561044207E+03  0.11112747838E+04  0.50400001928E-02 0. -1.
</event>
<event>
 5   0  0.1110956E-06  0.1836884E+04  0.7818609E-02  0.8686927E-01
       -1   -1    0    0    0  501  0.00000000000E+00  0.00000000000E+00  0.46659131057E+03  0.46659131060E+03  0.50400001928E-02 0. -1.
        1   -1    0    0  501    0  0.00000000000E+00  0.00000000000E+00 -0.18078685478E+04  0.18078685478E+04  0.50400001928E-02 0.  1.
    10030    2    1    2    0    0  0.00000000000E+00  0.00000000000E+00 -0.13412772372E+04  0.22744598584E+04  0.18368840520E+04 0.  0.
        1    1    3    3  502    0  0.79808548287E+02  0.90500446074E+03 -0.83737665303E+03  0.12355574197E+04  0.50400001928E-02 0.  1.
       -1    1    3    3    0  502 -0.79808548287E+02 -0.90500446074E+03 -0.50390058417E+03  0.10389024387E+04  0.50400001928E-02 0. -1.
</event>
<event>
 5   0  0.3378848E-06  0.3565495E+04  0.7818609E-02  0.8098441E-01
        2   -1    0    0  501    0  0.00000000000E+00  0.00000000000E+00  0.12424519772E+04  0.12424519772E+04  0.25500000920E-02 0.  1.
       -2   -1    0    0    0  501  0.00000000000E+00  0.00000000000E+00 -0.25579975449E+04  0.25579975449E+04  0.25500000920E-02 0. -1.
    10030    2    1    2    0    0  0.00000000000E+00  0.00000000000E+00 -0.13155455677E+04  0.38004495222E+04  0.35654952573E+04 0.  0.
        1    1    3    3  502    0 -0.39571304851E+03  0.54474921964E+03  0.11017151468E+04  0.12911687705E+04  0.50400001928E-02 0.  1.
       -1    1    3    3    0  502  0.39571304851E+03 -0.54474921964E+03 -0.24172607145E+04  0.25092807517E+04  0.50400001928E-02 0. -1.
</event>
<event>
 5   0  0.1102175E-06  0.3486539E+04  0.7818609E-02  0.8116987E-01
        1   -1    0    0  501    0  0.00000000000E+00  0.00000000000E+00  0.25863755319E+04  0.25863755319E+04  0.50400001928E-02 0. -1.
       -1   -1    0    0    0  501  0.00000000000E+00  0.00000000000E+00 -0.11749992116E+04  0.11749992116E+04  0.50400001928E-02 0.  1.
    10030    2    1    2    0    0  0.00000000000E+00  0.00000000000E+00  0.14113763203E+04  0.37613747435E+04  0.34865393793E+04 0.  0.
        5    1    3    3  502    0  0.24864880297E+03  0.79059348619E+02 -0.11538082864E+04  0.11829506581E+04  0.46999998093E+01 0.  1.
       -5    1    3    3    0  502 -0.24864880297E+03 -0.79059348619E+02  0.25651846067E+04  0.25784240854E+04  0.46999998093E+01 0. -1.
</event>
<event>
 5   0  0.1782660E-06  0.3223707E+04  0.7818609E-02  0.8182584E-01
       -2   -1    0    0    0  501  0.00000000000E+00  0.00000000000E+00  0.17609539078E+04  0.17609539078E+04  0.25500000920E-02 0. -1.
        2   -1    0    0  501    0  0.00000000000E+00  0.00000000000E+00 -0.14753771164E+04  0.14753771164E+04  0.25500000920E-02 0.  1.
    10030    2    1    2    0    0  0.00000000000E+00  0.00000000000E+00  0.28557679144E+03  0.32363310241E+04  0.32237066234E+04 0.  0.
        4    1    3    3  502    0 -0.42784405501E+03  0.26618280894E+03 -0.13942742736E+04  0.14825337049E+04  0.12699999809E+01 0.  1.
       -4    1    3    3    0  502  0.42784405501E+03 -0.26618280894E+03  0.16798510651E+04  0.17537973192E+04  0.12699999809E+01 0. -1.
</event>
<event>
 5   0  0.1782660E-06  0.3597551E+04  0.7818609E-02  0.8091053E-01
       -2   -1    0    0    0  501  0.00000000000E+00  0.00000000000E+00  0.15072462767E+04  0.15072462767E+04  0.25500000920E-02 0.  1.
        2   -1    0    0  501    0  0.00000000000E+00  0.00000000000E+00 -0.21466919851E+04  0.21466919851E+04  0.25500000920E-02 0. -1.
    10030    2    1    2    0    0  0.00000000000E+00  0.00000000000E+00 -0.63944570843E+03  0.36539382618E+04  0.35975511125E+04 0.  0.
        4    1    3    3  502    0  0.48367204532E+03 -0.17285459125E+04 -0.20048487551E+03  0.18061022721E+04  0.12699999809E+01 0.  1.
       -4    1    3    3    0  502 -0.48367204532E+03  0.17285459125E+04 -0.43896083292E+03  0.18478359897E+04  0.12699999809E+01 0. -1.
</event>
<event>
 5   0  0.1042825E-06  0.2888779E+04  0.7818609E-02  0.8276224E-01
        3   -1    0    0  501    0  0.00000000000E+00  0.00000000000E+00  0.14265228594E+04  0.14265228630E+04  0.10100000352E+00 0.  1.
       -3   -1    0    0    0  501  0.00000000000E+00  0.00000000000E+00 -0.14624802943E+04  0.14624802978E+04  0.10100000352E+00 0. -1.
    10030    2    1    2    0    0  0.00000000000E+00  0.00000000000E+00 -0.35957434939E+02  0.28890031608E+04  0.28887793834E+04 0.  0.
        3    1    3    3  502    0 -0.14671309765E+03 -0.14366602839E+04  0.93009845620E+01  0.14441620487E+04  0.10100000352E+00 0.  1.
       -3    1    3    3    0  502  0.14671309765E+03  0.14366602839E+04 -0.45258419501E+02  0.14448411121E+04  0.10100000352E+00 0. -1.
</event>
<event>
 5   0  0.1102175E-06  0.3095466E+04  0.7818609E-02  0.8216983E-01
       -1   -1    0    0    0  501  0.00000000000E+00  0.00000000000E+00  0.92443083147E+03  0.92443083148E+03  0.50400001928E-02 0.  1.
        1   -1    0    0  501    0  0.00000000000E+00  0.00000000000E+00 -0.25912990336E+04  0.25912990336E+04  0.50400001928E-02 0. -1.
    10030    2    1    2    0    0  0.00000000000E+00  0.00000000000E+00 -0.16668682021E+04  0.35157298651E+04  0.30954655354E+04 0.  0.
        5    1    3    3  502    0  0.55510506186E+03  0.77586790789E+02 -0.24719707789E+04  0.25347234487E+04  0.46999998093E+01 0. -1.
       -5    1    3    3    0  502 -0.55510506186E+03 -0.77586790789E+02  0.80510257677E+03  0.98100641635E+03  0.46999998093E+01 0.  1.
</event>
<event>
 5   0  0.1908726E-06  0.3313912E+04  0.7818609E-02  0.8159365E-01
       -2   -1    0    0    0  501  0.00000000000E+00  0.00000000000E+00  0.17786880816E+04  0.17786880816E+04  0.25500000920E-02 0. -1.
        2   -1    0    0  501    0  0.00000000000E+00  0.00000000000E+00 -0.15435548320E+04  0.15435548320E+04  0.25500000920E-02 0.  1.
    10030    2    1    2    0    0  0.00000000000E+00  0.00000000000E+00  0.23513324963E+03  0.33222429136E+04  0.33139116361E+04 0.  0.
        5    1    3    3  502    0 -0.71097622445E+03 -0.12921500622E+04  0.87467483079E+03  0.17147061336E+04  0.46999998093E+01 0. -1.
       -5    1    3    3    0  502  0.71097622445E+03  0.12921500622E+04 -0.63954158115E+03  0.16075367800E+04  0.46999998093E+01 0.  1.
</event>
<event>
 5   0  0.1102175E-06  0.2927252E+04  0.7818609E-02  0.8264815E-01
       -1   -1    0    0    0  501  0.00000000000E+00  0.00000000000E+00  0.15727588195E+04  0.15727588195E+04  0.50400001928E-02 0.  1.
        1   -1    0    0  501    0  0.00000000000E+00  0.00000000000E+00 -0.13620660698E+04  0.13620660698E+04  0.50400001928E-02 0. -1.
    10030    2    1    2    0    0  0.00000000000E+00  0.00000000000E+00  0.21069274972E+03  0.29348248893E+04  0.29272522433E+04 0.  0.
        5    1    3    3  502    0 -0.13843158614E+03  0.96406965714E+03 -0.98999338962E+03  0.13887773793E+04  0.46999998093E+01 0. -1.
       -5    1    3    3    0  502  0.13843158614E+03 -0.96406965714E+03  0.12006861393E+04  0.15460475100E+04  0.46999998093E+01 0.  1.
</event>
<event>
 5   0  0.2565004E-06  0.3509821E+04  0.7818609E-02  0.8111467E-01
        2   -1    0    0  501    0  0.00000000000E+00  0.00000000000E+00  0.15556742068E+04  0.15556742068E+04  0.25500000920E-02 0. -1.
       -2   -1    0    0    0  501  0.00000000000E+00  0.00000000000E+00 -0.19796625708E+04  0.19796625708E+04  0.25500000920E-02 0.  1.
    10030    2    1    2    0    0  0.00000000000E+00  0.00000000000E+00 -0.42398836403E+03  0.35353367776E+04  0.35098205080E+04 0.  0.
        3    1    3    3  502    0  0.12226824430E+04  0.55300993218E+02  0.10548052601E+04  0.16157427713E+04  0.10100000352E+00 0. -1.
       -3    1    3    3    0  502 -0.12226824430E+04 -0.55300993218E+02 -0.14787936241E+04  0.19195940063E+04  0.10100000352E+00 0.  1.
</event>
<event>
 5   0  0.1908726E-06  0.3496765E+04  0.7818609E-02  0.8114557E-01
       -2   -1    0    0    0  501  0.00000000000E+00  0.00000000000E+00  0.16035044448E+04  0.16035044448E+04  0.25500000920E-02 0. -1.
        2   -1    0    0  501    0  0.00000000000E+00  0.00000000000E+00 -0.19063501201E+04  0.19063501201E+04  0.25500000920E-02 0.  1.
    10030    2    1    2    0    0  0.00000000000E+00  0.00000000000E+00 -0.30284567528E+03  0.35098545648E+04  0.34967647280E+04 0.  0.
        5    1    3    3  502    0 -0.10253401809E+04  0.67666830404E+03  0.10972663725E+04  0.16471848902E+04  0.46999998093E+01 0. -1.
       -5    1    3    3    0  502  0.10253401809E+04 -0.67666830404E+03 -0.14001120478E+04  0.18626696746E+04  0.46999998093E+01 0.  1.
</event>
<event>
 5   0  0.1102175E-06  0.2744287E+04  0.7818609E-02  0.8320777E-01
       -1   -1    0    0    0  501  0.00000000000E+00  0.00000000000E+00  0.25775309836E+04  0.25775309836E+04  0.50400001928E-02 0.  1.
        1   -1    0    0  501    0  0.00000000000E+00  0.00000000000E+00 -0.73045809355E+03  0.73045809356E+03  0.50400001928E-02 0. -1.
    10030    2    1    2    0    0  0.00000000000E+00  0.00000000000E+00  0.18470728900E+04  0.33079890771E+04  0.27442874254E+04 0.  0.
        5    1    3    3  502    0  0.75558176737E+03 -0.89304153324E+03  0.59056146269E+02  0.11712970186E+04  0.46999998093E+01 0. -1.
       -5    1    3    3    0  502 -0.75558176737E+03  0.89304153324E+03  0.17880167437E+04  0.21366920586E+04  0.46999998093E+01 0.  1.
</event>
<event>
 5   0  0.1782660E-06  0.3357204E+04  0.7818609E-02  0.8148490E-01
       -2   -1    0    0    0  501  0.00000000000E+00  0.00000000000E+00  0.13215288414E+04  0.13215288414E+04  0.25500000920E-02 0.  1.
        2   -1    0    0  501    0  0.00000000000E+00  0.00000000000E+00 -0.21321557716E+04  0.21321557716E+04  0.25500000920E-02 0. -1.
    10030    2    1    2    0    0  0.00000000000E+00  0.00000000000E+00 -0.81062693017E+03  0.34536846130E+04  0.33572044004E+04 0.  0.
        4    1    3    3  502    0 -0.38900539125E+03  0.14879567989E+04 -0.10972216683E+04  0.18892426081E+04  0.12699999809E+01 0. -1.
       -4    1    3    3    0  502  0.38900539125E+03 -0.14879567989E+04  0.28659473818E+03  0.15644420049E+04  0.12699999809E+01 0.  1.
</event>
<event>
 5   0  0.2565004E-06  0.1885959E+04  0.7818609E-02  0.8661877E-01
        2   -1    0    0  501    0  0.00000000000E+00  0.00000000000E+00  0.10071595217E+04  0.10071595217E+04  0.25500000920E-02 0.  1.
       -2   -1    0    0    0  501  0.00000000000E+00  0.00000000000E+00 -0.88288962237E+03  0.88288962237E+03  0.25500000920E-02 0. -1.
    10030    2    1    2    0    0  0.00000000000E+00  0.00000000000E+00  0.12426989933E+03  0.18900491441E+04  0.18859593737E+04 0.  0.
        3    1    3    3  502    0 -0.36491472748E+03  0.36409942562E+03 -0.72918454132E+03  0.89299566380E+03  0.10100000352E+00 0. -1.
       -3    1    3    3    0  502  0.36491472748E+03 -0.36409942562E+03  0.85345444064E+03  0.99705348027E+03  0.10100000352E+00 0.  1.
</event>
<event>
 5   0  0.3041329E-06  0.3484961E+04  0.7818609E-02  0.8117363E-01
       -2   -1    0    0    0  501  0.00000000000E+00  0.00000000000E+00  0.24917065277E+04  0.24917065277E+04  0.25500000920E-02 0. -1.
        2   -1    0    0  501    0  0.00000000000E+00  0.00000000000E+00 -0.12185374263E+04  0.12185374263E+04  0.25500000920E-02 0.  1.
    10030    2    1    2    0    0  0.00000000000E+00  0.00000000000E+00  0.12731691014E+04  0.37102439540E+04  0.34849606365E+04 0.  0.
        2    1    3    3  502    0 -0.12098260465E+04  0.12303255364E+04  0.37829542254E+03  0.17664901401E+04  0.25500000920E-02 0.  1.
       -2    1    3    3    0  502  0.12098260465E+04 -0.12303255364E+04  0.89487367886E+03  0.19437538140E+04  0.25500000920E-02 0. -1.
</event>
<event>
 5   0  0.1125196E-06  0.3490066E+04  0.7818609E-02  0.8116148E-01
        1   -1    0    0  501    0  0.00000000000E+00  0.00000000000E+00  0.19400813679E+04  0.19400813679E+04  0.50400001928E-02 0.  1.
       -1   -1    0    0    0  501  0.00000000000E+00  0.00000000000E+00 -0.15695942973E+04  0.15695942973E+04  0.50400001928E-02 0. -1.
    10030    2    1    2    0    0  0.00000000000E+00  0.00000000000E+00  0.37048707061E+03  0.35096756652E+04  0.34900662753E+04 0.  0.
        4    1    3    3  502    0  0.15548089843E+04 -0.19328895895E+03  0.95790126234E+03  0.18364008388E+04  0.12699999809E+01 0.  1.
       -4    1    3    3    0  502 -0.15548089843E+04  0.19328895895E+03 -0.58741419173E+03  0.16732748265E+04  0.12699999809E+01 0. -1.
</event>
<event>
 5   0  0.1908726E-06  0.3533158E+04  0.7818609E-02  0.8105976E-01
       -2   -1    0    0    0  501  0.00000000000E+00  0.00000000000E+00  0.14885720839E+04  0.14885720839E+04  0.25500000920E-02 0. -1.
        2   -1    0    0  501    0  0.00000000000E+00  0.00000000000E+00 -0.20965072616E+04  0.20965072616E+04  0.25500000920E-02 0.  1.
    10030    2    1    2    0    0  0.00000000000E+00  0.00000000000E+00 -0.60793517777E+03  0.35850793455E+04  0.35331584642E+04 0.  0.
        5    1    3    3  502    0  0.17940696129E+03  0.13622295467E+04  0.82272072820E+03  0.16014829635E+04  0.46999998093E+01 0. -1.
       -5    1    3    3    0  502 -0.17940696129E+03 -0.13622295467E+04 -0.14306559060E+04  0.19835963821E+04  0.46999998093E+01 0.  1.
</event>
<event>
 5   0  0.3041329E-06  0.3477176E+04  0.7818609E-02  0.8119220E-01
       -2   -1    0    0    0  501  0.00000000000E+00  0.00000000000E+00  0.20564996728E+04  0.20564996728E+04  0.25500000920E-02 0.  1.
        2   -1    0    0  501    0  0.00000000000E+00  0.00000000000E+00 -0.14698222094E+04  0.14698222094E+04  0.25500000920E-02 0. -1.
    10030    2    1    2    0    0  0.00000000000E+00  0.00000000000E+00  0.58667746342E+03  0.35263218822E+04  0.34771763790E+04 0.  0.
        2    1    3    3  502    0 -0.32181592454E+03  0.16622103474E+04  0.69412069550E+03  0.18298394105E+04  0.25500000920E-02 0.  1.
       -2    1    3    3    0  502  0.32181592454E+03 -0.16622103474E+04 -0.10744323208E+03  0.16964824716E+04  0.25500000920E-02 0. -1.
</event>
<event>
 5   0  0.2565004E-06  0.3443107E+04  0.7818609E-02  0.8127407E-01
        2   -1    0    0  501    0  0.00000000000E+00  0.00000000000E+00  0.21808915363E+04  0.21808915363E+04  0.25500000920E-02 0. -1.
       -2   -1    0    0    0  501  0.00000000000E+00  0.00000000000E+00 -0.13589607262E+04  0.13589607262E+04  0.25500000920E-02 0.  1.
    10030    2    1    2    0    0  0.00000000000E+00  0.00000000000E+00  0.82193081013E+03  0.35398522624E+04  0.34431067052E+04 0.  0.
        3    1    3    3  502    0 -0.53578957900E+03 -0.15964333910E+04  0.43032739070E+02  0.16844945449E+04  0.10100000352E+00 0. -1.
       -3    1    3    3    0  502  0.53578957900E+03  0.15964333910E+04  0.77889807106E+03  0.18553577176E+04  0.10100000352E+00 0.  1.
</event>
<event>
 5   0  0.1089337E-06  0.3418969E+04  0.7818609E-02  0.8133266E-01
        1   -1    0    0  501    0  0.00000000000E+00  0.00000000000E+00  0.13722021623E+04  0.13722021623E+04  0.50400001928E-02 0.  1.
       -1   -1    0    0    0  501  0.00000000000E+00  0.00000000000E+00 -0.21296696741E+04  0.21296696741E+04  0.50400001928E-02 0. -1.
    10030    2    1    2    0    0  0.00000000000E+00  0.00000000000E+00 -0.75746751178E+03  0.35018718364E+04  0.34189690445E+04 0.  0.
        2    1    3    3  502    0 -0.12610928696E+04  0.62092453043E+03 -0.13751721126E+04  0.19664691296E+04  0.25500000920E-02 0. -1.
       -2    1    3    3    0  502  0.12610928696E+04 -0.62092453043E+03  0.61770460078E+03  0.15354027068E+04  0.25500000920E-02 0.  1.
</event>
<event>
 5   0  0.1908726E-06  0.1807555E+04  0.7818609E-02  0.8702292E-01
        2   -1    0    0  501    0  0.00000000000E+00  0.00000000000E+00  0.43434630906E+03  0.43434630907E+03  0.25500000920E-02 0.  1.
       -2   -1    0    0    0  501  0.00000000000E+00  0.00000000000E+00 -0.18805597163E+04  0.18805597163E+04  0.25500000920E-02 0. -1.
    10030    2    1    2    0    0  0.00000000000E+00  0.00000000000E+00 -0.14462134072E+04  0.23149060254E+04  0.18075554451E+04 0.  0.
        5    1    3    3  502    0  0.65335034792E+03  0.26013637060E+03 -0.14501180936E+04  0.16116457997E+04  0.46999998093E+01 0. -1.
       -5    1    3    3    0  502 -0.65335034792E+03 -0.26013637060E+03  0.39046863203E+01  0.70326022567E+03  0.46999998093E+01 0.  1.
</event>
<event>
 5   0  0.1102175E-06  0.3494285E+04  0.7818609E-02  0.8115146E-01
       -1   -1    0    0    0  501  0.00000000000E+00  0.00000000000E+00  0.16499251473E+04  0.16499251474E+04  0.50400001928E-02 0. -1.
        1   -1    0    0  501    0  0.00000000000E+00  0.00000000000E+00 -0.18500886196E+04  0.18500886196E+04  0.50400001928E-02 0.  1.
    10030    2    1    2    0    0  0.00000000000E+00  0.00000000000E+00 -0.20016347223E+03  0.35000137669E+04  0.34942854710E+04 0.  0.
        5    1    3    3  502    0 -0.26278753253E+02  0.75283497811E+03  0.14789017488E+04  0.16597058624E+04  0.46999998093E+01 0. -1.
       -5    1    3    3    0  502  0.26278753253E+02 -0.75283497811E+03 -0.16790652210E+04  0.18403079045E+04  0.46999998093E+01 0.  1.
</event>
<event>
 5   0  0.1130707E-06  0.3677353E+04  0.7818609E-02  0.8072999E-01
        1   -1    0    0  501    0  0.00000000000E+00  0.00000000000E+00  0.15972915030E+04  0.15972915030E+04  0.50400001928E-02 0.  1.
       -1   -1    0    0    0  501  0.00000000000E+00  0.00000000000E+00 -0.21165396018E+04  0.21165396019E+04  0.50400001928E-02 0. -1.
    10030    2    1    2    0    0  0.00000000000E+00  0.00000000000E+00 -0.51924809885E+03  0.37138311049E+04  0.36773527010E+04 0.  0.
        3    1    3    3  502    0  0.13526231417E+04  0.25551109667E+03 -0.14906724864E+04  0.20290341928E+04  0.10100000352E+00 0. -1.
       -3    1    3    3    0  502 -0.13526231417E+04 -0.25551109667E+03  0.97142438751E+03  0.16847969120E+04  0.10100000352E+00 0.  1.
</event>
<event>
 5   0  0.1782660E-06  0.3579058E+04  0.7818609E-02  0.8095306E-01
       -2   -1    0    0    0  501  0.00000000000E+00  0.00000000000E+00  0.13710528927E+04  0.13710528927E+04  0.25500000920E-02 0. -1.
        2   -1    0    0  501    0  0.00000000000E+00  0.00000000000E+00 -0.23357330051E+04  0.23357330051E+04  0.25500000920E-02 0.  1.
    10030    2    1    2    0    0  0.00000000000E+00  0.00000000000E+00 -0.96468011238E+03  0.37067858978E+04  0.35790576935E+04 0.  0.
        4    1    3    3  502    0 -0.13954359733E+04 -0.10083365126E+04 -0.98805670429E+03  0.19850042171E+04  0.12699999809E+01 0.  1.
       -4    1    3    3    0  502  0.13954359733E+04  0.10083365126E+04  0.23376591916E+02  0.17217816807E+04  0.12699999809E+01 0. -1.
</event>
<event>
 5   0  0.1130707E-06  0.1818620E+04  0.7818609E-02  0.8696460E-01
        1   -1    0    0  501    0  0.00000000000E+00  0.00000000000E+00  0.18467875556E+04  0.18467875556E+04  0.50400001928E-02 0. -1.
       -1   -1    0    0    0  501  0.00000000000E+00  0.00000000000E+00 -0.44772049000E+03  0.44772049003E+03  0.50400001928E-02 0.  1.
    10030    2    1    2    0    0  0.00000000000E+00  0.00000000000E+00  0.13990670656E+04  0.22945080456E+04  0.18186199486E+04 0.  0.
        3    1    3    3  502    0  0.74451017933E+03  0.51562774074E+03  0.80263059499E+03  0.12101170424E+04  0.10100000352E+00 0. -1.
       -3    1    3    3    0  502 -0.74451017933E+03 -0.51562774074E+03  0.59643647057E+03  0.10843910032E+04  0.10100000352E+00 0.  1.
</event>
<event>
 5   0  0.2099155E-06  0.1789469E+04  0.7818609E-02  0.8711920E-01
        2   -1    0    0  501    0  0.00000000000E+00  0.00000000000E+00  0.16984497048E+04  0.16984497048E+04  0.25500000920E-02 0.  1.
       -2   -1    0    0    0  501  0.00000000000E+00  0.00000000000E+00 -0.47134168043E+03  0.47134168044E+03  0.25500000920E-02 0. -1.
    10030    2    1    2    0    0  0.00000000000E+00  0.00000000000E+00  0.12271080244E+04  0.21697913853E+04  0.17894693493E+04 0.  0.
        4    1    3    3  502    0 -0.21698518785E+02  0.89049284387E+03  0.71572529283E+03  0.11426778367E+04  0.12699999809E+01 0. -1.
       -4    1    3    3    0  502  0.21698518785E+02 -0.89049284387E+03  0.51138273159E+03  0.10271135486E+04  0.12699999809E+01 0.  1.
</event>
<event>
 5   0  0.1782660E-06  0.3489804E+04  0.7818609E-02  0.8116211E-01
       -2   -1    0    0    0  501  0.00000000000E+00  0.00000000000E+00  0.11461227595E+04  0.11461227595E+04  0.25500000920E-02 0.  1.
        2   -1    0    0  501    0  0.00000000000E+00  0.00000000000E+00 -0.26565064055E+04  0.26565064055E+04  0.25500000920E-02 0. -1.
    10030    2    1    2    0    0  0.00000000000E+00  0.00000000000E+00 -0.15103836460E+04  0.38026291650E+04  0.34898036919E+04 0.  0.
        4    1    3    3  502    0  0.10777244110E+04  0.13529892370E+04 -0.10051236092E+04  0.20005861302E+04  0.12699999809E+01 0.  1.
       -4    1    3    3    0  502 -0.10777244110E+04 -0.13529892370E+04 -0.50526003682E+03  0.18020430348E+04  0.12699999809E+01 0. -1.
</event>
<event>
 5   0  0.2565004E-06  0.3411316E+04  0.7818609E-02  0.8135134E-01
       -2   -1    0    0    0  501  0.00000000000E+00  0.00000000000E+00  0.12690769131E+04  0.12690769131E+04  0.25500000920E-02 0. -1.
        2   -1    0    0  501    0  0.00000000000E+00  0.00000000000E+00 -0.22924299380E+04  0.22924299380E+04  0.25500000920E-02 0.  1.
    10030    2    1    2    0    0  0.00000000000E+00  0.00000000000E+00 -0.10233530249E+04  0.35615068511E+04  0.34113164082E+04 0.  0.
        3    1    3    3  502    0 -0.13428337564E+04 -0.46684383791E+03 -0.14955712574E+04  0.20634628813E+04  0.10100000352E+00 0.  1.
       -3    1    3    3    0  502  0.13428337564E+04  0.46684383791E+03  0.47221823243E+03  0.14980439698E+04  0.10100000352E+00 0. -1.
</event>
<event>
 5   0  0.1908726E-06  0.3524291E+04  0.7818609E-02  0.8108057E-01
        2   -1    0    0  501    0  0.00000000000E+00  0.00000000000E+00  0.14494753741E+04  0.14494753741E+04  0.25500000920E-02 0. -1.
       -2   -1    0    0    0  501  0.00000000000E+00  0.00000000000E+00 -0.21422620398E+04  0.21422620398E+04  0.25500000920E-02 0.  1.
    10030    2    1    2    0    0  0.00000000000E+00  0.00000000000E+00 -0.69278666569E+03  0.35917374139E+04  0.35242906075E+04 0.  0.
        5    1    3    3  502    0  0.10569102402E+04  0.56064398312E+03 -0.16648885442E+04  0.20501845981E+04  0.46999998093E+01 0.  1.
       -5    1    3    3    0  502 -0.10569102402E+04 -0.56064398312E+03  0.97210187851E+03  0.15415528158E+04  0.46999998093E+01 0. -1.
</event>
<event>
 5   0  0.1089337E-06  0.3805990E+04  0.7818609E-02  0.8044871E-01
       -1   -1    0    0    0  501  0.00000000000E+00  0.00000000000E+00  0.22739735329E+04  0.22739735329E+04  0.50400001928E-02 0. -1.
        1   -1    0    0  501    0  0.00000000000E+00  0.00000000000E+00 -0.15925386071E+04  0.15925386071E+04  0.50400001928E-02 0.  1.
    10030    2    1    2    0    0  0.00000000000E+00  0.00000000000E+00  0.68143492574E+03  0.38665121400E+04  0.38059903535E+04 0.  0.
        2    1    3    3  502    0 -0.14882689031E+04  0.59410588121E+03  0.13834328285E+04  0.21170244489E+04  0.25500000920E-02 0. -1.
       -2    1    3    3    0  502  0.14882689031E+04 -0.59410588121E+03 -0.70199790277E+03  0.17494876912E+04  0.25500000920E-02 0.  1.
</event>
<event>
 5   0  0.1130707E-06  0.3526403E+04  0.7818609E-02  0.8107561E-01
       -1   -1    0    0    0  501  0.00000000000E+00  0.00000000000E+00  0.17791569768E+04  0.17791569768E+04  0.50400001928E-02 0.  1.
        1   -1    0    0  501    0  0.00000000000E+00  0.00000000000E+00 -0.17473894713E+04  0.17473894713E+04  0.50400001928E-02 0. -1.
    10030    2    1    2    0    0  0.00000000000E+00  0.00000000000E+00  0.31767505543E+02  0.35265464481E+04  0.35264033626E+04 0.  0.
        3    1    3    3  502    0 -0.93371505845E+03 -0.12714287211E+04  0.80365003342E+03  0.17703695065E+04  0.10100000352E+00 0.  1.
       -3    1    3    3    0  502  0.93371505845E+03  0.12714287211E+04 -0.77188252788E+03  0.17561769416E+04  0.10100000352E+00 0. -1.
</event>
<event>
 5   0  0.1782660E-06  0.3246827E+04  0.7818609E-02  0.8176559E-01
        2   -1    0    0  501    0  0.00000000000E+00  0.00000000000E+00  0.11296452119E+04  0.11296452119E+04  0.25500000920E-02 0. -1.
       -2   -1    0    0    0  501  0.00000000000E+00  0.00000000000E+00 -0.23330086313E+04  0.23330086313E+04  0.25500000920E-02 0.  1.
    10030    2    1    2    0    0  0.00000000000E+00  0.00000000000E+00 -0.12033634194E+04  0.34626538433E+04  0.32468273929E+04 0.  0.
        4    1    3    3  502    0 -0.15251796127E+04 -0.32332035091E+03 -0.10842669613E+04  0.18990380082E+04  0.12699999809E+01 0.  1.
       -4    1    3    3    0  502  0.15251796127E+04  0.32332035091E+03 -0.11909645811E+03  0.15636158351E+04  0.12699999809E+01 0. -1.
</event>
<event>
 5   0  0.2565004E-06  0.1807111E+04  0.7818609E-02  0.8702527E-01
       -2   -1    0    0    0  501  0.00000000000E+00  0.00000000000E+00  0.38904011468E+03  0.38904011469E+03  0.25500000920E-02 0.  1.
        2   -1    0    0  501    0  0.00000000000E+00  0.00000000000E+00 -0.20985299761E+04  0.20985299761E+04  0.25500000920E-02 0. -1.
    10030    2    1    2    0    0  0.00000000000E+00  0.00000000000E+00 -0.17094898614E+04  0.24875700908E+04  0.18071107797E+04 0.  0.
        3    1    3    3  502    0  0.45061753367E+03  0.74925464062E+03 -0.11685660566E+04  0.14594469216E+04  0.10100000352E+00 0. -1.
       -3    1    3    3    0  502 -0.45061753367E+03 -0.74925464062E+03 -0.54092380474E+03  0.10281231691E+04  0.10100000352E+00 0.  1.
</event>
<event>
 5   0  0.1782660E-06  0.3113255E+04  0.7818609E-02  0.8212110E-01
        2   -1    0    0  501    0  0.00000000000E+00  0.00000000000E+00  0.13834889683E+04  0.13834889683E+04  0.25500000920E-02 0.  1.
       -2   -1    0    0    0  501  0.00000000000E+00  0.00000000000E+00 -0.17514337096E+04  0.17514337096E+04  0.25500000920E-02 0. -1.
    10030    2    1    2    0    0  0.00000000000E+00  0.00000000000E+00 -0.36794474129E+03  0.31349226780E+04  0.31132550272E+04 0.  0.
        4    1    3    3  502    0  0.51420148411E+02  0.58097741805E+03  0.12693008271E+04  0.13968911892E+04  0.12699999809E+01 0.  1.
       -4    1    3    3    0  502 -0.51420148411E+02 -0.58097741805E+03 -0.16372455684E+04  0.17380314888E+04  0.12699999809E+01 0. -1.
</event>
<event>
 5   0  0.1042825E-06  0.3452543E+04  0.7818609E-02  0.8125130E-01
       -3   -1    0    0    0  501  0.00000000000E+00  0.00000000000E+00  0.18450189007E+04  0.18450189035E+04  0.10100000352E+00 0.  1.
        3   -1    0    0  501    0  0.00000000000E+00  0.00000000000E+00 -0.16151669324E+04  0.16151669355E+04  0.10100000352E+00 0. -1.
    10030    2    1    2    0    0  0.00000000000E+00  0.00000000000E+00  0.22985196837E+03  0.34601858390E+04  0.34525431371E+04 0.  0.
        3    1    3    3  502    0  0.35650791297E+03  0.13643259956E+04  0.11128863304E+04  0.17963850670E+04  0.10100000352E+00 0.  1.
       -3    1    3    3    0  502 -0.35650791297E+03 -0.13643259956E+04 -0.88303436207E+03  0.16638007720E+04  0.10100000352E+00 0. -1.
</event>
<event>
 5   0  0.1130707E-06  0.3363253E+04  0.7818609E-02  0.8146985E-01
        1   -1    0    0  501    0  0.00000000000E+00  0.00000000000E+00  0.14023262793E+04  0.14023262794E+04  0.50400001928E-02 0. -1.
       -1   -1    0    0    0  501  0.00000000000E+00  0.00000000000E+00 -0.20165542173E+04  0.20165542173E+04  0.50400001928E-02 0.  1.
    10030    2    1    2    0    0  0.00000000000E+00  0.00000000000E+00 -0.61422793794E+03  0.34188804966E+04  0.33632525761E+04 0.  0.
        3    1    3    3  502    0 -0.66209790557E+03 -0.80620259251E+03 -0.16478413746E+04  0.19503121450E+04  0.10100000352E+00 0.  1.
       -3    1    3    3    0  502  0.66209790557E+03  0.80620259251E+03  0.10336134367E+04  0.14685683517E+04  0.10100000352E+00 0. -1.
</event>
<event>
 5   0  0.1125196E-06  0.3408348E+04  0.7818609E-02  0.8135860E-01
        1   -1    0    0  501    0  0.00000000000E+00  0.00000000000E+00  0.18120241494E+04  0.18120241494E+04  0.50400001928E-02 0.  1.
       -1   -1    0    0    0  501  0.00000000000E+00  0.00000000000E+00 -0.16027432628E+04  0.16027432628E+04  0.50400001928E-02 0. -1.
    10030    2    1    2    0    0  0.00000000000E+00  0.00000000000E+00  0.20928088659E+03  0.34147674122E+04  0.34083482788E+04 0.  0.
        4    1    3    3  502    0 -0.10231441681E+04 -0.22702220610E+03  0.14509885842E+04  0.17898973589E+04  0.12699999809E+01 0.  1.
       -4    1    3    3    0  502  0.10231441681E+04  0.22702220610E+03 -0.12417076976E+04  0.16248700533E+04  0.12699999809E+01 0. -1.
</event>
<event>
 5   0  0.1908726E-06  0.2617812E+04  0.7818609E-02  0.8362176E-01
       -2   -1    0    0    0  501  0.00000000000E+00  0.00000000000E+00  0.68382612184E+03  0.68382612185E+03  0.25500000920E-02 0.  1.
        2   -1    0    0  501    0  0.00000000000E+00  0.00000000000E+00 -0.25053669194E+04  0.25053669194E+04  0.25500000920E-02 0. -1.
    10030    2    1    2    0    0  0.00000000000E+00  0.00000000000E+00 -0.18215407975E+04  0.31891930412E+04  0.26178123265E+04 0.  0.
        5    1    3    3  502    0  0.26527376714E+03  0.60014105469E+03  0.46897962724E+03  0.80653793328E+03  0.46999998093E+01 0.  1.
       -5    1    3    3    0  502 -0.26527376714E+03 -0.60014105469E+03 -0.22905204248E+04  0.23826551079E+04  0.46999998093E+01 0. -1.
</event>
<event>
 5   0  0.1102175E-06  0.3563961E+04  0.7818609E-02  0.8098797E-01
        1   -1    0    0  501    0  0.00000000000E+00  0.00000000000E+00  0.13980434434E+04  0.13980434434E+04  0.50400001928E-02 0. -1.
       -1   -1    0    0    0  501  0.00000000000E+00  0.00000000000E+00 -0.22713567246E+04  0.22713567246E+04  0.50400001928E-02 0.  1.
    10030    2    1    2    0    0  0.00000000000E+00  0.00000000000E+00 -0.87331328121E+03  0.36694001680E+04  0.35639614905E+04 0.  0.
        5    1    3    3  502    0 -0.51870431551E+03  0.10795697516E+04  0.92181325315E+03  0.15113857149E+04  0.46999998093E+01 0. -1.
       -5    1    3    3    0  502  0.51870431551E+03 -0.10795697516E+04 -0.17951265344E+04  0.21580144531E+04  0.46999998093E+01 0.  1.
</event>
<event>
 5   0  0.1908726E-06  0.3330682E+04  0.7818609E-02  0.8155132E-01
       -2   -1    0    0    0  501  0.00000000000E+00  0.00000000000E+00  0.16133174714E+04  0.16133174714E+04  0.25500000920E-02 0. -1.
        2   -1    0    0  501    0  0.00000000000E+00  0.00000000000E+00 -0.17190423017E+04  0.17190423017E+04  0.25500000920E-02 0.  1.
    10030    2    1    2    0    0  0.00000000000E+00  0.00000000000E+00 -0.10572483031E+03  0.33323597731E+04  0.33306822000E+04 0.  0.
        5    1    3    3  502    0 -0.52426330540E+03  0.53898971041E+03 -0.15395371351E+04  0.17133471923E+04  0.46999998093E+01 0.  1.
       -5    1    3    3    0  502  0.52426330540E+03 -0.53898971041E+03  0.14338123047E+04  0.16190125807E+04  0.46999998093E+01 0. -1.
</event>
<event>
 5   0  0.1110956E-06  0.2064742E+04  0.7818609E-02  0.8576936E-01
       -1   -1    0    0    0  501  0.00000000000E+00  0.00000000000E+00  0.11582522919E+04  0.11582522919E+04  0.50400001928E-02 0.  1.
        1   -1    0    0  501    0  0.00000000000E+00  0.00000000000E+00 -0.92017102930E+03  0.92017102931E+03  0.50400001928E-02 0. -1.
    10030    2    1    2    0    0  0.00000000000E+00  0.00000000000E+00  0.23808126258E+03  0.20784233212E+04  0.20647423119E+04 0.  0.
        1    1    3    3  502    0 -0.61209920229E+02  0.10286089324E+04  0.18276263018E+03  0.10465109503E+04  0.50400001928E-02 0. -1.
       -1    1    3    3    0  502  0.61209920229E+02 -0.10286089324E+04  0.55318632403E+02  0.10319123709E+04  0.50400001928E-02 0.  1.
</event>
<event>
 5   0  0.1782660E-06  0.3482330E+04  0.7818609E-02  0.8117990E-01
       -2   -1    0    0    0  501  0.00000000000E+00  0.00000000000E+00  0.13757185410E+04  0.13757185410E+04  0.25500000920E-02 0.  1.
        2   -1    0    0  501    0  0.00000000000E+00  0.00000000000E+00 -0.22036887040E+04  0.22036887040E+04  0.25500000920E-02 0. -1.
    10030    2    1    2    0    0  0.00000000000E+00  0.00000000000E+00 -0.82797016296E+03  0.35794072450E+04  0.34823299147E+04 0.  0.
        4    1    3    3  502    0  0.12986056297E+04 -0.85791322774E+03  0.38832691045E+03  0.16041169191E+04  0.12699999809E+01 0. -1.
       -4    1    3    3    0  502 -0.12986056297E+04  0.85791322774E+03 -0.12162970734E+04  0.19752903259E+04  0.12699999809E+01 0.  1.
</event>
<event>
 5   0  0.1908726E-06  0.3464047E+04  0.7818609E-02  0.8122364E-01
       -2   -1    0    0    0  501  0.00000000000E+00  0.00000000000E+00  0.10998301557E+04  0.10998301557E+04  0.25500000920E-02 0.  1.
        2   -1    0    0  501    0  0.00000000000E+00  0.00000000000E+00 -0.27276075065E+04  0.27276075066E+04  0.25500000920E-02 0. -1.
    10030    2    1    2    0    0  0.00000000000E+00  0.00000000000E+00 -0.16277773508E+04  0.38274376623E+04  0.34640467599E+04 0.  0.
        5    1    3    3  502    0  0.12677715427E+04  0.10580800046E+04 -0.13913051101E+04  0.21592892303E+04  0.46999998093E+01 0. -1.
       -5    1    3    3    0  502 -0.12677715427E+04 -0.10580800046E+04 -0.23647224068E+03  0.16681484320E+04  0.46999998093E+01 0.  1.
</event>
<event>
 5   0  0.1089337E-06  0.3424826E+04  0.7818609E-02  0.8131840E-01
       -1   -1    0    0    0  501  0.00000000000E+00  0.00000000000E+00  0.13814941760E+04  0.13814941760E+04  0.50400001928E-02 0. -1.
        1   -1    0    0  501    0  0.00000000000E+00  0.00000000000E+00 -0.21225989958E+04  0.21225989958E+04  0.50400001928E-02 0.  1.
    10030    2    1    2    0    0  0.00000000000E+00  0.00000000000E+00 -0.74110481979E+03  0.35040931718E+04  0.34248259229E+04 0.  0.
        2    1    3    3  502    0 -0.16432862172E+04  0.22669976793E+03  0.64224914710E+02  0.16600925324E+04  0.25500000920E-02 0.  1.
       -2    1    3    3    0  502  0.16432862172E+04 -0.22669976793E+03 -0.80532973450E+03  0.18440006393E+04  0.25500000920E-02 0. -1.
</event>
<event>
 5   0  0.1782660E-06  0.3666846E+04  0.7818609E-02  0.8075349E-01
        2   -1    0    0  501    0  0.00000000000E+00  0.00000000000E+00  0.16867779461E+04  0.16867779461E+04  0.25500000920E-02 0. -1.
       -2   -1    0    0    0  501  0.00000000000E+00  0.00000000000E+00 -0.19928173542E+04  0.19928173542E+04  0.25500000920E-02 0.  1.
    10030    2    1    2    0    0  0.00000000000E+00  0.00000000000E+00 -0.30603940818E+03  0.36795953003E+04  0.36668462546E+04 0.  0.
        4    1    3    3  502    0  0.14158309249E+04 -0.10471295831E+04  0.35903003501E+03  0.17972094342E+04  0.12699999809E+01 0. -1.
       -4    1    3    3    0  502 -0.14158309249E+04  0.10471295831E+04 -0.66506944319E+03  0.18823858661E+04  0.12699999809E+01 0.  1.
</event>
<event>
 5   0  0.1110956E-06  0.3182706E+04  0.7818609E-02  0.8193399E-01
        1   -1    0    0  501    0  0.00000000000E+00  0.00000000000E+00  0.14160864439E+04  0.14160864439E+04  0.50400001928E-02 0. -1.
       -1   -1    0    0    0  501  0.00000000000E+00  0.00000000000E+00 -0.17883124584E+04  0.17883124584E+04  0.50400001928E-02 0.  1.
    10030    2    1    2    0    0  0.00000000000E+00  0.00000000000E+00 -0.37222601448E+03  0.32043989023E+04  0.31827064142E+04 0.  0.
        1    1    3    3  502    0  0.11500463162E+04  0.43102288171E+03  0.83272172727E+03  0.14838506425E+04  0.50400001928E-02 0. -1.
       -1    1    3    3    0  502 -0.11500463162E+04 -0.43102288171E+03 -0.12049477418E+04  0.17205482598E+04  0.50400001928E-02 0.  1.
</event>
<event>
 5   0  0.1130707E-06  0.2306644E+04  0.7818609E-02  0.8475306E-01
        1   -1    0    0  501    0  0.00000000000E+00  0.00000000000E+00  0.11021274353E+04  0.11021274353E+04  0.50400001928E-02 0.  1.
       -1   -1    0    0    0  501  0.00000000000E+00  0.00000000000E+00 -0.12068950816E+04  0.12068950816E+04  0.50400001928E-02 0. -1.
    10030    2    1    2    0    0  0.00000000000E+00  0.00000000000E+00 -0.10476764632E+03  0.23090225169E+04  0.23066444728E+04 0.  0.
        3    1    3    3  502    0 -0.49821261069E+03 -0.56928552864E+03  0.81905967775E+03  0.11149711137E+04  0.10100000352E+00 0.  1.
       -3    1    3    3    0  502  0.49821261069E+03  0.56928552864E+03 -0.92382732407E+03  0.11940514032E+04  0.10100000352E+00 0. -1.
</event>
<event>
 5   0  0.1130707E-06  0.1732247E+04  0.7818609E-02  0.8743183E-01
        1   -1    0    0  501    0  0.00000000000E+00  0.00000000000E+00  0.19271824230E+04  0.19271824230E+04  0.50400001928E-02 0.  1.
       -1   -1    0    0    0  501  0.00000000000E+00  0.00000000000E+00 -0.38925736084E+03  0.38925736088E+03  0.50400001928E-02 0. -1.
    10030    2    1    2    0    0  0.00000000000E+00  0.00000000000E+00  0.15379250622E+04  0.23164397839E+04  0.17322470308E+04 0.  0.
        3    1    3    3  502    0 -0.66172983311E+03 -0.64427486666E+02  0.15112635497E+04  0.16510465772E+04  0.10100000352E+00 0.  1.
       -3    1    3    3    0  502  0.66172983311E+03  0.64427486666E+02  0.26661512414E+02  0.66539320669E+03  0.10100000352E+00 0. -1.
</event>
<event>
 5   0  0.1908726E-06  0.1786550E+04  0.7818609E-02  0.8713485E-01
        2   -1    0    0  501    0  0.00000000000E+00  0.00000000000E+00  0.11524442303E+04  0.11524442303E+04  0.25500000920E-02 0. -1.
       -2   -1    0    0    0  501  0.00000000000E+00  0.00000000000E+00 -0.69238906575E+03  0.69238906575E+03  0.25500000920E-02 0.  1.
    10030    2    1    2    0    0  0.00000000000E+00  0.00000000000E+00  0.46005516455E+03  0.18448332961E+04  0.17865495056E+04 0.  0.
        5    1    3    3  502    0  0.69539875778E+03  0.20974097995E+03  0.76693924388E+03  0.10563089533E+04  0.46999998093E+01 0. -1.
       -5    1    3    3    0  502 -0.69539875778E+03 -0.20974097995E+03 -0.30688407933E+03  0.78852434277E+03  0.46999998093E+01 0.  1.
</event>
<event>
 5   0  0.1102175E-06  0.3464827E+04  0.7818609E-02  0.8122176E-01
       -1   -1    0    0    0  501  0.00000000000E+00  0.00000000000E+00  0.28306690146E+04  0.28306690146E+04  0.50400001928E-02 0.  1.
        1   -1    0    0  501    0  0.00000000000E+00  0.00000000000E+00 -0.10602643091E+04  0.10602643091E+04  0.50400001928E-02 0. -1.
    10030    2    1    2    0    0  0.00000000000E+00  0.00000000000E+00  0.17704047055E+04  0.38909333237E+04  0.34648274572E+04 0.  0.
        5    1    3    3  502    0 -0.29026054611E+03 -0.19731770921E+03  0.27903179235E+04  0.28123089566E+04  0.46999998093E+01 0.  1.
       -5    1    3    3    0  502  0.29026054611E+03  0.19731770921E+03 -0.10199132180E+04  0.10786243671E+04  0.46999998093E+01 0. -1.
</event>
<event>
 5   0  0.1782660E-06  0.3433185E+04  0.7818609E-02  0.8129809E-01
        2   -1    0    0  501    0  0.00000000000E+00  0.00000000000E+00  0.92881660006E+03  0.92881660007E+03  0.25500000920E-02 0.  1.
       -2   -1    0    0    0  501  0.00000000000E+00  0.00000000000E+00 -0.31725213226E+04  0.31725213226E+04  0.25500000920E-02 0. -1.
    10030    2    1    2    0    0  0.00000000000E+00  0.00000000000E+00 -0.22437047225E+04  0.41013379226E+04  0.34331853830E+04 0.  0.
        4    1    3    3  502    0 -0.10529472948E+04 -0.10344368970E+04 -0.74990343933E+02  0.14779657858E+04  0.12699999809E+01 0.  1.
       -4    1    3    3    0  502  0.10529472948E+04  0.10344368970E+04 -0.21687143786E+04  0.26233721368E+04  0.12699999809E+01 0. -1.
</event>
<event>
 5   0  0.1908726E-06  0.3488258E+04  0.7818609E-02  0.8116578E-01
       -2   -1    0    0    0  501  0.00000000000E+00  0.00000000000E+00  0.21821874009E+04  0.21821874009E+04  0.25500000920E-02 0. -1.
        2   -1    0    0  501    0  0.00000000000E+00  0.00000000000E+00 -0.13940075099E+04  0.13940075099E+04  0.25500000920E-02 0.  1.
    10030    2    1    2    0    0  0.00000000000E+00  0.00000000000E+00  0.78817989106E+03  0.35761949108E+04  0.34882578029E+04 0.  0.
        5    1    3    3  502    0  0.33115812392E+03 -0.17090576597E+04  0.50364712935E+03  0.18122434461E+04  0.46999998093E+01 0. -1.
       -5    1    3    3    0  502 -0.33115812392E+03  0.17090576597E+04  0.28453276171E+03  0.17639514647E+04  0.46999998093E+01 0.  1.
</event>
<event>
 5   0  0.1782660E-06  0.3042194E+04  0.7818609E-02  0.8231784E-01
        2   -1    0    0  501    0  0.00000000000E+00  0.00000000000E+00  0.13830928597E+04  0.13830928597E+04  0.25500000920E-02 0. -1.
       -2   -1    0    0    0  501  0.00000000000E+00  0.00000000000E+00 -0.16728707828E+04  0.16728707828E+04  0.25500000920E-02 0.  1.
    10030    2    1    2    0    0  0.00000000000E+00  0.00000000000E+00 -0.28977792306E+03  0.30559636425E+04  0.30421937051E+04 0.  0.
        4    1    3    3  502    0  0.25274254907E+03 -0.14785287032E+03  0.13545141291E+04  0.13858028020E+04  0.12699999809E+01 0. -1.
       -4    1    3    3    0  502 -0.25274254907E+03  0.14785287032E+03 -0.16442920521E+04  0.16701608405E+04  0.12699999809E+01 0.  1.
</event>
<event>
 5   0  0.3378848E-06  0.2846608E+04  0.7818609E-02  0.8288943E-01
       -2   -1    0    0    0  501  0.00000000000E+00  0.00000000000E+00  0.12829184636E+04  0.12829184636E+04  0.25500000920E-02 0.  1.
        2   -1    0    0  501    0  0.00000000000E+00  0.00000000000E+00 -0.15790518118E+04  0.15790518118E+04  0.25500000920E-02 0. -1.
    10030    2    1    2    0    0  0.00000000000E+00  0.00000000000E+00 -0.29613334818E+03  0.28619702754E+04  0.28466083147E+04 0.  0.
        1    1    3    3  502    0  0.44371782680E+03  0.36114975127E+03 -0.14583572973E+04  0.15665633276E+04  0.50400001928E-02 0. -1.
       -1    1    3    3    0  502 -0.44371782680E+03 -0.36114975127E+03  0.11622239491E+04  0.12954069479E+04  0.50400001928E-02 0.  1.
</event>
<event>
 5   0  0.3378848E-06  0.3506872E+04  0.7818609E-02  0.8112163E-01
        2   -1    0    0  501    0  0.00000000000E+00  0.00000000000E+00  0.18468329990E+04  0.18468329990E+04  0.25500000920E-02 0. -1.
       -2   -1    0    0    0  501  0.00000000000E+00  0.00000000000E+00 -0.16647624293E+04  0.16647624293E+04  0.25500000920E-02 0.  1.
    10030    2    1    2    0    0  0.00000000000E+00  0.00000000000E+00  0.18207056967E+03  0.35115954283E+04  0.35068722189E+04 0.  0.
        1    1    3    3  502    0  0.20238567291E+03 -0.83551552024E+02  0.18330902685E+04  0.18461204605E+04  0.50400001928E-02 0. -1.
       -1    1    3    3    0  502 -0.20238567291E+03  0.83551552024E+02 -0.16510196988E+04  0.16654749678E+04  0.50400001928E-02 0.  1.
</event>
<event>
 5   0  0.1089337E-06  0.2138423E+04  0.7818609E-02  0.8544504E-01
        1   -1    0    0  501    0  0.00000000000E+00  0.00000000000E+00  0.18333067162E+04  0.18333067162E+04  0.50400001928E-02 0. -1.
       -1   -1    0    0    0  501  0.00000000000E+00  0.00000000000E+00 -0.62357966393E+03  0.62357966395E+03  0.50400001928E-02 0.  1.
    10030    2    1    2    0    0  0.00000000000E+00  0.00000000000E+00  0.12097270523E+04  0.24568863802E+04  0.21384225831E+04 0.  0.
        2    1    3    3  502    0 -0.85883062892E+03 -0.28867061296E+03 -0.47389815558E+02  0.90728527299E+03  0.25500000920E-02 0.  1.
       -2    1    3    3    0  502  0.85883062892E+03  0.28867061296E+03  0.12571168679E+04  0.15496011072E+04  0.25500000920E-02 0. -1.
</event>
<event>
 5   0  0.1110956E-06  0.3471821E+04  0.7818609E-02  0.8120501E-01
        1   -1    0    0  501    0  0.00000000000E+00  0.00000000000E+00  0.16437304952E+04  0.16437304952E+04  0.50400001928E-02 0. -1.
       -1   -1    0    0    0  501  0.00000000000E+00  0.00000000000E+00 -0.18332596317E+04  0.18332596317E+04  0.50400001928E-02 0.  1.
    10030    2    1    2    0    0  0.00000000000E+00  0.00000000000E+00 -0.18952913646E+03  0.34769901269E+04  0.34718207109E+04 0.  0.
        1    1    3    3  502    0  0.33418755697E+03  0.99730469999E+03  0.12882647768E+04  0.16631067684E+04  0.50400001928E-02 0.  1.
       -1    1    3    3    0  502 -0.33418755697E+03 -0.99730469999E+03 -0.14777939133E+04  0.18138833585E+04  0.50400001928E-02 0. -1.
</event>
<event>
 5   0  0.3378848E-06  0.2249856E+04  0.7818609E-02  0.8497959E-01
        2   -1    0    0  501    0  0.00000000000E+00  0.00000000000E+00  0.29221253602E+04  0.29221253602E+04  0.25500000920E-02 0. -1.
       -2   -1    0    0    0  501  0.00000000000E+00  0.00000000000E+00 -0.43306244362E+03  0.43306244363E+03  0.25500000920E-02 0.  1.
    10030    2    1    2    0    0  0.00000000000E+00  0.00000000000E+00  0.24890629166E+04  0.33551878038E+04  0.22498557723E+04 0.  0.
        1    1    3    3  502    0  0.90141302452E+02 -0.42440968488E+03  0.27923252235E+04  0.28258324772E+04  0.50400001928E-02 0. -1.
       -1    1    3    3    0  502 -0.90141302452E+02  0.42440968488E+03 -0.30326230694E+03  0.52935532667E+03  0.50400001928E-02 0.  1.
</event>
<event>
 5   0  0.1102175E-06  0.3557928E+04  0.7818609E-02  0.8100197E-01
        1   -1    0    0  501    0  0.00000000000E+00  0.00000000000E+00  0.22910800854E+04  0.22910800854E+04  0.50400001928E-02 0.  1.
       -1   -1    0    0    0  501  0.00000000000E+00  0.00000000000E+00 -0.13813191303E+04  0.13813191303E+04  0.50400001928E-02 0. -1.
    10030    2    1    2    0    0  0.00000000000E+00  0.00000000000E+00  0.90976095516E+03  0.36723992157E+04  0.35579279088E+04 0.  0.
        5    1    3    3  502    0  0.13239714901E+04  0.10996388324E+04  0.91945559789E+03  0.19512884858E+04  0.46999998093E+01 0.  1.
       -5    1    3    3    0  502 -0.13239714901E+04 -0.10996388324E+04 -0.96946427276E+01  0.17211107299E+04  0.46999998093E+01 0. -1.
</event>
<event>
 5   0  0.1110956E-06  0.3331495E+04  0.7818609E-02  0.8154927E-01
       -1   -1    0    0    0  501  0.00000000000E+00  0.00000000000E+00  0.18850830869E+04  0.18850830869E+04  0.50400001928E-02 0. -1.
        1   -1    0    0  501    0  0.00000000000E+00  0.00000000000E+00 -0.14719326370E+04  0.14719326370E+04  0.50400001928E-02 0.  1.
    10030    2    1    2    0    0  0.00000000000E+00  0.00000000000E+00  0.41315044993E+03  0.33570157239E+04  0.33314953514E+04 0.  0.
        1    1    3    3  502    0 -0.87347468787E+03  0.92958877283E+03  0.12860527305E+04  0.18113599704E+04  0.50400001928E-02 0.  1.
       -1    1    3    3    0  502  0.87347468787E+03 -0.92958877283E+03 -0.87290228053E+03  0.15456557535E+04  0.50400001928E-02 0. -1.
</event>
<event>
 5   0  0.3041329E-06  0.3307247E+04  0.7818609E-02  0.8161054E-01
       -2   -1    0    0    0  501  0.00000000000E+00  0.00000000000E+00  0.11704808899E+04  0.11704808899E+04  0.25500000920E-02 0. -1.
        2   -1    0    0  501    0  0.00000000000E+00  0.00000000000E+00 -0.23361935546E+04  0.23361935546E+04  0.25500000920E-02 0.  1.
    10030    2    1    2    0    0  0.00000000000E+00  0.00000000000E+00 -0.11657126646E+04  0.35066744445E+04  0.33072465350E+04 0.  0.
        2    1    3    3  502    0  0.35859789127E+03 -0.73697807146E+03  0.93997290399E+03  0.12471079286E+04  0.25500000920E-02 0. -1.
       -2    1    3    3    0  502 -0.35859789127E+03  0.73697807146E+03 -0.21056855686E+04  0.22595665158E+04  0.25500000920E-02 0.  1.
</event>
<event>
 5   0  0.1125196E-06  0.2411492E+04  0.7818609E-02  0.8435214E-01
       -1   -1    0    0    0  501  0.00000000000E+00  0.00000000000E+00  0.47803467980E+03  0.47803467983E+03  0.50400001928E-02 0. -1.
        1   -1    0    0  501    0  0.00000000000E+00  0.00000000000E+00 -0.30412517130E+04  0.30412517130E+04  0.50400001928E-02 0.  1.
    10030    2    1    2    0    0  0.00000000000E+00  0.00000000000E+00 -0.25632170332E+04  0.35192863929E+04  0.24114923088E+04 0.  0.
        4    1    3    3  502    0 -0.33207891434E+03  0.19619110328E+02 -0.29729556175E+04  0.29915093233E+04  0.12699999809E+01 0.  1.
       -4    1    3    3    0  502  0.33207891434E+03 -0.19619110328E+02  0.40973858426E+03  0.52777706957E+03  0.12699999809E+01 0. -1.
</event>
<event>
 5   0  0.1125196E-06  0.3652713E+04  0.7818609E-02  0.8078523E-01
       -1   -1    0    0    0  501  0.00000000000E+00  0.00000000000E+00  0.15215503492E+04  0.15215503492E+04  0.50400001928E-02 0.  1.
        1   -1    0    0  501    0  0.00000000000E+00  0.00000000000E+00 -0.21922230022E+04  0.21922230022E+04  0.50400001928E-02 0. -1.
    10030    2    1    2    0    0  0.00000000000E+00  0.00000000000E+00 -0.67067265308E+03  0.37137733514E+04  0.36527127861E+04 0.  0.
        4    1    3    3  502    0  0.10221514985E+04  0.22184309863E+03 -0.18575507449E+04  0.21317843299E+04  0.12699999809E+01 0. -1.
       -4    1    3    3    0  502 -0.10221514985E+04 -0.22184309863E+03  0.11868780918E+04  0.15819890215E+04  0.12699999809E+01 0.  1.
</event>
<event>
 5   0  0.1908726E-06  0.3470915E+04  0.7818609E-02  0.8120717E-01
       -2   -1    0    0    0  501  0.00000000000E+00  0.00000000000E+00  0.20392015923E+04  0.20392015923E+04  0.25500000920E-02 0.  1.
        2   -1    0    0  501    0  0.00000000000E+00  0.00000000000E+00 -0.14769570228E+04  0.14769570228E+04  0.25500000920E-02 0. -1.
    10030    2    1    2    0    0  0.00000000000E+00  0.00000000000E+00  0.56224456956E+03  0.35161586151E+04  0.34709152180E+04 0.  0.
        5    1    3    3  502    0 -0.57002077529E+03  0.99810148744E+03  0.15983252169E+04  0.19687041048E+04  0.46999998093E+01 0.  1.
       -5    1    3    3    0  502  0.57002077529E+03 -0.99810148744E+03 -0.10360806473E+04  0.15474545102E+04  0.46999998093E+01 0. -1.
</event>
<event>
 5   0  0.1782660E-06  0.3030260E+04  0.7818609E-02  0.8235142E-01
        2   -1    0    0  501    0  0.00000000000E+00  0.00000000000E+00  0.13237444731E+04  0.13237444731E+04  0.25500000920E-02 0.  1.
       -2   -1    0    0    0  501  0.00000000000E+00  0.00000000000E+00 -0.17341861320E+04  0.17341861320E+04  0.25500000920E-02 0. -1.
    10030    2    1    2    0    0  0.00000000000E+00  0.00000000000E+00 -0.41044165899E+03  0.30579306051E+04  0.30302602578E+04 0.  0.
        4    1    3    3  502    0 -0.28158126957E+03 -0.46510476256E+03 -0.16323506459E+04  0.17205175662E+04  0.12699999809E+01 0. -1.
       -4    1    3    3    0  502  0.28158126957E+03  0.46510476256E+03  0.12219089869E+04  0.13374130389E+04  0.12699999809E+01 0.  1.
</event>
<event>
 5   0  0.1110956E-06  0.3504787E+04  0.7818609E-02  0.8112656E-01
        1   -1    0    0  501    0  0.00000000000E+00  0.00000000000E+00  0.23931607935E+04  0.23931607935E+04  0.50400001928E-02 0. -1.
       -1   -1    0    0    0  501  0.00000000000E+00  0.00000000000E+00 -0.12831915510E+04  0.12831915510E+04  0.50400001928E-02 0.  1.
    10030    2    1    2    0    0  0.00000000000E+00  0.00000000000E+00  0.11099692425E+04  0.36763523446E+04  0.35047874175E+04 0.  0.
        1    1    3    3  502    0  0.89865821569E+03 -0.13097079404E+04  0.13314654904E+04  0.20726123202E+04  0.50400001928E-02 0. -1.
       -1    1    3    3    0  502 -0.89865821569E+03  0.13097079404E+04 -0.22149624787E+03  0.16037400243E+04  0.50400001928E-02 0.  1.
</event>
<event>
 5   0  0.1130707E-06  0.3499266E+04  0.7818609E-02  0.8113964E-01
        1   -1    0    0  501    0  0.00000000000E+00  0.00000000000E+00  0.27599704215E+04  0.27599704215E+04  0.50400001928E-02 0. -1.
       -1   -1    0    0    0  501  0.00000000000E+00  0.00000000000E+00 -0.11091480355E+04  0.11091480355E+04  0.50400001928E-02 0.  1.
    10030    2    1    2    0    0  0.00000000000E+00  0.00000000000E+00  0.16508223861E+04  0.38691184570E+04  0.34992660780E+04 0.  0.
        3    1    3    3  502    0 -0.99791827831E+03  0.35117383979E+03 -0.71545690946E+03  0.12771227644E+04  0.10100000352E+00 0.  1.
       -3    1    3    3    0  502  0.99791827831E+03 -0.35117383979E+03  0.23662792955E+04  0.25919956926E+04  0.10100000352E+00 0. -1.
</event>
<event>
 5   0  0.1908726E-06  0.1893485E+04  0.7818609E-02  0.8658106E-01
       -2   -1    0    0    0  501  0.00000000000E+00  0.00000000000E+00  0.89310358460E+03  0.89310358461E+03  0.25500000920E-02 0. -1.
        2   -1    0    0  501    0  0.00000000000E+00  0.00000000000E+00 -0.10036024519E+04  0.10036024519E+04  0.25500000920E-02 0.  1.
    10030    2    1    2    0    0  0.00000000000E+00  0.00000000000E+00 -0.11049886726E+03  0.18967060365E+04  0.18934845627E+04 0.  0.
        5    1    3    3  502    0  0.63266455493E+02  0.87027144614E+03  0.31269528762E+03  0.92691718468E+03  0.46999998093E+01 0. -1.
       -5    1    3    3    0  502 -0.63266455493E+02 -0.87027144614E+03 -0.42319415488E+03  0.96978885180E+03  0.46999998093E+01 0.  1.
</event>
<event>
 5   0  0.3041329E-06  0.3442548E+04  0.7818609E-02  0.8127542E-01
       -2   -1    0    0    0  501  0.00000000000E+00  0.00000000000E+00  0.14592729817E+04  0.14592729817E+04  0.25500000920E-02 0.  1.
        2   -1    0    0  501    0  0.00000000000E+00  0.00000000000E+00 -0.20303153208E+04  0.20303153208E+04  0.25500000920E-02 0. -1.
    10030    2    1    2    0    0  0.00000000000E+00  0.00000000000E+00 -0.57104233913E+03  0.34895883025E+04  0.34425480633E+04 0.  0.
        2    1    3    3  502    0 -0.44383557041E+03 -0.50075987094E+03 -0.18930771137E+04  0.20078574204E+04  0.25500000920E-02 0. -1.
       -2    1    3    3    0  502  0.44383557041E+03  0.50075987094E+03  0.13220347746E+04  0.14817308822E+04  0.25500000920E-02 0.  1.
</event>
<event>
 5   0  0.1130707E-06  0.3533745E+04  0.7818609E-02  0.8105839E-01
       -1   -1    0    0    0  501  0.00000000000E+00  0.00000000000E+00  0.22408330120E+04  0.22408330120E+04  0.50400001928E-02 0. -1.
        1   -1    0    0  501    0  0.00000000000E+00  0.00000000000E+00 -0.13931601680E+04  0.13931601680E+04  0.50400001928E-02 0.  1.
    10030    2    1    2    0    0  0.00000000000E+00  0.00000000000E+00  0.84767284394E+03  0.36339931800E+04  0.35337454891E+04 0.  0.
        3    1    3    3  502    0 -0.17422713497E+04  0.42974547049E+01  0.72595875089E+03  0.18874702759E+04  0.10100000352E+00 0. -1.
       -3    1    3    3    0  502  0.17422713497E+04 -0.42974547049E+01  0.12171409304E+03  0.17465229041E+04  0.10100000352E+00 0.  1.
</event>
<event>
 5   0  0.1782660E-06  0.2934880E+04  0.7818609E-02  0.8262575E-01
        2   -1    0    0  501    0  0.00000000000E+00  0.00000000000E+00  0.20016219713E+04  0.20016219713E+04  0.25500000920E-02 0. -1.
       -2   -1    0    0    0  501  0.00000000000E+00  0.00000000000E+00 -0.10758173812E+04  0.10758173812E+04  0.25500000920E-02 0.  1.
    10030    2    1    2    0    0  0.00000000000E+00  0.00000000000E+00  0.92580459010E+03  0.30774393526E+04  0.29348796960E+04 0.  0.
        4    1    3    3  502    0 -0.25823092294E+03 -0.66287173797E+03  0.18087162084E+04  0.19435889704E+04  0.12699999809E+01 0. -1.
       -4    1    3    3    0  502  0.25823092294E+03  0.66287173797E+03 -0.88291161827E+03  0.11338503822E+04  0.12699999809E+01 0.  1.
</event>
<event>
 5   0  0.1782660E-06  0.2272258E+04  0.7818609E-02  0.8488940E-01
       -2   -1    0    0    0  501  0.00000000000E+00  0.00000000000E+00  0.54080378308E+03  0.54080378308E+03  0.25500000920E-02 0. -1.
        2   -1    0    0  501    0  0.00000000000E+00  0.00000000000E+00 -0.23867980439E+04  0.23867980439E+04  0.25500000920E-02 0.  1.
    10030    2    1    2    0    0  0.00000000000E+00  0.00000000000E+00 -0.18459942608E+04  0.29276018270E+04  0.22722582702E+04 0.  0.
        4    1    3    3  502    0 -0.48560848293E+02  0.96565875759E+02 -0.23801575287E+04  0.23826108785E+04  0.12699999809E+01 0.  1.
       -4    1    3    3    0  502  0.48560848293E+02 -0.96565875759E+02  0.53416326781E+03  0.54499094848E+03  0.12699999809E+01 0. -1.
</event>
<event>
 5   0  0.1089337E-06  0.3482573E+04  0.7818609E-02  0.8117932E-01
       -1   -1    0    0    0  501  0.00000000000E+00  0.00000000000E+00  0.16174216129E+04  0.16174216129E+04  0.50400001928E-02 0.  1.
        1   -1    0    0  501    0  0.00000000000E+00  0.00000000000E+00 -0.18746374399E+04  0.18746374399E+04  0.50400001928E-02 0. -1.
    10030    2    1    2    0    0  0.00000000000E+00  0.00000000000E+00 -0.25721582698E+03  0.34920590528E+04  0.34825732508E+04 0.  0.
        2    1    3    3  502    0  0.14952334207E+04  0.89236971985E+03 -0.13431662046E+03  0.17464500147E+04  0.25500000920E-02 0. -1.
       -2    1    3    3    0  502 -0.14952334207E+04 -0.89236971985E+03 -0.12289920652E+03  0.17456090382E+04  0.25500000920E-02 0.  1.
</event>
<event>
 5   0  0.3041329E-06  0.3529011E+04  0.7818609E-02  0.8106949E-01
       -2   -1    0    0    0  501  0.00000000000E+00  0.00000000000E+00  0.19804760030E+04  0.19804760030E+04  0.25500000920E-02 0. -1.
        2   -1    0    0  501    0  0.00000000000E+00  0.00000000000E+00 -0.15720864206E+04  0.15720864206E+04  0.25500000920E-02 0.  1.
    10030    2    1    2    0    0  0.00000000000E+00  0.00000000000E+00  0.40838958238E+03  0.35525624235E+04  0.35290108702E+04 0.  0.
        2    1    3    3  502    0  0.25179388522E+03  0.12064777062E+04 -0.10669637870E+04  0.16301534710E+04  0.25500000920E-02 0.  1.
       -2    1    3    3    0  502 -0.25179388522E+03 -0.12064777062E+04  0.14753533694E+04  0.19224089525E+04  0.25500000920E-02 0. -1.
</event>
<event>
 5   0  0.1130707E-06  0.3445510E+04  0.7818609E-02  0.8126826E-01
        1   -1    0    0  501    0  0.00000000000E+00  0.00000000000E+00  0.22391527079E+04  0.22391527079E+04  0.50400001928E-02 0.  1.
       -1   -1    0    0    0  501  0.00000000000E+00  0.00000000000E+00 -0.13254499960E+04  0.13254499960E+04  0.50400001928E-02 0. -1.
    10030    2    1    2    0    0  0.00000000000E+00  0.00000000000E+00  0.91370271188E+03  0.35646027040E+04  0.34455100916E+04 0.  0.
        3    1    3    3  502    0  0.63534480260E+02  0.69335943811E+03 -0.11734008558E+04  0.13644242446E+04  0.10100000352E+00 0. -1.
       -3    1    3    3    0  502 -0.63534480260E+02 -0.69335943811E+03  0.20871035677E+04  0.22001784594E+04  0.10100000352E+00 0.  1.
</event>
<event>
 5   0  0.1782660E-06  0.1834309E+04  0.7818609E-02  0.8688264E-01
        2   -1    0    0  501    0  0.00000000000E+00  0.00000000000E+00  0.62140585772E+03  0.62140585773E+03  0.25500000920E-02 0. -1.
       -2   -1    0    0    0  501  0.00000000000E+00  0.00000000000E+00 -0.13536607284E+04  0.13536607284E+04  0.25500000920E-02 0.  1.
    10030    2    1    2    0    0  0.00000000000E+00  0.00000000000E+00 -0.73225487068E+03  0.19750665861E+04  0.18343093589E+04 0.  0.
        4    1    3    3  502    0  0.67474697101E+03  0.58090331149E+03 -0.12915023250E+03  0.89967412303E+03  0.12699999809E+01 0. -1.
       -4    1    3    3    0  502 -0.67474697101E+03 -0.58090331149E+03 -0.60310463818E+03  0.10753924631E+04  0.12699999809E+01 0.  1.
</event>
<event>
 5   0  0.2565004E-06  0.2025455E+04  0.7818609E-02  0.8594811E-01
        2   -1    0    0  501    0  0.00000000000E+00  0.00000000000E+00  0.17636911325E+04  0.17636911325E+04  0.25500000920E-02 0. -1.
       -2   -1    0    0    0  501  0.00000000000E+00  0.00000000000E+00 -0.58151743813E+03  0.58151743813E+03  0.25500000920E-02 0.  1.
    10030    2    1    2    0    0  0.00000000000E+00  0.00000000000E+00  0.11821736943E+04  0.23452085706E+04  0.20254551577E+04 0.  0.
        3    1    3    3  502    0 -0.10115133721E+04 -0.30701111040E+02  0.63615866828E+03  0.11953241073E+04  0.10100000352E+00 0.  1.
       -3    1    3    3    0  502  0.10115133721E+04  0.30701111040E+02  0.54601502605E+03  0.11498844633E+04  0.10100000352E+00 0. -1.
</event>
<event>
 5   0  0.1908726E-06  0.3518195E+04  0.7818609E-02  0.8109491E-01
       -2   -1    0    0    0  501  0.00000000000E+00  0.00000000000E+00  0.21465889063E+04  0.21465889063E+04  0.25500000920E-02 0.  1.
        2   -1    0    0  501    0  0.00000000000E+00  0.00000000000E+00 -0.14415539893E+04  0.14415539893E+04  0.25500000920E-02 0. -1.
    10030    2    1    2    0    0  0.00000000000E+00  0.00000000000E+00  0.70503491697E+03  0.35881428956E+04  0.35181948788E+04 0.  0.
        5    1    3    3  502    0  0.12445927393E+03  0.17179810121E+04 -0.11585829455E+02  0.17225287197E+04  0.46999998093E+01 0. -1.
       -5    1    3    3    0  502 -0.12445927393E+03 -0.17179810121E+04  0.71662074643E+03  0.18656141758E+04  0.46999998093E+01 0.  1.
</event>
<event>
 5   0  0.2565004E-06  0.3304222E+04  0.7818609E-02  0.8161822E-01
       -2   -1    0    0    0  501  0.00000000000E+00  0.00000000000E+00  0.12532176945E+04  0.12532176945E+04  0.25500000920E-02 0. -1.
        2   -1    0    0  501    0  0.00000000000E+00  0.00000000000E+00 -0.21779699832E+04  0.21779699832E+04  0.25500000920E-02 0.  1.
    10030    2    1    2    0    0  0.00000000000E+00  0.00000000000E+00 -0.92475228869E+03  0.34311876777E+04  0.33042218576E+04 0.  0.
        3    1    3    3  502    0  0.76302699762E+03  0.10963959451E+04  0.54718278045E+03  0.14435038181E+04  0.10100000352E+00 0.  1.
       -3    1    3    3    0  502 -0.76302699762E+03 -0.10963959451E+04 -0.14719350691E+04  0.19876838595E+04  0.10100000352E+00 0. -1.
</event>
<event>
 5   0  0.1130707E-06  0.3067148E+04  0.7818609E-02  0.8224812E-01
        1   -1    0    0  501    0  0.00000000000E+00  0.00000000000E+00  0.26203037629E+04  0.26203037629E+04  0.50400001928E-02 0. -1.
       -1   -1    0    0    0  501  0.00000000000E+00  0.00000000000E+00 -0.89754853603E+03  0.89754853605E+03  0.50400001928E-02 0.  1.
    10030    2    1    2    0    0  0.00000000000E+00  0.00000000000E+00  0.17227552269E+04  0.35178522990E+04  0.30671483866E+04 0.  0.
        3    1    3    3  502    0  0.52403663263E+03  0.12694362380E+04  0.16441350291E+04  0.21422564643E+04  0.10100000352E+00 0. -1.
       -3    1    3    3    0  502 -0.52403663263E+03 -0.12694362380E+04  0.78620197772E+02  0.13755958347E+04  0.10100000352E+00 0.  1.
</event>
<event>
 5   0  0.1102175E-06  0.2375690E+04  0.7818609E-02  0.8448661E-01
       -1   -1    0    0    0  501  0.00000000000E+00  0.00000000000E+00  0.83628865694E+03  0.83628865696E+03  0.50400001928E-02 0. -1.
        1   -1    0    0  501    0  0.00000000000E+00  0.00000000000E+00 -0.16871874743E+04  0.16871874743E+04  0.50400001928E-02 0.  1.
    10030    2    1    2    0    0  0.00000000000E+00  0.00000000000E+00 -0.85089881731E+03  0.25234761312E+04  0.23756900024E+04 0.  0.
        5    1    3    3  502    0  0.10528678094E+02  0.31385750938E+03  0.79138644267E+03  0.85142937517E+03  0.46999998093E+01 0. -1.
       -5    1    3    3    0  502 -0.10528678094E+02 -0.31385750938E+03 -0.16422852600E+04  0.16720467561E+04  0.46999998093E+01 0.  1.
</event>
<event>
 5   0  0.1908726E-06  0.2413498E+04  0.7818609E-02  0.8434467E-01
       -2   -1    0    0    0  501  0.00000000000E+00  0.00000000000E+00  0.94722484845E+03  0.94722484845E+03  0.25500000920E-02 0.  1.
        2   -1    0    0  501    0  0.00000000000E+00  0.00000000000E+00 -0.15373789179E+04  0.15373789179E+04  0.25500000920E-02 0. -1.
    10030    2    1    2    0    0  0.00000000000E+00  0.00000000000E+00 -0.59015406943E+03  0.24846037663E+04  0.24134983012E+04 0.  0.
        5    1    3    3  502    0  0.93112054217E+03  0.38340778880E+03  0.38952220966E+03  0.10796928445E+04  0.46999998093E+01 0.  1.
       -5    1    3    3    0  502 -0.93112054217E+03 -0.38340778880E+03 -0.97967627909E+03  0.14049109219E+04  0.46999998093E+01 0. -1.
</event>
<event>
 5   0  0.1782660E-06  0.3496422E+04  0.7818609E-02  0.8114638E-01
       -2   -1    0    0    0  501  0.00000000000E+00  0.00000000000E+00  0.15300123436E+04  0.15300123436E+04  0.25500000920E-02 0. -1.
        2   -1    0    0  501    0  0.00000000000E+00  0.00000000000E+00 -0.19975274604E+04  0.19975274604E+04  0.25500000920E-02 0.  1.
    10030    2    1    2    0    0  0.00000000000E+00  0.00000000000E+00 -0.46751511687E+03  0.35275398040E+04  0.34964219832E+04 0.  0.
        4    1    3    3  502    0  0.34296987410E+02  0.16812614039E+04 -0.71594824760E+03  0.18276760374E+04  0.12699999809E+01 0.  1.
       -4    1    3    3    0  502 -0.34296987410E+02 -0.16812614039E+04  0.24843313073E+03  0.16998637666E+04  0.12699999809E+01 0. -1.
</event>
<event>
 5   0  0.1371173E-06  0.1836370E+04  0.7818609E-02  0.8687194E-01
        1   -1    0    0  501    0  0.00000000000E+00  0.00000000000E+00  0.11688297268E+04  0.11688297268E+04  0.50400001928E-02 0. -1.
       -1   -1    0    0    0  501  0.00000000000E+00  0.00000000000E+00 -0.72128871952E+03  0.72128871954E+03  0.50400001928E-02 0.  1.
    10030    2    1    2    0    0  0.00000000000E+00  0.00000000000E+00  0.44754100728E+03  0.18901184464E+04  0.18363700030E+04 0.  0.
        2    1    3    3  502    0  0.30674958665E+03 -0.12959320716E+03 -0.65694568364E+03  0.73652382142E+03  0.25500000920E-02 0.  1.
       -2    1    3    3    0  502 -0.30674958665E+03  0.12959320716E+03  0.11044866909E+04  0.11535946249E+04  0.25500000920E-02 0. -1.
</event>
<event>
 5   0  0.2565004E-06  0.3486905E+04  0.7818609E-02  0.8116900E-01
        2   -1    0    0  501    0  0.00000000000E+00  0.00000000000E+00  0.14176163904E+04  0.14176163904E+04  0.25500000920E-02 0. -1.
       -2   -1    0    0    0  501  0.00000000000E+00  0.00000000000E+00 -0.21441815936E+04  0.21441815936E+04  0.25500000920E-02 0.  1.
    10030    2    1    2    0    0  0.00000000000E+00  0.00000000000E+00 -0.72656520319E+03  0.35617979840E+04  0.34869052015E+04 0.  0.
        3    1    3    3  502    0  0.66915382778E+03 -0.11893116638E+04 -0.14716679302E+04  0.20069966582E+04  0.10100000352E+00 0.  1.
       -3    1    3    3    0  502 -0.66915382778E+03  0.11893116638E+04  0.74510272702E+03  0.15548013258E+04  0.10100000352E+00 0. -1.
</event>
<event>
 5   0  0.1110956E-06  0.3142931E+04  0.7818609E-02  0.8204054E-01
       -1   -1    0    0    0  501  0.00000000000E+00  0.00000000000E+00  0.14082910241E+04  0.14082910241E+04  0.50400001928E-02 0.  1.
        1   -1    0    0  501    0  0.00000000000E+00  0.00000000000E+00 -0.17535461102E+04  0.17535461103E+04  0.50400001928E-02 0. -1.
    10030    2    1    2    0    0  0.00000000000E+00  0.00000000000E+00 -0.34525508615E+03  0.31618371344E+04  0.31429306371E+04 0.  0.
        1    1    3    3  502    0  0.14948274611E+04 -0.72566867568E+02 -0.65481045476E+03  0.16335702680E+04  0.50400001928E-02 0. -1.
       -1    1    3    3    0  502 -0.14948274611E+04  0.72566867568E+02  0.30955536861E+03  0.15282668664E+04  0.50400001928E-02 0.  1.
</event>
<event>
 5   0  0.1125196E-06  0.3485984E+04  0.7818609E-02  0.8117120E-01
        1   -1    0    0  501    0  0.00000000000E+00  0.00000000000E+00  0.18993356747E+04  0.18993356747E+04  0.50400001928E-02 0. -1.
       -1   -1    0    0    0  501  0.00000000000E+00  0.00000000000E+00 -0.15995178565E+04  0.15995178565E+04  0.50400001928E-02 0.  1.
    10030    2    1    2    0    0  0.00000000000E+00  0.00000000000E+00  0.29981781818E+03  0.34988535312E+04  0.34859841234E+04 0.  0.
        4    1    3    3  502    0 -0.15308969763E+04 -0.35880244287E+03 -0.60495468943E+03  0.16847422753E+04  0.12699999809E+01 0.  1.
       -4    1    3    3    0  502  0.15308969763E+04  0.35880244287E+03  0.90477250761E+03  0.18141112558E+04  0.12699999809E+01 0. -1.
</event>
<event>
 5   0  0.1102175E-06  0.1742521E+04  0.7818609E-02  0.8737478E-01
       -1   -1    0    0    0  501  0.00000000000E+00  0.00000000000E+00  0.72130606047E+03  0.72130606049E+03  0.50400001928E-02 0. -1.
        1   -1    0    0  501    0  0.00000000000E+00  0.00000000000E+00 -0.10523894185E+04  0.10523894185E+04  0.50400001928E-02 0.  1.
    10030    2    1    2    0    0  0.00000000000E+00  0.00000000000E+00 -0.33108335807E+03  0.17736954790E+04  0.17425210077E+04 0.  0.
        5    1    3    3  502    0  0.44847973834E+03  0.27444305893E+03 -0.87267868012E+03  0.10188440690E+04  0.46999998093E+01 0.  1.
       -5    1    3    3    0  502 -0.44847973834E+03 -0.27444305893E+03  0.54159532205E+03  0.75485140999E+03  0.46999998093E+01 0. -1.
</event>
<event>
 5   0  0.1130707E-06  0.1922906E+04  0.7818609E-02  0.8643538E-01
       -1   -1    0    0    0  501  0.00000000000E+00  0.00000000000E+00  0.72791791029E+03  0.72791791031E+03  0.50400001928E-02 0.  1.
        1   -1    0    0  501    0  0.00000000000E+00  0.00000000000E+00 -0.12699116809E+04  0.12699116809E+04  0.50400001928E-02 0. -1.
    10030    2    1    2    0    0  0.00000000000E+00  0.00000000000E+00 -0.54199377060E+03  0.19978295912E+04  0.19229055692E+04 0.  0.
        3    1    3    3  502    0 -0.24623678202E+03  0.92713367148E+03 -0.33818540211E+03  0.10171424551E+04  0.10100000352E+00 0. -1.
       -3    1    3    3    0  502  0.24623678202E+03 -0.92713367148E+03 -0.20380836849E+03  0.98068713609E+03  0.10100000352E+00 0.  1.
</event>
<event>
 5   0  0.3041329E-06  0.3356845E+04  0.7818609E-02  0.8148580E-01
        2   -1    0    0  501    0  0.00000000000E+00  0.00000000000E+00  0.22376036350E+04  0.22376036350E+04  0.25500000920E-02 0. -1.
       -2   -1    0    0    0  501  0.00000000000E+00  0.00000000000E+00 -0.12589817268E+04  0.12589817268E+04  0.25500000920E-02 0.  1.
    10030    2    1    2    0    0  0.00000000000E+00  0.00000000000E+00  0.97862190822E+03  0.34965853618E+04  0.33568449998E+04 0.  0.
        2    1    3    3  502    0 -0.10102449163E+04  0.45748347560E+03  0.18016041766E+04  0.21155764062E+04  0.25500000920E-02 0. -1.
       -2    1    3    3    0  502  0.10102449163E+04 -0.45748347560E+03 -0.82298226840E+03  0.13810089556E+04  0.25500000920E-02 0.  1.
</event>
<event>
 5   0  0.2565004E-06  0.3522094E+04  0.7818609E-02  0.8108574E-01
       -2   -1    0    0    0  501  0.00000000000E+00  0.00000000000E+00  0.14645835042E+04  0.14645835042E+04  0.25500000920E-02 0. -1.
        2   -1    0    0  501    0  0.00000000000E+00  0.00000000000E+00 -0.21175210144E+04  0.21175210144E+04  0.25500000920E-02 0.  1.
    10030    2    1    2    0    0  0.00000000000E+00  0.00000000000E+00 -0.65293751021E+03  0.35821045186E+04  0.35220938928E+04 0.  0.
        3    1    3    3  502    0 -0.22502272395E+03  0.17405040894E+04 -0.47488885638E+03  0.18181059231E+04  0.10100000352E+00 0. -1.
       -3    1    3    3    0  502  0.22502272395E+03 -0.17405040894E+04 -0.17804865382E+03  0.17639985955E+04  0.10100000352E+00 0.  1.
</event>
<event>
 5   0  0.1089337E-06  0.2929083E+04  0.7818609E-02  0.8264277E-01
        1   -1    0    0  501    0  0.00000000000E+00  0.00000000000E+00  0.20949457231E+04  0.20949457231E+04  0.50400001928E-02 0.  1.
       -1   -1    0    0    0  501  0.00000000000E+00  0.00000000000E+00 -0.10238366393E+04  0.10238366393E+04  0.50400001928E-02 0. -1.
    10030    2    1    2    0    0  0.00000000000E+00  0.00000000000E+00  0.10711090838E+04  0.31187823624E+04  0.29290832619E+04 0.  0.
        2    1    3    3  502    0  0.66132323788E+03  0.82099769533E+03 -0.54689551506E+03  0.11876364533E+04  0.25500000920E-02 0. -1.
       -2    1    3    3    0  502 -0.66132323788E+03 -0.82099769533E+03  0.16180045988E+04  0.19311459092E+04  0.25500000920E-02 0.  1.
</event>
<event>
 5   0  0.1782660E-06  0.3550546E+04  0.7818609E-02  0.8101915E-01
       -2   -1    0    0    0  501  0.00000000000E+00  0.00000000000E+00  0.19043687212E+04  0.19043687212E+04  0.25500000920E-02 0.  1.
        2   -1    0    0  501    0  0.00000000000E+00  0.00000000000E+00 -0.16549281697E+04  0.16549281697E+04  0.25500000920E-02 0. -1.
    10030    2    1    2    0    0  0.00000000000E+00  0.00000000000E+00  0.24944055148E+03  0.35592968909E+04  0.35505455593E+04 0.  0.
        4    1    3    3  502    0 -0.16997764167E+04 -0.50753421503E+03  0.19389022317E+03  0.17844959730E+04  0.12699999809E+01 0. -1.
       -4    1    3    3    0  502  0.16997764167E+04  0.50753421503E+03  0.55550328312E+02  0.17748009179E+04  0.12699999809E+01 0.  1.
</event>
<event>
 5   0  0.1110956E-06  0.3397978E+04  0.7818609E-02  0.8138403E-01
       -1   -1    0    0    0  501  0.00000000000E+00  0.00000000000E+00  0.15974497541E+04  0.15974497541E+04  0.50400001928E-02 0. -1.
        1   -1    0    0  501    0  0.00000000000E+00  0.00000000000E+00 -0.18069825249E+04  0.18069825249E+04  0.50400001928E-02 0.  1.
    10030    2    1    2    0    0  0.00000000000E+00  0.00000000000E+00 -0.20953277076E+03  0.34044322790E+04  0.33979780988E+04 0.  0.
        1    1    3    3  502    0 -0.78741608339E+03 -0.31917911873E+03  0.13693080380E+04  0.16114912042E+04  0.50400001928E-02 0. -1.
       -1    1    3    3    0  502  0.78741608339E+03  0.31917911873E+03 -0.15788408088E+04  0.17929410748E+04  0.50400001928E-02 0.  1.
</event>
<event>
 5   0  0.3041329E-06  0.2203906E+04  0.7818609E-02  0.8516804E-01
       -2   -1    0    0    0  501  0.00000000000E+00  0.00000000000E+00  0.53211320469E+03  0.53211320470E+03  0.25500000920E-02 0.  1.
        2   -1    0    0  501    0  0.00000000000E+00  0.00000000000E+00 -0.22820346949E+04  0.22820346949E+04  0.25500000920E-02 0. -1.
    10030    2    1    2    0    0  0.00000000000E+00  0.00000000000E+00 -0.17499214902E+04  0.28141478996E+04  0.22039063453E+04 0.  0.
        2    1    3    3  502    0 -0.43379703699E+03 -0.32138828780E+02  0.41784824151E+03  0.60316658276E+03  0.25500000920E-02 0.  1.
       -2    1    3    3    0  502  0.43379703699E+03  0.32138828780E+02 -0.21677697318E+04  0.22109813169E+04  0.25500000920E-02 0. -1.
</event>
<event>
 5   0  0.3378848E-06  0.3270745E+04  0.7818609E-02  0.8170379E-01
       -2   -1    0    0    0  501  0.00000000000E+00  0.00000000000E+00  0.31070859912E+04  0.31070859912E+04  0.25500000920E-02 0.  1.
        2   -1    0    0  501    0  0.00000000000E+00  0.00000000000E+00 -0.86075622010E+03  0.86075622010E+03  0.25500000920E-02 0. -1.
    10030    2    1    2    0    0  0.00000000000E+00  0.00000000000E+00  0.22463297711E+04  0.39678422113E+04  0.32707452321E+04 0.  0.
        1    1    3    3  502    0  0.69678610673E+03  0.13384035761E+04  0.35821047808E+03  0.15508545250E+04  0.50400001928E-02 0. -1.
       -1    1    3    3    0  502 -0.69678610673E+03 -0.13384035761E+04  0.18881192930E+04  0.24169876863E+04  0.50400001928E-02 0.  1.
</event>
<event>
 5   0  0.1908726E-06  0.3507195E+04  0.7818609E-02  0.8112087E-01
       -2   -1    0    0    0  501  0.00000000000E+00  0.00000000000E+00  0.14939722997E+04  0.14939722997E+04  0.25500000920E-02 0.  1.
        2   -1    0    0  501    0  0.00000000000E+00  0.00000000000E+00 -0.20583410009E+04  0.20583410009E+04  0.25500000920E-02 0. -1.
    10030    2    1    2    0    0  0.00000000000E+00  0.00000000000E+00 -0.56436870117E+03  0.35523133005E+04  0.35071951406E+04 0.  0.
        5    1    3    3  502    0 -0.69957556850E+03  0.90032929061E+03 -0.16316465686E+04  0.19905505325E+04  0.46999998093E+01 0. -1.
       -5    1    3    3    0  502  0.69957556850E+03 -0.90032929061E+03  0.10672778674E+04  0.15617627681E+04  0.46999998093E+01 0.  1.
</event>
<event>
 5   0  0.1110956E-06  0.2178007E+04  0.7818609E-02  0.8527638E-01
        1   -1    0    0  501    0  0.00000000000E+00  0.00000000000E+00  0.13090930204E+04  0.13090930204E+04  0.50400001928E-02 0. -1.
       -1   -1    0    0    0  501  0.00000000000E+00  0.00000000000E+00 -0.90591650403E+03  0.90591650404E+03  0.50400001928E-02 0.  1.
    10030    2    1    2    0    0  0.00000000000E+00  0.00000000000E+00  0.40317651639E+03  0.22150095245E+04  0.21780073210E+04 0.  0.
        1    1    3    3  502    0  0.37341181191E+03 -0.15265341158E+03  0.12303014425E+04  0.12947513603E+04  0.50400001928E-02 0. -1.
       -1    1    3    3    0  502 -0.37341181191E+03  0.15265341158E+03 -0.82712492615E+03  0.92025816422E+03  0.50400001928E-02 0.  1.
</event>
<event>
 5   0  0.1042825E-06  0.3420586E+04  0.7818609E-02  0.8132872E-01
       -3   -1    0    0    0  501  0.00000000000E+00  0.00000000000E+00  0.19959039193E+04  0.19959039219E+04  0.10100000352E+00 0.  1.
        3   -1    0    0  501    0  0.00000000000E+00  0.00000000000E+00 -0.14655524733E+04  0.14655524768E+04  0.10100000352E+00 0. -1.
    10030    2    1    2    0    0  0.00000000000E+00  0.00000000000E+00  0.53035144598E+03  0.34614563987E+04  0.34205858772E+04 0.  0.
        3    1    3    3  502    0 -0.15913900158E+04  0.60253970982E+03  0.91292357535E+02  0.17040864383E+04  0.10100000352E+00 0. -1.
       -3    1    3    3    0  502  0.15913900158E+04 -0.60253970982E+03  0.43905908845E+03  0.17573699604E+04  0.10100000352E+00 0.  1.
</event>
<event>
 5   0  0.3378848E-06  0.1937331E+04  0.7818609E-02  0.8636494E-01
       -2   -1    0    0    0  501  0.00000000000E+00  0.00000000000E+00  0.55407429300E+03  0.55407429301E+03  0.25500000920E-02 0.  1.
        2   -1    0    0  501    0  0.00000000000E+00  0.00000000000E+00 -0.16934777569E+04  0.16934777569E+04  0.25500000920E-02 0. -1.
    10030    2    1    2    0    0  0.00000000000E+00  0.00000000000E+00 -0.11394034639E+04  0.22475520499E+04  0.19373306284E+04 0.  0.
        1    1    3    3  502    0 -0.45694758080E+03  0.15288385668E+03  0.40517741850E+03  0.62955802411E+03  0.50400001928E-02 0. -1.
       -1    1    3    3    0  502  0.45694758080E+03 -0.15288385668E+03 -0.15445808824E+04  0.16179940258E+04  0.50400001928E-02 0.  1.
</event>
<event>
 5   0  0.3378848E-06  0.2062400E+04  0.7818609E-02  0.8577990E-01
       -2   -1    0    0    0  501  0.00000000000E+00  0.00000000000E+00  0.48287808949E+03  0.48287808950E+03  0.25500000920E-02 0. -1.
        2   -1    0    0  501    0  0.00000000000E+00  0.00000000000E+00 -0.22021569243E+04  0.22021569243E+04  0.25500000920E-02 0.  1.
    10030    2    1    2    0    0  0.00000000000E+00  0.00000000000E+00 -0.17192788348E+04  0.26850350138E+04  0.20623998918E+04 0.  0.
        1    1    3    3  502    0  0.88990126177E+03 -0.15234015313E+03 -0.15082952293E+04  0.17578641235E+04  0.50400001928E-02 0.  1.
       -1    1    3    3    0  502 -0.88990126177E+03  0.15234015313E+03 -0.21098360549E+03  0.92717089027E+03  0.50400001928E-02 0. -1.
</event>
<event>
 5   0  0.3041329E-06  0.2740860E+04  0.7818609E-02  0.8321868E-01
        2   -1    0    0  501    0  0.00000000000E+00  0.00000000000E+00  0.16260557708E+04  0.16260557708E+04  0.25500000920E-02 0. -1.
       -2   -1    0    0    0  501  0.00000000000E+00  0.00000000000E+00 -0.11549898314E+04  0.11549898314E+04  0.25500000920E-02 0.  1.
    10030    2    1    2    0    0  0.00000000000E+00  0.00000000000E+00  0.47106593940E+03  0.27810456021E+04  0.27408596319E+04 0.  0.
        2    1    3    3  502    0  0.78821686713E+03  0.10493545245E+04 -0.16477282598E+03  0.13227172154E+04  0.25500000920E-02 0.  1.
       -2    1    3    3    0  502 -0.78821686713E+03 -0.10493545245E+04  0.63583876538E+03  0.14583283867E+04  0.25500000920E-02 0. -1.
</event>
<event>
 5   0  0.1089337E-06  0.3466589E+04  0.7818609E-02  0.8121754E-01
        1   -1    0    0  501    0  0.00000000000E+00  0.00000000000E+00  0.15230760477E+04  0.15230760477E+04  0.50400001928E-02 0.  1.
       -1   -1    0    0    0  501  0.00000000000E+00  0.00000000000E+00 -0.19725276504E+04  0.19725276504E+04  0.50400001928E-02 0. -1.
    10030    2    1    2    0    0  0.00000000000E+00  0.00000000000E+00 -0.44945160269E+03  0.34956036981E+04  0.34665888812E+04 0.  0.
        2    1    3    3  502    0 -0.74019731005E+03  0.15267758329E+04 -0.58177006532E+03  0.17937092603E+04  0.25500000920E-02 0. -1.
       -2    1    3    3    0  502  0.74019731005E+03 -0.15267758329E+04  0.13231846263E+03  0.17018944378E+04  0.25500000920E-02 0.  1.
</event>
<event>
 5   0  0.1782660E-06  0.3275199E+04  0.7818609E-02  0.8169235E-01
       -2   -1    0    0    0  501  0.00000000000E+00  0.00000000000E+00  0.11796227827E+04  0.11796227827E+04  0.25500000920E-02 0.  1.
        2   -1    0    0  501    0  0.00000000000E+00  0.00000000000E+00 -0.22733811556E+04  0.22733811556E+04  0.25500000920E-02 0. -1.
    10030    2    1    2    0    0  0.00000000000E+00  0.00000000000E+00 -0.10937583729E+04  0.34530039383E+04  0.32751990504E+04 0.  0.
        4    1    3    3  502    0  0.97514354783E+03  0.83173506310E+03 -0.16215513932E+04  0.20669104208E+04  0.12699999809E+01 0.  1.
       -4    1    3    3    0  502 -0.97514354783E+03 -0.83173506310E+03  0.52779302024E+03  0.13860935175E+04  0.12699999809E+01 0. -1.
</event>
<event>
 5   0  0.3378848E-06  0.1757161E+04  0.7818609E-02  0.8729418E-01
        2   -1    0    0  501    0  0.00000000000E+00  0.00000000000E+00  0.46156653654E+03  0.46156653655E+03  0.25500000920E-02 0. -1.
       -2   -1    0    0    0  501  0.00000000000E+00  0.00000000000E+00 -0.16723561143E+04  0.16723561143E+04  0.25500000920E-02 0.  1.
    10030    2    1    2    0    0  0.00000000000E+00  0.00000000000E+00 -0.12107895777E+04  0.21339226508E+04  0.17571609141E+04 0.  0.
        1    1    3    3  502    0  0.55804904893E+03  0.67589361540E+03 -0.53199850173E+03  0.10253162079E+04  0.50400001928E-02 0. -1.
       -1    1    3    3    0  502 -0.55804904893E+03 -0.67589361540E+03 -0.67879107598E+03  0.11086064429E+04  0.50400001928E-02 0.  1.
</event>
<event>
 5   0  0.1908726E-06  0.3278123E+04  0.7818609E-02  0.8168484E-01
       -2   -1    0    0    0  501  0.00000000000E+00  0.00000000000E+00  0.16143329293E+04  0.16143329293E+04  0.25500000920E-02 0.  1.
        2   -1    0    0  501    0  0.00000000000E+00  0.00000000000E+00 -0.16641689273E+04  0.16641689273E+04  0.25500000920E-02 0. -1.
    10030    2    1    2    0    0  0.00000000000E+00  0.00000000000E+00 -0.49835998000E+02  0.32785018565E+04  0.32781230600E+04 0.  0.
        5    1    3    3  502    0 -0.14831378981E+04 -0.60121677626E+03 -0.37899417876E+03  0.16446331853E+04  0.46999998093E+01 0.  1.
       -5    1    3    3    0  502  0.14831378981E+04  0.60121677626E+03  0.32915818076E+03  0.16338686712E+04  0.46999998093E+01 0. -1.
</event>
<event>
 5   0  0.1102175E-06  0.2373694E+04  0.7818609E-02  0.8449418E-01
        1   -1    0    0  501    0  0.00000000000E+00  0.00000000000E+00  0.12746180681E+04  0.12746180681E+04  0.50400001928E-02 0.  1.
       -1   -1    0    0    0  501  0.00000000000E+00  0.00000000000E+00 -0.11051196427E+04  0.11051196427E+04  0.50400001928E-02 0. -1.
    10030    2    1    2    0    0  0.00000000000E+00  0.00000000000E+00  0.16949842537E+03  0.23797377108E+04  0.23736937157E+04 0.  0.
        5    1    3    3  502    0 -0.54770051482E+03 -0.54387428579E+02  0.11389252868E+04  0.12649532581E+04  0.46999998093E+01 0.  1.
       -5    1    3    3    0  502  0.54770051482E+03  0.54387428579E+02 -0.96942686141E+03  0.11147844527E+04  0.46999998093E+01 0. -1.
</event>
<event>
 5   0  0.1089337E-06  0.3498848E+04  0.7818609E-02  0.8114063E-01
       -1   -1    0    0    0  501  0.00000000000E+00  0.00000000000E+00  0.16317505189E+04  0.16317505189E+04  0.50400001928E-02 0. -1.
        1   -1    0    0  501    0  0.00000000000E+00  0.00000000000E+00 -0.18755839683E+04  0.18755839683E+04  0.50400001928E-02 0.  1.
    10030    2    1    2    0    0  0.00000000000E+00  0.00000000000E+00 -0.24383344941E+03  0.35073344872E+04  0.34988484469E+04 0.  0.
        2    1    3    3  502    0 -0.17407455917E+04 -0.17354855413E+03 -0.10881605849E+03  0.17527564720E+04  0.25500000920E-02 0. -1.
       -2    1    3    3    0  502  0.17407455917E+04  0.17354855413E+03 -0.13501739093E+03  0.17545780152E+04  0.25500000920E-02 0.  1.
</event>
<event>
 5   0  0.1782660E-06  0.3489880E+04  0.7818609E-02  0.8116192E-01
       -2   -1    0    0    0  501  0.00000000000E+00  0.00000000000E+00  0.21205694087E+04  0.21205694087E+04  0.25500000920E-02 0.  1.
        2   -1    0    0  501    0  0.00000000000E+00  0.00000000000E+00 -0.14358481302E+04  0.14358481302E+04  0.25500000920E-02 0. -1.
    10030    2    1    2    0    0  0.00000000000E+00  0.00000000000E+00  0.68472127851E+03  0.35564175389E+04  0.34898800096E+04 0.  0.
        4    1    3    3  502    0  0.65998476956E+03 -0.47364174598E+03 -0.12313943400E+04  0.14752118604E+04  0.12699999809E+01 0. -1.
       -4    1    3    3    0  502 -0.65998476956E+03  0.47364174598E+03  0.19161156185E+04  0.20812056785E+04  0.12699999809E+01 0.  1.
</event>
<event>
 5   0  0.1110956E-06  0.2925114E+04  0.7818609E-02  0.8265444E-01
        1   -1    0    0  501    0  0.00000000000E+00  0.00000000000E+00  0.12336547627E+04  0.12336547627E+04  0.50400001928E-02 0. -1.
       -1   -1    0    0    0  501  0.00000000000E+00  0.00000000000E+00 -0.17339317152E+04  0.17339317153E+04  0.50400001928E-02 0.  1.
    10030    2    1    2    0    0  0.00000000000E+00  0.00000000000E+00 -0.50027695252E+03  0.29675864780E+04  0.29251140961E+04 0.  0.
        1    1    3    3  502    0 -0.12030271473E+04  0.41366427510E+03  0.48192088727E+03  0.13603823695E+04  0.50400001928E-02 0. -1.
       -1    1    3    3    0  502  0.12030271473E+04 -0.41366427510E+03 -0.98219783979E+03  0.16072041085E+04  0.50400001928E-02 0.  1.
</event>
<event>
 5   0  0.1089337E-06  0.3474378E+04  0.7818609E-02  0.8119889E-01
        1   -1    0    0  501    0  0.00000000000E+00  0.00000000000E+00  0.14492844619E+04  0.14492844619E+04  0.50400001928E-02 0.  1.
       -1   -1    0    0    0  501  0.00000000000E+00  0.00000000000E+00 -0.20822861583E+04  0.20822861583E+04  0.50400001928E-02 0. -1.
    10030    2    1    2    0    0  0.00000000000E+00  0.00000000000E+00 -0.63300169644E+03  0.35315706202E+04  0.34743776274E+04 0.  0.
        2    1    3    3  502    0 -0.11532543090E+04 -0.45016500582E+03 -0.15552419820E+04  0.19878183156E+04  0.25500000920E-02 0. -1.
       -2    1    3    3    0  502  0.11532543090E+04  0.45016500582E+03  0.92224028551E+03  0.15437523046E+04  0.25500000920E-02 0.  1.
</event>
<event>
 5   0  0.3378848E-06  0.3539794E+04  0.7818609E-02  0.8104424E-01
        2   -1    0    0  501    0  0.00000000000E+00  0.00000000000E+00  0.17303746858E+04  0.17303746858E+04  0.25500000920E-02 0.  1.
       -2   -1    0    0    0  501  0.00000000000E+00  0.00000000000E+00 -0.18103217243E+04  0.18103217243E+04  0.25500000920E-02 0. -1.
    10030    2    1    2    0    0  0.00000000000E+00  0.00000000000E+00 -0.79947038506E+02  0.35406964101E+04  0.35397937143E+04 0.  0.
        1    1    3    3  502    0 -0.60435600601E+03  0.10278552584E+04 -0.13482834741E+04  0.17998891468E+04  0.50400001928E-02 0. -1.
       -1    1    3    3    0  502  0.60435600601E+03 -0.10278552584E+04  0.12683364356E+04  0.17408072633E+04  0.50400001928E-02 0.  1.
</event>
<event>
 5   0  0.1102175E-06  0.2478210E+04  0.7818609E-02  0.8410790E-01
       -1   -1    0    0    0  501  0.00000000000E+00  0.00000000000E+00  0.67752046059E+03  0.67752046061E+03  0.50400001928E-02 0. -1.
        1   -1    0    0  501    0  0.00000000000E+00  0.00000000000E+00 -0.22661764715E+04  0.22661764715E+04  0.50400001928E-02 0.  1.
    10030    2    1    2    0    0  0.00000000000E+00  0.00000000000E+00 -0.15886560109E+04  0.29436969321E+04  0.24782097787E+04 0.  0.
        5    1    3    3  502    0 -0.94645171075E+03 -0.67511437795E+03 -0.28506994665E+03  0.11970117913E+04  0.46999998093E+01 0. -1.
       -5    1    3    3    0  502  0.94645171075E+03  0.67511437795E+03 -0.13035860642E+04  0.17466851407E+04  0.46999998093E+01 0.  1.
</event>
<event>
 5   0  0.1089337E-06  0.3509718E+04  0.7818609E-02  0.8111491E-01
        1   -1    0    0  501    0  0.00000000000E+00  0.00000000000E+00  0.14749584704E+04  0.14749584704E+04  0.50400001928E-02 0. -1.
       -1   -1    0    0    0  501  0.00000000000E+00  0.00000000000E+00 -0.20878753356E+04  0.20878753356E+04  0.50400001928E-02 0.  1.
    10030    2    1    2    0    0  0.00000000000E+00  0.00000000000E+00 -0.61291686517E+03  0.35628338060E+04  0.35097176019E+04 0.  0.
        2    1    3    3  502    0 -0.11232275376E+04 -0.11247550545E+04  0.44830951389E+03  0.16515736297E+04  0.25500000920E-02 0. -1.
       -2    1    3    3    0  502  0.11232275376E+04  0.11247550545E+04 -0.10612263791E+04  0.19112601763E+04  0.25500000920E-02 0.  1.
</event>
<event>
 5   0  0.1089337E-06  0.2356921E+04  0.7818609E-02  0.8455810E-01
       -1   -1    0    0    0  501  0.00000000000E+00  0.00000000000E+00  0.65022010528E+03  0.65022010530E+03  0.50400001928E-02 0. -1.
        1   -1    0    0  501    0  0.00000000000E+00  0.00000000000E+00 -0.21358450096E+04  0.21358450096E+04  0.50400001928E-02 0.  1.
    10030    2    1    2    0    0  0.00000000000E+00  0.00000000000E+00 -0.14856249043E+04  0.27860651149E+04  0.23569211841E+04 0.  0.
        2    1    3    3  502    0  0.63928111441E+03  0.51928050134E+03  0.25353065936E+03  0.86174844215E+03  0.25500000920E-02 0.  1.
       -2    1    3    3    0  502 -0.63928111441E+03 -0.51928050134E+03 -0.17391555637E+04  0.19243166727E+04  0.25500000920E-02 0. -1.
</event>
<event>
 5   0  0.1908726E-06  0.3467577E+04  0.7818609E-02  0.8121517E-01
        2   -1    0    0  501    0  0.00000000000E+00  0.00000000000E+00  0.18862118226E+04  0.18862118226E+04  0.25500000920E-02 0. -1.
       -2   -1    0    0    0  501  0.00000000000E+00  0.00000000000E+00 -0.15936821451E+04  0.15936821451E+04  0.25500000920E-02 0.  1.
    10030    2    1    2    0    0  0.00000000000E+00  0.00000000000E+00  0.29252967751E+03  0.34798939677E+04  0.34675767352E+04 0.  0.
        5    1    3    3  502    0  0.27003174512E+03 -0.16027401526E+04  0.75198720930E+03  0.17908657105E+04  0.46999998093E+01 0. -1.
       -5    1    3    3    0  502 -0.27003174512E+03  0.16027401526E+04 -0.45945753179E+03  0.16890282572E+04  0.46999998093E+01 0.  1.
</event>
<event>
 5   0  0.1782660E-06  0.2354579E+04  0.7818609E-02  0.8456707E-01
        2   -1    0    0  501    0  0.00000000000E+00  0.00000000000E+00  0.78956222856E+03  0.78956222857E+03  0.25500000920E-02 0.  1.
       -2   -1    0    0    0  501  0.00000000000E+00  0.00000000000E+00 -0.17554163162E+04  0.17554163162E+04  0.25500000920E-02 0. -1.
    10030    2    1    2    0    0  0.00000000000E+00  0.00000000000E+00 -0.96585408767E+03  0.25449785448E+04  0.23545788742E+04 0.  0.
        4    1    3    3  502    0 -0.50548469287E+03  0.41165398127E+03 -0.15425234864E+04  0.16746205821E+04  0.12699999809E+01 0. -1.
       -4    1    3    3    0  502  0.50548469287E+03 -0.41165398127E+03  0.57666939868E+03  0.87035796274E+03  0.12699999809E+01 0.  1.
</event>
<event>
 5   0  0.1130707E-06  0.3572633E+04  0.7818609E-02  0.8096789E-01
        1   -1    0    0  501    0  0.00000000000E+00  0.00000000000E+00  0.30203487560E+04  0.30203487560E+04  0.50400001928E-02 0.  1.
       -1   -1    0    0    0  501  0.00000000000E+00  0.00000000000E+00 -0.10564765116E+04  0.10564765116E+04  0.50400001928E-02 0. -1.
    10030    2    1    2    0    0  0.00000000000E+00  0.00000000000E+00  0.19638722444E+04  0.40768252676E+04  0.35726334923E+04 0.  0.
        3    1    3    3  502    0  0.16165420630E+04  0.69750265534E+03  0.63730600966E+03  0.18723987705E+04  0.10100000352E+00 0.  1.
       -3    1    3    3    0  502 -0.16165420630E+04 -0.69750265534E+03  0.13265662347E+04  0.22044264971E+04  0.10100000352E+00 0. -1.
</event>
<event>
 5   0  0.3378848E-06  0.2277384E+04  0.7818609E-02  0.8486892E-01
        2   -1    0    0  501    0  0.00000000000E+00  0.00000000000E+00  0.17624870374E+04  0.17624870374E+04  0.25500000920E-02 0. -1.
       -2   -1    0    0    0  501  0.00000000000E+00  0.00000000000E+00 -0.73567584337E+03  0.73567584337E+03  0.25500000920E-02 0.  1.
    10030    2    1    2    0    0  0.00000000000E+00  0.00000000000E+00  0.10268111940E+04  0.24981628807E+04  0.22773837074E+04 0.  0.
        1    1    3    3  502    0  0.52963631559E+03 -0.96575923869E+03  0.83021858962E+03  0.13792999821E+04  0.50400001928E-02 0. -1.
       -1    1    3    3    0  502 -0.52963631559E+03  0.96575923869E+03  0.19659260437E+03  0.11188628987E+04  0.50400001928E-02 0.  1.
</event>
<event>
 5   0  0.1102175E-06  0.3460265E+04  0.7818609E-02  0.8123272E-01
        1   -1    0    0  501    0  0.00000000000E+00  0.00000000000E+00  0.89965818756E+03  0.89965818757E+03  0.50400001928E-02 0.  1.
       -1   -1    0    0    0  501  0.00000000000E+00  0.00000000000E+00 -0.33272181473E+04  0.33272181473E+04  0.50400001928E-02 0. -1.
    10030    2    1    2    0    0  0.00000000000E+00  0.00000000000E+00 -0.24275599597E+04  0.42268763348E+04  0.34602653355E+04 0.  0.
        5    1    3    3  502    0  0.49651512015E+03 -0.14142626047E+04 -0.15823978553E+03  0.15072252318E+04  0.46999998093E+01 0.  1.
       -5    1    3    3    0  502 -0.49651512015E+03  0.14142626047E+04 -0.22693201742E+04  0.27196511031E+04  0.46999998093E+01 0. -1.
</event>
<event>
 5   0  0.3041329E-06  0.2918271E+04  0.7818609E-02  0.8267462E-01
        2   -1    0    0  501    0  0.00000000000E+00  0.00000000000E+00  0.17038952799E+04  0.17038952799E+04  0.25500000920E-02 0.  1.
       -2   -1    0    0    0  501  0.00000000000E+00  0.00000000000E+00 -0.12495349125E+04  0.12495349125E+04  0.25500000920E-02 0. -1.
    10030    2    1    2    0    0  0.00000000000E+00  0.00000000000E+00  0.45436036740E+03  0.29534301924E+04  0.29182711591E+04 0.  0.
        2    1    3    3  502    0 -0.30349020712E+02  0.14540992000E+04  0.10850233133E+03  0.14584575079E+04  0.25500000920E-02 0. -1.
       -2    1    3    3    0  502  0.30349020712E+02 -0.14540992000E+04  0.34585803607E+03  0.14949726845E+04  0.25500000920E-02 0.  1.
</event>
<event>
 5   0  0.1782660E-06  0.2112255E+04  0.7818609E-02  0.8555864E-01
       -2   -1    0    0    0  501  0.00000000000E+00  0.00000000000E+00  0.71663970282E+03  0.71663970282E+03  0.25500000920E-02 0.  1.
        2   -1    0    0  501    0  0.00000000000E+00  0.00000000000E+00 -0.15564380948E+04  0.15564380948E+04  0.25500000920E-02 0. -1.
    10030    2    1    2    0    0  0.00000000000E+00  0.00000000000E+00 -0.83979839196E+03  0.22730777976E+04  0.21122550354E+04 0.  0.
        4    1    3    3  502    0 -0.80794386662E+03 -0.42289487984E+03  0.15338076010E+03  0.92473814751E+03  0.12699999809E+01 0. -1.
       -4    1    3    3    0  502  0.80794386662E+03  0.42289487984E+03 -0.99317915206E+03  0.13483396501E+04  0.12699999809E+01 0.  1.
</event>
<event>
 5   0  0.1102175E-06  0.3466924E+04  0.7818609E-02  0.8121674E-01
        1   -1    0    0  501    0  0.00000000000E+00  0.00000000000E+00  0.27554765763E+04  0.27554765763E+04  0.50400001928E-02 0.  1.
       -1   -1    0    0    0  501  0.00000000000E+00  0.00000000000E+00 -0.10905157613E+04  0.10905157613E+04  0.50400001928E-02 0. -1.
    10030    2    1    2    0    0  0.00000000000E+00  0.00000000000E+00  0.16649608149E+04  0.38459923376E+04  0.34669240756E+04 0.  0.
        5    1    3    3  502    0 -0.80140203860E+03 -0.11724665523E+04  0.19351123717E+04  0.24003343569E+04  0.46999998093E+01 0.  1.
       -5    1    3    3    0  502  0.80140203860E+03  0.11724665523E+04 -0.27015155674E+03  0.14456579808E+04  0.46999998093E+01 0. -1.
</event>
<event>
 5   0  0.3378848E-06  0.3467474E+04  0.7818609E-02  0.8121542E-01
       -2   -1    0    0    0  501  0.00000000000E+00  0.00000000000E+00  0.18294704965E+04  0.18294704965E+04  0.25500000920E-02 0.  1.
        2   -1    0    0  501    0  0.00000000000E+00  0.00000000000E+00 -0.16430128955E+04  0.16430128955E+04  0.25500000920E-02 0. -1.
    10030    2    1    2    0    0  0.00000000000E+00  0.00000000000E+00  0.18645760109E+03  0.34724833920E+04  0.34674737880E+04 0.  0.
        1    1    3    3  502    0  0.11002797875E+04 -0.16319530019E+03 -0.12385779870E+04  0.16647293313E+04  0.50400001928E-02 0. -1.
       -1    1    3    3    0  502 -0.11002797875E+04  0.16319530019E+03  0.14250355880E+04  0.18077540607E+04  0.50400001928E-02 0.  1.
</event>
<event>
 5   0  0.1125196E-06  0.3454182E+04  0.7818609E-02  0.8124735E-01
       -1   -1    0    0    0  501  0.00000000000E+00  0.00000000000E+00  0.19974204740E+04  0.19974204741E+04  0.50400001928E-02 0. -1.
        1   -1    0    0  501    0  0.00000000000E+00  0.00000000000E+00 -0.14933475360E+04  0.14933475360E+04  0.50400001928E-02 0.  1.
    10030    2    1    2    0    0  0.00000000000E+00  0.00000000000E+00  0.50407293804E+03  0.34907680101E+04  0.34541817806E+04 0.  0.
        4    1    3    3  502    0 -0.17242723483E+04 -0.31404317548E+02  0.15755846258E+03  0.17317412175E+04  0.12699999809E+01 0. -1.
       -4    1    3    3    0  502  0.17242723483E+04  0.31404317548E+02  0.34651447546E+03  0.17590267926E+04  0.12699999809E+01 0.  1.
</event>
<event>
 5   0  0.1130707E-06  0.3439245E+04  0.7818609E-02  0.8128341E-01
       -1   -1    0    0    0  501  0.00000000000E+00  0.00000000000E+00  0.16408267018E+04  0.16408267018E+04  0.50400001928E-02 0. -1.
        1   -1    0    0  501    0  0.00000000000E+00  0.00000000000E+00 -0.18022024511E+04  0.18022024511E+04  0.50400001928E-02 0.  1.
    10030    2    1    2    0    0  0.00000000000E+00  0.00000000000E+00 -0.16137574923E+03  0.34430291529E+04  0.34392452101E+04 0.  0.
        3    1    3    3  502    0 -0.10241920837E+04 -0.12681550482E+04  0.46755983794E+03  0.16958180513E+04  0.10100000352E+00 0.  1.
       -3    1    3    3    0  502  0.10241920837E+04  0.12681550482E+04 -0.62893558717E+03  0.17472111017E+04  0.10100000352E+00 0. -1.
</event>
<event>
 5   0  0.1130707E-06  0.2225283E+04  0.7818609E-02  0.8507978E-01
        1   -1    0    0  501    0  0.00000000000E+00  0.00000000000E+00  0.18569077814E+04  0.18569077814E+04  0.50400001928E-02 0.  1.
       -1   -1    0    0    0  501  0.00000000000E+00  0.00000000000E+00 -0.66668426415E+03  0.66668426417E+03  0.50400001928E-02 0. -1.
    10030    2    1    2    0    0  0.00000000000E+00  0.00000000000E+00  0.11902235173E+04  0.25235920456E+04  0.22252830812E+04 0.  0.
        3    1    3    3  502    0 -0.73479211607E+03 -0.37477747531E+03 -0.25171147589E+03  0.86240146517E+03  0.10100000352E+00 0.  1.
       -3    1    3    3    0  502  0.73479211607E+03  0.37477747531E+03  0.14419349932E+04  0.16611905804E+04  0.10100000352E+00 0. -1.
</event>
<event>
 5   0  0.1102175E-06  0.3426782E+04  0.7818609E-02  0.8131364E-01
        1   -1    0    0  501    0  0.00000000000E+00  0.00000000000E+00  0.12053047905E+04  0.12053047905E+04  0.50400001928E-02 0. -1.
       -1   -1    0    0    0  501  0.00000000000E+00  0.00000000000E+00 -0.24356565370E+04  0.24356565370E+04  0.50400001928E-02 0.  1.
    10030    2    1    2    0    0  0.00000000000E+00  0.00000000000E+00 -0.12303517465E+04  0.36409613275E+04  0.34267818676E+04 0.  0.
        5    1    3    3  502    0 -0.16781426240E+04  0.34436994202E+03 -0.58272034574E+03  0.18095133089E+04  0.46999998093E+01 0. -1.
       -5    1    3    3    0  502  0.16781426240E+04 -0.34436994202E+03 -0.64763140078E+03  0.18314480186E+04  0.46999998093E+01 0.  1.
</event>
<event>
 5   0  0.1782660E-06  0.3327380E+04  0.7818609E-02  0.8155963E-01
        2   -1    0    0  501    0  0.00000000000E+00  0.00000000000E+00  0.21272054418E+04  0.21272054418E+04  0.25500000920E-02 0. -1.
       -2   -1    0    0    0  501  0.00000000000E+00  0.00000000000E+00 -0.13011738664E+04  0.13011738664E+04  0.25500000920E-02 0.  1.
    10030    2    1    2    0    0  0.00000000000E+00  0.00000000000E+00  0.82603157539E+03  0.34283793083E+04  0.33273798277E+04 0.  0.
        4    1    3    3  502    0  0.48201102867E+02 -0.14120945361E+04  0.13180445587E+04  0.19322467226E+04  0.12699999809E+01 0. -1.
       -4    1    3    3    0  502 -0.48201102867E+02  0.14120945361E+04 -0.49201298334E+03  0.14961325857E+04  0.12699999809E+01 0.  1.
</event>
<event>
 5   0  0.3041329E-06  0.1916630E+04  0.7818609E-02  0.8646623E-01
       -2   -1    0    0    0  501  0.00000000000E+00  0.00000000000E+00  0.41954452131E+03  0.41954452132E+03  0.25500000920E-02 0.  1.
        2   -1    0    0  501    0  0.00000000000E+00  0.00000000000E+00 -0.21889637146E+04  0.21889637146E+04  0.25500000920E-02 0. -1.
    10030    2    1    2    0    0  0.00000000000E+00  0.00000000000E+00 -0.17694191933E+04  0.26085082360E+04  0.19166300987E+04 0.  0.
        2    1    3    3  502    0 -0.33096588671E+03 -0.84991123038E+03 -0.48447715218E+03  0.10327660087E+04  0.25500000920E-02 0.  1.
       -2    1    3    3    0  502  0.33096588671E+03  0.84991123038E+03 -0.12849420412E+04  0.15757422273E+04  0.25500000920E-02 0. -1.
</event>
<event>
 5   0  0.1908726E-06  0.3518223E+04  0.7818609E-02  0.8109485E-01
       -2   -1    0    0    0  501  0.00000000000E+00  0.00000000000E+00  0.14456140351E+04  0.14456140351E+04  0.25500000920E-02 0.  1.
        2   -1    0    0  501    0  0.00000000000E+00  0.00000000000E+00 -0.21405945995E+04  0.21405945995E+04  0.25500000920E-02 0. -1.
    10030    2    1    2    0    0  0.00000000000E+00  0.00000000000E+00 -0.69498056447E+03  0.35862086346E+04  0.35182231859E+04 0.  0.
        5    1    3    3  502    0 -0.37608596584E+03 -0.16606126927E+04  0.10306506444E+03  0.17057900417E+04  0.46999998093E+01 0. -1.
       -5    1    3    3    0  502  0.37608596584E+03  0.16606126927E+04 -0.79804562891E+03  0.18804185929E+04  0.46999998093E+01 0.  1.
</event>
<event>
 5   0  0.1102175E-06  0.2023530E+04  0.7818609E-02  0.8595698E-01
       -1   -1    0    0    0  501  0.00000000000E+00  0.00000000000E+00  0.10220619261E+04  0.10220619261E+04  0.50400001928E-02 0.  1.
        1   -1    0    0  501    0  0.00000000000E+00  0.00000000000E+00 -0.10015717587E+04  0.10015717587E+04  0.50400001928E-02 0. -1.
    10030    2    1    2    0    0  0.00000000000E+00  0.00000000000E+00  0.20490167408E+02  0.20236336848E+04  0.20235299463E+04 0.  0.
        5    1    3    3  502    0 -0.39731599584E+03 -0.54826292375E+03 -0.74158733704E+03  0.10042042136E+04  0.46999998093E+01 0. -1.
       -5    1    3    3    0  502  0.39731599584E+03  0.54826292375E+03  0.76207750445E+03  0.10194294713E+04  0.46999998093E+01 0.  1.
</event>
<event>
 5   0  0.1908726E-06  0.3479862E+04  0.7818609E-02  0.8118579E-01
       -2   -1    0    0    0  501  0.00000000000E+00  0.00000000000E+00  0.18070520116E+04  0.18070520116E+04  0.25500000920E-02 0. -1.
        2   -1    0    0  501    0  0.00000000000E+00  0.00000000000E+00 -0.16753030317E+04  0.16753030317E+04  0.25500000920E-02 0.  1.
    10030    2    1    2    0    0  0.00000000000E+00  0.00000000000E+00  0.13174897988E+03  0.34823550433E+04  0.34798619016E+04 0.  0.
        5    1    3    3  502    0  0.15675173866E+04 -0.19760332263E+03 -0.66346849631E+03  0.17135840703E+04  0.46999998093E+01 0.  1.
       -5    1    3    3    0  502 -0.15675173866E+04  0.19760332263E+03  0.79521747619E+03  0.17687709730E+04  0.46999998093E+01 0. -1.
</event>
<event>
 5   0  0.1782660E-06  0.2852712E+04  0.7818609E-02  0.8287088E-01
       -2   -1    0    0    0  501  0.00000000000E+00  0.00000000000E+00  0.12681109705E+04  0.12681109705E+04  0.25500000920E-02 0.  1.
        2   -1    0    0  501    0  0.00000000000E+00  0.00000000000E+00 -0.16043476168E+04  0.16043476168E+04  0.25500000920E-02 0. -1.
    10030    2    1    2    0    0  0.00000000000E+00  0.00000000000E+00 -0.33623664632E+03  0.28724585873E+04  0.28527115615E+04 0.  0.
        4    1    3    3  502    0  0.91251813008E+03 -0.87425026391E+03  0.49788770773E+03  0.13582697243E+04  0.12699999809E+01 0.  1.
       -4    1    3    3    0  502 -0.91251813008E+03  0.87425026391E+03 -0.83412435405E+03  0.15141888629E+04  0.12699999809E+01 0. -1.
</event>
<event>
 5   0  0.1089337E-06  0.3135457E+04  0.7818609E-02  0.8206074E-01
        1   -1    0    0  501    0  0.00000000000E+00  0.00000000000E+00  0.11347360685E+04  0.11347360685E+04  0.50400001928E-02 0. -1.
       -1   -1    0    0    0  501  0.00000000000E+00  0.00000000000E+00 -0.21659421557E+04  0.21659421557E+04  0.50400001928E-02 0.  1.
    10030    2    1    2    0    0  0.00000000000E+00  0.00000000000E+00 -0.10312060872E+04  0.33006782242E+04  0.31354570234E+04 0.  0.
        2    1    3    3  502    0  0.57575038895E+03  0.28918254018E+02  0.10191113581E+04  0.11708598276E+04  0.25500000920E-02 0. -1.
       -2    1    3    3    0  502 -0.57575038895E+03 -0.28918254018E+02 -0.20503174453E+04  0.21298183966E+04  0.25500000920E-02 0.  1.
</event>
<event>
 5   0  0.1130707E-06  0.3418811E+04  0.7818609E-02  0.8133305E-01
       -1   -1    0    0    0  501  0.00000000000E+00  0.00000000000E+00  0.17898588069E+04  0.17898588070E+04  0.50400001928E-02 0. -1.
        1   -1    0    0  501    0  0.00000000000E+00  0.00000000000E+00 -0.16325688300E+04  0.16325688301E+04  0.50400001928E-02 0.  1.
    10030    2    1    2    0    0  0.00000000000E+00  0.00000000000E+00  0.15728997690E+03  0.34224276370E+04  0.34188113130E+04 0.  0.
        3    1    3    3  502    0 -0.10773071192E+04  0.66318348179E+03  0.12294978237E+04  0.17641054016E+04  0.10100000352E+00 0. -1.
       -3    1    3    3    0  502  0.10773071192E+04 -0.66318348179E+03 -0.10722078468E+04  0.16583222354E+04  0.10100000352E+00 0.  1.
</event>
<event>
 5   0  0.1089337E-06  0.3494565E+04  0.7818609E-02  0.8115079E-01
       -1   -1    0    0    0  501  0.00000000000E+00  0.00000000000E+00  0.15450659378E+04  0.15450659378E+04  0.50400001928E-02 0.  1.
        1   -1    0    0  501    0  0.00000000000E+00  0.00000000000E+00 -0.19759647340E+04  0.19759647340E+04  0.50400001928E-02 0. -1.
    10030    2    1    2    0    0  0.00000000000E+00  0.00000000000E+00 -0.43089879619E+03  0.35210306719E+04  0.34945648112E+04 0.  0.
        2    1    3    3  502    0 -0.90219159096E+03  0.37764288020E+03  0.12434222969E+04  0.15819806636E+04  0.25500000920E-02 0.  1.
       -2    1    3    3    0  502  0.90219159096E+03 -0.37764288020E+03 -0.16743210931E+04  0.19390500082E+04  0.25500000920E-02 0. -1.
</event>
<event>
 5   0  0.1125196E-06  0.3572318E+04  0.7818609E-02  0.8096862E-01
        1   -1    0    0  501    0  0.00000000000E+00  0.00000000000E+00  0.25648191616E+04  0.25648191616E+04  0.50400001928E-02 0.  1.
       -1   -1    0    0    0  501  0.00000000000E+00  0.00000000000E+00 -0.12438941648E+04  0.12438941649E+04  0.50400001928E-02 0. -1.
    10030    2    1    2    0    0  0.00000000000E+00  0.00000000000E+00  0.13209249967E+04  0.38087133264E+04  0.35723177848E+04 0.  0.
        4    1    3    3  502    0  0.16165241086E+04  0.23776205882E+02  0.14700858396E+04  0.21851474757E+04  0.12699999809E+01 0. -1.
       -4    1    3    3    0  502 -0.16165241086E+04 -0.23776205882E+02 -0.14916084290E+03  0.16235658507E+04  0.12699999809E+01 0.  1.
</event>
<event>
 5   0  0.1102175E-06  0.3447377E+04  0.7818609E-02  0.8126375E-01
        1   -1    0    0  501    0  0.00000000000E+00  0.00000000000E+00  0.18636036439E+04  0.18636036440E+04  0.50400001928E-02 0.  1.
       -1   -1    0    0    0  501  0.00000000000E+00  0.00000000000E+00 -0.15942775558E+04  0.15942775558E+04  0.50400001928E-02 0. -1.
    10030    2    1    2    0    0  0.00000000000E+00  0.00000000000E+00  0.26932608818E+03  0.34578811997E+04  0.34473766620E+04 0.  0.
        5    1    3    3  502    0  0.32258496300E+03  0.14563800069E+04 -0.73166752553E+03  0.16614641859E+04  0.46999998093E+01 0. -1.
       -5    1    3    3    0  502 -0.32258496300E+03 -0.14563800069E+04  0.10009936137E+04  0.17964170139E+04  0.46999998093E+01 0.  1.
</event>
<event>
 5   0  0.3378848E-06  0.3528116E+04  0.7818609E-02  0.8107159E-01
       -2   -1    0    0    0  501  0.00000000000E+00  0.00000000000E+00  0.11706180156E+04  0.11706180156E+04  0.25500000920E-02 0. -1.
        2   -1    0    0  501    0  0.00000000000E+00  0.00000000000E+00 -0.26583399206E+04  0.26583399206E+04  0.25500000920E-02 0.  1.
    10030    2    1    2    0    0  0.00000000000E+00  0.00000000000E+00 -0.14877219050E+04  0.38289579362E+04  0.35281159860E+04 0.  0.
        1    1    3    3  502    0  0.17554207503E+02  0.16547771917E+04 -0.14069465358E+04  0.21721174597E+04  0.50400001928E-02 0.  1.
       -1    1    3    3    0  502 -0.17554207503E+02 -0.16547771917E+04 -0.80775369227E+02  0.16568404765E+04  0.50400001928E-02 0. -1.
</event>
<event>
 5   0  0.1782660E-06  0.2382618E+04  0.7818609E-02  0.8446040E-01
       -2   -1    0    0    0  501  0.00000000000E+00  0.00000000000E+00  0.99420970774E+03  0.99420970774E+03  0.25500000920E-02 0. -1.
        2   -1    0    0  501    0  0.00000000000E+00  0.00000000000E+00 -0.14274825636E+04  0.14274825636E+04  0.25500000920E-02 0.  1.
    10030    2    1    2    0    0  0.00000000000E+00  0.00000000000E+00 -0.43327285585E+03  0.24216922713E+04  0.23826179067E+04 0.  0.
        4    1    3    3  502    0  0.24484612653E+03  0.70430069315E+03  0.72770032073E+03  0.10418917706E+04  0.12699999809E+01 0. -1.
       -4    1    3    3    0  502 -0.24484612653E+03 -0.70430069315E+03 -0.11609731766E+04  0.13798005007E+04  0.12699999809E+01 0.  1.
</event>
<event>
 5   0  0.1130707E-06  0.3532559E+04  0.7818609E-02  0.8106117E-01
        1   -1    0    0  501    0  0.00000000000E+00  0.00000000000E+00  0.15199190542E+04  0.15199190542E+04  0.50400001928E-02 0. -1.
       -1   -1    0    0    0  501  0.00000000000E+00  0.00000000000E+00 -0.20525723385E+04  0.20525723385E+04  0.50400001928E-02 0.  1.
    10030    2    1    2    0    0  0.00000000000E+00  0.00000000000E+00 -0.53265328434E+03  0.35724913927E+04  0.35325593030E+04 0.  0.
        3    1    3    3  502    0 -0.14679210313E+04  0.46191962408E+03 -0.11430647570E+04  0.19169660775E+04  0.10100000352E+00 0.  1.
       -3    1    3    3    0  502  0.14679210313E+04 -0.46191962408E+03  0.61041147269E+03  0.16555253152E+04  0.10100000352E+00 0. -1.
</event>
<event>
 5   0  0.1782660E-06  0.2957834E+04  0.7818609E-02  0.8255875E-01
        2   -1    0    0  501    0  0.00000000000E+00  0.00000000000E+00  0.17664159700E+04  0.17664159700E+04  0.25500000920E-02 0.  1.
       -2   -1    0    0    0  501  0.00000000000E+00  0.00000000000E+00 -0.12382104937E+04  0.12382104937E+04  0.25500000920E-02 0. -1.
    10030    2    1    2    0    0  0.00000000000E+00  0.00000000000E+00  0.52820547627E+03  0.30046264637E+04  0.29578335249E+04 0.  0.
        4    1    3    3  502    0  0.81855424572E+03 -0.11986971042E+04 -0.23730136328E+02  0.14517129651E+04  0.12699999809E+01 0. -1.
       -4    1    3    3    0  502 -0.81855424572E+03  0.11986971042E+04  0.55193561260E+03  0.15529134986E+04  0.12699999809E+01 0.  1.
</event>
<event>
 5   0  0.1908726E-06  0.3445783E+04  0.7818609E-02  0.8126760E-01
        2   -1    0    0  501    0  0.00000000000E+00  0.00000000000E+00  0.24193289071E+04  0.24193289071E+04  0.25500000920E-02 0. -1.
       -2   -1    0    0    0  501  0.00000000000E+00  0.00000000000E+00 -0.12269333415E+04  0.12269333415E+04  0.25500000920E-02 0.  1.
    10030    2    1    2    0    0  0.00000000000E+00  0.00000000000E+00  0.11923955656E+04  0.36462622487E+04  0.34457831042E+04 0.  0.
        5    1    3    3  502    0 -0.18104355333E+03 -0.16680930512E+04  0.10101373315E+04  0.19584970549E+04  0.46999998093E+01 0.  1.
       -5    1    3    3    0  502  0.18104355333E+03  0.16680930512E+04  0.18225823414E+03  0.16877651938E+04  0.46999998093E+01 0. -1.
</event>
<event>
 5   0  0.2565004E-06  0.3776984E+04  0.7818609E-02  0.8051112E-01
        2   -1    0    0  501    0  0.00000000000E+00  0.00000000000E+00  0.28053532945E+04  0.28053532945E+04  0.25500000920E-02 0.  1.
       -2   -1    0    0    0  501  0.00000000000E+00  0.00000000000E+00 -0.12712847266E+04  0.12712847266E+04  0.25500000920E-02 0. -1.
    10030    2    1    2    0    0  0.00000000000E+00  0.00000000000E+00  0.15340685678E+04  0.40766380211E+04  0.37769844035E+04 0.  0.
        3    1    3    3  502    0  0.15928691010E+04  0.75697289567E+03  0.14960164687E+04  0.23126403141E+04  0.10100000352E+00 0.  1.
       -3    1    3    3    0  502 -0.15928691010E+04 -0.75697289567E+03  0.38052099121E+02  0.17639977070E+04  0.10100000352E+00 0. -1.
</event>
<event>
 5   0  0.2565004E-06  0.3230063E+04  0.7818609E-02  0.8180923E-01
       -2   -1    0    0    0  501  0.00000000000E+00  0.00000000000E+00  0.10916099862E+04  0.10916099862E+04  0.25500000920E-02 0.  1.
        2   -1    0    0  501    0  0.00000000000E+00  0.00000000000E+00 -0.23894304035E+04  0.23894304035E+04  0.25500000920E-02 0. -1.
    10030    2    1    2    0    0  0.00000000000E+00  0.00000000000E+00 -0.12978204173E+04  0.34810403898E+04  0.32300625938E+04 0.  0.
        3    1    3    3  502    0  0.50842560219E+03  0.13130427471E+04  0.20359676295E+03  0.14226839075E+04  0.10100000352E+00 0. -1.
       -3    1    3    3    0  502 -0.50842560219E+03 -0.13130427471E+04 -0.15014171802E+04  0.20583564822E+04  0.10100000352E+00 0.  1.
</event>
<event>
 5   0  0.3378848E-06  0.3624875E+04  0.7818609E-02  0.8084817E-01
       -2   -1    0    0    0  501  0.00000000000E+00  0.00000000000E+00  0.16679511934E+04  0.16679511934E+04  0.25500000920E-02 0.  1.
        2   -1    0    0  501    0  0.00000000000E+00  0.00000000000E+00 -0.19694397368E+04  0.19694397368E+04  0.25500000920E-02 0. -1.
    10030    2    1    2    0    0  0.00000000000E+00  0.00000000000E+00 -0.30148854338E+03  0.36373909302E+04  0.36248748168E+04 0.  0.
        1    1    3    3  502    0 -0.15076749229E+03 -0.12899642960E+04  0.11178164423E+04  0.17135496259E+04  0.50400001928E-02 0.  1.
       -1    1    3    3    0  502  0.15076749229E+03  0.12899642960E+04 -0.14193049857E+04  0.19238413043E+04  0.50400001928E-02 0. -1.
</event>
<event>
 5   0  0.2565004E-06  0.3517142E+04  0.7818609E-02  0.8109739E-01
       -2   -1    0    0    0  501  0.00000000000E+00  0.00000000000E+00  0.13358815786E+04  0.13358815786E+04  0.25500000920E-02 0. -1.
        2   -1    0    0  501    0  0.00000000000E+00  0.00000000000E+00 -0.23150048347E+04  0.23150048347E+04  0.25500000920E-02 0.  1.
    10030    2    1    2    0    0  0.00000000000E+00  0.00000000000E+00 -0.97912325605E+03  0.36508864133E+04  0.35171421996E+04 0.  0.
        3    1    3    3  502    0  0.56621037621E+03 -0.92484736044E+03 -0.19266323943E+04  0.22108480778E+04  0.10100000352E+00 0.  1.
       -3    1    3    3    0  502 -0.56621037621E+03  0.92484736044E+03  0.94750913825E+03  0.14400383354E+04  0.10100000352E+00 0. -1.
</event>
<event>
 5   0  0.3041329E-06  0.3458250E+04  0.7818609E-02  0.8123756E-01
        2   -1    0    0  501    0  0.00000000000E+00  0.00000000000E+00  0.26539736315E+04  0.26539736315E+04  0.25500000920E-02 0. -1.
       -2   -1    0    0    0  501  0.00000000000E+00  0.00000000000E+00 -0.11265646449E+04  0.11265646449E+04  0.25500000920E-02 0.  1.
    10030    2    1    2    0    0  0.00000000000E+00  0.00000000000E+00  0.15274089866E+04  0.37805382764E+04  0.34582497665E+04 0.  0.
        2    1    3    3  502    0  0.64625934819E+03 -0.14538511470E+04  0.23442906087E+02  0.15911894522E+04  0.25500000920E-02 0.  1.
       -2    1    3    3    0  502 -0.64625934819E+03  0.14538511470E+04  0.15039660805E+04  0.21893488242E+04  0.25500000920E-02 0. -1.
</event>
<event>
 5   0  0.2565004E-06  0.1758439E+04  0.7818609E-02  0.8728719E-01
        2   -1    0    0  501    0  0.00000000000E+00  0.00000000000E+00  0.91313293035E+03  0.91313293035E+03  0.25500000920E-02 0. -1.
       -2   -1    0    0    0  501  0.00000000000E+00  0.00000000000E+00 -0.84656578633E+03  0.84656578633E+03  0.25500000920E-02 0.  1.
    10030    2    1    2    0    0  0.00000000000E+00  0.00000000000E+00  0.66567144022E+02  0.17596987167E+04  0.17584391911E+04 0.  0.
        3    1    3    3  502    0  0.14340750042E+03  0.26425724312E+03 -0.79352217061E+03  0.84857235824E+03  0.10100000352E+00 0.  1.
       -3    1    3    3    0  502 -0.14340750042E+03 -0.26425724312E+03  0.86008931463E+03  0.91112635845E+03  0.10100000352E+00 0. -1.
</event>
<event>
 5   0  0.3041329E-06  0.2813250E+04  0.7818609E-02  0.8299167E-01
       -2   -1    0    0    0  501  0.00000000000E+00  0.00000000000E+00  0.76439959663E+03  0.76439959663E+03  0.25500000920E-02 0. -1.
        2   -1    0    0  501    0  0.00000000000E+00  0.00000000000E+00 -0.25884278685E+04  0.25884278685E+04  0.25500000920E-02 0.  1.
    10030    2    1    2    0    0  0.00000000000E+00  0.00000000000E+00 -0.18240282719E+04  0.33528274652E+04  0.28132495223E+04 0.  0.
        2    1    3    3  502    0 -0.39556380832E+03  0.99558148766E+02 -0.25163943331E+04  0.25492396889E+04  0.25500000920E-02 0.  1.
       -2    1    3    3    0  502  0.39556380832E+03 -0.99558148766E+02  0.69236606124E+03  0.80358777629E+03  0.25500000920E-02 0. -1.
</event>
<event>
 5   0  0.1782660E-06  0.3508803E+04  0.7818609E-02  0.8111707E-01
       -2   -1    0    0    0  501  0.00000000000E+00  0.00000000000E+00  0.20177527396E+04  0.20177527396E+04  0.25500000920E-02 0.  1.
        2   -1    0    0  501    0  0.00000000000E+00  0.00000000000E+00 -0.15254218369E+04  0.15254218369E+04  0.25500000920E-02 0. -1.
    10030    2    1    2    0    0  0.00000000000E+00  0.00000000000E+00  0.49233090267E+03  0.35431745765E+04  0.35088026963E+04 0.  0.
        4    1    3    3  502    0  0.10771978747E+04 -0.19909626024E+03  0.16299646016E+04  0.19638688341E+04  0.12699999809E+01 0.  1.
       -4    1    3    3    0  502 -0.10771978747E+04  0.19909626024E+03 -0.11376336989E+04  0.15793057424E+04  0.12699999809E+01 0. -1.
</event>
<event>
 5   0  0.1782660E-06  0.1927260E+04  0.7818609E-02  0.8641405E-01
       -2   -1    0    0    0  501  0.00000000000E+00  0.00000000000E+00  0.94958891544E+03  0.94958891545E+03  0.25500000920E-02 0.  1.
        2   -1    0    0  501    0  0.00000000000E+00  0.00000000000E+00 -0.97787892829E+03  0.97787892829E+03  0.25500000920E-02 0. -1.
    10030    2    1    2    0    0  0.00000000000E+00  0.00000000000E+00 -0.28290012843E+02  0.19274678437E+04  0.19272602221E+04 0.  0.
        4    1    3    3  502    0  0.30192660836E+02 -0.92162390675E+03 -0.29395927081E+03  0.96784083818E+03  0.12699999809E+01 0. -1.
       -4    1    3    3    0  502 -0.30192660836E+02  0.92162390675E+03  0.26566925797E+03  0.95962700555E+03  0.12699999809E+01 0.  1.
</event>
<event>
 5   0  0.1089337E-06  0.3387222E+04  0.7818609E-02  0.8141050E-01
        1   -1    0    0  501    0  0.00000000000E+00  0.00000000000E+00  0.16184540013E+04  0.16184540013E+04  0.50400001928E-02 0.  1.
       -1   -1    0    0    0  501  0.00000000000E+00  0.00000000000E+00 -0.17722576837E+04  0.17722576837E+04  0.50400001928E-02 0. -1.
    10030    2    1    2    0    0  0.00000000000E+00  0.00000000000E+00 -0.15380368243E+03  0.33907116850E+04  0.33872215986E+04 0.  0.
        2    1    3    3  502    0 -0.15774198451E+04 -0.63055980563E+02 -0.69079395977E+03  0.17232021701E+04  0.25500000920E-02 0. -1.
       -2    1    3    3    0  502  0.15774198451E+04  0.63055980563E+02  0.53699027734E+03  0.16675095149E+04  0.25500000920E-02 0.  1.
</event>
<event>
 5   0  0.1102175E-06  0.2574072E+04  0.7818609E-02  0.8377062E-01
       -1   -1    0    0    0  501  0.00000000000E+00  0.00000000000E+00  0.11269195766E+04  0.11269195766E+04  0.50400001928E-02 0. -1.
        1   -1    0    0  501    0  0.00000000000E+00  0.00000000000E+00 -0.14699026836E+04  0.14699026836E+04  0.50400001928E-02 0.  1.
    10030    2    1    2    0    0  0.00000000000E+00  0.00000000000E+00 -0.34298310701E+03  0.25968222603E+04  0.25740723455E+04 0.  0.
        5    1    3    3  502    0 -0.69937004094E+03  0.54243234463E+03 -0.11141419717E+04  0.14229145181E+04  0.46999998093E+01 0.  1.
       -5    1    3    3    0  502  0.69937004094E+03 -0.54243234463E+03  0.77115886466E+03  0.11739077422E+04  0.46999998093E+01 0. -1.
</event>
<event>
 5   0  0.1110956E-06  0.3699968E+04  0.7818609E-02  0.8067969E-01
        1   -1    0    0  501    0  0.00000000000E+00  0.00000000000E+00  0.23218919293E+04  0.23218919294E+04  0.50400001928E-02 0.  1.
       -1   -1    0    0    0  501  0.00000000000E+00  0.00000000000E+00 -0.14739879708E+04  0.14739879708E+04  0.50400001928E-02 0. -1.
    10030    2    1    2    0    0  0.00000000000E+00  0.00000000000E+00  0.84790395856E+03  0.37958799001E+04  0.36999679855E+04 0.  0.
        1    1    3    3  502    0  0.14008709169E+04  0.62055081099E+03  0.14876104241E+04  0.21355344551E+04  0.50400001928E-02 0.  1.
       -1    1    3    3    0  502 -0.14008709169E+04 -0.62055081099E+03 -0.63970646557E+03  0.16603454451E+04  0.50400001928E-02 0. -1.
</event>
<event>
 5   0  0.1908726E-06  0.3079434E+04  0.7818609E-02  0.8221405E-01
       -2   -1    0    0    0  501  0.00000000000E+00  0.00000000000E+00  0.11421373665E+04  0.11421373665E+04  0.25500000920E-02 0. -1.
        2   -1    0    0  501    0  0.00000000000E+00  0.00000000000E+00 -0.20756949759E+04  0.20756949759E+04  0.25500000920E-02 0.  1.
    10030    2    1    2    0    0  0.00000000000E+00  0.00000000000E+00 -0.93355760944E+03  0.32178323424E+04  0.30794342295E+04 0.  0.
        5    1    3    3  502    0  0.15115503197E+04 -0.28154982804E+03 -0.55200430095E+03  0.16336417946E+04  0.46999998093E+01 0. -1.
       -5    1    3    3    0  502 -0.15115503197E+04  0.28154982804E+03 -0.38155330848E+03  0.15841905478E+04  0.46999998093E+01 0.  1.
</event>
<event>
 5   0  0.1130707E-06  0.3218267E+04  0.7818609E-02  0.8184009E-01
        1   -1    0    0  501    0  0.00000000000E+00  0.00000000000E+00  0.26348358892E+04  0.26348358892E+04  0.50400001928E-02 0. -1.
       -1   -1    0    0    0  501  0.00000000000E+00  0.00000000000E+00 -0.98272200648E+03  0.98272200650E+03  0.50400001928E-02 0.  1.
    10030    2    1    2    0    0  0.00000000000E+00  0.00000000000E+00  0.16521138827E+04  0.36175578957E+04  0.32182673673E+04 0.  0.
        3    1    3    3  502    0 -0.44717115897E+03  0.13797136750E+04  0.42636310758E+02  0.14509961183E+04  0.10100000352E+00 0.  1.
       -3    1    3    3    0  502  0.44717115897E+03 -0.13797136750E+04  0.16094775720E+04  0.21665617774E+04  0.10100000352E+00 0. -1.
</event>
<event>
 5   0  0.3378848E-06  0.3467993E+04  0.7818609E-02  0.8121417E-01
        2   -1    0    0  501    0  0.00000000000E+00  0.00000000000E+00  0.20278786701E+04  0.20278786701E+04  0.25500000920E-02 0.  1.
       -2   -1    0    0    0  501  0.00000000000E+00  0.00000000000E+00 -0.14827038475E+04  0.14827038475E+04  0.25500000920E-02 0. -1.
    10030    2    1    2    0    0  0.00000000000E+00  0.00000000000E+00  0.54517482266E+03  0.35105825176E+04  0.34679927949E+04 0.  0.
        1    1    3    3  502    0  0.38889359221E+03 -0.46516206943E+03 -0.13719030255E+04  0.14999106267E+04  0.50400001928E-02 0. -1.
       -1    1    3    3    0  502 -0.38889359221E+03  0.46516206943E+03  0.19170778481E+04  0.20106718909E+04  0.50400001928E-02 0.  1.
</event>
<event>
 5   0  0.1102175E-06  0.2039136E+04  0.7818609E-02  0.8588539E-01
        1   -1    0    0  501    0  0.00000000000E+00  0.00000000000E+00  0.92388340703E+03  0.92388340704E+03  0.50400001928E-02 0.  1.
       -1   -1    0    0    0  501  0.00000000000E+00  0.00000000000E+00 -0.11251621975E+04  0.11251621976E+04  0.50400001928E-02 0. -1.
    10030    2    1    2    0    0  0.00000000000E+00  0.00000000000E+00 -0.20127879052E+03  0.20490456046E+04  0.20391357822E+04 0.  0.
        5    1    3    3  502    0 -0.53646860151E+03  0.86506834307E+03 -0.42437311280E+02  0.10188055820E+04  0.46999998093E+01 0. -1.
       -5    1    3    3    0  502  0.53646860151E+03 -0.86506834307E+03 -0.15884147924E+03  0.10302400226E+04  0.46999998093E+01 0.  1.
</event>
<event>
 5   0  0.1782660E-06  0.2213088E+04  0.7818609E-02  0.8513000E-01
        2   -1    0    0  501    0  0.00000000000E+00  0.00000000000E+00  0.12685227690E+04  0.12685227690E+04  0.25500000920E-02 0.  1.
       -2   -1    0    0    0  501  0.00000000000E+00  0.00000000000E+00 -0.96524883694E+03  0.96524883694E+03  0.25500000920E-02 0. -1.
    10030    2    1    2    0    0  0.00000000000E+00  0.00000000000E+00  0.30327393205E+03  0.22337716059E+04  0.22130884550E+04 0.  0.
        4    1    3    3  502    0 -0.58543551566E+03  0.44021466813E+03  0.98879476148E+03  0.12305447535E+04  0.12699999809E+01 0.  1.
       -4    1    3    3    0  502  0.58543551566E+03 -0.44021466813E+03 -0.68552082943E+03  0.10032268525E+04  0.12699999809E+01 0. -1.
</event>
<event>
 5   0  0.1089337E-06  0.3426141E+04  0.7818609E-02  0.8131520E-01
        1   -1    0    0  501    0  0.00000000000E+00  0.00000000000E+00  0.17308894989E+04  0.17308894990E+04  0.50400001928E-02 0.  1.
       -1   -1    0    0    0  501  0.00000000000E+00  0.00000000000E+00 -0.16954353408E+04  0.16954353408E+04  0.50400001928E-02 0. -1.
    10030    2    1    2    0    0  0.00000000000E+00  0.00000000000E+00  0.35454158130E+02  0.34263248398E+04  0.34261414026E+04 0.  0.
        2    1    3    3  502    0  0.15451451892E+04 -0.54985489055E+03 -0.47706922752E+03  0.17080424773E+04  0.25500000920E-02 0. -1.
       -2    1    3    3    0  502 -0.15451451892E+04  0.54985489055E+03  0.51252338565E+03  0.17182823625E+04  0.25500000920E-02 0.  1.
</event>
<event>
 5   0  0.1908726E-06  0.2217104E+04  0.7818609E-02  0.8511342E-01
        2   -1    0    0  501    0  0.00000000000E+00  0.00000000000E+00  0.92920672053E+03  0.92920672054E+03  0.25500000920E-02 0. -1.
       -2   -1    0    0    0  501  0.00000000000E+00  0.00000000000E+00 -0.13225128956E+04  0.13225128956E+04  0.25500000920E-02 0.  1.
    10030    2    1    2    0    0  0.00000000000E+00  0.00000000000E+00 -0.39330617506E+03  0.22517196161E+04  0.22171043012E+04 0.  0.
        5    1    3    3  502    0 -0.71141869112E+03 -0.37658121355E+03  0.57743834902E+03  0.99064983793E+03  0.46999998093E+01 0. -1.
       -5    1    3    3    0  502  0.71141869112E+03  0.37658121355E+03 -0.97074452408E+03  0.12610697782E+04  0.46999998093E+01 0.  1.
</event>
<event>
 5   0  0.1908726E-06  0.2847050E+04  0.7818609E-02  0.8288808E-01
        2   -1    0    0  501    0  0.00000000000E+00  0.00000000000E+00  0.19756165393E+04  0.19756165393E+04  0.25500000920E-02 0. -1.
       -2   -1    0    0    0  501  0.00000000000E+00  0.00000000000E+00 -0.10257170128E+04  0.10257170128E+04  0.25500000920E-02 0.  1.
    10030    2    1    2    0    0  0.00000000000E+00  0.00000000000E+00  0.94989952654E+03  0.30013335522E+04  0.28470500489E+04 0.  0.
        5    1    3    3  502    0 -0.13803144603E+03  0.19672379899E+03  0.19540692153E+04  0.19687969731E+04  0.46999998093E+01 0. -1.
       -5    1    3    3    0  502  0.13803144603E+03 -0.19672379899E+03 -0.10041696888E+04  0.10325365790E+04  0.46999998093E+01 0.  1.
</event>
<event>
 5   0  0.3041329E-06  0.3533858E+04  0.7818609E-02  0.8105812E-01
        2   -1    0    0  501    0  0.00000000000E+00  0.00000000000E+00  0.15799061516E+04  0.15799061516E+04  0.25500000920E-02 0.  1.
       -2   -1    0    0    0  501  0.00000000000E+00  0.00000000000E+00 -0.19760913337E+04  0.19760913337E+04  0.25500000920E-02 0. -1.
    10030    2    1    2    0    0  0.00000000000E+00  0.00000000000E+00 -0.39618518217E+03  0.35559974853E+04  0.35338584319E+04 0.  0.
        2    1    3    3  502    0  0.80241120675E+02 -0.45559449824E+03  0.15178866430E+04  0.15868159456E+04  0.25500000920E-02 0.  1.
       -2    1    3    3    0  502 -0.80241120675E+02  0.45559449824E+03 -0.19140718252E+04  0.19691815397E+04  0.25500000920E-02 0. -1.
</event>
<event>
 5   0  0.1089337E-06  0.1950653E+04  0.7818609E-02  0.8630046E-01
        1   -1    0    0  501    0  0.00000000000E+00  0.00000000000E+00  0.17770227794E+04  0.17770227794E+04  0.50400001928E-02 0. -1.
       -1   -1    0    0    0  501  0.00000000000E+00  0.00000000000E+00 -0.53531197803E+03  0.53531197806E+03  0.50400001928E-02 0.  1.
    10030    2    1    2    0    0  0.00000000000E+00  0.00000000000E+00  0.12417108014E+04  0.23123347575E+04  0.19506527924E+04 0.  0.
        2    1    3    3  502    0 -0.61673583638E+03  0.73796814855E+03  0.81310302577E+03  0.12594032756E+04  0.25500000920E-02 0.  1.
       -2    1    3    3    0  502  0.61673583638E+03 -0.73796814855E+03  0.42860777562E+03  0.10529314819E+04  0.25500000920E-02 0. -1.
</event>
<event>
 5   0  0.1908726E-06  0.3377518E+04  0.7818609E-02  0.8143446E-01
       -2   -1    0    0    0  501  0.00000000000E+00  0.00000000000E+00  0.14329958648E+04  0.14329958648E+04  0.25500000920E-02 0. -1.
        2   -1    0    0  501    0  0.00000000000E+00  0.00000000000E+00 -0.19901713858E+04  0.19901713858E+04  0.25500000920E-02 0.  1.
    10030    2    1    2    0    0  0.00000000000E+00  0.00000000000E+00 -0.55717552100E+03  0.34231672507E+04  0.33775182405E+04 0.  0.
        5    1    3    3  502    0 -0.20443054266E+03 -0.10850504329E+04 -0.15736524341E+04  0.19223762280E+04  0.46999998093E+01 0.  1.
       -5    1    3    3    0  502  0.20443054266E+03  0.10850504329E+04  0.10164769131E+04  0.15007910226E+04  0.46999998093E+01 0. -1.
</event>
<event>
 5   0  0.1125196E-06  0.3348300E+04  0.7818609E-02  0.8150713E-01
        1   -1    0    0  501    0  0.00000000000E+00  0.00000000000E+00  0.22543785174E+04  0.22543785174E+04  0.50400001928E-02 0.  1.
       -1   -1    0    0    0  501  0.00000000000E+00  0.00000000000E+00 -0.12432601240E+04  0.12432601241E+04  0.50400001928E-02 0. -1.
    10030    2    1    2    0    0  0.00000000000E+00  0.00000000000E+00  0.10111183934E+04  0.34976386415E+04  0.33483004138E+04 0.  0.
        4    1    3    3  502    0 -0.39462634448E+03  0.16118581063E+04  0.73669900900E+03  0.18156386065E+04  0.12699999809E+01 0.  1.
       -4    1    3    3    0  502  0.39462634448E+03 -0.16118581063E+04  0.27441938439E+03  0.16820000351E+04  0.12699999809E+01 0. -1.
</event>
<event>
 5   0  0.1908726E-06  0.2351492E+04  0.7818609E-02  0.8457891E-01
       -2   -1    0    0    0  501  0.00000000000E+00  0.00000000000E+00  0.96931651164E+03  0.96931651165E+03  0.25500000920E-02 0. -1.
        2   -1    0    0  501    0  0.00000000000E+00  0.00000000000E+00 -0.14261374499E+04  0.14261374499E+04  0.25500000920E-02 0.  1.
    10030    2    1    2    0    0  0.00000000000E+00  0.00000000000E+00 -0.45682093830E+03  0.23954539616E+04  0.23514919333E+04 0.  0.
        5    1    3    3  502    0  0.94559475443E+03 -0.69200739645E+03 -0.12999789577E+03  0.11789593798E+04  0.46999998093E+01 0. -1.
       -5    1    3    3    0  502 -0.94559475443E+03  0.69200739645E+03 -0.32682304253E+03  0.12164945818E+04  0.46999998093E+01 0.  1.
</event>
<event>
 5   0  0.1782660E-06  0.3044494E+04  0.7818609E-02  0.8231138E-01
       -2   -1    0    0    0  501  0.00000000000E+00  0.00000000000E+00  0.77932840843E+03  0.77932840844E+03  0.25500000920E-02 0.  1.
        2   -1    0    0  501    0  0.00000000000E+00  0.00000000000E+00 -0.29733759322E+04  0.29733759322E+04  0.25500000920E-02 0. -1.
    10030    2    1    2    0    0  0.00000000000E+00  0.00000000000E+00 -0.21940475238E+04  0.37527043406E+04  0.30444942653E+04 0.  0.
        4    1    3    3  502    0  0.24322067751E+03  0.28475275306E+03  0.72166270167E+03  0.81304310846E+03  0.12699999809E+01 0.  1.
       -4    1    3    3    0  502 -0.24322067751E+03 -0.28475275306E+03 -0.29157102254E+04  0.29396612322E+04  0.12699999809E+01 0. -1.
</event>
<event>
 5   0  0.1042825E-06  0.3270782E+04  0.7818609E-02  0.8170370E-01
        3   -1    0    0  501    0  0.00000000000E+00  0.00000000000E+00  0.96325442652E+03  0.96325443181E+03  0.10100000352E+00 0. -1.
       -3   -1    0    0    0  501  0.00000000000E+00  0.00000000000E+00 -0.27765280406E+04  0.27765280424E+04  0.10100000352E+00 0.  1.
    10030    2    1    2    0    0  0.00000000000E+00  0.00000000000E+00 -0.18132736141E+04  0.37397824743E+04  0.32707815206E+04 0.  0.
        2    1    3    3  502    0  0.97626187824E+03 -0.84325290788E+03  0.24265054424E+03  0.13126469473E+04  0.25500000920E-02 0. -1.
       -2    1    3    3    0  502 -0.97626187824E+03  0.84325290788E+03 -0.20559241583E+04  0.24271355270E+04  0.25500000920E-02 0.  1.
</event>
<event>
 5   0  0.1042825E-06  0.1773867E+04  0.7818609E-02  0.8720321E-01
       -3   -1    0    0    0  501  0.00000000000E+00  0.00000000000E+00  0.35941927497E+03  0.35941928916E+03  0.10100000352E+00 0.  1.
        3   -1    0    0  501    0  0.00000000000E+00  0.00000000000E+00 -0.21886722355E+04  0.21886722378E+04  0.10100000352E+00 0. -1.
    10030    2    1    2    0    0  0.00000000000E+00  0.00000000000E+00 -0.18292529605E+04  0.25480915270E+04  0.17738669725E+04 0.  0.
        4    1    3    3  502    0 -0.30863922263E+03 -0.19014348276E+03  0.24814153615E+03  0.43930461942E+03  0.12699999809E+01 0.  1.
       -4    1    3    3    0  502  0.30863922263E+03  0.19014348276E+03 -0.20773944967E+04  0.21087869075E+04  0.12699999809E+01 0. -1.
</event>
<event>
 5   0  0.3041329E-06  0.3395707E+04  0.7818609E-02  0.8138961E-01
       -2   -1    0    0    0  501  0.00000000000E+00  0.00000000000E+00  0.11793564691E+04  0.11793564691E+04  0.25500000920E-02 0. -1.
        2   -1    0    0  501    0  0.00000000000E+00  0.00000000000E+00 -0.24443046232E+04  0.24443046232E+04  0.25500000920E-02 0.  1.
    10030    2    1    2    0    0  0.00000000000E+00  0.00000000000E+00 -0.12649481542E+04  0.36236610923E+04  0.33957069778E+04 0.  0.
        2    1    3    3  502    0 -0.11398834834E+04 -0.12248413196E+03  0.70394170195E+03  0.13453143269E+04  0.25500000920E-02 0. -1.
       -2    1    3    3    0  502  0.11398834834E+04  0.12248413196E+03 -0.19688898561E+04  0.22783467655E+04  0.25500000920E-02 0.  1.
</event>
<event>
 5   0  0.2565004E-06  0.3352698E+04  0.7818609E-02  0.8149614E-01
       -2   -1    0    0    0  501  0.00000000000E+00  0.00000000000E+00  0.16760565123E+04  0.16760565123E+04  0.25500000920E-02 0. -1.
        2   -1    0    0  501    0  0.00000000000E+00  0.00000000000E+00 -0.16766419477E+04  0.16766419477E+04  0.25500000920E-02 0.  1.
    10030    2    1    2    0    0  0.00000000000E+00  0.00000000000E+00 -0.58543544502E+00  0.33526984600E+04  0.33526984089E+04 0.  0.
        3    1    3    3  502    0 -0.87049352964E+03 -0.12633854649E+04  0.67516626765E+03  0.16762312839E+04  0.10100000352E+00 0. -1.
       -3    1    3    3    0  502  0.87049352964E+03  0.12633854649E+04 -0.67575170309E+03  0.16764671761E+04  0.10100000352E+00 0.  1.
</event>
<event>
 5   0  0.3378848E-06  0.1897162E+04  0.7818609E-02  0.8656271E-01
        2   -1    0    0  501    0  0.00000000000E+00  0.00000000000E+00  0.82200913785E+03  0.82200913785E+03  0.25500000920E-02 0. -1.
       -2   -1    0    0    0  501  0.00000000000E+00  0.00000000000E+00 -0.10946416724E+04  0.10946416724E+04  0.25500000920E-02 0.  1.
    10030    2    1    2    0    0  0.00000000000E+00  0.00000000000E+00 -0.27263253451E+03  0.19166508102E+04  0.18971615191E+04 0.  0.
        1    1    3    3  502    0  0.75236385087E+03  0.56817993352E+03 -0.30716622116E+02  0.94330446403E+03  0.50400001928E-02 0. -1.
       -1    1    3    3    0  502 -0.75236385087E+03 -0.56817993352E+03 -0.24191591239E+03  0.97334634619E+03  0.50400001928E-02 0.  1.
</event>
<event>
 5   0  0.1782660E-06  0.3598460E+04  0.7818609E-02  0.8090845E-01
       -2   -1    0    0    0  501  0.00000000000E+00  0.00000000000E+00  0.16439876808E+04  0.16439876808E+04  0.25500000920E-02 0. -1.
        2   -1    0    0  501    0  0.00000000000E+00  0.00000000000E+00 -0.19691316298E+04  0.19691316298E+04  0.25500000920E-02 0.  1.
    10030    2    1    2    0    0  0.00000000000E+00  0.00000000000E+00 -0.32514394903E+03  0.36131193106E+04  0.35984597490E+04 0.  0.
        4    1    3    3  502    0  0.11439997593E+04  0.65154591587E+03 -0.13939362216E+04  0.19173698997E+04  0.12699999809E+01 0.  1.
       -4    1    3    3    0  502 -0.11439997593E+04 -0.65154591587E+03  0.10687922725E+04  0.16957494109E+04  0.12699999809E+01 0. -1.
</event>
<event>
 5   0  0.1110956E-06  0.3553806E+04  0.7818609E-02  0.8101156E-01
        1   -1    0    0  501    0  0.00000000000E+00  0.00000000000E+00  0.18990268908E+04  0.18990268908E+04  0.50400001928E-02 0.  1.
       -1   -1    0    0    0  501  0.00000000000E+00  0.00000000000E+00 -0.16626328575E+04  0.16626328575E+04  0.50400001928E-02 0. -1.
    10030    2    1    2    0    0  0.00000000000E+00  0.00000000000E+00  0.23639403322E+03  0.35616597483E+04  0.35538061320E+04 0.  0.
        1    1    3    3  502    0  0.20003396382E+03 -0.77211246873E+03 -0.14731448422E+04  0.16752095323E+04  0.50400001928E-02 0. -1.
       -1    1    3    3    0  502 -0.20003396382E+03  0.77211246873E+03  0.17095388754E+04  0.18864502160E+04  0.50400001928E-02 0.  1.
</event>
<event>
 5   0  0.1125196E-06  0.3638432E+04  0.7818609E-02  0.8081745E-01
       -1   -1    0    0    0  501  0.00000000000E+00  0.00000000000E+00  0.12916461314E+04  0.12916461314E+04  0.50400001928E-02 0.  1.
        1   -1    0    0  501    0  0.00000000000E+00  0.00000000000E+00 -0.25622712396E+04  0.25622712396E+04  0.50400001928E-02 0. -1.
    10030    2    1    2    0    0  0.00000000000E+00  0.00000000000E+00 -0.12706251082E+04  0.38539173710E+04  0.36384324835E+04 0.  0.
        4    1    3    3  502    0 -0.22408810720E+03 -0.11770779934E+04  0.81463330645E+03  0.14489158427E+04  0.12699999809E+01 0.  1.
       -4    1    3    3    0  502  0.22408810720E+03  0.11770779934E+04 -0.20852584146E+04  0.24050015283E+04  0.12699999809E+01 0. -1.
</event>
<event>
 5   0  0.1102175E-06  0.3322456E+04  0.7818609E-02  0.8157205E-01
        1   -1    0    0  501    0  0.00000000000E+00  0.00000000000E+00  0.29458236149E+04  0.29458236149E+04  0.50400001928E-02 0. -1.
       -1   -1    0    0    0  501  0.00000000000E+00  0.00000000000E+00 -0.93681074991E+03  0.93681074992E+03  0.50400001928E-02 0.  1.
    10030    2    1    2    0    0  0.00000000000E+00  0.00000000000E+00  0.20090128650E+04  0.38826343649E+04  0.33224564586E+04 0.  0.
        5    1    3    3  502    0 -0.22489002131E+03  0.39307672665E+03  0.28722889056E+04  0.29077741456E+04  0.46999998093E+01 0. -1.
       -5    1    3    3    0  502  0.22489002131E+03 -0.39307672665E+03 -0.86327604060E+03  0.97486021921E+03  0.46999998093E+01 0.  1.
</event>
<event>
 5   0  0.2565004E-06  0.3615060E+04  0.7818609E-02  0.8087051E-01
       -2   -1    0    0    0  501  0.00000000000E+00  0.00000000000E+00  0.16365471037E+04  0.16365471037E+04  0.25500000920E-02 0.  1.
        2   -1    0    0  501    0  0.00000000000E+00  0.00000000000E+00 -0.19963765030E+04  0.19963765030E+04  0.25500000920E-02 0. -1.
    10030    2    1    2    0    0  0.00000000000E+00  0.00000000000E+00 -0.35982939924E+03  0.36329236067E+04  0.36150597139E+04 0.  0.
        3    1    3    3  502    0 -0.14850358027E+04  0.88449966446E+03  0.35136888704E+03  0.17638398728E+04  0.10100000352E+00 0.  1.
       -3    1    3    3    0  502  0.14850358027E+04 -0.88449966446E+03 -0.71119828627E+03  0.18690837339E+04  0.10100000352E+00 0. -1.
</event>
<event>
 5   0  0.1908726E-06  0.3432295E+04  0.7818609E-02  0.8130025E-01
        2   -1    0    0  501    0  0.00000000000E+00  0.00000000000E+00  0.12302044723E+04  0.12302044723E+04  0.25500000920E-02 0.  1.
       -2   -1    0    0    0  501  0.00000000000E+00  0.00000000000E+00 -0.23940428036E+04  0.23940428036E+04  0.25500000920E-02 0. -1.
    10030    2    1    2    0    0  0.00000000000E+00  0.00000000000E+00 -0.11638383313E+04  0.36242472759E+04  0.34322949546E+04 0.  0.
        5    1    3    3  502    0 -0.76941495186E+03  0.12494214196E+04 -0.15216849161E+04  0.21139064137E+04  0.46999998093E+01 0.  1.
       -5    1    3    3    0  502  0.76941495186E+03 -0.12494214196E+04  0.35784658480E+03  0.15103408622E+04  0.46999998093E+01 0. -1.
</event>
<event>
 5   0  0.1782660E-06  0.3500864E+04  0.7818609E-02  0.8113585E-01
        2   -1    0    0  501    0  0.00000000000E+00  0.00000000000E+00  0.14129279030E+04  0.14129279030E+04  0.25500000920E-02 0.  1.
       -2   -1    0    0    0  501  0.00000000000E+00  0.00000000000E+00 -0.21685546972E+04  0.21685546972E+04  0.25500000920E-02 0. -1.
    10030    2    1    2    0    0  0.00000000000E+00  0.00000000000E+00 -0.75562679425E+03  0.35814826002E+04  0.35008635740E+04 0.  0.
        4    1    3    3  502    0 -0.98596282979E+03  0.11791657600E+04 -0.12346295386E+04  0.19715137082E+04  0.12699999809E+01 0. -1.
       -4    1    3    3    0  502  0.98596282979E+03 -0.11791657600E+04  0.47900274435E+03  0.16099688920E+04  0.12699999809E+01 0.  1.
</event>
<event>
 5   0  0.1130707E-06  0.3358508E+04  0.7818609E-02  0.8148166E-01
       -1   -1    0    0    0  501  0.00000000000E+00  0.00000000000E+00  0.11967984172E+04  0.11967984172E+04  0.50400001928E-02 0. -1.
        1   -1    0    0  501    0  0.00000000000E+00  0.00000000000E+00 -0.23561979793E+04  0.23561979793E+04  0.50400001928E-02 0.  1.
    10030    2    1    2    0    0  0.00000000000E+00  0.00000000000E+00 -0.11593995622E+04  0.35529963965E+04  0.33585080093E+04 0.  0.
        3    1    3    3  502    0  0.30355071849E+03  0.14240788683E+04  0.30525267278E+03  0.14877240558E+04  0.10100000352E+00 0. -1.
       -3    1    3    3    0  502 -0.30355071849E+03 -0.14240788683E+04 -0.14646522349E+04  0.20652723407E+04  0.10100000352E+00 0.  1.
</event>
<event>
 5   0  0.3378848E-06  0.2905942E+04  0.7818609E-02  0.8271112E-01
        2   -1    0    0  501    0  0.00000000000E+00  0.00000000000E+00  0.16786166171E+04  0.16786166171E+04  0.25500000920E-02 0.  1.
       -2   -1    0    0    0  501  0.00000000000E+00  0.00000000000E+00 -0.12576570927E+04  0.12576570927E+04  0.25500000920E-02 0. -1.
    10030    2    1    2    0    0  0.00000000000E+00  0.00000000000E+00  0.42095952440E+03  0.29362737099E+04  0.29059415648E+04 0.  0.
        1    1    3    3  502    0  0.68953030701E+03  0.12751710059E+04  0.11142098750E+03  0.14539352720E+04  0.50400001928E-02 0.  1.
       -1    1    3    3    0  502 -0.68953030701E+03 -0.12751710059E+04  0.30953853689E+03  0.14823384379E+04  0.50400001928E-02 0. -1.
</event>
<event>
 5   0  0.1130707E-06  0.3537061E+04  0.7818609E-02  0.8105063E-01
        1   -1    0    0  501    0  0.00000000000E+00  0.00000000000E+00  0.14576068299E+04  0.14576068300E+04  0.50400001928E-02 0. -1.
       -1   -1    0    0    0  501  0.00000000000E+00  0.00000000000E+00 -0.21457777867E+04  0.21457777867E+04  0.50400001928E-02 0.  1.
    10030    2    1    2    0    0  0.00000000000E+00  0.00000000000E+00 -0.68817095672E+03  0.36033846166E+04  0.35370611289E+04 0.  0.
        3    1    3    3  502    0  0.92771171129E+03  0.12486556882E+04  0.51306519442E+03  0.16379944905E+04  0.10100000352E+00 0. -1.
       -3    1    3    3    0  502 -0.92771171129E+03 -0.12486556882E+04 -0.12012361511E+04  0.19653901261E+04  0.10100000352E+00 0.  1.
</event>
<event>
 5   0  0.1125196E-06  0.3503661E+04  0.7818609E-02  0.8112923E-01
        1   -1    0    0  501    0  0.00000000000E+00  0.00000000000E+00  0.26418574403E+04  0.26418574404E+04  0.50400001928E-02 0.  1.
       -1   -1    0    0    0  501  0.00000000000E+00  0.00000000000E+00 -0.11616488180E+04  0.11616488180E+04  0.50400001928E-02 0. -1.
    10030    2    1    2    0    0  0.00000000000E+00  0.00000000000E+00  0.14802086224E+04  0.38035062583E+04  0.35036612695E+04 0.  0.
        4    1    3    3  502    0 -0.14343465352E+04 -0.19942672468E+03  0.18102620083E+04  0.23182258632E+04  0.12699999809E+01 0.  1.
       -4    1    3    3    0  502  0.14343465352E+04  0.19942672468E+03 -0.33005338588E+03  0.14852803951E+04  0.12699999809E+01 0. -1.
</event>
<event>
 5   0  0.3378848E-06  0.3466309E+04  0.7818609E-02  0.8121821E-01
       -2   -1    0    0    0  501  0.00000000000E+00  0.00000000000E+00  0.15074907736E+04  0.15074907736E+04  0.25500000920E-02 0. -1.
        2   -1    0    0  501    0  0.00000000000E+00  0.00000000000E+00 -0.19925986890E+04  0.19925986891E+04  0.25500000920E-02 0.  1.
    10030    2    1    2    0    0  0.00000000000E+00  0.00000000000E+00 -0.48510791548E+03  0.35000894626E+04  0.34663087798E+04 0.  0.
        1    1    3    3  502    0 -0.90431291522E+03  0.73155248195E+03  0.10548307185E+04  0.15702288773E+04  0.50400001928E-02 0. -1.
       -1    1    3    3    0  502  0.90431291522E+03 -0.73155248195E+03 -0.15399386339E+04  0.19298605853E+04  0.50400001928E-02 0.  1.
</event>
<event>
 5   0  0.1782660E-06  0.3509004E+04  0.7818609E-02  0.8111659E-01
        2   -1    0    0  501    0  0.00000000000E+00  0.00000000000E+00  0.21999586641E+04  0.21999586641E+04  0.25500000920E-02 0. -1.
       -2   -1    0    0    0  501  0.00000000000E+00  0.00000000000E+00 -0.13992435811E+04  0.13992435812E+04  0.25500000920E-02 0.  1.
    10030    2    1    2    0    0  0.00000000000E+00  0.00000000000E+00  0.80071508299E+03  0.35992022453E+04  0.35090044398E+04 0.  0.
        4    1    3    3  502    0  0.75112765822E+03  0.13268617158E+04  0.12907268930E+04  0.19976817307E+04  0.12699999809E+01 0. -1.
       -4    1    3    3    0  502 -0.75112765822E+03 -0.13268617158E+04 -0.49001181003E+03  0.16015205146E+04  0.12699999809E+01 0.  1.
</event>
<event>
 5   0  0.1908726E-06  0.3403959E+04  0.7818609E-02  0.8136935E-01
        2   -1    0    0  501    0  0.00000000000E+00  0.00000000000E+00  0.14466735963E+04  0.14466735963E+04  0.25500000920E-02 0.  1.
       -2   -1    0    0    0  501  0.00000000000E+00  0.00000000000E+00 -0.20023407852E+04  0.20023407852E+04  0.25500000920E-02 0. -1.
    10030    2    1    2    0    0  0.00000000000E+00  0.00000000000E+00 -0.55566718894E+03  0.34490143814E+04  0.34039586041E+04 0.  0.
        5    1    3    3  502    0  0.15409196443E+04  0.71513712858E+03 -0.17225752538E+03  0.17074979379E+04  0.46999998093E+01 0.  1.
       -5    1    3    3    0  502 -0.15409196443E+04 -0.71513712858E+03 -0.38340966356E+03  0.17415164435E+04  0.46999998093E+01 0. -1.
</event>
<event>
 5   0  0.1782660E-06  0.3058051E+04  0.7818609E-02  0.8227346E-01
       -2   -1    0    0    0  501  0.00000000000E+00  0.00000000000E+00  0.11536617530E+04  0.11536617530E+04  0.25500000920E-02 0. -1.
        2   -1    0    0  501    0  0.00000000000E+00  0.00000000000E+00 -0.20265198470E+04  0.20265198470E+04  0.25500000920E-02 0.  1.
    10030    2    1    2    0    0  0.00000000000E+00  0.00000000000E+00 -0.87285809400E+03  0.31801816000E+04  0.30580506465E+04 0.  0.
        4    1    3    3  502    0 -0.40136116202E+03  0.83952631608E+03  0.82529488102E+03  0.12437879527E+04  0.12699999809E+01 0. -1.
       -4    1    3    3    0  502  0.40136116202E+03 -0.83952631608E+03 -0.16981529750E+04  0.19363936473E+04  0.12699999809E+01 0.  1.
</event>
<event>
 5   0  0.3041329E-06  0.2605173E+04  0.7818609E-02  0.8366446E-01
        2   -1    0    0  501    0  0.00000000000E+00  0.00000000000E+00  0.16402968132E+04  0.16402968132E+04  0.25500000920E-02 0.  1.
       -2   -1    0    0    0  501  0.00000000000E+00  0.00000000000E+00 -0.10344053259E+04  0.10344053259E+04  0.25500000920E-02 0. -1.
    10030    2    1    2    0    0  0.00000000000E+00  0.00000000000E+00  0.60589148722E+03  0.26747021391E+04  0.26051731303E+04 0.  0.
        2    1    3    3  502    0 -0.46007853243E+03  0.11009664658E+04 -0.23342655222E+03  0.12158484157E+04  0.25500000920E-02 0. -1.
       -2    1    3    3    0  502  0.46007853243E+03 -0.11009664658E+04  0.83931803944E+03  0.14588537233E+04  0.25500000920E-02 0.  1.
</event>
<event>
 5   0  0.1125196E-06  0.3356681E+04  0.7818609E-02  0.8148621E-01
       -1   -1    0    0    0  501  0.00000000000E+00  0.00000000000E+00  0.12233032557E+04  0.12233032557E+04  0.50400001928E-02 0.  1.
        1   -1    0    0  501    0  0.00000000000E+00  0.00000000000E+00 -0.23026395528E+04  0.23026395528E+04  0.50400001928E-02 0. -1.
    10030    2    1    2    0    0  0.00000000000E+00  0.00000000000E+00 -0.10793362971E+04  0.35259428084E+04  0.33566807781E+04 0.  0.
        4    1    3    3  502    0  0.35624372758E+03 -0.16400390927E+04 -0.55403363856E+03  0.17673688649E+04  0.12699999809E+01 0. -1.
       -4    1    3    3    0  502 -0.35624372758E+03  0.16400390927E+04 -0.52530265853E+03  0.17585739436E+04  0.12699999809E+01 0.  1.
</event>
<event>
 5   0  0.1908726E-06  0.1930514E+04  0.7818609E-02  0.8639815E-01
       -2   -1    0    0    0  501  0.00000000000E+00  0.00000000000E+00  0.47122798749E+03  0.47122798750E+03  0.25500000920E-02 0. -1.
        2   -1    0    0  501    0  0.00000000000E+00  0.00000000000E+00 -0.19772197467E+04  0.19772197467E+04  0.25500000920E-02 0.  1.
    10030    2    1    2    0    0  0.00000000000E+00  0.00000000000E+00 -0.15059917592E+04  0.24484477342E+04  0.19305142134E+04 0.  0.
        5    1    3    3  502    0  0.26426968896E+03 -0.40018970211E+03  0.30942435790E+03  0.57075019881E+03  0.46999998093E+01 0. -1.
       -5    1    3    3    0  502 -0.26426968896E+03  0.40018970211E+03 -0.18154161171E+04  0.18776975354E+04  0.46999998093E+01 0.  1.
</event>
<event>
 5   0  0.1130707E-06  0.3484454E+04  0.7818609E-02  0.8117484E-01
       -1   -1    0    0    0  501  0.00000000000E+00  0.00000000000E+00  0.18609433717E+04  0.18609433717E+04  0.50400001928E-02 0. -1.
        1   -1    0    0  501    0  0.00000000000E+00  0.00000000000E+00 -0.16310837616E+04  0.16310837616E+04  0.50400001928E-02 0.  1.
    10030    2    1    2    0    0  0.00000000000E+00  0.00000000000E+00  0.22985961004E+03  0.34920271333E+04  0.34844537677E+04 0.  0.
        3    1    3    3  502    0  0.80002821962E+03 -0.10647021078E+04  0.12406337436E+04  0.18201120368E+04  0.10100000352E+00 0. -1.
       -3    1    3    3    0  502 -0.80002821962E+03  0.10647021078E+04 -0.10107741335E+04  0.16719150965E+04  0.10100000352E+00 0.  1.
</event>
<event>
 5   0  0.1102175E-06  0.2163682E+04  0.7818609E-02  0.8533698E-01
       -1   -1    0    0    0  501  0.00000000000E+00  0.00000000000E+00  0.10968054832E+04  0.10968054832E+04  0.50400001928E-02 0. -1.
        1   -1    0    0  501    0  0.00000000000E+00  0.00000000000E+00 -0.10670803401E+04  0.10670803401E+04  0.50400001928E-02 0.  1.
    10030    2    1    2    0    0  0.00000000000E+00  0.00000000000E+00  0.29725143084E+02  0.21638858233E+04  0.21636816476E+04 0.  0.
        5    1    3    3  502    0 -0.69941268449E+03  0.39289938268E+03 -0.71102232246E+03  0.10719714834E+04  0.46999998093E+01 0.  1.
       -5    1    3    3    0  502  0.69941268449E+03 -0.39289938268E+03  0.74074746554E+03  0.10919143400E+04  0.46999998093E+01 0. -1.
</event>
<event>
 5   0  0.1908726E-06  0.3018905E+04  0.7818609E-02  0.8238353E-01
        2   -1    0    0  501    0  0.00000000000E+00  0.00000000000E+00  0.21108845074E+04  0.21108845074E+04  0.25500000920E-02 0. -1.
       -2   -1    0    0    0  501  0.00000000000E+00  0.00000000000E+00 -0.10793800203E+04  0.10793800203E+04  0.25500000920E-02 0.  1.
    10030    2    1    2    0    0  0.00000000000E+00  0.00000000000E+00  0.10315044871E+04  0.31902645276E+04  0.30189048096E+04 0.  0.
        5    1    3    3  502    0  0.74915955471E+03 -0.84637841172E+03 -0.54144738814E+03  0.12533091472E+04  0.46999998093E+01 0.  1.
       -5    1    3    3    0  502 -0.74915955471E+03  0.84637841172E+03  0.15729518752E+04  0.19369553805E+04  0.46999998093E+01 0. -1.
</event>
<event>
 5   0  0.1089337E-06  0.3555777E+04  0.7818609E-02  0.8100697E-01
        1   -1    0    0  501    0  0.00000000000E+00  0.00000000000E+00  0.24255429447E+04  0.24255429447E+04  0.50400001928E-02 0.  1.
       -1   -1    0    0    0  501  0.00000000000E+00  0.00000000000E+00 -0.13031672201E+04  0.13031672201E+04  0.50400001928E-02 0. -1.
    10030    2    1    2    0    0  0.00000000000E+00  0.00000000000E+00  0.11223757246E+04  0.37287101648E+04  0.35557773026E+04 0.  0.
        2    1    3    3  502    0  0.13367502689E+04  0.69293851201E+03  0.15525899626E+04  0.21627761453E+04  0.25500000920E-02 0.  1.
       -2    1    3    3    0  502 -0.13367502689E+04 -0.69293851201E+03 -0.43021423802E+03  0.15659340195E+04  0.25500000920E-02 0. -1.
</event>
<event>
 5   0  0.2565004E-06  0.3541579E+04  0.7818609E-02  0.8104006E-01
        2   -1    0    0  501    0  0.00000000000E+00  0.00000000000E+00  0.22564120546E+04  0.22564120546E+04  0.25500000920E-02 0.  1.
       -2   -1    0    0    0  501  0.00000000000E+00  0.00000000000E+00 -0.13896817993E+04  0.13896817993E+04  0.25500000920E-02 0. -1.
    10030    2    1    2    0    0  0.00000000000E+00  0.00000000000E+00  0.86673025530E+03  0.36460938539E+04  0.35415786107E+04 0.  0.
        3    1    3    3  502    0  0.72110273376E+01 -0.11984402784E+04 -0.90870953040E+03  0.15040159975E+04  0.10100000352E+00 0. -1.
       -3    1    3    3    0  502 -0.72110273376E+01  0.11984402784E+04  0.17754397857E+04  0.21420778564E+04  0.10100000352E+00 0.  1.
</event>
<event>
 5   0  0.1908726E-06  0.3245747E+04  0.7818609E-02  0.8176839E-01
        2   -1    0    0  501    0  0.00000000000E+00  0.00000000000E+00  0.11563560082E+04  0.11563560082E+04  0.25500000920E-02 0. -1.
       -2   -1    0    0    0  501  0.00000000000E+00  0.00000000000E+00 -0.22776011824E+04  0.22776011824E+04  0.25500000920E-02 0.  1.
    10030    2    1    2    0    0  0.00000000000E+00  0.00000000000E+00 -0.11212451742E+04  0.34339571906E+04  0.32457466392E+04 0.  0.
        5    1    3    3  502    0  0.11703597803E+04 -0.75716442465E+03 -0.14398699482E+04  0.20040677481E+04  0.46999998093E+01 0.  1.
       -5    1    3    3    0  502 -0.11703597803E+04  0.75716442465E+03  0.31862477399E+03  0.14298894425E+04  0.46999998093E+01 0. -1.
</event>
<event>
 5   0  0.1908726E-06  0.3022630E+04  0.7818609E-02  0.8237298E-01
       -2   -1    0    0    0  501  0.00000000000E+00  0.00000000000E+00  0.14105284072E+04  0.14105284072E+04  0.25500000920E-02 0. -1.
        2   -1    0    0  501    0  0.00000000000E+00  0.00000000000E+00 -0.16193032022E+04  0.16193032022E+04  0.25500000920E-02 0.  1.
    10030    2    1    2    0    0  0.00000000000E+00  0.00000000000E+00 -0.20877479498E+03  0.30298316093E+04  0.30226300908E+04 0.  0.
        5    1    3    3  502    0  0.72302696926E+03  0.51941120516E+03  0.11197901303E+04  0.14305621358E+04  0.46999998093E+01 0. -1.
       -5    1    3    3    0  502 -0.72302696926E+03 -0.51941120516E+03 -0.13285649253E+04  0.15992694736E+04  0.46999998093E+01 0.  1.
</event>
<event>
 5   0  0.1102175E-06  0.2172455E+04  0.7818609E-02  0.8529981E-01
        1   -1    0    0  501    0  0.00000000000E+00  0.00000000000E+00  0.91246253683E+03  0.91246253685E+03  0.50400001928E-02 0. -1.
       -1   -1    0    0    0  501  0.00000000000E+00  0.00000000000E+00 -0.12930830214E+04  0.12930830214E+04  0.50400001928E-02 0.  1.
    10030    2    1    2    0    0  0.00000000000E+00  0.00000000000E+00 -0.38062048456E+03  0.22055455582E+04  0.21724546615E+04 0.  0.
        5    1    3    3  502    0 -0.10026578037E+04  0.17372541250E+03  0.19543054966E+03  0.10362038313E+04  0.46999998093E+01 0. -1.
       -5    1    3    3    0  502  0.10026578037E+04 -0.17372541250E+03 -0.57605103421E+03  0.11693417269E+04  0.46999998093E+01 0.  1.
</event>
<event>
 5   0  0.3378848E-06  0.3336935E+04  0.7818609E-02  0.8153560E-01
        2   -1    0    0  501    0  0.00000000000E+00  0.00000000000E+00  0.21374685337E+04  0.21374685337E+04  0.25500000920E-02 0. -1.
       -2   -1    0    0    0  501  0.00000000000E+00  0.00000000000E+00 -0.13023739338E+04  0.13023739338E+04  0.25500000920E-02 0.  1.
    10030    2    1    2    0    0  0.00000000000E+00  0.00000000000E+00  0.83509459995E+03  0.34398424675E+04  0.33369347027E+04 0.  0.
        1    1    3    3  502    0  0.15717418580E+04  0.25084617275E+03  0.93346861247E+03  0.18451720573E+04  0.50400001928E-02 0.  1.
       -1    1    3    3    0  502 -0.15717418580E+04 -0.25084617275E+03 -0.98374012529E+02  0.15946704102E+04  0.50400001928E-02 0. -1.
</event>
<event>
 5   0  0.3378848E-06  0.1751756E+04  0.7818609E-02  0.8732384E-01
       -2   -1    0    0    0  501  0.00000000000E+00  0.00000000000E+00  0.52118203720E+03  0.52118203721E+03  0.25500000920E-02 0.  1.
        2   -1    0    0  501    0  0.00000000000E+00  0.00000000000E+00 -0.14719667369E+04  0.14719667369E+04  0.25500000920E-02 0. -1.
    10030    2    1    2    0    0  0.00000000000E+00  0.00000000000E+00 -0.95078469968E+03  0.19931487741E+04  0.17517564016E+04 0.  0.
        1    1    3    3  502    0  0.27023473058E+03  0.44447299910E+03 -0.12771819631E+04  0.13790492462E+04  0.50400001928E-02 0. -1.
       -1    1    3    3    0  502 -0.27023473058E+03 -0.44447299910E+03  0.32639726343E+03  0.61409952788E+03  0.50400001928E-02 0.  1.
</event>
<event>
 5   0  0.1110956E-06  0.3531109E+04  0.7818609E-02  0.8106457E-01
       -1   -1    0    0    0  501  0.00000000000E+00  0.00000000000E+00  0.16010020418E+04  0.16010020418E+04  0.50400001928E-02 0.  1.
        1   -1    0    0  501    0  0.00000000000E+00  0.00000000000E+00 -0.19470196345E+04  0.19470196345E+04  0.50400001928E-02 0. -1.
    10030    2    1    2    0    0  0.00000000000E+00  0.00000000000E+00 -0.34601759270E+03  0.35480216764E+04  0.35311088402E+04 0.  0.
        1    1    3    3  502    0 -0.50237611045E+02  0.15396736132E+04 -0.10397316255E+04  0.18585371952E+04  0.50400001928E-02 0. -1.
       -1    1    3    3    0  502  0.50237611045E+02 -0.15396736132E+04  0.69371403280E+03  0.16894844812E+04  0.50400001928E-02 0.  1.
</event>
<event>
 5   0  0.2565004E-06  0.3464158E+04  0.7818609E-02  0.8122337E-01
        2   -1    0    0  501    0  0.00000000000E+00  0.00000000000E+00  0.23595719568E+04  0.23595719568E+04  0.25500000920E-02 0.  1.
       -2   -1    0    0    0  501  0.00000000000E+00  0.00000000000E+00 -0.12714581717E+04  0.12714581717E+04  0.25500000920E-02 0. -1.
    10030    2    1    2    0    0  0.00000000000E+00  0.00000000000E+00  0.10881137852E+04  0.36310301285E+04  0.34641576443E+04 0.  0.
        3    1    3    3  502    0 -0.10343953497E+04  0.92916552309E+03 -0.53854445740E+03  0.14910910272E+04  0.10100000352E+00 0. -1.
       -3    1    3    3    0  502  0.10343953497E+04 -0.92916552309E+03  0.16266582426E+04  0.21399391013E+04  0.10100000352E+00 0.  1.
</event>
<event>
 5   0  0.3378848E-06  0.1763423E+04  0.7818609E-02  0.8725996E-01
        2   -1    0    0  501    0  0.00000000000E+00  0.00000000000E+00  0.30062775356E+04  0.30062775356E+04  0.25500000920E-02 0.  1.
       -2   -1    0    0    0  501  0.00000000000E+00  0.00000000000E+00 -0.25859720406E+03  0.25859720408E+03  0.25500000920E-02 0. -1.
    10030    2    1    2    0    0  0.00000000000E+00  0.00000000000E+00  0.27476803316E+04  0.32648747397E+04  0.17634227688E+04 0.  0.
        1    1    3    3  502    0 -0.66618222811E+03 -0.57322550272E+03  0.12425479058E+04  0.15219433420E+04  0.50400001928E-02 0. -1.
       -1    1    3    3    0  502  0.66618222811E+03  0.57322550272E+03  0.15051324257E+04  0.17429313977E+04  0.50400001928E-02 0.  1.
</event>
<event>
 5   0  0.1125196E-06  0.2112664E+04  0.7818609E-02  0.8555685E-01
       -1   -1    0    0    0  501  0.00000000000E+00  0.00000000000E+00  0.52470335016E+03  0.52470335019E+03  0.50400001928E-02 0.  1.
        1   -1    0    0  501    0  0.00000000000E+00  0.00000000000E+00 -0.21266064236E+04  0.21266064236E+04  0.50400001928E-02 0. -1.
    10030    2    1    2    0    0  0.00000000000E+00  0.00000000000E+00 -0.16019030734E+04  0.26513097738E+04  0.21126642090E+04 0.  0.
        4    1    3    3  502    0  0.54835526728E+03  0.13884881903E+03 -0.19205164171E+04  0.20020882635E+04  0.12699999809E+01 0. -1.
       -4    1    3    3    0  502 -0.54835526728E+03 -0.13884881903E+03  0.31861334368E+03  0.64922151025E+03  0.12699999809E+01 0.  1.
</event>
<event>
 5   0  0.1110956E-06  0.3440395E+04  0.7818609E-02  0.8128063E-01
       -1   -1    0    0    0  501  0.00000000000E+00  0.00000000000E+00  0.14633730061E+04  0.14633730061E+04  0.50400001928E-02 0.  1.
        1   -1    0    0  501    0  0.00000000000E+00  0.00000000000E+00 -0.20220948795E+04  0.20220948795E+04  0.50400001928E-02 0. -1.
    10030    2    1    2    0    0  0.00000000000E+00  0.00000000000E+00 -0.55872187344E+03  0.34854678856E+04  0.34403947811E+04 0.  0.
        1    1    3    3  502    0  0.16044166609E+04 -0.60995544118E+03 -0.39434055398E+03  0.17611652207E+04  0.50400001928E-02 0.  1.
       -1    1    3    3    0  502 -0.16044166609E+04  0.60995544118E+03 -0.16438131946E+03  0.17243026649E+04  0.50400001928E-02 0. -1.
</event>
<event>
 5   0  0.1908726E-06  0.3627913E+04  0.7818609E-02  0.8084128E-01
        2   -1    0    0  501    0  0.00000000000E+00  0.00000000000E+00  0.19466495830E+04  0.19466495830E+04  0.25500000920E-02 0.  1.
       -2   -1    0    0    0  501  0.00000000000E+00  0.00000000000E+00 -0.16903084225E+04  0.16903084225E+04  0.25500000920E-02 0. -1.
    10030    2    1    2    0    0  0.00000000000E+00  0.00000000000E+00  0.25634116052E+03  0.36369580054E+04  0.36279130010E+04 0.  0.
        5    1    3    3  502    0  0.30027109879E+03  0.98575896156E+03  0.16247195127E+04  0.19239592116E+04  0.46999998093E+01 0.  1.
       -5    1    3    3    0  502 -0.30027109879E+03 -0.98575896156E+03 -0.13683783521E+04  0.17129987938E+04  0.46999998093E+01 0. -1.
</event>
<event>
 5   0  0.1130707E-06  0.3411999E+04  0.7818609E-02  0.8134968E-01
       -1   -1    0    0    0  501  0.00000000000E+00  0.00000000000E+00  0.12535656061E+04  0.12535656061E+04  0.50400001928E-02 0.  1.
        1   -1    0    0  501    0  0.00000000000E+00  0.00000000000E+00 -0.23217247658E+04  0.23217247658E+04  0.50400001928E-02 0. -1.
    10030    2    1    2    0    0  0.00000000000E+00  0.00000000000E+00 -0.10681591597E+04  0.35752903719E+04  0.34119990112E+04 0.  0.
        3    1    3    3  502    0 -0.62733257745E+03 -0.11063458428E+04  0.65738931750E+03  0.14316801359E+04  0.10100000352E+00 0.  1.
       -3    1    3    3    0  502  0.62733257745E+03  0.11063458428E+04 -0.17255484772E+04  0.21436102360E+04  0.10100000352E+00 0. -1.
</event>
<event>
 5   0  0.3378848E-06  0.3527864E+04  0.7818609E-02  0.8107218E-01
       -2   -1    0    0    0  501  0.00000000000E+00  0.00000000000E+00  0.19638222467E+04  0.19638222467E+04  0.25500000920E-02 0. -1.
        2   -1    0    0  501    0  0.00000000000E+00  0.00000000000E+00 -0.15843880229E+04  0.15843880229E+04  0.25500000920E-02 0.  1.
    10030    2    1    2    0    0  0.00000000000E+00  0.00000000000E+00  0.37943422381E+03  0.35482102696E+04  0.35278641963E+04 0.  0.
        1    1    3    3  502    0 -0.14478411428E+04 -0.39374908051E+03 -0.74308748810E+03  0.16743540033E+04  0.50400001928E-02 0.  1.
       -1    1    3    3    0  502  0.14478411428E+04  0.39374908051E+03  0.11225217119E+04  0.18738562664E+04  0.50400001928E-02 0. -1.
</event>
<event>
 5   0  0.2565004E-06  0.3580449E+04  0.7818609E-02  0.8094985E-01
       -2   -1    0    0    0  501  0.00000000000E+00  0.00000000000E+00  0.21269914821E+04  0.21269914821E+04  0.25500000920E-02 0. -1.
        2   -1    0    0  501    0  0.00000000000E+00  0.00000000000E+00 -0.15067778575E+04  0.15067778575E+04  0.25500000920E-02 0.  1.
    10030    2    1    2    0    0  0.00000000000E+00  0.00000000000E+00  0.62021362458E+03  0.36337693395E+04  0.35804489485E+04 0.  0.
        3    1    3    3  502    0 -0.12205145601E+03  0.13072923853E+04  0.15451907644E+04  0.20276894356E+04  0.10100000352E+00 0. -1.
       -3    1    3    3    0  502  0.12205145601E+03 -0.13072923853E+04 -0.92497713981E+03  0.16060799040E+04  0.10100000352E+00 0.  1.
</event>
<event>
 5   0  0.3041329E-06  0.3382957E+04  0.7818609E-02  0.8142102E-01
       -2   -1    0    0    0  501  0.00000000000E+00  0.00000000000E+00  0.33502646432E+04  0.33502646432E+04  0.25500000920E-02 0. -1.
        2   -1    0    0  501    0  0.00000000000E+00  0.00000000000E+00 -0.85399205857E+03  0.85399205857E+03  0.25500000920E-02 0.  1.
    10030    2    1    2    0    0  0.00000000000E+00  0.00000000000E+00  0.24962725847E+04  0.42042567018E+04  0.33829569311E+04 0.  0.
        2    1    3    3  502    0 -0.13728247285E+04  0.80180931879E+02  0.24129856786E+02  0.13753759366E+04  0.25500000920E-02 0.  1.
       -2    1    3    3    0  502  0.13728247285E+04 -0.80180931879E+02  0.24721427279E+04  0.28288807652E+04  0.25500000920E-02 0. -1.
</event>
<event>
 5   0  0.3378848E-06  0.3480377E+04  0.7818609E-02  0.8118456E-01
       -2   -1    0    0    0  501  0.00000000000E+00  0.00000000000E+00  0.28275735320E+04  0.28275735320E+04  0.25500000920E-02 0.  1.
        2   -1    0    0  501    0  0.00000000000E+00  0.00000000000E+00 -0.10709732859E+04  0.10709732859E+04  0.25500000920E-02 0. -1.
    10030    2    1    2    0    0  0.00000000000E+00  0.00000000000E+00  0.17566002462E+04  0.38985468179E+04  0.34803768283E+04 0.  0.
        1    1    3    3  502    0  0.53096599251E+03  0.65538877636E+03  0.25832845588E+04  0.27175022438E+04  0.50400001928E-02 0.  1.
       -1    1    3    3    0  502 -0.53096599251E+03 -0.65538877636E+03 -0.82668431262E+03  0.11810445742E+04  0.50400001928E-02 0. -1.
</event>
<event>
 5   0  0.1908726E-06  0.3454790E+04  0.7818609E-02  0.8124588E-01
        2   -1    0    0  501    0  0.00000000000E+00  0.00000000000E+00  0.21503965659E+04  0.21503965659E+04  0.25500000920E-02 0. -1.
       -2   -1    0    0    0  501  0.00000000000E+00  0.00000000000E+00 -0.13876015178E+04  0.13876015178E+04  0.25500000920E-02 0.  1.
    10030    2    1    2    0    0  0.00000000000E+00  0.00000000000E+00  0.76279504816E+03  0.35379980837E+04  0.34547900305E+04 0.  0.
        5    1    3    3  502    0  0.12313396189E+04 -0.63026505456E+02  0.16203716780E+04  0.20361228014E+04  0.46999998093E+01 0. -1.
       -5    1    3    3    0  502 -0.12313396189E+04  0.63026505456E+02 -0.85757662987E+03  0.15018752823E+04  0.46999998093E+01 0.  1.
</event>
<event>
 5   0  0.1125196E-06  0.3854758E+04  0.7818609E-02  0.8034505E-01
        1   -1    0    0  501    0  0.00000000000E+00  0.00000000000E+00  0.20615716497E+04  0.20615716497E+04  0.50400001928E-02 0.  1.
       -1   -1    0    0    0  501  0.00000000000E+00  0.00000000000E+00 -0.18019213343E+04  0.18019213343E+04  0.50400001928E-02 0. -1.
    10030    2    1    2    0    0  0.00000000000E+00  0.00000000000E+00  0.25965031537E+03  0.38634929841E+04  0.38547580665E+04 0.  0.
        4    1    3    3  502    0 -0.16068415703E+03  0.87407799347E+03  0.18439510470E+04  0.20469462166E+04  0.12699999809E+01 0.  1.
       -4    1    3    3    0  502  0.16068415703E+03 -0.87407799347E+03 -0.15843007317E+04  0.18165467674E+04  0.12699999809E+01 0. -1.
</event>
<event>
 5   0  0.3378848E-06  0.3024611E+04  0.7818609E-02  0.8236738E-01
       -2   -1    0    0    0  501  0.00000000000E+00  0.00000000000E+00  0.87566659578E+03  0.87566659579E+03  0.25500000920E-02 0.  1.
        2   -1    0    0  501    0  0.00000000000E+00  0.00000000000E+00 -0.26118024996E+04  0.26118024996E+04  0.25500000920E-02 0. -1.
    10030    2    1    2    0    0  0.00000000000E+00  0.00000000000E+00 -0.17361359038E+04  0.34874690954E+04  0.30246111841E+04 0.  0.
        1    1    3    3  502    0  0.40804345761E+03  0.52553506443E+03  0.69783992525E+03  0.96419247485E+03  0.50400001928E-02 0.  1.
       -1    1    3    3    0  502 -0.40804345761E+03 -0.52553506443E+03 -0.24339758291E+04  0.25232766205E+04  0.50400001928E-02 0. -1.
</event>
<event>
 5   0  0.2565004E-06  0.3522187E+04  0.7818609E-02  0.8108552E-01
       -2   -1    0    0    0  501  0.00000000000E+00  0.00000000000E+00  0.14062128676E+04  0.14062128676E+04  0.25500000920E-02 0. -1.
        2   -1    0    0  501    0  0.00000000000E+00  0.00000000000E+00 -0.22055334255E+04  0.22055334255E+04  0.25500000920E-02 0.  1.
    10030    2    1    2    0    0  0.00000000000E+00  0.00000000000E+00 -0.79932055794E+03  0.36117462931E+04  0.35221865271E+04 0.  0.
        3    1    3    3  502    0  0.60393579881E+03 -0.24302373452E+03 -0.20776211469E+04  0.21772249826E+04  0.10100000352E+00 0.  1.
       -3    1    3    3    0  502 -0.60393579881E+03  0.24302373452E+03  0.12783005889E+04  0.14345213106E+04  0.10100000352E+00 0. -1.
</event>
<event>
 5   0  0.1125196E-06  0.2062886E+04  0.7818609E-02  0.8577771E-01
       -1   -1    0    0    0  501  0.00000000000E+00  0.00000000000E+00  0.55340958835E+03  0.55340958837E+03  0.50400001928E-02 0.  1.
        1   -1    0    0  501    0  0.00000000000E+00  0.00000000000E+00 -0.19223997045E+04  0.19223997045E+04  0.50400001928E-02 0. -1.
    10030    2    1    2    0    0  0.00000000000E+00  0.00000000000E+00 -0.13689901162E+04  0.24758092929E+04  0.20628857740E+04 0.  0.
        4    1    3    3  502    0 -0.65312744026E+03  0.22575087489E+03 -0.16034929435E+04  0.17460613229E+04  0.12699999809E+01 0.  1.
       -4    1    3    3    0  502  0.65312744026E+03 -0.22575087489E+03  0.23450282732E+03  0.72974796996E+03  0.12699999809E+01 0. -1.
</event>
<event>
 5   0  0.1908726E-06  0.2053801E+04  0.7818609E-02  0.8581872E-01
        2   -1    0    0  501    0  0.00000000000E+00  0.00000000000E+00  0.14958266591E+04  0.14958266591E+04  0.25500000920E-02 0. -1.
       -2   -1    0    0    0  501  0.00000000000E+00  0.00000000000E+00 -0.70497755230E+03  0.70497755230E+03  0.25500000920E-02 0.  1.
    10030    2    1    2    0    0  0.00000000000E+00  0.00000000000E+00  0.79084910685E+03  0.22008042114E+04  0.20538005909E+04 0.  0.
        5    1    3    3  502    0  0.32619615905E+03  0.55589721679E+03 -0.46121781489E+03  0.79257151891E+03  0.46999998093E+01 0.  1.
       -5    1    3    3    0  502 -0.32619615905E+03 -0.55589721679E+03  0.12520669217E+04  0.14082326925E+04  0.46999998093E+01 0. -1.
</event>
<event>
 5   0  0.1908726E-06  0.3534433E+04  0.7818609E-02  0.8105678E-01
        2   -1    0    0  501    0  0.00000000000E+00  0.00000000000E+00  0.24371894482E+04  0.24371894482E+04  0.25500000920E-02 0.  1.
       -2   -1    0    0    0  501  0.00000000000E+00  0.00000000000E+00 -0.12814158901E+04  0.12814158901E+04  0.25500000920E-02 0. -1.
    10030    2    1    2    0    0  0.00000000000E+00  0.00000000000E+00  0.11557735581E+04  0.37186053383E+04  0.35344325067E+04 0.  0.
        5    1    3    3  502    0  0.17965005284E+03  0.16997286027E+04  0.10539797396E+03  0.17124492072E+04  0.46999998093E+01 0. -1.
       -5    1    3    3    0  502 -0.17965005284E+03 -0.16997286027E+04  0.10503755842E+04  0.20061561311E+04  0.46999998093E+01 0.  1.
</event>
<event>
 5   0  0.1102175E-06  0.1950033E+04  0.7818609E-02  0.8630345E-01
       -1   -1    0    0    0  501  0.00000000000E+00  0.00000000000E+00  0.56636581755E+03  0.56636581757E+03  0.50400001928E-02 0. -1.
        1   -1    0    0  501    0  0.00000000000E+00  0.00000000000E+00 -0.16785220854E+04  0.16785220854E+04  0.50400001928E-02 0.  1.
    10030    2    1    2    0    0  0.00000000000E+00  0.00000000000E+00 -0.11121562679E+04  0.22448879030E+04  0.19500333671E+04 0.  0.
        5    1    3    3  502    0  0.82126327346E+03  0.23490072199E+03 -0.10972469543E+04  0.13905483387E+04  0.46999998093E+01 0.  1.
       -5    1    3    3    0  502 -0.82126327346E+03 -0.23490072199E+03 -0.14909313595E+02  0.85433956432E+03  0.46999998093E+01 0. -1.
</event>
<event>
 5   0  0.1782660E-06  0.3411412E+04  0.7818609E-02  0.8135111E-01
        2   -1    0    0  501    0  0.00000000000E+00  0.00000000000E+00  0.22420802738E+04  0.22420802738E+04  0.25500000920E-02 0.  1.
       -2   -1    0    0    0  501  0.00000000000E+00  0.00000000000E+00 -0.12976490005E+04  0.12976490005E+04  0.25500000920E-02 0. -1.
    10030    2    1    2    0    0  0.00000000000E+00  0.00000000000E+00  0.94443127331E+03  0.35397292743E+04  0.34114121571E+04 0.  0.
        4    1    3    3  502    0  0.31836598295E+03  0.16742471174E+04  0.39905608701E+03  0.17503450182E+04  0.12699999809E+01 0. -1.
       -4    1    3    3    0  502 -0.31836598295E+03 -0.16742471174E+04  0.54537518630E+03  0.17893842561E+04  0.12699999809E+01 0.  1.
</event>
<event>
 5   0  0.1130707E-06  0.3511498E+04  0.7818609E-02  0.8111071E-01
        1   -1    0    0  501    0  0.00000000000E+00  0.00000000000E+00  0.14675266844E+04  0.14675266844E+04  0.50400001928E-02 0. -1.
       -1   -1    0    0    0  501  0.00000000000E+00  0.00000000000E+00 -0.21005776567E+04  0.21005776567E+04  0.50400001928E-02 0.  1.
    10030    2    1    2    0    0  0.00000000000E+00  0.00000000000E+00 -0.63305097227E+03  0.35681043411E+04  0.35114975516E+04 0.  0.
        3    1    3    3  502    0 -0.10631709881E+04  0.32364663130E+03  0.10646412305E+04  0.15390063845E+04  0.10100000352E+00 0. -1.
       -3    1    3    3    0  502  0.10631709881E+04 -0.32364663130E+03 -0.16976922027E+04  0.20290979565E+04  0.10100000352E+00 0.  1.
</event>
<event>
 5   0  0.1110956E-06  0.3212817E+04  0.7818609E-02  0.8185441E-01
        1   -1    0    0  501    0  0.00000000000E+00  0.00000000000E+00  0.20181915308E+04  0.20181915308E+04  0.50400001928E-02 0.  1.
       -1   -1    0    0    0  501  0.00000000000E+00  0.00000000000E+00 -0.12786435461E+04  0.12786435462E+04  0.50400001928E-02 0. -1.
    10030    2    1    2    0    0  0.00000000000E+00  0.00000000000E+00  0.73954798462E+03  0.32968350769E+04  0.32128165685E+04 0.  0.
        1    1    3    3  502    0  0.96130128582E+03 -0.70845755394E+03 -0.73281816987E+03  0.14010834158E+04  0.50400001928E-02 0. -1.
       -1    1    3    3    0  502 -0.96130128582E+03  0.70845755394E+03  0.14723661545E+04  0.18957516612E+04  0.50400001928E-02 0.  1.
</event>
<event>
 5   0  0.2565004E-06  0.2332847E+04  0.7818609E-02  0.8465081E-01
        2   -1    0    0  501    0  0.00000000000E+00  0.00000000000E+00  0.94630696461E+03  0.94630696461E+03  0.25500000920E-02 0.  1.
       -2   -1    0    0    0  501  0.00000000000E+00  0.00000000000E+00 -0.14377406123E+04  0.14377406123E+04  0.25500000920E-02 0. -1.
    10030    2    1    2    0    0  0.00000000000E+00  0.00000000000E+00 -0.49143364766E+03  0.23840475769E+04  0.23328471486E+04 0.  0.
        3    1    3    3  502    0  0.48231597455E+03  0.10511622084E+04 -0.40061272229E+03  0.12239531246E+04  0.10100000352E+00 0. -1.
       -3    1    3    3    0  502 -0.48231597455E+03 -0.10511622084E+04 -0.90820925372E+02  0.11600944523E+04  0.10100000352E+00 0.  1.
</event>
<event>
 5   0  0.1908726E-06  0.3570698E+04  0.7818609E-02  0.8097237E-01
        2   -1    0    0  501    0  0.00000000000E+00  0.00000000000E+00  0.19981551135E+04  0.19981551136E+04  0.25500000920E-02 0.  1.
       -2   -1    0    0    0  501  0.00000000000E+00  0.00000000000E+00 -0.15952073374E+04  0.15952073374E+04  0.25500000920E-02 0. -1.
    10030    2    1    2    0    0  0.00000000000E+00  0.00000000000E+00  0.40294777615E+03  0.35933624509E+04  0.35706983622E+04 0.  0.
        5    1    3    3  502    0  0.11852510324E+04  0.26433812959E+03  0.15185033095E+04  0.19443685472E+04  0.46999998093E+01 0.  1.
       -5    1    3    3    0  502 -0.11852510324E+04 -0.26433812959E+03 -0.11155555333E+04  0.16489939037E+04  0.46999998093E+01 0. -1.
</event>
<event>
 5   0  0.1102175E-06  0.3523395E+04  0.7818609E-02  0.8108268E-01
       -1   -1    0    0    0  501  0.00000000000E+00  0.00000000000E+00  0.10978116741E+04  0.10978116741E+04  0.50400001928E-02 0. -1.
        1   -1    0    0  501    0  0.00000000000E+00  0.00000000000E+00 -0.28270588422E+04  0.28270588422E+04  0.50400001928E-02 0.  1.
    10030    2    1    2    0    0  0.00000000000E+00  0.00000000000E+00 -0.17292471681E+04  0.39248705163E+04  0.35233950674E+04 0.  0.
        5    1    3    3  502    0 -0.10698425435E+04 -0.55765203246E+03  0.56540549481E+03  0.13323829482E+04  0.46999998093E+01 0. -1.
       -5    1    3    3    0  502  0.10698425435E+04  0.55765203246E+03 -0.22946526629E+04  0.25924875680E+04  0.46999998093E+01 0.  1.
</event>
<event>
 5   0  0.1130707E-06  0.2992471E+04  0.7818609E-02  0.8245884E-01
        1   -1    0    0  501    0  0.00000000000E+00  0.00000000000E+00  0.14363043420E+04  0.14363043420E+04  0.50400001928E-02 0.  1.
       -1   -1    0    0    0  501  0.00000000000E+00  0.00000000000E+00 -0.15586673528E+04  0.15586673528E+04  0.50400001928E-02 0. -1.
    10030    2    1    2    0    0  0.00000000000E+00  0.00000000000E+00 -0.12236301075E+03  0.29949716948E+04  0.29924710101E+04 0.  0.
        3    1    3    3  502    0  0.11878315144E+04 -0.32627441880E+03  0.78883498580E+03  0.14627574467E+04  0.10100000352E+00 0.  1.
       -3    1    3    3    0  502 -0.11878315144E+04  0.32627441880E+03 -0.91119799655E+03  0.15322142481E+04  0.10100000352E+00 0. -1.
</event>
<event>
 5   0  0.1782660E-06  0.3442541E+04  0.7818609E-02  0.8127544E-01
        2   -1    0    0  501    0  0.00000000000E+00  0.00000000000E+00  0.21506641187E+04  0.21506641187E+04  0.25500000920E-02 0.  1.
       -2   -1    0    0    0  501  0.00000000000E+00  0.00000000000E+00 -0.13776079985E+04  0.13776079985E+04  0.25500000920E-02 0. -1.
    10030    2    1    2    0    0  0.00000000000E+00  0.00000000000E+00  0.77305612021E+03  0.35282721173E+04  0.34425409756E+04 0.  0.
        4    1    3    3  502    0 -0.70814796377E+03 -0.12053090385E+03  0.19896976291E+04  0.21153958271E+04  0.12699999809E+01 0.  1.
       -4    1    3    3    0  502  0.70814796377E+03  0.12053090385E+03 -0.12166415089E+04  0.14128762902E+04  0.12699999809E+01 0. -1.
</event>
<event>
 5   0  0.1110956E-06  0.3500535E+04  0.7818609E-02  0.8113663E-01
        1   -1    0    0  501    0  0.00000000000E+00  0.00000000000E+00  0.19760090255E+04  0.19760090255E+04  0.50400001928E-02 0. -1.
       -1   -1    0    0    0  501  0.00000000000E+00  0.00000000000E+00 -0.15503146348E+04  0.15503146348E+04  0.50400001928E-02 0.  1.
    10030    2    1    2    0    0  0.00000000000E+00  0.00000000000E+00  0.42569439067E+03  0.35263236603E+04  0.35005346511E+04 0.  0.
        1    1    3    3  502    0 -0.10053962719E+04 -0.14050781620E+04  0.49485496102E+03  0.17972055356E+04  0.50400001928E-02 0. -1.
       -1    1    3    3    0  502  0.10053962719E+04  0.14050781620E+04 -0.69160570352E+02  0.17291181247E+04  0.50400001928E-02 0.  1.
</event>
<event>
 5   0  0.1908726E-06  0.3484307E+04  0.7818609E-02  0.8117519E-01
       -2   -1    0    0    0  501  0.00000000000E+00  0.00000000000E+00  0.16110386436E+04  0.16110386436E+04  0.25500000920E-02 0. -1.
        2   -1    0    0  501    0  0.00000000000E+00  0.00000000000E+00 -0.18839390457E+04  0.18839390457E+04  0.25500000920E-02 0.  1.
    10030    2    1    2    0    0  0.00000000000E+00  0.00000000000E+00 -0.27290040213E+03  0.34949776893E+04  0.34843068779E+04 0.  0.
        5    1    3    3  502    0 -0.11741847100E+04  0.12862972243E+04 -0.93820249682E+02  0.17441601450E+04  0.46999998093E+01 0.  1.
       -5    1    3    3    0  502  0.11741847100E+04 -0.12862972243E+04 -0.17908015245E+03  0.17508175443E+04  0.46999998093E+01 0. -1.
</event>
<event>
 5   0  0.3041329E-06  0.3557463E+04  0.7818609E-02  0.8100305E-01
        2   -1    0    0  501    0  0.00000000000E+00  0.00000000000E+00  0.19609609357E+04  0.19609609357E+04  0.25500000920E-02 0. -1.
       -2   -1    0    0    0  501  0.00000000000E+00  0.00000000000E+00 -0.16134367409E+04  0.16134367409E+04  0.25500000920E-02 0.  1.
    10030    2    1    2    0    0  0.00000000000E+00  0.00000000000E+00  0.34752419477E+03  0.35743976766E+04  0.35574633778E+04 0.  0.
        2    1    3    3  502    0 -0.13617755390E+04  0.45802898510E+03  0.12274021884E+04  0.18896399927E+04  0.25500000920E-02 0.  1.
       -2    1    3    3    0  502  0.13617755390E+04 -0.45802898510E+03 -0.87987799364E+03  0.16847576839E+04  0.25500000920E-02 0. -1.
</event>
<event>
 5   0  0.3041329E-06  0.2432305E+04  0.7818609E-02  0.8427507E-01
        2   -1    0    0  501    0  0.00000000000E+00  0.00000000000E+00  0.19192711112E+04  0.19192711112E+04  0.25500000920E-02 0.  1.
       -2   -1    0    0    0  501  0.00000000000E+00  0.00000000000E+00 -0.77061928373E+03  0.77061928373E+03  0.25500000920E-02 0. -1.
    10030    2    1    2    0    0  0.00000000000E+00  0.00000000000E+00  0.11486518275E+04  0.26898903949E+04  0.24323053501E+04 0.  0.
        2    1    3    3  502    0 -0.10707487466E+04 -0.29338894944E+03  0.25318021868E+02  0.11105048205E+04  0.25500000920E-02 0. -1.
       -2    1    3    3    0  502  0.10707487466E+04  0.29338894944E+03  0.11233338056E+04  0.15793855745E+04  0.25500000920E-02 0.  1.
</event>
<event>
 5   0  0.1201499E-06  0.1953326E+04  0.7818609E-02  0.8628759E-01
       -1   -1    0    0    0  501  0.00000000000E+00  0.00000000000E+00  0.10657974977E+04  0.10657974977E+04  0.50400001928E-02 0. -1.
        1   -1    0    0  501    0  0.00000000000E+00  0.00000000000E+00 -0.89498294879E+03  0.89498294880E+03  0.50400001928E-02 0.  1.
    10030    2    1    2    0    0  0.00000000000E+00  0.00000000000E+00  0.17081454889E+03  0.19607804465E+04  0.19533259711E+04 0.  0.
        5    1    3    3  502    0 -0.21756026336E+03 -0.46197951093E+02 -0.86921188105E+03  0.89722801062E+03  0.46999998093E+01 0.  1.
       -5    1    3    3    0  502  0.21756026336E+03  0.46197951093E+02  0.10400264299E+04  0.10635524359E+04  0.46999998093E+01 0. -1.
</event>
<event>
 5   0  0.1782660E-06  0.3404605E+04  0.7818609E-02  0.8136777E-01
       -2   -1    0    0    0  501  0.00000000000E+00  0.00000000000E+00  0.15087716568E+04  0.15087716568E+04  0.25500000920E-02 0. -1.
        2   -1    0    0  501    0  0.00000000000E+00  0.00000000000E+00 -0.19206574452E+04  0.19206574452E+04  0.25500000920E-02 0.  1.
    10030    2    1    2    0    0  0.00000000000E+00  0.00000000000E+00 -0.41188578842E+03  0.34294291020E+04  0.34046048321E+04 0.  0.
        4    1    3    3  502    0 -0.15781215310E+02  0.12420406062E+04 -0.13784395754E+04  0.18555352840E+04  0.12699999809E+01 0.  1.
       -4    1    3    3    0  502  0.15781215310E+02 -0.12420406062E+04  0.96655378697E+03  0.15738938180E+04  0.12699999809E+01 0. -1.
</event>
<event>
 5   0  0.3041329E-06  0.3415152E+04  0.7818609E-02  0.8134197E-01
       -2   -1    0    0    0  501  0.00000000000E+00  0.00000000000E+00  0.26970481853E+04  0.26970481853E+04  0.25500000920E-02 0.  1.
        2   -1    0    0  501    0  0.00000000000E+00  0.00000000000E+00 -0.10811139701E+04  0.10811139701E+04  0.25500000920E-02 0. -1.
    10030    2    1    2    0    0  0.00000000000E+00  0.00000000000E+00  0.16159342151E+04  0.37781621554E+04  0.34151523956E+04 0.  0.
        2    1    3    3  502    0  0.41445130962E+03  0.11748741708E+04  0.20998783422E+04  0.24416363893E+04  0.25500000920E-02 0.  1.
       -2    1    3    3    0  502 -0.41445130962E+03 -0.11748741708E+04 -0.48394412710E+03  0.13365257661E+04  0.25500000920E-02 0. -1.
</event>
<event>
 5   0  0.3041329E-06  0.3469304E+04  0.7818609E-02  0.8121103E-01
        2   -1    0    0  501    0  0.00000000000E+00  0.00000000000E+00  0.18294525370E+04  0.18294525370E+04  0.25500000920E-02 0.  1.
       -2   -1    0    0    0  501  0.00000000000E+00  0.00000000000E+00 -0.16447641384E+04  0.16447641384E+04  0.25500000920E-02 0. -1.
    10030    2    1    2    0    0  0.00000000000E+00  0.00000000000E+00  0.18468839859E+03  0.34742166754E+04  0.34693042102E+04 0.  0.
        2    1    3    3  502    0 -0.11989127823E+04 -0.10481060668E+04 -0.59645220516E+03  0.17004921111E+04  0.25500000920E-02 0. -1.
       -2    1    3    3    0  502  0.11989127823E+04  0.10481060668E+04  0.78114060375E+03  0.17737245642E+04  0.25500000920E-02 0.  1.
</event>
<event>
 5   0  0.3378848E-06  0.3257994E+04  0.7818609E-02  0.8173667E-01
        2   -1    0    0  501    0  0.00000000000E+00  0.00000000000E+00  0.13630168394E+04  0.13630168394E+04  0.25500000920E-02 0.  1.
       -2   -1    0    0    0  501  0.00000000000E+00  0.00000000000E+00 -0.19468806226E+04  0.19468806226E+04  0.25500000920E-02 0. -1.
    10030    2    1    2    0    0  0.00000000000E+00  0.00000000000E+00 -0.58386378313E+03  0.33098974620E+04  0.32579939060E+04 0.  0.
        1    1    3    3  502    0  0.14253247591E+04 -0.71601630075E+03  0.44095777306E+02  0.15956736664E+04  0.50400001928E-02 0.  1.
       -1    1    3    3    0  502 -0.14253247591E+04  0.71601630075E+03 -0.62795956044E+03  0.17142237956E+04  0.50400001928E-02 0. -1.
</event>
<event>
 5   0  0.1908726E-06  0.2078077E+04  0.7818609E-02  0.8570963E-01
       -2   -1    0    0    0  501  0.00000000000E+00  0.00000000000E+00  0.50571759407E+03  0.50571759408E+03  0.25500000920E-02 0. -1.
        2   -1    0    0  501    0  0.00000000000E+00  0.00000000000E+00 -0.21347902386E+04  0.21347902386E+04  0.25500000920E-02 0.  1.
    10030    2    1    2    0    0  0.00000000000E+00  0.00000000000E+00 -0.16290726445E+04  0.26405078327E+04  0.20780769796E+04 0.  0.
        5    1    3    3  502    0 -0.62516906828E+03  0.33325228858E+02  0.23913183407E+03  0.67018882331E+03  0.46999998093E+01 0. -1.
       -5    1    3    3    0  502  0.62516906828E+03 -0.33325228858E+02 -0.18682044786E+04  0.19703190094E+04  0.46999998093E+01 0.  1.
</event>
<event>
 5   0  0.1089337E-06  0.3056586E+04  0.7818609E-02  0.8227755E-01
        1   -1    0    0  501    0  0.00000000000E+00  0.00000000000E+00  0.22691328090E+04  0.22691328090E+04  0.50400001928E-02 0.  1.
       -1   -1    0    0    0  501  0.00000000000E+00  0.00000000000E+00 -0.10293266212E+04  0.10293266212E+04  0.50400001928E-02 0. -1.
    10030    2    1    2    0    0  0.00000000000E+00  0.00000000000E+00  0.12398061878E+04  0.32984594302E+04  0.30565855509E+04 0.  0.
        2    1    3    3  502    0 -0.16167916133E+03  0.10010231175E+04 -0.61403680527E+03  0.11854233975E+04  0.25500000920E-02 0. -1.
       -2    1    3    3    0  502  0.16167916133E+03 -0.10010231175E+04  0.18538429930E+04  0.21130360328E+04  0.25500000920E-02 0.  1.
</event>
<event>
 5   0  0.1125196E-06  0.3297845E+04  0.7818609E-02  0.8163444E-01
        1   -1    0    0  501    0  0.00000000000E+00  0.00000000000E+00  0.24214344923E+04  0.24214344923E+04  0.50400001928E-02 0. -1.
       -1   -1    0    0    0  501  0.00000000000E+00  0.00000000000E+00 -0.11228657937E+04  0.11228657937E+04  0.50400001928E-02 0.  1.
    10030    2    1    2    0    0  0.00000000000E+00  0.00000000000E+00  0.12985686986E+04  0.35443002860E+04  0.32978453348E+04 0.  0.
        4    1    3    3  502    0 -0.16392751341E+04  0.93880901613E+02  0.81194838739E+03  0.18317473586E+04  0.12699999809E+01 0. -1.
       -4    1    3    3    0  502  0.16392751341E+04 -0.93880901613E+02  0.48662031122E+03  0.17125529274E+04  0.12699999809E+01 0.  1.
</event>
<event>
 5   0  0.1130707E-06  0.2007569E+04  0.7818609E-02  0.8603090E-01
        1   -1    0    0  501    0  0.00000000000E+00  0.00000000000E+00  0.15389610122E+04  0.15389610122E+04  0.50400001928E-02 0.  1.
       -1   -1    0    0    0  501  0.00000000000E+00  0.00000000000E+00 -0.65471638831E+03  0.65471638833E+03  0.50400001928E-02 0. -1.
    10030    2    1    2    0    0  0.00000000000E+00  0.00000000000E+00  0.88424462386E+03  0.21936774005E+04  0.20075686745E+04 0.  0.
        3    1    3    3  502    0 -0.43527751893E+02 -0.74127118288E+03  0.11801667971E+04  0.13943354370E+04  0.10100000352E+00 0.  1.
       -3    1    3    3    0  502  0.43527751893E+02  0.74127118288E+03 -0.29592217326E+03  0.79934196348E+03  0.10100000352E+00 0. -1.
</event>
<event>
 5   0  0.1908726E-06  0.3536927E+04  0.7818609E-02  0.8105094E-01
        2   -1    0    0  501    0  0.00000000000E+00  0.00000000000E+00  0.14004028665E+04  0.14004028665E+04  0.25500000920E-02 0. -1.
       -2   -1    0    0    0  501  0.00000000000E+00  0.00000000000E+00 -0.22332590926E+04  0.22332590926E+04  0.25500000920E-02 0.  1.
    10030    2    1    2    0    0  0.00000000000E+00  0.00000000000E+00 -0.83285622609E+03  0.36336619591E+04  0.35369265952E+04 0.  0.
        5    1    3    3  502    0  0.83645004755E+03 -0.39924588592E+03 -0.19637396279E+04  0.21714836807E+04  0.46999998093E+01 0.  1.
       -5    1    3    3    0  502 -0.83645004755E+03  0.39924588592E+03  0.11308834018E+04  0.14621782784E+04  0.46999998093E+01 0. -1.
</event>
<event>
 5   0  0.1125196E-06  0.2386691E+04  0.7818609E-02  0.8444503E-01
        1   -1    0    0  501    0  0.00000000000E+00  0.00000000000E+00  0.21349863024E+04  0.21349863024E+04  0.50400001928E-02 0.  1.
       -1   -1    0    0    0  501  0.00000000000E+00  0.00000000000E+00 -0.66701750260E+03  0.66701750262E+03  0.50400001928E-02 0. -1.
    10030    2    1    2    0    0  0.00000000000E+00  0.00000000000E+00  0.14679687998E+04  0.28020038051E+04  0.23866907898E+04 0.  0.
        4    1    3    3  502    0 -0.38799169975E+03  0.10106197552E+04  0.13235462973E+04  0.17098731715E+04  0.12699999809E+01 0.  1.
       -4    1    3    3    0  502  0.38799169975E+03 -0.10106197552E+04  0.14442250256E+03  0.10921306336E+04  0.12699999809E+01 0. -1.
</event>
<event>
 5   0  0.1782660E-06  0.2800610E+04  0.7818609E-02  0.8303079E-01
        2   -1    0    0  501    0  0.00000000000E+00  0.00000000000E+00  0.10630528079E+04  0.10630528079E+04  0.25500000920E-02 0. -1.
       -2   -1    0    0    0  501  0.00000000000E+00  0.00000000000E+00 -0.18445505401E+04  0.18445505401E+04  0.25500000920E-02 0.  1.
    10030    2    1    2    0    0  0.00000000000E+00  0.00000000000E+00 -0.78149773217E+03  0.29076033480E+04  0.28006103841E+04 0.  0.
        4    1    3    3  502    0 -0.15022555457E+03 -0.22141823472E+03 -0.18177629058E+04  0.18373506325E+04  0.12699999809E+01 0.  1.
       -4    1    3    3    0  502  0.15022555457E+03  0.22141823472E+03  0.10362651737E+04  0.10702527155E+04  0.12699999809E+01 0. -1.
</event>
<event>
 5   0  0.1782660E-06  0.2926177E+04  0.7818609E-02  0.8265131E-01
       -2   -1    0    0    0  501  0.00000000000E+00  0.00000000000E+00  0.12561357381E+04  0.12561357381E+04  0.25500000920E-02 0. -1.
        2   -1    0    0  501    0  0.00000000000E+00  0.00000000000E+00 -0.17041373616E+04  0.17041373616E+04  0.25500000920E-02 0.  1.
    10030    2    1    2    0    0  0.00000000000E+00  0.00000000000E+00 -0.44800162351E+03  0.29602730997E+04  0.29261769205E+04 0.  0.
        4    1    3    3  502    0 -0.13073372650E+04  0.24918338442E+03 -0.83886824781E+03  0.15731893191E+04  0.12699999809E+01 0.  1.
       -4    1    3    3    0  502  0.13073372650E+04 -0.24918338442E+03  0.39086662430E+03  0.13870837806E+04  0.12699999809E+01 0. -1.
</event>
<event>
 5   0  0.3041329E-06  0.2347781E+04  0.7818609E-02  0.8459316E-01
        2   -1    0    0  501    0  0.00000000000E+00  0.00000000000E+00  0.11111999989E+04  0.11111999989E+04  0.25500000920E-02 0.  1.
       -2   -1    0    0    0  501  0.00000000000E+00  0.00000000000E+00 -0.12401181749E+04  0.12401181749E+04  0.25500000920E-02 0. -1.
    10030    2    1    2    0    0  0.00000000000E+00  0.00000000000E+00 -0.12891817606E+03  0.23513181738E+04  0.23477813480E+04 0.  0.
        2    1    3    3  502    0 -0.95639523048E+03  0.19961157349E+03  0.58727672750E+03  0.11399256870E+04  0.25500000920E-02 0.  1.
       -2    1    3    3    0  502  0.95639523048E+03 -0.19961157349E+03 -0.71619490357E+03  0.12113924868E+04  0.25500000920E-02 0. -1.
</event>
<event>
 5   0  0.1130707E-06  0.3370061E+04  0.7818609E-02  0.8145294E-01
        1   -1    0    0  501    0  0.00000000000E+00  0.00000000000E+00  0.10170878287E+04  0.10170878287E+04  0.50400001928E-02 0. -1.
       -1   -1    0    0    0  501  0.00000000000E+00  0.00000000000E+00 -0.27916243601E+04  0.27916243601E+04  0.50400001928E-02 0.  1.
    10030    2    1    2    0    0  0.00000000000E+00  0.00000000000E+00 -0.17745365314E+04  0.38087121888E+04  0.33700606279E+04 0.  0.
        3    1    3    3  502    0  0.33441385490E+03 -0.14187173233E+04  0.68193192379E+02  0.14591921708E+04  0.10100000352E+00 0. -1.
       -3    1    3    3    0  502 -0.33441385490E+03  0.14187173233E+04 -0.18427297238E+04  0.23495200180E+04  0.10100000352E+00 0.  1.
</event>
<event>
 5   0  0.1089337E-06  0.3468932E+04  0.7818609E-02  0.8121192E-01
       -1   -1    0    0    0  501  0.00000000000E+00  0.00000000000E+00  0.24324400265E+04  0.24324400265E+04  0.50400001928E-02 0.  1.
        1   -1    0    0  501    0  0.00000000000E+00  0.00000000000E+00 -0.12367713327E+04  0.12367713327E+04  0.50400001928E-02 0. -1.
    10030    2    1    2    0    0  0.00000000000E+00  0.00000000000E+00  0.11956686939E+04  0.36692113592E+04  0.34689318779E+04 0.  0.
        2    1    3    3  502    0 -0.10055327789E+04 -0.85448152720E+03  0.17884971491E+04  0.22226013817E+04  0.25500000920E-02 0.  1.
       -2    1    3    3    0  502  0.10055327789E+04  0.85448152720E+03 -0.59282845520E+03  0.14466099775E+04  0.25500000920E-02 0. -1.
</event>
<event>
 5   0  0.1125196E-06  0.3610624E+04  0.7818609E-02  0.8088063E-01
       -1   -1    0    0    0  501  0.00000000000E+00  0.00000000000E+00  0.17576769500E+04  0.17576769500E+04  0.50400001928E-02 0. -1.
        1   -1    0    0  501    0  0.00000000000E+00  0.00000000000E+00 -0.18542376589E+04  0.18542376589E+04  0.50400001928E-02 0.  1.
    10030    2    1    2    0    0  0.00000000000E+00  0.00000000000E+00 -0.96560708889E+02  0.36119146090E+04  0.36106236542E+04 0.  0.
        4    1    3    3  502    0 -0.25336767556E+03 -0.16859902990E+04 -0.64211766189E+03  0.18218329155E+04  0.12699999809E+01 0. -1.
       -4    1    3    3    0  502  0.25336767556E+03  0.16859902990E+04  0.54555695300E+03  0.17900816935E+04  0.12699999809E+01 0.  1.
</event>
<event>
 5   0  0.1130707E-06  0.2871582E+04  0.7818609E-02  0.8281383E-01
       -1   -1    0    0    0  501  0.00000000000E+00  0.00000000000E+00  0.10044986083E+04  0.10044986083E+04  0.50400001928E-02 0.  1.
        1   -1    0    0  501    0  0.00000000000E+00  0.00000000000E+00 -0.20522631601E+04  0.20522631601E+04  0.50400001928E-02 0. -1.
    10030    2    1    2    0    0  0.00000000000E+00  0.00000000000E+00 -0.10477645518E+04  0.30567617684E+04  0.28715817858E+04 0.  0.
        3    1    3    3  502    0 -0.34251048478E+03  0.13827991011E+04 -0.71444833602E+03  0.15937011079E+04  0.10100000352E+00 0. -1.
       -3    1    3    3    0  502  0.34251048478E+03 -0.13827991011E+04 -0.33331621577E+03  0.14630606605E+04  0.10100000352E+00 0.  1.
</event>
<event>
 5   0  0.1042825E-06  0.2337289E+04  0.7818609E-02  0.8463362E-01
       -4   -1    0    0    0  501  0.00000000000E+00  0.00000000000E+00  0.10981270364E+04  0.10981277708E+04  0.12699999809E+01 0.  1.
        4   -1    0    0  501    0  0.00000000000E+00  0.00000000000E+00 -0.12436886862E+04  0.12436893346E+04  0.12699999809E+01 0. -1.
    10030    2    1    2    0    0  0.00000000000E+00  0.00000000000E+00 -0.14556164975E+03  0.23418171054E+04  0.23372888485E+04 0.  0.
        1    1    3    3  502    0 -0.51903677484E+03 -0.69067922109E+03 -0.86125706878E+03  0.12199183164E+04  0.50400001928E-02 0. -1.
       -1    1    3    3    0  502  0.51903677484E+03  0.69067922109E+03  0.71569541903E+03  0.11218987891E+04  0.50400001928E-02 0.  1.
</event>
<event>
 5   0  0.1908726E-06  0.3483313E+04  0.7818609E-02  0.8117756E-01
        2   -1    0    0  501    0  0.00000000000E+00  0.00000000000E+00  0.19574508862E+04  0.19574508862E+04  0.25500000920E-02 0.  1.
       -2   -1    0    0    0  501  0.00000000000E+00  0.00000000000E+00 -0.15496517751E+04  0.15496517752E+04  0.25500000920E-02 0. -1.
    10030    2    1    2    0    0  0.00000000000E+00  0.00000000000E+00  0.40779911107E+03  0.35071026614E+04  0.34833129292E+04 0.  0.
        5    1    3    3  502    0  0.12403317729E+02 -0.56346390859E+03  0.18630923839E+04  0.19464790622E+04  0.46999998093E+01 0.  1.
       -5    1    3    3    0  502 -0.12403317729E+02  0.56346390859E+03 -0.14552932728E+04  0.15606235992E+04  0.46999998093E+01 0. -1.
</event>
<event>
 5   0  0.3378848E-06  0.3492626E+04  0.7818609E-02  0.8115540E-01
        2   -1    0    0  501    0  0.00000000000E+00  0.00000000000E+00  0.29579646690E+04  0.29579646690E+04  0.25500000920E-02 0.  1.
       -2   -1    0    0    0  501  0.00000000000E+00  0.00000000000E+00 -0.10309825142E+04  0.10309825142E+04  0.25500000920E-02 0. -1.
    10030    2    1    2    0    0  0.00000000000E+00  0.00000000000E+00  0.19269821548E+04  0.39889471832E+04  0.34926264337E+04 0.  0.
        1    1    3    3  502    0 -0.69519344464E+03  0.12618701408E+04 -0.16366888787E+03  0.14499647177E+04  0.50400001928E-02 0. -1.
       -1    1    3    3    0  502  0.69519344464E+03 -0.12618701408E+04  0.20906510427E+04  0.25389824655E+04  0.50400001928E-02 0.  1.
</event>
<event>
 5   0  0.3041329E-06  0.3639607E+04  0.7818609E-02  0.8081479E-01
       -2   -1    0    0    0  501  0.00000000000E+00  0.00000000000E+00  0.14299782905E+04  0.14299782905E+04  0.25500000920E-02 0. -1.
        2   -1    0    0  501    0  0.00000000000E+00  0.00000000000E+00 -0.23158981618E+04  0.23158981618E+04  0.25500000920E-02 0.  1.
    10030    2    1    2    0    0  0.00000000000E+00  0.00000000000E+00 -0.88591987133E+03  0.37458764523E+04  0.36396066240E+04 0.  0.
        2    1    3    3  502    0 -0.37588359353E+03  0.17522681006E+04 -0.76834305039E+03  0.19498930779E+04  0.25500000920E-02 0.  1.
       -2    1    3    3    0  502  0.37588359353E+03 -0.17522681006E+04 -0.11757682093E+03  0.17959833744E+04  0.25500000920E-02 0. -1.
</event>
<event>
 5   0  0.3378848E-06  0.3531429E+04  0.7818609E-02  0.8106382E-01
       -2   -1    0    0    0  501  0.00000000000E+00  0.00000000000E+00  0.22632806426E+04  0.22632806426E+04  0.25500000920E-02 0. -1.
        2   -1    0    0  501    0  0.00000000000E+00  0.00000000000E+00 -0.13775344995E+04  0.13775344995E+04  0.25500000920E-02 0.  1.
    10030    2    1    2    0    0  0.00000000000E+00  0.00000000000E+00  0.88574614311E+03  0.36408151421E+04  0.35314287008E+04 0.  0.
        1    1    3    3  502    0 -0.43672922327E+03 -0.11442883782E+04 -0.86837930198E+03  0.15014029836E+04  0.50400001928E-02 0.  1.
       -1    1    3    3    0  502  0.43672922327E+03  0.11442883782E+04  0.17541254451E+04  0.21394121585E+04  0.50400001928E-02 0. -1.
</event>
<event>
 5   0  0.2565004E-06  0.2652207E+04  0.7818609E-02  0.8350681E-01
       -2   -1    0    0    0  501  0.00000000000E+00  0.00000000000E+00  0.16329142230E+04  0.16329142230E+04  0.25500000920E-02 0.  1.
        2   -1    0    0  501    0  0.00000000000E+00  0.00000000000E+00 -0.10769403125E+04  0.10769403125E+04  0.25500000920E-02 0. -1.
    10030    2    1    2    0    0  0.00000000000E+00  0.00000000000E+00  0.55597391052E+03  0.27098545356E+04  0.26522074984E+04 0.  0.
        3    1    3    3  502    0 -0.94155190708E+03 -0.92890688769E+03  0.37579188162E+03  0.13749936539E+04  0.10100000352E+00 0. -1.
       -3    1    3    3    0  502  0.94155190708E+03  0.92890688769E+03  0.18018202890E+03  0.13348608817E+04  0.10100000352E+00 0.  1.
</event>
<event>
 5   0  0.1130707E-06  0.3104320E+04  0.7818609E-02  0.8214553E-01
       -1   -1    0    0    0  501  0.00000000000E+00  0.00000000000E+00  0.83276290102E+03  0.83276290103E+03  0.50400001928E-02 0.  1.
        1   -1    0    0  501    0  0.00000000000E+00  0.00000000000E+00 -0.28930204989E+04  0.28930204989E+04  0.50400001928E-02 0. -1.
    10030    2    1    2    0    0  0.00000000000E+00  0.00000000000E+00 -0.20602575979E+04  0.37257833999E+04  0.31043196636E+04 0.  0.
        3    1    3    3  502    0  0.10438493283E+04 -0.79525915657E+03 -0.35240588791E+02  0.13127453887E+04  0.10100000352E+00 0.  1.
       -3    1    3    3    0  502 -0.10438493283E+04  0.79525915657E+03 -0.20250170091E+04  0.24130380112E+04  0.10100000352E+00 0. -1.
</event>
<event>
 5   0  0.1110956E-06  0.3104265E+04  0.7818609E-02  0.8214568E-01
       -1   -1    0    0    0  501  0.00000000000E+00  0.00000000000E+00  0.22786648492E+04  0.22786648492E+04  0.50400001928E-02 0. -1.
        1   -1    0    0  501    0  0.00000000000E+00  0.00000000000E+00 -0.10572489349E+04  0.10572489349E+04  0.50400001928E-02 0.  1.
    10030    2    1    2    0    0  0.00000000000E+00  0.00000000000E+00  0.12214159143E+04  0.33359137841E+04  0.31042654428E+04 0.  0.
        1    1    3    3  502    0  0.74114576439E+03 -0.45215024200E+03 -0.77191798529E+03  0.11617203887E+04  0.50400001928E-02 0.  1.
       -1    1    3    3    0  502 -0.74114576439E+03  0.45215024200E+03  0.19933338996E+04  0.21741933955E+04  0.50400001928E-02 0. -1.
</event>
<event>
 5   0  0.1102175E-06  0.3493713E+04  0.7818609E-02  0.8115282E-01
        1   -1    0    0  501    0  0.00000000000E+00  0.00000000000E+00  0.12143226483E+04  0.12143226484E+04  0.50400001928E-02 0. -1.
       -1   -1    0    0    0  501  0.00000000000E+00  0.00000000000E+00 -0.25129295596E+04  0.25129295596E+04  0.50400001928E-02 0.  1.
    10030    2    1    2    0    0  0.00000000000E+00  0.00000000000E+00 -0.12986069112E+04  0.37272522079E+04  0.34937127975E+04 0.  0.
        5    1    3    3  502    0 -0.80040450317E+03  0.15526295252E+04 -0.66359188617E+03  0.18686043168E+04  0.46999998093E+01 0. -1.
       -5    1    3    3    0  502  0.80040450317E+03 -0.15526295252E+04 -0.63501502507E+03  0.18586478912E+04  0.46999998093E+01 0.  1.
</event>
<event>
 5   0  0.1908726E-06  0.1883503E+04  0.7818609E-02  0.8663112E-01
       -2   -1    0    0    0  501  0.00000000000E+00  0.00000000000E+00  0.79939417351E+03  0.79939417351E+03  0.25500000920E-02 0. -1.
        2   -1    0    0  501    0  0.00000000000E+00  0.00000000000E+00 -0.11094605728E+04  0.11094605728E+04  0.25500000920E-02 0.  1.
    10030    2    1    2    0    0  0.00000000000E+00  0.00000000000E+00 -0.31006639929E+03  0.19088547463E+04  0.18835034565E+04 0.  0.
        5    1    3    3  502    0 -0.92991521576E+03 -0.29162893583E+02 -0.71880725373E+01  0.93041202767E+03  0.46999998093E+01 0.  1.
       -5    1    3    3    0  502  0.92991521576E+03  0.29162893583E+02 -0.30287832675E+03  0.97844271865E+03  0.46999998093E+01 0. -1.
</event>
<event>
 5   0  0.1102175E-06  0.3402337E+04  0.7818609E-02  0.8137333E-01
        1   -1    0    0  501    0  0.00000000000E+00  0.00000000000E+00  0.23444035575E+04  0.23444035575E+04  0.50400001928E-02 0. -1.
       -1   -1    0    0    0  501  0.00000000000E+00  0.00000000000E+00 -0.12344182812E+04  0.12344182812E+04  0.50400001928E-02 0.  1.
    10030    2    1    2    0    0  0.00000000000E+00  0.00000000000E+00  0.11099852762E+04  0.35788218387E+04  0.34023372025E+04 0.  0.
        5    1    3    3  502    0 -0.10232549620E+04  0.23308996239E+03 -0.85332588836E+03  0.13526155439E+04  0.46999998093E+01 0.  1.
       -5    1    3    3    0  502  0.10232549620E+04 -0.23308996239E+03  0.19633111646E+04  0.22262062948E+04  0.46999998093E+01 0. -1.
</event>
<event>
 5   0  0.1110956E-06  0.3481778E+04  0.7818609E-02  0.8118122E-01
        1   -1    0    0  501    0  0.00000000000E+00  0.00000000000E+00  0.15602111182E+04  0.15602111182E+04  0.50400001928E-02 0. -1.
       -1   -1    0    0    0  501  0.00000000000E+00  0.00000000000E+00 -0.19424900643E+04  0.19424900643E+04  0.50400001928E-02 0.  1.
    10030    2    1    2    0    0  0.00000000000E+00  0.00000000000E+00 -0.38227894609E+03  0.35027011825E+04  0.34817780488E+04 0.  0.
        1    1    3    3  502    0  0.14032056425E+04  0.78126078892E+03  0.48471620447E+03  0.16775888335E+04  0.50400001928E-02 0.  1.
       -1    1    3    3    0  502 -0.14032056425E+04 -0.78126078892E+03 -0.86699515056E+03  0.18251123490E+04  0.50400001928E-02 0. -1.
</event>
<event>
 5   0  0.3041329E-06  0.1842702E+04  0.7818609E-02  0.8683915E-01
       -2   -1    0    0    0  501  0.00000000000E+00  0.00000000000E+00  0.32784192403E+03  0.32784192404E+03  0.25500000920E-02 0. -1.
        2   -1    0    0  501    0  0.00000000000E+00  0.00000000000E+00 -0.25893209284E+04  0.25893209284E+04  0.25500000920E-02 0.  1.
    10030    2    1    2    0    0  0.00000000000E+00  0.00000000000E+00 -0.22614790044E+04  0.29171628524E+04  0.18427023147E+04 0.  0.
        2    1    3    3  502    0 -0.60409987481E+03  0.28919324176E+02 -0.22310892297E+04  0.23116081279E+04  0.25500000920E-02 0.  1.
       -2    1    3    3    0  502  0.60409987481E+03 -0.28919324176E+02 -0.30389774708E+02  0.60555472458E+03  0.25500000920E-02 0. -1.
</event>
<event>
 5   0  0.1782660E-06  0.2418345E+04  0.7818609E-02  0.8432667E-01
       -2   -1    0    0    0  501  0.00000000000E+00  0.00000000000E+00  0.89033816524E+03  0.89033816524E+03  0.25500000920E-02 0. -1.
        2   -1    0    0  501    0  0.00000000000E+00  0.00000000000E+00 -0.16421830428E+04  0.16421830428E+04  0.25500000920E-02 0.  1.
    10030    2    1    2    0    0  0.00000000000E+00  0.00000000000E+00 -0.75184487756E+03  0.25325212080E+04  0.24183450848E+04 0.  0.
        4    1    3    3  502    0  0.79863999825E+03 -0.29859712806E+03 -0.12737876429E+04  0.15328152738E+04  0.12699999809E+01 0.  1.
       -4    1    3    3    0  502 -0.79863999825E+03  0.29859712806E+03  0.52194276532E+03  0.99970593419E+03  0.12699999809E+01 0. -1.
</event>
<event>
 5   0  0.1102175E-06  0.1989072E+04  0.7818609E-02  0.8611747E-01
       -1   -1    0    0    0  501  0.00000000000E+00  0.00000000000E+00  0.66209479941E+03  0.66209479943E+03  0.50400001928E-02 0.  1.
        1   -1    0    0  501    0  0.00000000000E+00  0.00000000000E+00 -0.14938979392E+04  0.14938979392E+04  0.50400001928E-02 0. -1.
    10030    2    1    2    0    0  0.00000000000E+00  0.00000000000E+00 -0.83180313979E+03  0.21559927386E+04  0.19890722022E+04 0.  0.
        5    1    3    3  502    0  0.61987703641E+03  0.38605593176E+03 -0.11476818254E+04  0.13603243676E+04  0.46999998093E+01 0. -1.
       -5    1    3    3    0  502 -0.61987703641E+03 -0.38605593176E+03  0.31587868558E+03  0.79566837107E+03  0.46999998093E+01 0.  1.
</event>
<event>
 5   0  0.1782660E-06  0.3478285E+04  0.7818609E-02  0.8118956E-01
        2   -1    0    0  501    0  0.00000000000E+00  0.00000000000E+00  0.15405875952E+04  0.15405875952E+04  0.25500000920E-02 0.  1.
       -2   -1    0    0    0  501  0.00000000000E+00  0.00000000000E+00 -0.19632874470E+04  0.19632874470E+04  0.25500000920E-02 0. -1.
    10030    2    1    2    0    0  0.00000000000E+00  0.00000000000E+00 -0.42269985174E+03  0.35038750422E+04  0.34782847995E+04 0.  0.
        4    1    3    3  502    0  0.16717445559E+04  0.40815674668E+03  0.42081759699E+02  0.17213640747E+04  0.12699999809E+01 0.  1.
       -4    1    3    3    0  502 -0.16717445559E+04 -0.40815674668E+03 -0.46478161143E+03  0.17825109675E+04  0.12699999809E+01 0. -1.
</event>
<event>
 5   0  0.3378848E-06  0.3524485E+04  0.7818609E-02  0.8108012E-01
        2   -1    0    0  501    0  0.00000000000E+00  0.00000000000E+00  0.22228389741E+04  0.22228389741E+04  0.25500000920E-02 0.  1.
       -2   -1    0    0    0  501  0.00000000000E+00  0.00000000000E+00 -0.13970863466E+04  0.13970863466E+04  0.25500000920E-02 0. -1.
    10030    2    1    2    0    0  0.00000000000E+00  0.00000000000E+00  0.82575262752E+03  0.36199253208E+04  0.35244846327E+04 0.  0.
        1    1    3    3  502    0 -0.97249634869E+03  0.10854561461E+04 -0.60467569720E+03  0.15778456490E+04  0.50400001928E-02 0. -1.
       -1    1    3    3    0  502  0.97249634869E+03 -0.10854561461E+04  0.14304283247E+04  0.20420796717E+04  0.50400001928E-02 0.  1.
</event>
<event>
 5   0  0.1908726E-06  0.3463829E+04  0.7818609E-02  0.8122416E-01
       -2   -1    0    0    0  501  0.00000000000E+00  0.00000000000E+00  0.11081016275E+04  0.11081016275E+04  0.25500000920E-02 0.  1.
        2   -1    0    0  501    0  0.00000000000E+00  0.00000000000E+00 -0.27069067917E+04  0.27069067917E+04  0.25500000920E-02 0. -1.
    10030    2    1    2    0    0  0.00000000000E+00  0.00000000000E+00 -0.15988051641E+04  0.38150084192E+04  0.34638289920E+04 0.  0.
        5    1    3    3  502    0  0.12175487132E+03  0.12475619573E+04 -0.21156705512E+04  0.24591297357E+04  0.46999998093E+01 0. -1.
       -5    1    3    3    0  502 -0.12175487132E+03 -0.12475619573E+04  0.51686538706E+03  0.13558786835E+04  0.46999998093E+01 0.  1.
</event>
<event>
 5   0  0.3378848E-06  0.2940112E+04  0.7818609E-02  0.8261042E-01
       -2   -1    0    0    0  501  0.00000000000E+00  0.00000000000E+00  0.16684920369E+04  0.16684920369E+04  0.25500000920E-02 0. -1.
        2   -1    0    0  501    0  0.00000000000E+00  0.00000000000E+00 -0.12952199799E+04  0.12952199799E+04  0.25500000920E-02 0.  1.
    10030    2    1    2    0    0  0.00000000000E+00  0.00000000000E+00  0.37327205703E+03  0.29637120168E+04  0.29401117138E+04 0.  0.
        1    1    3    3  502    0  0.12892317302E+04 -0.36562480370E+03  0.79585829129E+03  0.15585860165E+04  0.50400001928E-02 0. -1.
       -1    1    3    3    0  502 -0.12892317302E+04  0.36562480370E+03 -0.42258623426E+03  0.14051260002E+04  0.50400001928E-02 0.  1.
</event>
<event>
 5   0  0.1908726E-06  0.1850143E+04  0.7818609E-02  0.8680079E-01
        2   -1    0    0  501    0  0.00000000000E+00  0.00000000000E+00  0.38470601987E+03  0.38470601988E+03  0.25500000920E-02 0. -1.
       -2   -1    0    0    0  501  0.00000000000E+00  0.00000000000E+00 -0.22244454038E+04  0.22244454038E+04  0.25500000920E-02 0.  1.
    10030    2    1    2    0    0  0.00000000000E+00  0.00000000000E+00 -0.18397393840E+04  0.26091514237E+04  0.18501432785E+04 0.  0.
        5    1    3    3  502    0  0.78880815484E+03  0.47508826043E+03 -0.10444851211E+04  0.13924433268E+04  0.46999998093E+01 0.  1.
       -5    1    3    3    0  502 -0.78880815484E+03 -0.47508826043E+03 -0.79525426290E+03  0.12167080969E+04  0.46999998093E+01 0. -1.
</event>
<event>
 5   0  0.2565004E-06  0.2608177E+04  0.7818609E-02  0.8365429E-01
       -2   -1    0    0    0  501  0.00000000000E+00  0.00000000000E+00  0.19698805084E+04  0.19698805084E+04  0.25500000920E-02 0.  1.
        2   -1    0    0  501    0  0.00000000000E+00  0.00000000000E+00 -0.86332460713E+03  0.86332460713E+03  0.25500000920E-02 0. -1.
    10030    2    1    2    0    0  0.00000000000E+00  0.00000000000E+00  0.11065559012E+04  0.28332051155E+04  0.26081766167E+04 0.  0.
        3    1    3    3  502    0 -0.62413497318E+02  0.83584327947E+03  0.16385327597E+04  0.18404670732E+04  0.10100000352E+00 0.  1.
       -3    1    3    3    0  502  0.62413497318E+02 -0.83584327947E+03 -0.53197685851E+03  0.99273804232E+03  0.10100000352E+00 0. -1.
</event>
<event>
 5   0  0.3378848E-06  0.3569712E+04  0.7818609E-02  0.8097465E-01
       -2   -1    0    0    0  501  0.00000000000E+00  0.00000000000E+00  0.25185545097E+04  0.25185545097E+04  0.25500000920E-02 0. -1.
        2   -1    0    0  501    0  0.00000000000E+00  0.00000000000E+00 -0.12648966695E+04  0.12648966695E+04  0.25500000920E-02 0.  1.
    10030    2    1    2    0    0  0.00000000000E+00  0.00000000000E+00  0.12536578402E+04  0.37834511793E+04  0.35697121516E+04 0.  0.
        1    1    3    3  502    0  0.57781056676E+03 -0.65871253622E+03  0.22749080195E+04  0.24378215180E+04  0.50400001928E-02 0. -1.
       -1    1    3    3    0  502 -0.57781056676E+03  0.65871253622E+03 -0.10212501793E+04  0.13456296612E+04  0.50400001928E-02 0.  1.
</event>
<event>
 5   0  0.1102175E-06  0.3569523E+04  0.7818609E-02  0.8097509E-01
       -1   -1    0    0    0  501  0.00000000000E+00  0.00000000000E+00  0.22309635590E+04  0.22309635590E+04  0.50400001928E-02 0.  1.
        1   -1    0    0  501    0  0.00000000000E+00  0.00000000000E+00 -0.14278019712E+04  0.14278019712E+04  0.50400001928E-02 0. -1.
    10030    2    1    2    0    0  0.00000000000E+00  0.00000000000E+00  0.80316158775E+03  0.36587655302E+04  0.35695233112E+04 0.  0.
        5    1    3    3  502    0  0.57959599069E+03  0.13981615539E+03  0.21258606436E+04  0.22078916721E+04  0.46999998093E+01 0.  1.
       -5    1    3    3    0  502 -0.57959599069E+03 -0.13981615539E+03 -0.13226990559E+04  0.14508738581E+04  0.46999998093E+01 0. -1.
</event>
<event>
 5   0  0.1908726E-06  0.3559801E+04  0.7818609E-02  0.8099762E-01
       -2   -1    0    0    0  501  0.00000000000E+00  0.00000000000E+00  0.26903689270E+04  0.26903689270E+04  0.25500000920E-02 0. -1.
        2   -1    0    0  501    0  0.00000000000E+00  0.00000000000E+00 -0.11775505187E+04  0.11775505187E+04  0.25500000920E-02 0.  1.
    10030    2    1    2    0    0  0.00000000000E+00  0.00000000000E+00  0.15128184083E+04  0.38679194457E+04  0.35598007391E+04 0.  0.
        5    1    3    3  502    0 -0.64510434525E+02  0.12632538703E+03  0.26842112623E+04  0.26879605447E+04  0.46999998093E+01 0. -1.
       -5    1    3    3    0  502  0.64510434525E+02 -0.12632538703E+03 -0.11713928540E+04  0.11799589010E+04  0.46999998093E+01 0.  1.
</event>
<event>
 5   0  0.1908726E-06  0.3475456E+04  0.7818609E-02  0.8119631E-01
       -2   -1    0    0    0  501  0.00000000000E+00  0.00000000000E+00  0.28352831330E+04  0.28352831330E+04  0.25500000920E-02 0.  1.
        2   -1    0    0  501    0  0.00000000000E+00  0.00000000000E+00 -0.10650429785E+04  0.10650429785E+04  0.25500000920E-02 0. -1.
    10030    2    1    2    0    0  0.00000000000E+00  0.00000000000E+00  0.17702401545E+04  0.39003261115E+04  0.34754558797E+04 0.  0.
        5    1    3    3  502    0  0.15086355170E+02  0.99596764410E+03 -0.71285230024E+03  0.12248916843E+04  0.46999998093E+01 0. -1.
       -5    1    3    3    0  502 -0.15086355170E+02 -0.99596764410E+03  0.24830924547E+04  0.26754344273E+04  0.46999998093E+01 0.  1.
</event>
<event>
 5   0  0.1130707E-06  0.3713350E+04  0.7818609E-02  0.8065010E-01
        1   -1    0    0  501    0  0.00000000000E+00  0.00000000000E+00  0.27610578502E+04  0.27610578502E+04  0.50400001928E-02 0.  1.
       -1   -1    0    0    0  501  0.00000000000E+00  0.00000000000E+00 -0.12485221353E+04  0.12485221353E+04  0.50400001928E-02 0. -1.
    10030    2    1    2    0    0  0.00000000000E+00  0.00000000000E+00  0.15125357149E+04  0.40095799855E+04  0.37133498853E+04 0.  0.
        3    1    3    3  502    0  0.72219266015E+03  0.17000231909E+04  0.55253430869E+03  0.19279354918E+04  0.10100000352E+00 0. -1.
       -3    1    3    3    0  502 -0.72219266015E+03 -0.17000231909E+04  0.96000140624E+03  0.20816444937E+04  0.10100000352E+00 0.  1.
</event>
<event>
 5   0  0.1130707E-06  0.3527157E+04  0.7818609E-02  0.8107384E-01
       -1   -1    0    0    0  501  0.00000000000E+00  0.00000000000E+00  0.10256628988E+04  0.10256628988E+04  0.50400001928E-02 0.  1.
        1   -1    0    0  501    0  0.00000000000E+00  0.00000000000E+00 -0.30323888922E+04  0.30323888922E+04  0.50400001928E-02 0. -1.
    10030    2    1    2    0    0  0.00000000000E+00  0.00000000000E+00 -0.20067259934E+04  0.40580517910E+04  0.35271568048E+04 0.  0.
        3    1    3    3  502    0  0.12711502824E+04 -0.52667760009E+02 -0.24085066588E+04  0.27238761479E+04  0.10100000352E+00 0. -1.
       -3    1    3    3    0  502 -0.12711502824E+04  0.52667760009E+02  0.40178066545E+03  0.13341756431E+04  0.10100000352E+00 0.  1.
</event>
<event>
 5   0  0.3041329E-06  0.2549751E+04  0.7818609E-02  0.8385473E-01
       -2   -1    0    0    0  501  0.00000000000E+00  0.00000000000E+00  0.67167963928E+03  0.67167963928E+03  0.25500000920E-02 0. -1.
        2   -1    0    0  501    0  0.00000000000E+00  0.00000000000E+00 -0.24197667683E+04  0.24197667683E+04  0.25500000920E-02 0.  1.
    10030    2    1    2    0    0  0.00000000000E+00  0.00000000000E+00 -0.17480871290E+04  0.30914464076E+04  0.25497514154E+04 0.  0.
        2    1    3    3  502    0  0.99962577573E+03 -0.78129506530E+03 -0.10256454083E+04  0.16314478766E+04  0.25500000920E-02 0. -1.
       -2    1    3    3    0  502 -0.99962577573E+03  0.78129506530E+03 -0.72244172071E+03  0.14599985310E+04  0.25500000920E-02 0.  1.
</event>
<event>
 5   0  0.3041329E-06  0.1730035E+04  0.7818609E-02  0.8744418E-01
        2   -1    0    0  501    0  0.00000000000E+00  0.00000000000E+00  0.12249383072E+04  0.12249383072E+04  0.25500000920E-02 0.  1.
       -2   -1    0    0    0  501  0.00000000000E+00  0.00000000000E+00 -0.61085105267E+03  0.61085105267E+03  0.25500000920E-02 0. -1.
    10030    2    1    2    0    0  0.00000000000E+00  0.00000000000E+00  0.61408725457E+03  0.18357893599E+04  0.17300345135E+04 0.  0.
        2    1    3    3  502    0 -0.21217329426E+03  0.82708512528E+03  0.16013364507E+03  0.86875203341E+03  0.25500000920E-02 0. -1.
       -2    1    3    3    0  502  0.21217329426E+03 -0.82708512528E+03  0.45395360950E+03  0.96703732650E+03  0.25500000920E-02 0.  1.
</event>
<event>
 5   0  0.1125196E-06  0.3513951E+04  0.7818609E-02  0.8110492E-01
       -1   -1    0    0    0  501  0.00000000000E+00  0.00000000000E+00  0.30668278310E+04  0.30668278310E+04  0.50400001928E-02 0. -1.
        1   -1    0    0  501    0  0.00000000000E+00  0.00000000000E+00 -0.10065655911E+04  0.10065655911E+04  0.50400001928E-02 0.  1.
    10030    2    1    2    0    0  0.00000000000E+00  0.00000000000E+00  0.20602622400E+04  0.40733934221E+04  0.35139512623E+04 0.  0.
        4    1    3    3  502    0 -0.12383011309E+04 -0.12158815505E+04  0.71223777159E+03  0.18759109499E+04  0.12699999809E+01 0.  1.
       -4    1    3    3    0  502  0.12383011309E+04  0.12158815505E+04  0.13480244684E+04  0.21974824723E+04  0.12699999809E+01 0. -1.
</event>
<event>
 5   0  0.1782660E-06  0.3545571E+04  0.7818609E-02  0.8103074E-01
       -2   -1    0    0    0  501  0.00000000000E+00  0.00000000000E+00  0.11721085157E+04  0.11721085157E+04  0.25500000920E-02 0.  1.
        2   -1    0    0  501    0  0.00000000000E+00  0.00000000000E+00 -0.26812948242E+04  0.26812948242E+04  0.25500000920E-02 0. -1.
    10030    2    1    2    0    0  0.00000000000E+00  0.00000000000E+00 -0.15091863085E+04  0.38534033400E+04  0.35455710382E+04 0.  0.
        4    1    3    3  502    0  0.72462387747E+03 -0.11119287035E+04  0.52273518589E+03  0.14264357304E+04  0.12699999809E+01 0.  1.
       -4    1    3    3    0  502 -0.72462387747E+03  0.11119287035E+04 -0.20319214944E+04  0.24269676096E+04  0.12699999809E+01 0. -1.
</event>
<event>
 5   0  0.1089337E-06  0.3517444E+04  0.7818609E-02  0.8109668E-01
       -1   -1    0    0    0  501  0.00000000000E+00  0.00000000000E+00  0.20543325308E+04  0.20543325308E+04  0.50400001928E-02 0. -1.
        1   -1    0    0  501    0  0.00000000000E+00  0.00000000000E+00 -0.15056482823E+04  0.15056482823E+04  0.50400001928E-02 0.  1.
    10030    2    1    2    0    0  0.00000000000E+00  0.00000000000E+00  0.54868424856E+03  0.35599808131E+04  0.35174435297E+04 0.  0.
        2    1    3    3  502    0  0.14886214742E+04  0.92401575792E+03  0.11984208212E+03  0.17561779918E+04  0.25500000920E-02 0.  1.
       -2    1    3    3    0  502 -0.14886214742E+04 -0.92401575792E+03  0.42884216644E+03  0.18038028213E+04  0.25500000920E-02 0. -1.
</event>
<event>
 5   0  0.3041329E-06  0.1721712E+04  0.7818609E-02  0.8749077E-01
       -2   -1    0    0    0  501  0.00000000000E+00  0.00000000000E+00  0.36925143453E+03  0.36925143454E+03  0.25500000920E-02 0. -1.
        2   -1    0    0  501    0  0.00000000000E+00  0.00000000000E+00 -0.20069605706E+04  0.20069605706E+04  0.25500000920E-02 0.  1.
    10030    2    1    2    0    0  0.00000000000E+00  0.00000000000E+00 -0.16377091361E+04  0.23762120052E+04  0.17217120198E+04 0.  0.
        2    1    3    3  502    0 -0.99655715684E+02  0.82900570587E+03 -0.52971060278E+03  0.98882508298E+03  0.25500000920E-02 0. -1.
       -2    1    3    3    0  502  0.99655715684E+02 -0.82900570587E+03 -0.11079985333E+04  0.13873869222E+04  0.25500000920E-02 0.  1.
</event>
<event>
 5   0  0.1110956E-06  0.3435441E+04  0.7818609E-02  0.8129262E-01
        1   -1    0    0  501    0  0.00000000000E+00  0.00000000000E+00  0.27166676217E+04  0.27166676217E+04  0.50400001928E-02 0. -1.
       -1   -1    0    0    0  501  0.00000000000E+00  0.00000000000E+00 -0.10860964251E+04  0.10860964251E+04  0.50400001928E-02 0.  1.
    10030    2    1    2    0    0  0.00000000000E+00  0.00000000000E+00  0.16305711966E+04  0.38027640469E+04  0.34354405785E+04 0.  0.
        1    1    3    3  502    0 -0.33661483073E+03  0.10097014464E+04  0.23076840292E+04  0.25413012678E+04  0.50400001928E-02 0. -1.
       -1    1    3    3    0  502  0.33661483073E+03 -0.10097014464E+04 -0.67711283252E+03  0.12614627791E+04  0.50400001928E-02 0.  1.
</event>
<event>
 5   0  0.1130707E-06  0.3481992E+04  0.7818609E-02  0.8118071E-01
        1   -1    0    0  501    0  0.00000000000E+00  0.00000000000E+00  0.18319753552E+04  0.18319753552E+04  0.50400001928E-02 0. -1.
       -1   -1    0    0    0  501  0.00000000000E+00  0.00000000000E+00 -0.16545352585E+04  0.16545352585E+04  0.50400001928E-02 0.  1.
    10030    2    1    2    0    0  0.00000000000E+00  0.00000000000E+00  0.17744009667E+03  0.34865106137E+04  0.34819924284E+04 0.  0.
        3    1    3    3  502    0 -0.81816443843E+03 -0.15228570066E+04  0.29534016926E+03  0.17537708906E+04  0.10100000352E+00 0. -1.
       -3    1    3    3    0  502  0.81816443843E+03  0.15228570066E+04 -0.11790007259E+03  0.17327397231E+04  0.10100000352E+00 0.  1.
</event>
<event>
 5   0  0.3378848E-06  0.3517859E+04  0.7818609E-02  0.8109571E-01
       -2   -1    0    0    0  501  0.00000000000E+00  0.00000000000E+00  0.14284501231E+04  0.14284501231E+04  0.25500000920E-02 0. -1.
        2   -1    0    0  501    0  0.00000000000E+00  0.00000000000E+00 -0.21658674320E+04  0.21658674320E+04  0.25500000920E-02 0.  1.
    10030    2    1    2    0    0  0.00000000000E+00  0.00000000000E+00 -0.73741730895E+03  0.35943175551E+04  0.35178593490E+04 0.  0.
        1    1    3    3  502    0  0.36656096945E+03 -0.16322815634E+04 -0.92376862470E+03  0.19110359805E+04  0.50400001928E-02 0.  1.
       -1    1    3    3    0  502 -0.36656096945E+03  0.16322815634E+04  0.18635131575E+03  0.16832815747E+04  0.50400001928E-02 0. -1.
</event>
<event>
 5   0  0.2565004E-06  0.3531506E+04  0.7818609E-02  0.8106364E-01
       -2   -1    0    0    0  501  0.00000000000E+00  0.00000000000E+00  0.18364922342E+04  0.18364922342E+04  0.25500000920E-02 0. -1.
        2   -1    0    0  501    0  0.00000000000E+00  0.00000000000E+00 -0.16977381448E+04  0.16977381448E+04  0.25500000920E-02 0.  1.
    10030    2    1    2    0    0  0.00000000000E+00  0.00000000000E+00  0.13875408946E+03  0.35342303790E+04  0.35315055819E+04 0.  0.
        3    1    3    3  502    0  0.14360180972E+04 -0.28620147312E+02 -0.95850637618E+03  0.17267604269E+04  0.10100000352E+00 0.  1.
       -3    1    3    3    0  502 -0.14360180972E+04  0.28620147312E+02  0.10972604656E+04  0.18074699522E+04  0.10100000352E+00 0. -1.
</event>
<event>
 5   0  0.1125196E-06  0.3161752E+04  0.7818609E-02  0.8198992E-01
       -1   -1    0    0    0  501  0.00000000000E+00  0.00000000000E+00  0.14612057931E+04  0.14612057931E+04  0.50400001928E-02 0.  1.
        1   -1    0    0  501    0  0.00000000000E+00  0.00000000000E+00 -0.17103475001E+04  0.17103475001E+04  0.50400001928E-02 0. -1.
    10030    2    1    2    0    0  0.00000000000E+00  0.00000000000E+00 -0.24914170702E+03  0.31715532931E+04  0.31617524731E+04 0.  0.
        4    1    3    3  502    0 -0.82306310526E+03 -0.40319446961E+03  0.11675094678E+04  0.14842771392E+04  0.12699999809E+01 0.  1.
       -4    1    3    3    0  502  0.82306310526E+03  0.40319446961E+03 -0.14166511749E+04  0.16872761539E+04  0.12699999809E+01 0. -1.
</event>
<event>
 5   0  0.1908726E-06  0.3529090E+04  0.7818609E-02  0.8106930E-01
       -2   -1    0    0    0  501  0.00000000000E+00  0.00000000000E+00  0.98529780776E+03  0.98529780777E+03  0.25500000920E-02 0. -1.
        2   -1    0    0  501    0  0.00000000000E+00  0.00000000000E+00 -0.31600783899E+04  0.31600783899E+04  0.25500000920E-02 0.  1.
    10030    2    1    2    0    0  0.00000000000E+00  0.00000000000E+00 -0.21747805822E+04  0.41453761977E+04  0.35290895766E+04 0.  0.
        5    1    3    3  502    0 -0.20864092959E+03 -0.16136997988E+04 -0.18892751227E+04  0.24933793649E+04  0.46999998093E+01 0.  1.
       -5    1    3    3    0  502  0.20864092959E+03  0.16136997988E+04 -0.28550545949E+03  0.16519968328E+04  0.46999998093E+01 0. -1.
</event>
<event>
 5   0  0.1089337E-06  0.2186977E+04  0.7818609E-02  0.8523868E-01
        1   -1    0    0  501    0  0.00000000000E+00  0.00000000000E+00  0.21884331173E+04  0.21884331173E+04  0.50400001928E-02 0. -1.
       -1   -1    0    0    0  501  0.00000000000E+00  0.00000000000E+00 -0.54638062806E+03  0.54638062809E+03  0.50400001928E-02 0.  1.
    10030    2    1    2    0    0  0.00000000000E+00  0.00000000000E+00  0.16420524892E+04  0.27348137454E+04  0.21869773306E+04 0.  0.
        2    1    3    3  502    0 -0.81726219305E+03 -0.43686552962E+03  0.15469068992E+04  0.18032442813E+04  0.25500000920E-02 0. -1.
       -2    1    3    3    0  502  0.81726219305E+03  0.43686552962E+03  0.95145590041E+02  0.93156946412E+03  0.25500000920E-02 0.  1.
</event>
<event>
 5   0  0.3041329E-06  0.3451502E+04  0.7818609E-02  0.8125380E-01
       -2   -1    0    0    0  501  0.00000000000E+00  0.00000000000E+00  0.15488029406E+04  0.15488029406E+04  0.25500000920E-02 0.  1.
        2   -1    0    0  501    0  0.00000000000E+00  0.00000000000E+00 -0.19229152695E+04  0.19229152695E+04  0.25500000920E-02 0. -1.
    10030    2    1    2    0    0  0.00000000000E+00  0.00000000000E+00 -0.37411232888E+03  0.34717182101E+04  0.34515021796E+04 0.  0.
        2    1    3    3  502    0  0.25227768855E+03  0.76884554736E+01 -0.19042501728E+04  0.19209039188E+04  0.25500000920E-02 0. -1.
       -2    1    3    3    0  502 -0.25227768855E+03 -0.76884554736E+01  0.15301378440E+04  0.15508142913E+04  0.25500000920E-02 0.  1.
</event>
<event>
 5   0  0.3041329E-06  0.3032430E+04  0.7818609E-02  0.8234530E-01
       -2   -1    0    0    0  501  0.00000000000E+00  0.00000000000E+00  0.17330819068E+04  0.17330819068E+04  0.25500000920E-02 0.  1.
        2   -1    0    0  501    0  0.00000000000E+00  0.00000000000E+00 -0.13264858099E+04  0.13264858099E+04  0.25500000920E-02 0. -1.
    10030    2    1    2    0    0  0.00000000000E+00  0.00000000000E+00  0.40659609691E+03  0.30595677166E+04  0.30324304158E+04 0.  0.
        2    1    3    3  502    0  0.38694924251E+03 -0.24400576767E+03  0.16617931165E+04  0.17236081031E+04  0.25500000920E-02 0.  1.
       -2    1    3    3    0  502 -0.38694924251E+03  0.24400576767E+03 -0.12551970196E+04  0.13359596135E+04  0.25500000920E-02 0. -1.
</event>
<event>
 5   0  0.1782660E-06  0.2862742E+04  0.7818609E-02  0.8284050E-01
        2   -1    0    0  501    0  0.00000000000E+00  0.00000000000E+00  0.22775303433E+04  0.22775303433E+04  0.25500000920E-02 0.  1.
       -2   -1    0    0    0  501  0.00000000000E+00  0.00000000000E+00 -0.89958086453E+03  0.89958086453E+03  0.25500000920E-02 0. -1.
    10030    2    1    2    0    0  0.00000000000E+00  0.00000000000E+00  0.13779494787E+04  0.31771112078E+04  0.28627418432E+04 0.  0.
        4    1    3    3  502    0 -0.52004999640E+03  0.84734913652E+03  0.18317968880E+04  0.20842106443E+04  0.12699999809E+01 0.  1.
       -4    1    3    3    0  502  0.52004999640E+03 -0.84734913652E+03 -0.45384740928E+03  0.10929005635E+04  0.12699999809E+01 0. -1.
</event>
<event>
 5   0  0.1130707E-06  0.2602050E+04  0.7818609E-02  0.8367505E-01
       -1   -1    0    0    0  501  0.00000000000E+00  0.00000000000E+00  0.11732991258E+04  0.11732991258E+04  0.50400001928E-02 0. -1.
        1   -1    0    0  501    0  0.00000000000E+00  0.00000000000E+00 -0.14426549123E+04  0.14426549123E+04  0.50400001928E-02 0.  1.
    10030    2    1    2    0    0  0.00000000000E+00  0.00000000000E+00 -0.26935578655E+03  0.26159540381E+04  0.26020497669E+04 0.  0.
        3    1    3    3  502    0  0.44432598238E+02  0.43667725569E+03  0.10966133338E+04  0.11811951979E+04  0.10100000352E+00 0. -1.
       -3    1    3    3    0  502 -0.44432598238E+02 -0.43667725569E+03 -0.13659691204E+04  0.14347588402E+04  0.10100000352E+00 0.  1.
</event>
<event>
 5   0  0.2565004E-06  0.3464990E+04  0.7818609E-02  0.8122137E-01
       -2   -1    0    0    0  501  0.00000000000E+00  0.00000000000E+00  0.17896384623E+04  0.17896384623E+04  0.25500000920E-02 0. -1.
        2   -1    0    0  501    0  0.00000000000E+00  0.00000000000E+00 -0.16771758690E+04  0.16771758690E+04  0.25500000920E-02 0.  1.
    10030    2    1    2    0    0  0.00000000000E+00  0.00000000000E+00  0.11246259331E+03  0.34668143312E+04  0.34649897218E+04 0.  0.
        3    1    3    3  502    0 -0.24838604626E+03 -0.69187108745E+03  0.16258649799E+04  0.17843256913E+04  0.10100000352E+00 0. -1.
       -3    1    3    3    0  502  0.24838604626E+03  0.69187108745E+03 -0.15134023866E+04  0.16824886399E+04  0.10100000352E+00 0.  1.
</event>
<event>
 5   0  0.3041329E-06  0.3305791E+04  0.7818609E-02  0.8161423E-01
        2   -1    0    0  501    0  0.00000000000E+00  0.00000000000E+00  0.13069555542E+04  0.13069555542E+04  0.25500000920E-02 0. -1.
       -2   -1    0    0    0  501  0.00000000000E+00  0.00000000000E+00 -0.20904030078E+04  0.20904030078E+04  0.25500000920E-02 0.  1.
    10030    2    1    2    0    0  0.00000000000E+00  0.00000000000E+00 -0.78344745361E+03  0.33973585620E+04  0.33057911740E+04 0.  0.
        2    1    3    3  502    0 -0.16123785537E+04 -0.25770456409E+03 -0.12792800749E+03  0.16378467016E+04  0.25500000920E-02 0. -1.
       -2    1    3    3    0  502  0.16123785537E+04  0.25770456409E+03 -0.65551944612E+03  0.17595118604E+04  0.25500000920E-02 0.  1.
</event>
<event>
 5   0  0.1782660E-06  0.2510838E+04  0.7818609E-02  0.8399135E-01
        2   -1    0    0  501    0  0.00000000000E+00  0.00000000000E+00  0.18944617323E+04  0.18944617323E+04  0.25500000920E-02 0.  1.
       -2   -1    0    0    0  501  0.00000000000E+00  0.00000000000E+00 -0.83193922672E+03  0.83193922672E+03  0.25500000920E-02 0. -1.
    10030    2    1    2    0    0  0.00000000000E+00  0.00000000000E+00  0.10625225056E+04  0.27264009590E+04  0.25108381299E+04 0.  0.
        4    1    3    3  502    0  0.66027766016E+03  0.10524371565E+04  0.33555193501E+03  0.12869293962E+04  0.12699999809E+01 0. -1.
       -4    1    3    3    0  502 -0.66027766016E+03 -0.10524371565E+04  0.72697057060E+03  0.14394715628E+04  0.12699999809E+01 0.  1.
</event>
<event>
 5   0  0.1873475E-06  0.1744718E+04  0.7818609E-02  0.8736263E-01
       -2   -1    0    0    0  501  0.00000000000E+00  0.00000000000E+00  0.11615110725E+04  0.11615110725E+04  0.25500000920E-02 0. -1.
        2   -1    0    0  501    0  0.00000000000E+00  0.00000000000E+00 -0.65518982391E+03  0.65518982391E+03  0.25500000920E-02 0.  1.
    10030    2    1    2    0    0  0.00000000000E+00  0.00000000000E+00  0.50632124854E+03  0.18167008964E+04  0.17447180116E+04 0.  0.
        4    1    3    3  502    0 -0.66674162973E+03 -0.38985829545E+03 -0.16912643996E+03  0.79065748396E+03  0.12699999809E+01 0.  1.
       -4    1    3    3    0  502  0.66674162973E+03  0.38985829545E+03  0.67544768850E+03  0.10260434124E+04  0.12699999809E+01 0. -1.
</event>
<event>
 5   0  0.1782660E-06  0.3407274E+04  0.7818609E-02  0.8136123E-01
       -2   -1    0    0    0  501  0.00000000000E+00  0.00000000000E+00  0.11371868012E+04  0.11371868012E+04  0.25500000920E-02 0.  1.
        2   -1    0    0  501    0  0.00000000000E+00  0.00000000000E+00 -0.25522449738E+04  0.25522449738E+04  0.25500000920E-02 0. -1.
    10030    2    1    2    0    0  0.00000000000E+00  0.00000000000E+00 -0.14150581726E+04  0.36894317751E+04  0.34072741585E+04 0.  0.
        4    1    3    3  502    0 -0.97722789651E+03  0.13713162121E+04 -0.98758824731E+03  0.19521308036E+04  0.12699999809E+01 0. -1.
       -4    1    3    3    0  502  0.97722789651E+03 -0.13713162121E+04 -0.42746992532E+03  0.17373009714E+04  0.12699999809E+01 0.  1.
</event>
<event>
 5   0  0.2565004E-06  0.3436655E+04  0.7818609E-02  0.8128968E-01
        2   -1    0    0  501    0  0.00000000000E+00  0.00000000000E+00  0.15722888364E+04  0.15722888364E+04  0.25500000920E-02 0.  1.
       -2   -1    0    0    0  501  0.00000000000E+00  0.00000000000E+00 -0.18779305068E+04  0.18779305068E+04  0.25500000920E-02 0. -1.
    10030    2    1    2    0    0  0.00000000000E+00  0.00000000000E+00 -0.30564167048E+03  0.34502193432E+04  0.34366548685E+04 0.  0.
        3    1    3    3  502    0  0.11727970642E+04  0.11280772153E+04 -0.70693956042E+03  0.17741969197E+04  0.10100000352E+00 0. -1.
       -3    1    3    3    0  502 -0.11727970642E+04 -0.11280772153E+04  0.40129788994E+03  0.16760224235E+04  0.10100000352E+00 0.  1.
</event>
<event>
 5   0  0.1908726E-06  0.3599134E+04  0.7818609E-02  0.8090690E-01
        2   -1    0    0  501    0  0.00000000000E+00  0.00000000000E+00  0.18011914286E+04  0.18011914286E+04  0.25500000920E-02 0. -1.
       -2   -1    0    0    0  501  0.00000000000E+00  0.00000000000E+00 -0.17979438869E+04  0.17979438869E+04  0.25500000920E-02 0.  1.
    10030    2    1    2    0    0  0.00000000000E+00  0.00000000000E+00  0.32475416779E+01  0.35991353154E+04  0.35991338503E+04 0.  0.
        5    1    3    3  502    0  0.44953577077E+03 -0.16303868307E+04  0.61658369571E+03  0.18001225432E+04  0.46999998093E+01 0. -1.
       -5    1    3    3    0  502 -0.44953577077E+03  0.16303868307E+04 -0.61333615404E+03  0.17990127722E+04  0.46999998093E+01 0.  1.
</event>
<event>
 5   0  0.2565004E-06  0.3102114E+04  0.7818609E-02  0.8215158E-01
       -2   -1    0    0    0  501  0.00000000000E+00  0.00000000000E+00  0.11490043614E+04  0.11490043615E+04  0.25500000920E-02 0. -1.
        2   -1    0    0  501    0  0.00000000000E+00  0.00000000000E+00 -0.20937931089E+04  0.20937931089E+04  0.25500000920E-02 0.  1.
    10030    2    1    2    0    0  0.00000000000E+00  0.00000000000E+00 -0.94478874745E+03  0.32427974703E+04  0.31021137401E+04 0.  0.
        3    1    3    3  502    0 -0.48992616532E+03 -0.14608432380E+04 -0.65847503209E+03  0.16756133180E+04  0.10100000352E+00 0. -1.
       -3    1    3    3    0  502  0.48992616532E+03  0.14608432380E+04 -0.28631371536E+03  0.15671841523E+04  0.10100000352E+00 0.  1.
</event>
<event>
 5   0  0.3378848E-06  0.3060647E+04  0.7818609E-02  0.8226622E-01
       -2   -1    0    0    0  501  0.00000000000E+00  0.00000000000E+00  0.18873452592E+04  0.18873452592E+04  0.25500000920E-02 0. -1.
        2   -1    0    0  501    0  0.00000000000E+00  0.00000000000E+00 -0.12408384013E+04  0.12408384013E+04  0.25500000920E-02 0.  1.
    10030    2    1    2    0    0  0.00000000000E+00  0.00000000000E+00  0.64650685788E+03  0.31281836605E+04  0.30606473002E+04 0.  0.
        1    1    3    3  502    0  0.16916677158E+03  0.14991556903E+04  0.58543935407E+03  0.16182782263E+04  0.50400001928E-02 0.  1.
       -1    1    3    3    0  502 -0.16916677158E+03 -0.14991556903E+04  0.61067503809E+02  0.15099054342E+04  0.50400001928E-02 0. -1.
</event>
<event>
 5   0  0.1908726E-06  0.3377390E+04  0.7818609E-02  0.8143478E-01
       -2   -1    0    0    0  501  0.00000000000E+00  0.00000000000E+00  0.11299546088E+04  0.11299546088E+04  0.25500000920E-02 0. -1.
        2   -1    0    0  501    0  0.00000000000E+00  0.00000000000E+00 -0.25237215334E+04  0.25237215334E+04  0.25500000920E-02 0.  1.
    10030    2    1    2    0    0  0.00000000000E+00  0.00000000000E+00 -0.13937669246E+04  0.36536761422E+04  0.33773899851E+04 0.  0.
        5    1    3    3  502    0  0.75488895510E+02  0.16517331257E+04 -0.32566870592E+03  0.16852308708E+04  0.46999998093E+01 0. -1.
       -5    1    3    3    0  502 -0.75488895510E+02 -0.16517331257E+04 -0.10680982187E+04  0.19684452714E+04  0.46999998093E+01 0.  1.
</event>
<event>
 5   0  0.1089337E-06  0.3320825E+04  0.7818609E-02  0.8157617E-01
       -1   -1    0    0    0  501  0.00000000000E+00  0.00000000000E+00  0.11203518043E+04  0.11203518043E+04  0.50400001928E-02 0. -1.
        1   -1    0    0  501    0  0.00000000000E+00  0.00000000000E+00 -0.24608065299E+04  0.24608065299E+04  0.50400001928E-02 0.  1.
    10030    2    1    2    0    0  0.00000000000E+00  0.00000000000E+00 -0.13404547255E+04  0.35811583342E+04  0.33208246180E+04 0.  0.
        2    1    3    3  502    0 -0.39981607444E+03 -0.79527083296E+03 -0.21817732424E+04  0.23563622540E+04  0.25500000920E-02 0.  1.
       -2    1    3    3    0  502  0.39981607444E+03  0.79527083296E+03  0.84131851683E+03  0.12247960801E+04  0.25500000920E-02 0. -1.
</event>
<event>
 5   0  0.1130707E-06  0.2323413E+04  0.7818609E-02  0.8468747E-01
        1   -1    0    0  501    0  0.00000000000E+00  0.00000000000E+00  0.97179792469E+03  0.97179792470E+03  0.50400001928E-02 0. -1.
       -1   -1    0    0    0  501  0.00000000000E+00  0.00000000000E+00 -0.13887265412E+04  0.13887265413E+04  0.50400001928E-02 0.  1.
    10030    2    1    2    0    0  0.00000000000E+00  0.00000000000E+00 -0.41692861656E+03  0.23605244660E+04  0.23234126373E+04 0.  0.
        3    1    3    3  502    0  0.73714423407E+03 -0.77895565827E+03  0.24521969951E+03  0.11001301062E+04  0.10100000352E+00 0. -1.
       -3    1    3    3    0  502 -0.73714423407E+03  0.77895565827E+03 -0.66214831607E+03  0.12603943597E+04  0.10100000352E+00 0.  1.
</event>
<event>
 5   0  0.1110956E-06  0.3392675E+04  0.7818609E-02  0.8139706E-01
        1   -1    0    0  501    0  0.00000000000E+00  0.00000000000E+00  0.12307712189E+04  0.12307712189E+04  0.50400001928E-02 0. -1.
       -1   -1    0    0    0  501  0.00000000000E+00  0.00000000000E+00 -0.23380144385E+04  0.23380144385E+04  0.50400001928E-02 0.  1.
    10030    2    1    2    0    0  0.00000000000E+00  0.00000000000E+00 -0.11072432196E+04  0.35687856574E+04  0.33926749802E+04 0.  0.
        1    1    3    3  502    0  0.41511126852E+03 -0.15735061351E+04 -0.10573553365E+04  0.19406800947E+04  0.50400001928E-02 0. -1.
       -1    1    3    3    0  502 -0.41511126852E+03  0.15735061351E+04 -0.49887883095E+02  0.16281055627E+04  0.50400001928E-02 0.  1.
</event>
<event>
 5   0  0.1102175E-06  0.2021883E+04  0.7818609E-02  0.8596457E-01
        1   -1    0    0  501    0  0.00000000000E+00  0.00000000000E+00  0.20843563276E+04  0.20843563276E+04  0.50400001928E-02 0. -1.
       -1   -1    0    0    0  501  0.00000000000E+00  0.00000000000E+00 -0.49032072966E+03  0.49032072968E+03  0.50400001928E-02 0.  1.
    10030    2    1    2    0    0  0.00000000000E+00  0.00000000000E+00  0.15940355979E+04  0.25746770573E+04  0.20218833947E+04 0.  0.
        5    1    3    3  502    0  0.31139352421E+03  0.94352870178E+03  0.55957401450E+03  0.11403321909E+04  0.46999998093E+01 0.  1.
       -5    1    3    3    0  502 -0.31139352421E+03 -0.94352870178E+03  0.10344615834E+04  0.14343448663E+04  0.46999998093E+01 0. -1.
</event>
<event>
 5   0  0.1130707E-06  0.3530949E+04  0.7818609E-02  0.8106494E-01
       -1   -1    0    0    0  501  0.00000000000E+00  0.00000000000E+00  0.12508011529E+04  0.12508011529E+04  0.50400001928E-02 0.  1.
        1   -1    0    0  501    0  0.00000000000E+00  0.00000000000E+00 -0.24919232038E+04  0.24919232038E+04  0.50400001928E-02 0. -1.
    10030    2    1    2    0    0  0.00000000000E+00  0.00000000000E+00 -0.12411220509E+04  0.37427243567E+04  0.35309491168E+04 0.  0.
        3    1    3    3  502    0  0.16602571473E+04 -0.21833249845E+03 -0.27752886217E+02  0.16747815105E+04  0.10100000352E+00 0. -1.
       -3    1    3    3    0  502 -0.16602571473E+04  0.21833249845E+03 -0.12133691646E+04  0.20679428462E+04  0.10100000352E+00 0.  1.
</event>
<event>
 5   0  0.1782660E-06  0.3133396E+04  0.7818609E-02  0.8206632E-01
       -2   -1    0    0    0  501  0.00000000000E+00  0.00000000000E+00  0.79787594586E+03  0.79787594587E+03  0.25500000920E-02 0.  1.
        2   -1    0    0  501    0  0.00000000000E+00  0.00000000000E+00 -0.30763466774E+04  0.30763466774E+04  0.25500000920E-02 0. -1.
    10030    2    1    2    0    0  0.00000000000E+00  0.00000000000E+00 -0.22784707315E+04  0.38742226232E+04  0.31333962501E+04 0.  0.
        4    1    3    3  502    0  0.17354880051E+03 -0.53757529824E+03 -0.29460451482E+04  0.29997149891E+04  0.12699999809E+01 0. -1.
       -4    1    3    3    0  502 -0.17354880051E+03  0.53757529824E+03  0.66757441672E+03  0.87450763416E+03  0.12699999809E+01 0.  1.
</event>
<event>
 5   0  0.1782660E-06  0.3450983E+04  0.7818609E-02  0.8125505E-01
       -2   -1    0    0    0  501  0.00000000000E+00  0.00000000000E+00  0.12466475052E+04  0.12466475052E+04  0.25500000920E-02 0. -1.
        2   -1    0    0  501    0  0.00000000000E+00  0.00000000000E+00 -0.23882625090E+04  0.23882625090E+04  0.25500000920E-02 0.  1.
    10030    2    1    2    0    0  0.00000000000E+00  0.00000000000E+00 -0.11416150038E+04  0.36349100142E+04  0.34509833373E+04 0.  0.
        4    1    3    3  502    0  0.15316111051E+04  0.60236724340E+03 -0.24877503244E+02  0.16459949503E+04  0.12699999809E+01 0. -1.
       -4    1    3    3    0  502 -0.15316111051E+04 -0.60236724340E+03 -0.11167375006E+04  0.19889150639E+04  0.12699999809E+01 0.  1.
</event>
<event>
 5   0  0.1089337E-06  0.3506343E+04  0.7818609E-02  0.8112288E-01
       -1   -1    0    0    0  501  0.00000000000E+00  0.00000000000E+00  0.16854625581E+04  0.16854625582E+04  0.50400001928E-02 0.  1.
        1   -1    0    0  501    0  0.00000000000E+00  0.00000000000E+00 -0.18236002874E+04  0.18236002874E+04  0.50400001928E-02 0. -1.
    10030    2    1    2    0    0  0.00000000000E+00  0.00000000000E+00 -0.13813772922E+03  0.35090628455E+04  0.35063428272E+04 0.  0.
        2    1    3    3  502    0  0.12037901565E+04 -0.80296296512E+02  0.12039445388E+04  0.17044179912E+04  0.25500000920E-02 0.  1.
       -2    1    3    3    0  502 -0.12037901565E+04  0.80296296512E+02 -0.13420822681E+04  0.18046448544E+04  0.25500000920E-02 0. -1.
</event>
<event>
 5   0  0.3041329E-06  0.3460126E+04  0.7818609E-02  0.8123305E-01
        2   -1    0    0  501    0  0.00000000000E+00  0.00000000000E+00  0.20379028161E+04  0.20379028161E+04  0.25500000920E-02 0. -1.
       -2   -1    0    0    0  501  0.00000000000E+00  0.00000000000E+00 -0.14687242412E+04  0.14687242412E+04  0.25500000920E-02 0.  1.
    10030    2    1    2    0    0  0.00000000000E+00  0.00000000000E+00  0.56917857491E+03  0.35066270573E+04  0.34601255857E+04 0.  0.
        2    1    3    3  502    0  0.88101741804E+03  0.11918202903E+04 -0.61986760735E+03  0.16065065035E+04  0.25500000920E-02 0. -1.
       -2    1    3    3    0  502 -0.88101741804E+03 -0.11918202903E+04  0.11890461823E+04  0.19001205537E+04  0.25500000920E-02 0.  1.
</event>
<event>
 5   0  0.1130707E-06  0.2562629E+04  0.7818609E-02  0.8381007E-01
       -1   -1    0    0    0  501  0.00000000000E+00  0.00000000000E+00  0.96785602178E+03  0.96785602179E+03  0.50400001928E-02 0.  1.
        1   -1    0    0  501    0  0.00000000000E+00  0.00000000000E+00 -0.16962928245E+04  0.16962928245E+04  0.50400001928E-02 0. -1.
    10030    2    1    2    0    0  0.00000000000E+00  0.00000000000E+00 -0.72843680270E+03  0.26641488463E+04  0.25626292942E+04 0.  0.
        3    1    3    3  502    0  0.13805702810E+03 -0.12285836831E+04 -0.71413756749E+03  0.14277500078E+04  0.10100000352E+00 0.  1.
       -3    1    3    3    0  502 -0.13805702810E+03  0.12285836831E+04 -0.14299235212E+02  0.12363988384E+04  0.10100000352E+00 0. -1.
</event>
<event>
 5   0  0.2565004E-06  0.2405743E+04  0.7818609E-02  0.8437357E-01
        2   -1    0    0  501    0  0.00000000000E+00  0.00000000000E+00  0.95288045619E+03  0.95288045620E+03  0.25500000920E-02 0. -1.
       -2   -1    0    0    0  501  0.00000000000E+00  0.00000000000E+00 -0.15184484419E+04  0.15184484419E+04  0.25500000920E-02 0.  1.
    10030    2    1    2    0    0  0.00000000000E+00  0.00000000000E+00 -0.56556798570E+03  0.24713288981E+04  0.24057429988E+04 0.  0.
        3    1    3    3  502    0  0.47641910170E+03 -0.10985289366E+04 -0.16494466235E+03  0.12086967100E+04  0.10100000352E+00 0.  1.
       -3    1    3    3    0  502 -0.47641910170E+03  0.10985289366E+04 -0.40062332335E+03  0.12626321881E+04  0.10100000352E+00 0. -1.
</event>
<event>
 5   0  0.2565004E-06  0.3452835E+04  0.7818609E-02  0.8125059E-01
        2   -1    0    0  501    0  0.00000000000E+00  0.00000000000E+00  0.31211619136E+04  0.31211619136E+04  0.25500000920E-02 0. -1.
       -2   -1    0    0    0  501  0.00000000000E+00  0.00000000000E+00 -0.95493858279E+03  0.95493858279E+03  0.25500000920E-02 0.  1.
    10030    2    1    2    0    0  0.00000000000E+00  0.00000000000E+00  0.21662233308E+04  0.40761004964E+04  0.34528353187E+04 0.  0.
        3    1    3    3  502    0 -0.20981265031E+03  0.79783739733E+03  0.28734223758E+04  0.29895019687E+04  0.10100000352E+00 0. -1.
       -3    1    3    3    0  502  0.20981265031E+03 -0.79783739733E+03 -0.70719904504E+03  0.10865985277E+04  0.10100000352E+00 0.  1.
</event>
<event>
 5   0  0.1089337E-06  0.2915350E+04  0.7818609E-02  0.8268325E-01
        1   -1    0    0  501    0  0.00000000000E+00  0.00000000000E+00  0.12728410962E+04  0.12728410962E+04  0.50400001928E-02 0. -1.
       -1   -1    0    0    0  501  0.00000000000E+00  0.00000000000E+00 -0.16693497745E+04  0.16693497745E+04  0.50400001928E-02 0.  1.
    10030    2    1    2    0    0  0.00000000000E+00  0.00000000000E+00 -0.39650867828E+03  0.29421908707E+04  0.29153504057E+04 0.  0.
        2    1    3    3  502    0 -0.13912001740E+04  0.63090298882E+02 -0.63279799034E+03  0.15296573494E+04  0.25500000920E-02 0. -1.
       -2    1    3    3    0  502  0.13912001740E+04 -0.63090298882E+02  0.23628931206E+03  0.14125335214E+04  0.25500000920E-02 0.  1.
</event>
<event>
 5   0  0.1908726E-06  0.3436083E+04  0.7818609E-02  0.8129107E-01
        2   -1    0    0  501    0  0.00000000000E+00  0.00000000000E+00  0.16999031228E+04  0.16999031228E+04  0.25500000920E-02 0.  1.
       -2   -1    0    0    0  501  0.00000000000E+00  0.00000000000E+00 -0.17363732606E+04  0.17363732606E+04  0.25500000920E-02 0. -1.
    10030    2    1    2    0    0  0.00000000000E+00  0.00000000000E+00 -0.36470137706E+02  0.34362763834E+04  0.34360828442E+04 0.  0.
        5    1    3    3  502    0  0.34599343593E+03  0.12570613622E+04  0.11006351312E+04  0.17062633174E+04  0.46999998093E+01 0.  1.
       -5    1    3    3    0  502 -0.34599343593E+03 -0.12570613622E+04 -0.11371052689E+04  0.17300130660E+04  0.46999998093E+01 0. -1.
</event>
<event>
 5   0  0.2565004E-06  0.3442572E+04  0.7818609E-02  0.8127536E-01
        2   -1    0    0  501    0  0.00000000000E+00  0.00000000000E+00  0.16885405702E+04  0.16885405702E+04  0.25500000920E-02 0.  1.
       -2   -1    0    0    0  501  0.00000000000E+00  0.00000000000E+00 -0.17546665116E+04  0.17546665116E+04  0.25500000920E-02 0. -1.
    10030    2    1    2    0    0  0.00000000000E+00  0.00000000000E+00 -0.66125941473E+02  0.34432070818E+04  0.34425720570E+04 0.  0.
        3    1    3    3  502    0 -0.12393807624E+04 -0.11123160947E+04 -0.46847511549E+03  0.17299655236E+04  0.10100000352E+00 0. -1.
       -3    1    3    3    0  502  0.12393807624E+04  0.11123160947E+04  0.40234917402E+03  0.17132415582E+04  0.10100000352E+00 0.  1.
</event>
<event>
 5   0  0.1782660E-06  0.3444639E+04  0.7818609E-02  0.8127037E-01
        2   -1    0    0  501    0  0.00000000000E+00  0.00000000000E+00  0.13064796408E+04  0.13064796408E+04  0.25500000920E-02 0. -1.
       -2   -1    0    0    0  501  0.00000000000E+00  0.00000000000E+00 -0.22705167440E+04  0.22705167440E+04  0.25500000920E-02 0.  1.
    10030    2    1    2    0    0  0.00000000000E+00  0.00000000000E+00 -0.96403710323E+03  0.35769963847E+04  0.34446386748E+04 0.  0.
        4    1    3    3  502    0  0.10454539873E+04  0.95907274672E+03  0.53202159971E+03  0.15152040022E+04  0.12699999809E+01 0. -1.
       -4    1    3    3    0  502 -0.10454539873E+04 -0.95907274672E+03 -0.14960587029E+04  0.20617923825E+04  0.12699999809E+01 0.  1.
</event>
<event>
 5   0  0.2565004E-06  0.3324720E+04  0.7818609E-02  0.8156634E-01
       -2   -1    0    0    0  501  0.00000000000E+00  0.00000000000E+00  0.13738026569E+04  0.13738026569E+04  0.25500000920E-02 0. -1.
        2   -1    0    0  501    0  0.00000000000E+00  0.00000000000E+00 -0.20115268040E+04  0.20115268040E+04  0.25500000920E-02 0.  1.
    10030    2    1    2    0    0  0.00000000000E+00  0.00000000000E+00 -0.63772414702E+03  0.33853294609E+04  0.33247200591E+04 0.  0.
        3    1    3    3  502    0 -0.12586467554E+04  0.38884910632E+03  0.71354754292E+03  0.14981806929E+04  0.10100000352E+00 0. -1.
       -3    1    3    3    0  502  0.12586467554E+04 -0.38884910632E+03 -0.13512716899E+04  0.18871487680E+04  0.10100000352E+00 0.  1.
</event>
<event>
 5   0  0.1908726E-06  0.3479498E+04  0.7818609E-02  0.8118666E-01
        2   -1    0    0  501    0  0.00000000000E+00  0.00000000000E+00  0.14449101263E+04  0.14449101263E+04  0.25500000920E-02 0.  1.
       -2   -1    0    0    0  501  0.00000000000E+00  0.00000000000E+00 -0.20947509573E+04  0.20947509573E+04  0.25500000920E-02 0. -1.
    10030    2    1    2    0    0  0.00000000000E+00  0.00000000000E+00 -0.64984083097E+03  0.35396610836E+04  0.34794981651E+04 0.  0.
        5    1    3    3  502    0  0.13918951803E+04  0.99425177823E+03 -0.19470610480E+01  0.17105363698E+04  0.46999998093E+01 0.  1.
       -5    1    3    3    0  502 -0.13918951803E+04 -0.99425177823E+03 -0.64789376992E+03  0.18291247138E+04  0.46999998093E+01 0. -1.
</event>
<event>
 5   0  0.3378848E-06  0.3080414E+04  0.7818609E-02  0.8221134E-01
       -2   -1    0    0    0  501  0.00000000000E+00  0.00000000000E+00  0.12099202159E+04  0.12099202159E+04  0.25500000920E-02 0. -1.
        2   -1    0    0  501    0  0.00000000000E+00  0.00000000000E+00 -0.19606567177E+04  0.19606567177E+04  0.25500000920E-02 0.  1.
    10030    2    1    2    0    0  0.00000000000E+00  0.00000000000E+00 -0.75073650181E+03  0.31705769336E+04  0.30804143871E+04 0.  0.
        1    1    3    3  502    0 -0.34529760384E+03  0.91113370246E+03  0.85237530926E+03  0.12945805216E+04  0.50400001928E-02 0. -1.
       -1    1    3    3    0  502  0.34529760384E+03 -0.91113370246E+03 -0.16031118111E+04  0.18759964120E+04  0.50400001928E-02 0.  1.
</event>
<event>
 5   0  0.1782660E-06  0.3606810E+04  0.7818609E-02  0.8088934E-01
        2   -1    0    0  501    0  0.00000000000E+00  0.00000000000E+00  0.23267986018E+04  0.23267986018E+04  0.25500000920E-02 0. -1.
       -2   -1    0    0    0  501  0.00000000000E+00  0.00000000000E+00 -0.13977441664E+04  0.13977441664E+04  0.25500000920E-02 0.  1.
    10030    2    1    2    0    0  0.00000000000E+00  0.00000000000E+00  0.92905443545E+03  0.37245427682E+04  0.36068097660E+04 0.  0.
        4    1    3    3  502    0 -0.15723984155E+04 -0.48617375341E+02 -0.44599542002E+03  0.16351495203E+04  0.12699999809E+01 0.  1.
       -4    1    3    3    0  502  0.15723984155E+04  0.48617375341E+02  0.13750498555E+04  0.20893932479E+04  0.12699999809E+01 0. -1.
</event>
<event>
 5   0  0.1130707E-06  0.3518540E+04  0.7818609E-02  0.8109410E-01
       -1   -1    0    0    0  501  0.00000000000E+00  0.00000000000E+00  0.15448938242E+04  0.15448938242E+04  0.50400001928E-02 0.  1.
        1   -1    0    0  501    0  0.00000000000E+00  0.00000000000E+00 -0.20033942115E+04  0.20033942115E+04  0.50400001928E-02 0. -1.
    10030    2    1    2    0    0  0.00000000000E+00  0.00000000000E+00 -0.45850038726E+03  0.35482880358E+04  0.35185402342E+04 0.  0.
        3    1    3    3  502    0  0.15043056867E+04  0.35037647390E+03 -0.10785893387E+04  0.18838933739E+04  0.10100000352E+00 0. -1.
       -3    1    3    3    0  502 -0.15043056867E+04 -0.35037647390E+03  0.62008895142E+03  0.16643946618E+04  0.10100000352E+00 0.  1.
</event>
<event>
 5   0  0.2565004E-06  0.2498960E+04  0.7818609E-02  0.8403356E-01
       -2   -1    0    0    0  501  0.00000000000E+00  0.00000000000E+00  0.23180256870E+04  0.23180256870E+04  0.25500000920E-02 0.  1.
        2   -1    0    0  501    0  0.00000000000E+00  0.00000000000E+00 -0.67350445972E+03  0.67350445972E+03  0.25500000920E-02 0. -1.
    10030    2    1    2    0    0  0.00000000000E+00  0.00000000000E+00  0.16445212273E+04  0.29915301467E+04  0.24989602942E+04 0.  0.
        3    1    3    3  502    0 -0.10018236608E+03 -0.11083437789E+04  0.15023393667E+04  0.18696218927E+04  0.10100000352E+00 0.  1.
       -3    1    3    3    0  502  0.10018236608E+03  0.11083437789E+04  0.14218186057E+03  0.11219082540E+04  0.10100000352E+00 0. -1.
</event>
<event>
 5   0  0.1782660E-06  0.3350918E+04  0.7818609E-02  0.8150059E-01
       -2   -1    0    0    0  501  0.00000000000E+00  0.00000000000E+00  0.17445745903E+04  0.17445745903E+04  0.25500000920E-02 0. -1.
        2   -1    0    0  501    0  0.00000000000E+00  0.00000000000E+00 -0.16090819282E+04  0.16090819282E+04  0.25500000920E-02 0.  1.
    10030    2    1    2    0    0  0.00000000000E+00  0.00000000000E+00  0.13549266209E+03  0.33536565186E+04  0.33509183492E+04 0.  0.
        4    1    3    3  502    0 -0.10823758727E+04 -0.12789068656E+04  0.72390383435E+02  0.16770158858E+04  0.12699999809E+01 0.  1.
       -4    1    3    3    0  502  0.10823758727E+04  0.12789068656E+04  0.63102278653E+02  0.16766406327E+04  0.12699999809E+01 0. -1.
</event>
<event>
 5   0  0.1782660E-06  0.3434140E+04  0.7818609E-02  0.8129578E-01
       -2   -1    0    0    0  501  0.00000000000E+00  0.00000000000E+00  0.13068777977E+04  0.13068777977E+04  0.25500000920E-02 0. -1.
        2   -1    0    0  501    0  0.00000000000E+00  0.00000000000E+00 -0.22560104077E+04  0.22560104077E+04  0.25500000920E-02 0.  1.
    10030    2    1    2    0    0  0.00000000000E+00  0.00000000000E+00 -0.94913260998E+03  0.35628882054E+04  0.34341403077E+04 0.  0.
        4    1    3    3  502    0  0.83037205023E+03 -0.14102180145E+04 -0.10137577635E+04  0.19250815583E+04  0.12699999809E+01 0.  1.
       -4    1    3    3    0  502 -0.83037205023E+03  0.14102180145E+04  0.64625153511E+02  0.16378066472E+04  0.12699999809E+01 0. -1.
</event>
<event>
 5   0  0.1089337E-06  0.1944583E+04  0.7818609E-02  0.8632977E-01
       -1   -1    0    0    0  501  0.00000000000E+00  0.00000000000E+00  0.10767263770E+04  0.10767263770E+04  0.50400001928E-02 0.  1.
        1   -1    0    0  501    0  0.00000000000E+00  0.00000000000E+00 -0.87798651701E+03  0.87798651702E+03  0.50400001928E-02 0. -1.
    10030    2    1    2    0    0  0.00000000000E+00  0.00000000000E+00  0.19873986003E+03  0.19547128941E+04  0.19445834943E+04 0.  0.
        2    1    3    3  502    0 -0.53505824890E+03  0.75386745083E+03 -0.20344297780E+03  0.94656880804E+03  0.25500000920E-02 0. -1.
       -2    1    3    3    0  502  0.53505824890E+03 -0.75386745083E+03  0.40218283783E+03  0.10081440860E+04  0.25500000920E-02 0.  1.
</event>
<event>
 5   0  0.3378848E-06  0.3547098E+04  0.7818609E-02  0.8102718E-01
        2   -1    0    0  501    0  0.00000000000E+00  0.00000000000E+00  0.25964948890E+04  0.25964948890E+04  0.25500000920E-02 0.  1.
       -2   -1    0    0    0  501  0.00000000000E+00  0.00000000000E+00 -0.12114318242E+04  0.12114318242E+04  0.25500000920E-02 0. -1.
    10030    2    1    2    0    0  0.00000000000E+00  0.00000000000E+00  0.13850630648E+04  0.38079267132E+04  0.35470982732E+04 0.  0.
        1    1    3    3  502    0 -0.14310342337E+04  0.77706359967E+03 -0.61841898946E+02  0.16295739433E+04  0.50400001928E-02 0. -1.
       -1    1    3    3    0  502  0.14310342337E+04 -0.77706359967E+03  0.14469049637E+04  0.21783527699E+04  0.50400001928E-02 0.  1.
</event>
<event>
 5   0  0.2565004E-06  0.2430481E+04  0.7818609E-02  0.8428179E-01
        2   -1    0    0  501    0  0.00000000000E+00  0.00000000000E+00  0.12306738928E+04  0.12306738928E+04  0.25500000920E-02 0. -1.
       -2   -1    0    0    0  501  0.00000000000E+00  0.00000000000E+00 -0.12000008581E+04  0.12000008581E+04  0.25500000920E-02 0.  1.
    10030    2    1    2    0    0  0.00000000000E+00  0.00000000000E+00  0.30673034648E+02  0.24306747509E+04  0.24304812095E+04 0.  0.
        3    1    3    3  502    0  0.51038424046E+03  0.71525589515E+03  0.85488335299E+03  0.12259317379E+04  0.10100000352E+00 0. -1.
       -3    1    3    3    0  502 -0.51038424046E+03 -0.71525589515E+03 -0.82421031834E+03  0.12047430131E+04  0.10100000352E+00 0.  1.
</event>
<event>
 5   0  0.1125196E-06  0.2211062E+04  0.7818609E-02  0.8513838E-01
       -1   -1    0    0    0  501  0.00000000000E+00  0.00000000000E+00  0.54940690567E+03  0.54940690569E+03  0.50400001928E-02 0. -1.
        1   -1    0    0  501    0  0.00000000000E+00  0.00000000000E+00 -0.22245786550E+04  0.22245786550E+04  0.50400001928E-02 0.  1.
    10030    2    1    2    0    0  0.00000000000E+00  0.00000000000E+00 -0.16751717493E+04  0.27739855607E+04  0.22110620754E+04 0.  0.
        4    1    3    3  502    0  0.83299428534E+03  0.62585936818E+03 -0.13013070829E+04  0.16670276438E+04  0.12699999809E+01 0.  1.
       -4    1    3    3    0  502 -0.83299428534E+03 -0.62585936818E+03 -0.37386466641E+03  0.11069579169E+04  0.12699999809E+01 0. -1.
</event>
<event>
 5   0  0.1130707E-06  0.1939824E+04  0.7818609E-02  0.8635284E-01
        1   -1    0    0  501    0  0.00000000000E+00  0.00000000000E+00  0.94446571695E+03  0.94446571696E+03  0.50400001928E-02 0.  1.
       -1   -1    0    0    0  501  0.00000000000E+00  0.00000000000E+00 -0.99604369985E+03  0.99604369986E+03  0.50400001928E-02 0. -1.
    10030    2    1    2    0    0  0.00000000000E+00  0.00000000000E+00 -0.51577982905E+02  0.19405094168E+04  0.19398238344E+04 0.  0.
        3    1    3    3  502    0 -0.36917257481E+02 -0.29574247992E+03  0.89752292363E+03  0.94571343808E+03  0.10100000352E+00 0.  1.
       -3    1    3    3    0  502  0.36917257481E+02  0.29574247992E+03 -0.94910090653E+03  0.99479597874E+03  0.10100000352E+00 0. -1.
</event>
<event>
 5   0  0.1908726E-06  0.2178937E+04  0.7818609E-02  0.8527247E-01
       -2   -1    0    0    0  501  0.00000000000E+00  0.00000000000E+00  0.11003153310E+04  0.11003153310E+04  0.25500000920E-02 0. -1.
        2   -1    0    0  501    0  0.00000000000E+00  0.00000000000E+00 -0.10787284356E+04  0.10787284356E+04  0.25500000920E-02 0.  1.
    10030    2    1    2    0    0  0.00000000000E+00  0.00000000000E+00  0.21586895417E+02  0.21790437665E+04  0.21789368376E+04 0.  0.
        5    1    3    3  502    0  0.25231469438E+03 -0.35041180268E+03  0.10110766103E+04  0.10994312795E+04  0.46999998093E+01 0. -1.
       -5    1    3    3    0  502 -0.25231469438E+03  0.35041180268E+03 -0.98948971485E+03  0.10796124871E+04  0.46999998093E+01 0.  1.
</event>
<event>
 5   0  0.1782660E-06  0.3413040E+04  0.7818609E-02  0.8134713E-01
        2   -1    0    0  501    0  0.00000000000E+00  0.00000000000E+00  0.21031672875E+04  0.21031672875E+04  0.25500000920E-02 0. -1.
       -2   -1    0    0    0  501  0.00000000000E+00  0.00000000000E+00 -0.13846788606E+04  0.13846788606E+04  0.25500000920E-02 0.  1.
    10030    2    1    2    0    0  0.00000000000E+00  0.00000000000E+00  0.71848842692E+03  0.34878461482E+04  0.34130404530E+04 0.  0.
        4    1    3    3  502    0  0.92786524168E+03  0.14035322676E+04  0.65075584023E+03  0.18039738106E+04  0.12699999809E+01 0. -1.
       -4    1    3    3    0  502 -0.92786524168E+03 -0.14035322676E+04  0.67732586698E+02  0.16838723375E+04  0.12699999809E+01 0.  1.
</event>
<event>
 5   0  0.1125196E-06  0.3251553E+04  0.7818609E-02  0.8175333E-01
        1   -1    0    0  501    0  0.00000000000E+00  0.00000000000E+00  0.20782328141E+04  0.20782328141E+04  0.50400001928E-02 0.  1.
       -1   -1    0    0    0  501  0.00000000000E+00  0.00000000000E+00 -0.12718257470E+04  0.12718257470E+04  0.50400001928E-02 0. -1.
    10030    2    1    2    0    0  0.00000000000E+00  0.00000000000E+00  0.80640706708E+03  0.33500585611E+04  0.32515534756E+04 0.  0.
        4    1    3    3  502    0  0.10599068091E+04  0.51883398997E+02 -0.86579764700E+03  0.13695625248E+04  0.12699999809E+01 0. -1.
       -4    1    3    3    0  502 -0.10599068091E+04 -0.51883398997E+02  0.16722047141E+04  0.19804960363E+04  0.12699999809E+01 0.  1.
</event>
<event>
 5   0  0.2565004E-06  0.3413467E+04  0.7818609E-02  0.8134609E-01
        2   -1    0    0  501    0  0.00000000000E+00  0.00000000000E+00  0.28028548794E+04  0.28028548794E+04  0.25500000920E-02 0.  1.
       -2   -1    0    0    0  501  0.00000000000E+00  0.00000000000E+00 -0.10392759564E+04  0.10392759564E+04  0.25500000920E-02 0. -1.
    10030    2    1    2    0    0  0.00000000000E+00  0.00000000000E+00  0.17635789230E+04  0.38421308359E+04  0.34134672610E+04 0.  0.
        3    1    3    3  502    0  0.13630184093E+04 -0.74847979705E+03  0.89954870234E+02  0.15576049177E+04  0.10100000352E+00 0. -1.
       -3    1    3    3    0  502 -0.13630184093E+04  0.74847979705E+03  0.16736240528E+04  0.22845259182E+04  0.10100000352E+00 0.  1.
</event>
<event>
 5   0  0.3041329E-06  0.3479827E+04  0.7818609E-02  0.8118587E-01
        2   -1    0    0  501    0  0.00000000000E+00  0.00000000000E+00  0.19925352164E+04  0.19925352164E+04  0.25500000920E-02 0.  1.
       -2   -1    0    0    0  501  0.00000000000E+00  0.00000000000E+00 -0.15193204287E+04  0.15193204287E+04  0.25500000920E-02 0. -1.
    10030    2    1    2    0    0  0.00000000000E+00  0.00000000000E+00  0.47321478766E+03  0.35118556451E+04  0.34798272711E+04 0.  0.
        2    1    3    3  502    0 -0.10780280894E+04  0.44225555252E+03 -0.10674017136E+04  0.15802154769E+04  0.25500000920E-02 0. -1.
       -2    1    3    3    0  502  0.10780280894E+04 -0.44225555252E+03  0.15406165012E+04  0.19316401682E+04  0.25500000920E-02 0.  1.
</event>
<event>
 5   0  0.2565004E-06  0.3515853E+04  0.7818609E-02  0.8110043E-01
        2   -1    0    0  501    0  0.00000000000E+00  0.00000000000E+00  0.23119703666E+04  0.23119703666E+04  0.25500000920E-02 0. -1.
       -2   -1    0    0    0  501  0.00000000000E+00  0.00000000000E+00 -0.13366545405E+04  0.13366545405E+04  0.25500000920E-02 0.  1.
    10030    2    1    2    0    0  0.00000000000E+00  0.00000000000E+00  0.97531582610E+03  0.36486249071E+04  0.35158530618E+04 0.  0.
        3    1    3    3  502    0  0.19270650387E+03 -0.47375464585E+03 -0.12577380828E+04  0.13577497400E+04  0.10100000352E+00 0.  1.
       -3    1    3    3    0  502 -0.19270650387E+03  0.47375464585E+03  0.22330539089E+04  0.22908751672E+04  0.10100000352E+00 0. -1.
</event>
<event>
 5   0  0.1110956E-06  0.3520674E+04  0.7818609E-02  0.8108908E-01
       -1   -1    0    0    0  501  0.00000000000E+00  0.00000000000E+00  0.21688846971E+04  0.21688846971E+04  0.50400001928E-02 0. -1.
        1   -1    0    0  501    0  0.00000000000E+00  0.00000000000E+00 -0.14287465328E+04  0.14287465328E+04  0.50400001928E-02 0.  1.
    10030    2    1    2    0    0  0.00000000000E+00  0.00000000000E+00  0.74013816430E+03  0.35976312299E+04  0.35206740781E+04 0.  0.
        1    1    3    3  502    0 -0.10032702651E+04  0.11788198761E+04 -0.48647704579E+03  0.16225989773E+04  0.50400001928E-02 0.  1.
       -1    1    3    3    0  502  0.10032702651E+04 -0.11788198761E+04  0.12266152101E+04  0.19750322526E+04  0.50400001928E-02 0. -1.
</event>
<event>
 5   0  0.1908726E-06  0.3579002E+04  0.7818609E-02  0.8095318E-01
       -2   -1    0    0    0  501  0.00000000000E+00  0.00000000000E+00  0.13011566920E+04  0.13011566920E+04  0.25500000920E-02 0. -1.
        2   -1    0    0  501    0  0.00000000000E+00  0.00000000000E+00 -0.24611290960E+04  0.24611290960E+04  0.25500000920E-02 0.  1.
    10030    2    1    2    0    0  0.00000000000E+00  0.00000000000E+00 -0.11599724040E+04  0.37622857881E+04  0.35790024271E+04 0.  0.
        5    1    3    3  502    0 -0.20492320510E+03  0.17513267067E+04 -0.25914512915E+03  0.17822225006E+04  0.46999998093E+01 0. -1.
       -5    1    3    3    0  502  0.20492320510E+03 -0.17513267067E+04 -0.90082727484E+03  0.19800632875E+04  0.46999998093E+01 0.  1.
</event>
<event>
 5   0  0.3378848E-06  0.2065189E+04  0.7818609E-02  0.8576735E-01
        2   -1    0    0  501    0  0.00000000000E+00  0.00000000000E+00  0.12768806395E+04  0.12768806395E+04  0.25500000920E-02 0.  1.
       -2   -1    0    0    0  501  0.00000000000E+00  0.00000000000E+00 -0.83504404286E+03  0.83504404287E+03  0.25500000920E-02 0. -1.
    10030    2    1    2    0    0  0.00000000000E+00  0.00000000000E+00  0.44183659664E+03  0.21119246824E+04  0.20651891647E+04 0.  0.
        1    1    3    3  502    0 -0.36645735579E+03 -0.43040970561E+03  0.11045962284E+04  0.12408369498E+04  0.50400001928E-02 0.  1.
       -1    1    3    3    0  502  0.36645735579E+03  0.43040970561E+03 -0.66275963174E+03  0.87108773254E+03  0.50400001928E-02 0. -1.
</event>
<event>
 5   0  0.1042825E-06  0.3418264E+04  0.7818609E-02  0.8133438E-01
       -3   -1    0    0    0  501  0.00000000000E+00  0.00000000000E+00  0.19868592569E+04  0.19868592595E+04  0.10100000352E+00 0.  1.
        3   -1    0    0  501    0  0.00000000000E+00  0.00000000000E+00 -0.14702261522E+04  0.14702261556E+04  0.10100000352E+00 0. -1.
    10030    2    1    2    0    0  0.00000000000E+00  0.00000000000E+00  0.51663310471E+03  0.34570854151E+04  0.34182641505E+04 0.  0.
        1    1    3    3  502    0 -0.13959682640E+04 -0.34986963193E+03  0.11907396142E+04  0.18678856984E+04  0.50400001928E-02 0.  1.
       -1    1    3    3    0  502  0.13959682640E+04  0.34986963193E+03 -0.67410650949E+03  0.15891997167E+04  0.50400001928E-02 0. -1.
</event>
<event>
 5   0  0.1042825E-06  0.3492142E+04  0.7818609E-02  0.8115655E-01
        3   -1    0    0  501    0  0.00000000000E+00  0.00000000000E+00  0.15139811276E+04  0.15139811310E+04  0.10100000352E+00 0. -1.
       -3   -1    0    0    0  501  0.00000000000E+00  0.00000000000E+00 -0.20137391657E+04  0.20137391682E+04  0.10100000352E+00 0.  1.
    10030    2    1    2    0    0  0.00000000000E+00  0.00000000000E+00 -0.49975803805E+03  0.35277202992E+04  0.34921415225E+04 0.  0.
        4    1    3    3  502    0 -0.24096853396E+03  0.12983354822E+04 -0.14038928060E+04  0.19273446714E+04  0.12699999809E+01 0.  1.
       -4    1    3    3    0  502  0.24096853396E+03 -0.12983354822E+04  0.90413476795E+03  0.16003756279E+04  0.12699999809E+01 0. -1.
</event>
<event>
 5   0  0.1908726E-06  0.2219647E+04  0.7818609E-02  0.8510295E-01
        2   -1    0    0  501    0  0.00000000000E+00  0.00000000000E+00  0.15213369215E+04  0.15213369215E+04  0.25500000920E-02 0.  1.
       -2   -1    0    0    0  501  0.00000000000E+00  0.00000000000E+00 -0.80962209841E+03  0.80962209842E+03  0.25500000920E-02 0. -1.
    10030    2    1    2    0    0  0.00000000000E+00  0.00000000000E+00  0.71171482307E+03  0.23309590199E+04  0.22196468104E+04 0.  0.
        5    1    3    3  502    0  0.60381164246E+03  0.38051162417E+03 -0.53665048531E+03  0.89296888472E+03  0.46999998093E+01 0. -1.
       -5    1    3    3    0  502 -0.60381164246E+03 -0.38051162417E+03  0.12483653084E+04  0.14379901352E+04  0.46999998093E+01 0.  1.
</event>
<event>
 5   0  0.1782660E-06  0.3494146E+04  0.7818609E-02  0.8115179E-01
       -2   -1    0    0    0  501  0.00000000000E+00  0.00000000000E+00  0.19245585556E+04  0.19245585556E+04  0.25500000920E-02 0. -1.
        2   -1    0    0  501    0  0.00000000000E+00  0.00000000000E+00 -0.15859551797E+04  0.15859551798E+04  0.25500000920E-02 0.  1.
    10030    2    1    2    0    0  0.00000000000E+00  0.00000000000E+00  0.33860337583E+03  0.35105137353E+04  0.34941457382E+04 0.  0.
        4    1    3    3  502    0  0.10556649205E+04  0.10557000071E+04  0.10809281292E+04  0.18431869582E+04  0.12699999809E+01 0. -1.
       -4    1    3    3    0  502 -0.10556649205E+04 -0.10557000071E+04 -0.74232475335E+03  0.16673267771E+04  0.12699999809E+01 0.  1.
</event>
<event>
 5   0  0.1102175E-06  0.3310878E+04  0.7818609E-02  0.8160133E-01
        1   -1    0    0  501    0  0.00000000000E+00  0.00000000000E+00  0.14097197842E+04  0.14097197842E+04  0.50400001928E-02 0.  1.
       -1   -1    0    0    0  501  0.00000000000E+00  0.00000000000E+00 -0.19439883113E+04  0.19439883113E+04  0.50400001928E-02 0. -1.
    10030    2    1    2    0    0  0.00000000000E+00  0.00000000000E+00 -0.53426852712E+03  0.33537080954E+04  0.33108783020E+04 0.  0.
        5    1    3    3  502    0 -0.16357147821E+04 -0.61018112660E+02 -0.16607843214E+02  0.16369434837E+04  0.46999998093E+01 0.  1.
       -5    1    3    3    0  502  0.16357147821E+04  0.61018112660E+02 -0.51766068391E+03  0.17167646117E+04  0.46999998093E+01 0. -1.
</event>
<event>
 5   0  0.1908726E-06  0.2025937E+04  0.7818609E-02  0.8594589E-01
       -2   -1    0    0    0  501  0.00000000000E+00  0.00000000000E+00  0.71549205774E+03  0.71549205775E+03  0.25500000920E-02 0.  1.
        2   -1    0    0  501    0  0.00000000000E+00  0.00000000000E+00 -0.14341258392E+04  0.14341258392E+04  0.25500000920E-02 0. -1.
    10030    2    1    2    0    0  0.00000000000E+00  0.00000000000E+00 -0.71863378148E+03  0.21496178970E+04  0.20259374598E+04 0.  0.
        5    1    3    3  502    0 -0.50447722681E+03 -0.80167038601E+03 -0.74027745128E+03  0.12021669913E+04  0.46999998093E+01 0. -1.
       -5    1    3    3    0  502  0.50447722681E+03  0.80167038601E+03  0.21643669797E+02  0.94745090565E+03  0.46999998093E+01 0.  1.
</event>
<event>
 5   0  0.1089337E-06  0.3401537E+04  0.7818609E-02  0.8137529E-01
       -1   -1    0    0    0  501  0.00000000000E+00  0.00000000000E+00  0.14789675914E+04  0.14789675914E+04  0.50400001928E-02 0. -1.
        1   -1    0    0  501    0  0.00000000000E+00  0.00000000000E+00 -0.19558323865E+04  0.19558323865E+04  0.50400001928E-02 0.  1.
    10030    2    1    2    0    0  0.00000000000E+00  0.00000000000E+00 -0.47686479516E+03  0.34347999779E+04  0.34015365433E+04 0.  0.
        2    1    3    3  502    0  0.13398210741E+04  0.55919287905E+03  0.65611749942E+03  0.15932066280E+04  0.25500000920E-02 0. -1.
       -2    1    3    3    0  502 -0.13398210741E+04 -0.55919287905E+03 -0.11329822946E+04  0.18415933499E+04  0.25500000920E-02 0.  1.
</event>
<event>
 5   0  0.1110956E-06  0.1733213E+04  0.7818609E-02  0.8742645E-01
       -1   -1    0    0    0  501  0.00000000000E+00  0.00000000000E+00  0.93301707528E+03  0.93301707530E+03  0.50400001928E-02 0.  1.
        1   -1    0    0  501    0  0.00000000000E+00  0.00000000000E+00 -0.80492308430E+03  0.80492308431E+03  0.50400001928E-02 0. -1.
    10030    2    1    2    0    0  0.00000000000E+00  0.00000000000E+00  0.12809399099E+03  0.17379401596E+04  0.17332131802E+04 0.  0.
        1    1    3    3  502    0  0.73010680017E+03  0.46538675395E+03  0.26983889785E+02  0.86623836255E+03  0.50400001928E-02 0. -1.
       -1    1    3    3    0  502 -0.73010680017E+03 -0.46538675395E+03  0.10111010120E+03  0.87170179706E+03  0.50400001928E-02 0.  1.
</event>
<event>
 5   0  0.1125196E-06  0.3470846E+04  0.7818609E-02  0.8120734E-01
       -1   -1    0    0    0  501  0.00000000000E+00  0.00000000000E+00  0.13537281865E+04  0.13537281866E+04  0.50400001928E-02 0.  1.
        1   -1    0    0  501    0  0.00000000000E+00  0.00000000000E+00 -0.22247398105E+04  0.22247398105E+04  0.50400001928E-02 0. -1.
    10030    2    1    2    0    0  0.00000000000E+00  0.00000000000E+00 -0.87101162391E+03  0.35784679970E+04  0.34708460001E+04 0.  0.
        4    1    3    3  502    0  0.12544341902E+04 -0.65368717597E+03 -0.14720551192E+04  0.20415337246E+04  0.12699999809E+01 0. -1.
       -4    1    3    3    0  502 -0.12544341902E+04  0.65368717597E+03  0.60104349530E+03  0.15369342724E+04  0.12699999809E+01 0.  1.
</event>
<event>
 5   0  0.3041329E-06  0.1754700E+04  0.7818609E-02  0.8730768E-01
        2   -1    0    0  501    0  0.00000000000E+00  0.00000000000E+00  0.27234364860E+04  0.27234364860E+04  0.25500000920E-02 0.  1.
       -2   -1    0    0    0  501  0.00000000000E+00  0.00000000000E+00 -0.28263662373E+03  0.28263662374E+03  0.25500000920E-02 0. -1.
    10030    2    1    2    0    0  0.00000000000E+00  0.00000000000E+00  0.24407998623E+04  0.30060731097E+04  0.17546998528E+04 0.  0.
        2    1    3    3  502    0  0.76724430491E+03  0.41566747125E+03  0.13764722523E+04  0.16297604521E+04  0.25500000920E-02 0.  1.
       -2    1    3    3    0  502 -0.76724430491E+03 -0.41566747125E+03  0.10643276100E+04  0.13763126576E+04  0.25500000920E-02 0. -1.
</event>
<event>
 5   0  0.1908726E-06  0.3655832E+04  0.7818609E-02  0.8077821E-01
       -2   -1    0    0    0  501  0.00000000000E+00  0.00000000000E+00  0.16982887497E+04  0.16982887497E+04  0.25500000920E-02 0. -1.
        2   -1    0    0  501    0  0.00000000000E+00  0.00000000000E+00 -0.19674379004E+04  0.19674379004E+04  0.25500000920E-02 0.  1.
    10030    2    1    2    0    0  0.00000000000E+00  0.00000000000E+00 -0.26914915069E+03  0.36657266501E+04  0.36558324097E+04 0.  0.
        5    1    3    3  502    0  0.16716431315E+04 -0.42795130805E+03 -0.73930089455E+03  0.18772642285E+04  0.46999998093E+01 0.  1.
       -5    1    3    3    0  502 -0.16716431315E+04  0.42795130805E+03  0.47015174386E+03  0.17884624216E+04  0.46999998093E+01 0. -1.
</event>
<event>
 5   0  0.2565004E-06  0.3500511E+04  0.7818609E-02  0.8113669E-01
        2   -1    0    0  501    0  0.00000000000E+00  0.00000000000E+00  0.25347908501E+04  0.25347908501E+04  0.25500000920E-02 0. -1.
       -2   -1    0    0    0  501  0.00000000000E+00  0.00000000000E+00 -0.12085389497E+04  0.12085389497E+04  0.25500000920E-02 0.  1.
    10030    2    1    2    0    0  0.00000000000E+00  0.00000000000E+00  0.13262519004E+04  0.37433297998E+04  0.35005105180E+04 0.  0.
        3    1    3    3  502    0 -0.28982694534E+03  0.46783449745E+03 -0.11136084961E+04  0.12421725596E+04  0.10100000352E+00 0.  1.
       -3    1    3    3    0  502  0.28982694534E+03 -0.46783449745E+03  0.24398603965E+04  0.25011572401E+04  0.10100000352E+00 0. -1.
</event>
<event>
 5   0  0.1130707E-06  0.3502864E+04  0.7818609E-02  0.8113112E-01
        1   -1    0    0  501    0  0.00000000000E+00  0.00000000000E+00  0.11339938453E+04  0.11339938454E+04  0.50400001928E-02 0.  1.
       -1   -1    0    0    0  501  0.00000000000E+00  0.00000000000E+00 -0.27050533098E+04  0.27050533098E+04  0.50400001928E-02 0. -1.
    10030    2    1    2    0    0  0.00000000000E+00  0.00000000000E+00 -0.15710594645E+04  0.38390471552E+04  0.35028638596E+04 0.  0.
        3    1    3    3  502    0  0.14239214292E+04  0.69325463429E+02 -0.19006019438E+04  0.23758463787E+04  0.10100000352E+00 0. -1.
       -3    1    3    3    0  502 -0.14239214292E+04 -0.69325463429E+02  0.32954247932E+03  0.14632007765E+04  0.10100000352E+00 0.  1.
</event>
<event>
 5   0  0.1782660E-06  0.3569983E+04  0.7818609E-02  0.8097402E-01
        2   -1    0    0  501    0  0.00000000000E+00  0.00000000000E+00  0.25379349532E+04  0.25379349532E+04  0.25500000920E-02 0.  1.
       -2   -1    0    0    0  501  0.00000000000E+00  0.00000000000E+00 -0.12554281287E+04  0.12554281287E+04  0.25500000920E-02 0. -1.
    10030    2    1    2    0    0  0.00000000000E+00  0.00000000000E+00  0.12825068245E+04  0.37933630819E+04  0.35699831535E+04 0.  0.
        4    1    3    3  502    0 -0.85389242061E+02 -0.30312234000E+03  0.25081827761E+04  0.25278759714E+04  0.12699999809E+01 0.  1.
       -4    1    3    3    0  502  0.85389242061E+02  0.30312234000E+03 -0.12256759516E+04  0.12654871105E+04  0.12699999809E+01 0. -1.
</event>
<event>
 5   0  0.1125196E-06  0.3399587E+04  0.7818609E-02  0.8138008E-01
       -1   -1    0    0    0  501  0.00000000000E+00  0.00000000000E+00  0.15989223330E+04  0.15989223330E+04  0.50400001928E-02 0.  1.
        1   -1    0    0  501    0  0.00000000000E+00  0.00000000000E+00 -0.18070283075E+04  0.18070283075E+04  0.50400001928E-02 0. -1.
    10030    2    1    2    0    0  0.00000000000E+00  0.00000000000E+00 -0.20810597449E+03  0.34059506405E+04  0.33995869851E+04 0.  0.
        4    1    3    3  502    0 -0.32903462163E+02  0.69285654113E+02  0.15971871889E+04  0.15990283515E+04  0.12699999809E+01 0.  1.
       -4    1    3    3    0  502  0.32903462163E+02 -0.69285654113E+02 -0.18052931634E+04  0.18069222890E+04  0.12699999809E+01 0. -1.
</event>
<event>
 5   0  0.1102175E-06  0.3474308E+04  0.7818609E-02  0.8119906E-01
        1   -1    0    0  501    0  0.00000000000E+00  0.00000000000E+00  0.11700172995E+04  0.11700172995E+04  0.50400001928E-02 0.  1.
       -1   -1    0    0    0  501  0.00000000000E+00  0.00000000000E+00 -0.25791965872E+04  0.25791965872E+04  0.50400001928E-02 0. -1.
    10030    2    1    2    0    0  0.00000000000E+00  0.00000000000E+00 -0.14091792878E+04  0.37492138867E+04  0.34743083489E+04 0.  0.
        5    1    3    3  502    0 -0.12836158735E+04 -0.11669354580E+04 -0.60642802029E+03  0.18377119219E+04  0.46999998093E+01 0. -1.
       -5    1    3    3    0  502  0.12836158735E+04  0.11669354580E+04 -0.80275126747E+03  0.19115019648E+04  0.46999998093E+01 0.  1.
</event>
<event>
 5   0  0.2565004E-06  0.3496193E+04  0.7818609E-02  0.8114693E-01
       -2   -1    0    0    0  501  0.00000000000E+00  0.00000000000E+00  0.15215644865E+04  0.15215644865E+04  0.25500000920E-02 0.  1.
        2   -1    0    0  501    0  0.00000000000E+00  0.00000000000E+00 -0.20083549093E+04  0.20083549093E+04  0.25500000920E-02 0. -1.
    10030    2    1    2    0    0  0.00000000000E+00  0.00000000000E+00 -0.48679042285E+03  0.35299193958E+04  0.34961930761E+04 0.  0.
        3    1    3    3  502    0  0.17257885173E+04 -0.13328154141E+03  0.33627453880E+01  0.17309307594E+04  0.10100000352E+00 0.  1.
       -3    1    3    3    0  502 -0.17257885173E+04  0.13328154141E+03 -0.49015316823E+03  0.17989886365E+04  0.10100000352E+00 0. -1.
</event>
<event>
 5   0  0.1130707E-06  0.1919948E+04  0.7818609E-02  0.8644990E-01
       -1   -1    0    0    0  501  0.00000000000E+00  0.00000000000E+00  0.48328149312E+03  0.48328149315E+03  0.50400001928E-02 0. -1.
        1   -1    0    0  501    0  0.00000000000E+00  0.00000000000E+00 -0.19068589791E+04  0.19068589791E+04  0.50400001928E-02 0.  1.
    10030    2    1    2    0    0  0.00000000000E+00  0.00000000000E+00 -0.14235774860E+04  0.23901404723E+04  0.19199475562E+04 0.  0.
        3    1    3    3  502    0  0.15414744623E+03  0.23981980461E+03 -0.18529438967E+04  0.18747469345E+04  0.10100000352E+00 0.  1.
       -3    1    3    3    0  502 -0.15414744623E+03 -0.23981980461E+03  0.42936641075E+03  0.51539353774E+03  0.10100000352E+00 0. -1.
</event>
<event>
 5   0  0.1782660E-06  0.1959590E+04  0.7818609E-02  0.8625750E-01
       -2   -1    0    0    0  501  0.00000000000E+00  0.00000000000E+00  0.42651336355E+03  0.42651336356E+03  0.25500000920E-02 0.  1.
        2   -1    0    0  501    0  0.00000000000E+00  0.00000000000E+00 -0.22508045268E+04  0.22508045268E+04  0.25500000920E-02 0. -1.
    10030    2    1    2    0    0  0.00000000000E+00  0.00000000000E+00 -0.18242911633E+04  0.26773178904E+04  0.19595899668E+04 0.  0.
        4    1    3    3  502    0  0.20174311892E+03 -0.73956210313E+03 -0.78450896067E+02  0.77058973936E+03  0.12699999809E+01 0.  1.
       -4    1    3    3    0  502 -0.20174311892E+03  0.73956210313E+03 -0.17458402672E+04  0.19067281510E+04  0.12699999809E+01 0. -1.
</event>
<event>
 5   0  0.3378848E-06  0.3598299E+04  0.7818609E-02  0.8090881E-01
       -2   -1    0    0    0  501  0.00000000000E+00  0.00000000000E+00  0.23520648686E+04  0.23520648686E+04  0.25500000920E-02 0.  1.
        2   -1    0    0  501    0  0.00000000000E+00  0.00000000000E+00 -0.13762117492E+04  0.13762117492E+04  0.25500000920E-02 0. -1.
    10030    2    1    2    0    0  0.00000000000E+00  0.00000000000E+00  0.97585311935E+03  0.37282766178E+04  0.35982992133E+04 0.  0.
        1    1    3    3  502    0  0.17403377290E+03  0.37792210021E+03  0.23015325144E+04  0.23388383405E+04  0.50400001928E-02 0.  1.
       -1    1    3    3    0  502 -0.17403377290E+03 -0.37792210021E+03 -0.13256793951E+04  0.13894382773E+04  0.50400001928E-02 0. -1.
</event>
<event>
 5   0  0.1089337E-06  0.1801847E+04  0.7818609E-02  0.8705318E-01
        1   -1    0    0  501    0  0.00000000000E+00  0.00000000000E+00  0.59901442304E+03  0.59901442306E+03  0.50400001928E-02 0.  1.
       -1   -1    0    0    0  501  0.00000000000E+00  0.00000000000E+00 -0.13549971688E+04  0.13549971688E+04  0.50400001928E-02 0. -1.
    10030    2    1    2    0    0  0.00000000000E+00  0.00000000000E+00 -0.75598274575E+03  0.19540115919E+04  0.18018466609E+04 0.  0.
        2    1    3    3  502    0 -0.14633498832E+03  0.17028969008E+03  0.56818708558E+03  0.61094113594E+03  0.25500000920E-02 0.  1.
       -2    1    3    3    0  502  0.14633498832E+03 -0.17028969008E+03 -0.13241698313E+04  0.13430704559E+04  0.25500000920E-02 0. -1.
</event>
<event>
 5   0  0.1908726E-06  0.3565869E+04  0.7818609E-02  0.8098355E-01
       -2   -1    0    0    0  501  0.00000000000E+00  0.00000000000E+00  0.18840824263E+04  0.18840824263E+04  0.25500000920E-02 0.  1.
        2   -1    0    0  501    0  0.00000000000E+00  0.00000000000E+00 -0.16872168614E+04  0.16872168614E+04  0.25500000920E-02 0. -1.
    10030    2    1    2    0    0  0.00000000000E+00  0.00000000000E+00  0.19686556489E+03  0.35712992877E+04  0.35658691158E+04 0.  0.
        5    1    3    3  502    0  0.40506807103E+03  0.17363042666E+04  0.97482969445E+02  0.17855972860E+04  0.46999998093E+01 0.  1.
       -5    1    3    3    0  502 -0.40506807103E+03 -0.17363042666E+04  0.99382595449E+02  0.17857020017E+04  0.46999998093E+01 0. -1.
</event>
<event>
 5   0  0.1782660E-06  0.3617877E+04  0.7818609E-02  0.8086409E-01
        2   -1    0    0  501    0  0.00000000000E+00  0.00000000000E+00  0.21014696143E+04  0.21014696143E+04  0.25500000920E-02 0.  1.
       -2   -1    0    0    0  501  0.00000000000E+00  0.00000000000E+00 -0.15571285571E+04  0.15571285571E+04  0.25500000920E-02 0. -1.
    10030    2    1    2    0    0  0.00000000000E+00  0.00000000000E+00  0.54434105714E+03  0.36585981714E+04  0.36178769179E+04 0.  0.
        4    1    3    3  502    0  0.16564175083E+04 -0.43085982214E+03  0.86433608066E+03  0.19174038754E+04  0.12699999809E+01 0.  1.
       -4    1    3    3    0  502 -0.16564175083E+04  0.43085982214E+03 -0.31999502353E+03  0.17411942960E+04  0.12699999809E+01 0. -1.
</event>
<event>
 5   0  0.3378848E-06  0.3415863E+04  0.7818609E-02  0.8134024E-01
        2   -1    0    0  501    0  0.00000000000E+00  0.00000000000E+00  0.17155521917E+04  0.17155521917E+04  0.25500000920E-02 0.  1.
       -2   -1    0    0    0  501  0.00000000000E+00  0.00000000000E+00 -0.17003445017E+04  0.17003445017E+04  0.25500000920E-02 0. -1.
    10030    2    1    2    0    0  0.00000000000E+00  0.00000000000E+00  0.15207690012E+02  0.34158966934E+04  0.34158628406E+04 0.  0.
        1    1    3    3  502    0 -0.80345652883E+03 -0.48934034306E+03 -0.14179043620E+04  0.17016019349E+04  0.50400001928E-02 0. -1.
       -1    1    3    3    0  502  0.80345652883E+03  0.48934034306E+03  0.14331120521E+04  0.17142947584E+04  0.50400001928E-02 0.  1.
</event>
<event>
 5   0  0.1110956E-06  0.1985726E+04  0.7818609E-02  0.8613324E-01
       -1   -1    0    0    0  501  0.00000000000E+00  0.00000000000E+00  0.37338173144E+03  0.37338173147E+03  0.50400001928E-02 0. -1.
        1   -1    0    0  501    0  0.00000000000E+00  0.00000000000E+00 -0.26401309880E+04  0.26401309880E+04  0.50400001928E-02 0.  1.
    10030    2    1    2    0    0  0.00000000000E+00  0.00000000000E+00 -0.22667492566E+04  0.30135127195E+04  0.19857257410E+04 0.  0.
        1    1    3    3  502    0 -0.16707697885E+03 -0.78797546511E+03 -0.20143033415E+04  0.21693865497E+04  0.50400001928E-02 0. -1.
       -1    1    3    3    0  502  0.16707697885E+03  0.78797546511E+03 -0.25244591512E+03  0.84412616981E+03  0.50400001928E-02 0.  1.
</event>
<event>
 5   0  0.2565004E-06  0.3152909E+04  0.7818609E-02  0.8201366E-01
       -2   -1    0    0    0  501  0.00000000000E+00  0.00000000000E+00  0.93595149353E+03  0.93595149353E+03  0.25500000920E-02 0. -1.
        2   -1    0    0  501    0  0.00000000000E+00  0.00000000000E+00 -0.26552758207E+04  0.26552758207E+04  0.25500000920E-02 0.  1.
    10030    2    1    2    0    0  0.00000000000E+00  0.00000000000E+00 -0.17193243272E+04  0.35912273142E+04  0.31529093676E+04 0.  0.
        3    1    3    3  502    0 -0.60675895421E+03 -0.14348175426E+04 -0.58451970715E+03  0.16638873481E+04  0.10100000352E+00 0.  1.
       -3    1    3    3    0  502  0.60675895421E+03  0.14348175426E+04 -0.11348046200E+04  0.19273399661E+04  0.10100000352E+00 0. -1.
</event>
<event>
 5   0  0.1908726E-06  0.3535606E+04  0.7818609E-02  0.8105403E-01
        2   -1    0    0  501    0  0.00000000000E+00  0.00000000000E+00  0.15919405921E+04  0.15919405921E+04  0.25500000920E-02 0. -1.
       -2   -1    0    0    0  501  0.00000000000E+00  0.00000000000E+00 -0.19630931303E+04  0.19630931303E+04  0.25500000920E-02 0.  1.
    10030    2    1    2    0    0  0.00000000000E+00  0.00000000000E+00 -0.37115253818E+03  0.35550337224E+04  0.35356061094E+04 0.  0.
        5    1    3    3  502    0 -0.26273231984E+03 -0.68066030881E+03  0.14334823928E+04  0.16084839409E+04  0.46999998093E+01 0. -1.
       -5    1    3    3    0  502  0.26273231984E+03  0.68066030881E+03 -0.18046349309E+04  0.19465497815E+04  0.46999998093E+01 0.  1.
</event>
<event>
 5   0  0.1042825E-06  0.2312052E+04  0.7818609E-02  0.8473184E-01
        3   -1    0    0  501    0  0.00000000000E+00  0.00000000000E+00  0.11157870925E+04  0.11157870970E+04  0.10100000352E+00 0.  1.
       -3   -1    0    0    0  501  0.00000000000E+00  0.00000000000E+00 -0.11977157157E+04  0.11977157199E+04  0.10100000352E+00 0. -1.
    10030    2    1    2    0    0  0.00000000000E+00  0.00000000000E+00 -0.81928623200E+02  0.23135028170E+04  0.23120516830E+04 0.  0.
        5    1    3    3  502    0 -0.52179429105E+03 -0.10314540324E+04 -0.26569422552E+02  0.11562416389E+04  0.46999998093E+01 0.  1.
       -5    1    3    3    0  502  0.52179429105E+03  0.10314540324E+04 -0.55359200648E+02  0.11572611781E+04  0.46999998093E+01 0. -1.
</event>
<event>
 5   0  0.1908726E-06  0.2724639E+04  0.7818609E-02  0.8327054E-01
       -2   -1    0    0    0  501  0.00000000000E+00  0.00000000000E+00  0.13731794278E+04  0.13731794278E+04  0.25500000920E-02 0.  1.
        2   -1    0    0  501    0  0.00000000000E+00  0.00000000000E+00 -0.13515455461E+04  0.13515455461E+04  0.25500000920E-02 0. -1.
    10030    2    1    2    0    0  0.00000000000E+00  0.00000000000E+00  0.21633881692E+02  0.27247249739E+04  0.27246390878E+04 0.  0.
        5    1    3    3  502    0  0.46432316349E+03  0.26834992249E+03  0.12631681860E+04  0.13723059561E+04  0.46999998093E+01 0.  1.
       -5    1    3    3    0  502 -0.46432316349E+03 -0.26834992249E+03 -0.12415343043E+04  0.13524190178E+04  0.46999998093E+01 0. -1.
</event>
<event>
 5   0  0.3378848E-06  0.2732430E+04  0.7818609E-02  0.8324559E-01
       -2   -1    0    0    0  501  0.00000000000E+00  0.00000000000E+00  0.99902049036E+03  0.99902049036E+03  0.25500000920E-02 0. -1.
        2   -1    0    0  501    0  0.00000000000E+00  0.00000000000E+00 -0.18683732570E+04  0.18683732570E+04  0.25500000920E-02 0.  1.
    10030    2    1    2    0    0  0.00000000000E+00  0.00000000000E+00 -0.86935276664E+03  0.28673937474E+04  0.27324298105E+04 0.  0.
        1    1    3    3  502    0  0.55556641898E+03 -0.80743166700E+03 -0.14335000167E+04  0.17365259113E+04  0.50400001928E-02 0.  1.
       -1    1    3    3    0  502 -0.55556641898E+03  0.80743166700E+03  0.56414725008E+03  0.11308678360E+04  0.50400001928E-02 0. -1.
</event>
<event>
 5   0  0.1110956E-06  0.1836116E+04  0.7818609E-02  0.8687326E-01
       -1   -1    0    0    0  501  0.00000000000E+00  0.00000000000E+00  0.68768789123E+03  0.68768789125E+03  0.50400001928E-02 0. -1.
        1   -1    0    0  501    0  0.00000000000E+00  0.00000000000E+00 -0.12255997243E+04  0.12255997243E+04  0.50400001928E-02 0.  1.
    10030    2    1    2    0    0  0.00000000000E+00  0.00000000000E+00 -0.53791183302E+03  0.19132876155E+04  0.18361155627E+04 0.  0.
        1    1    3    3  502    0 -0.81353659626E+03  0.37185284843E+03 -0.53596370273E+02  0.89609648213E+03  0.50400001928E-02 0. -1.
       -1    1    3    3    0  502  0.81353659626E+03 -0.37185284843E+03 -0.48431546275E+03  0.10171911334E+04  0.50400001928E-02 0.  1.
</event>
<event>
 5   0  0.1089337E-06  0.2846929E+04  0.7818609E-02  0.8288845E-01
       -1   -1    0    0    0  501  0.00000000000E+00  0.00000000000E+00  0.10147820644E+04  0.10147820644E+04  0.50400001928E-02 0.  1.
        1   -1    0    0  501    0  0.00000000000E+00  0.00000000000E+00 -0.19967349278E+04  0.19967349278E+04  0.50400001928E-02 0. -1.
    10030    2    1    2    0    0  0.00000000000E+00  0.00000000000E+00 -0.98195286337E+03  0.30115169922E+04  0.28469287255E+04 0.  0.
        2    1    3    3  502    0  0.58793666211E+03  0.85990790467E+03 -0.15171852993E+04  0.18403701681E+04  0.25500000920E-02 0. -1.
       -2    1    3    3    0  502 -0.58793666211E+03 -0.85990790467E+03  0.53523243591E+03  0.11711468241E+04  0.25500000920E-02 0.  1.
</event>
<event>
 5   0  0.1908726E-06  0.1990657E+04  0.7818609E-02  0.8611001E-01
        2   -1    0    0  501    0  0.00000000000E+00  0.00000000000E+00  0.12925234093E+04  0.12925234093E+04  0.25500000920E-02 0.  1.
       -2   -1    0    0    0  501  0.00000000000E+00  0.00000000000E+00 -0.76646888591E+03  0.76646888591E+03  0.25500000920E-02 0. -1.
    10030    2    1    2    0    0  0.00000000000E+00  0.00000000000E+00  0.52605452334E+03  0.20589922952E+04  0.19906571553E+04 0.  0.
        5    1    3    3  502    0 -0.93208807767E+03  0.30392284446E+03  0.44067773613E+03  0.10748842901E+04  0.46999998093E+01 0.  1.
       -5    1    3    3    0  502  0.93208807767E+03 -0.30392284446E+03  0.85376787210E+02  0.98410800510E+03  0.46999998093E+01 0. -1.
</event>
<event>
 5   0  0.3041329E-06  0.2011610E+04  0.7818609E-02  0.8601212E-01
        2   -1    0    0  501    0  0.00000000000E+00  0.00000000000E+00  0.91402210457E+03  0.91402210458E+03  0.25500000920E-02 0.  1.
       -2   -1    0    0    0  501  0.00000000000E+00  0.00000000000E+00 -0.11068048419E+04  0.11068048419E+04  0.25500000920E-02 0. -1.
    10030    2    1    2    0    0  0.00000000000E+00  0.00000000000E+00 -0.19278273729E+03  0.20208269464E+04  0.20116103906E+04 0.  0.
        2    1    3    3  502    0  0.43875910518E+03 -0.46968655897E+02 -0.10043734406E+04  0.10970330967E+04  0.25500000920E-02 0. -1.
       -2    1    3    3    0  502 -0.43875910518E+03  0.46968655897E+02  0.81159070335E+03  0.92379384973E+03  0.25500000920E-02 0.  1.
</event>
<event>
 5   0  0.3041329E-06  0.3478321E+04  0.7818609E-02  0.8118947E-01
       -2   -1    0    0    0  501  0.00000000000E+00  0.00000000000E+00  0.13067291862E+04  0.13067291862E+04  0.25500000920E-02 0. -1.
        2   -1    0    0  501    0  0.00000000000E+00  0.00000000000E+00 -0.23146949960E+04  0.23146949960E+04  0.25500000920E-02 0.  1.
    10030    2    1    2    0    0  0.00000000000E+00  0.00000000000E+00 -0.10079658098E+04  0.36214241821E+04  0.34783211515E+04 0.  0.
        2    1    3    3  502    0  0.13572461585E+04 -0.10841491605E+04 -0.59222215003E+03  0.18352720812E+04  0.25500000920E-02 0.  1.
       -2    1    3    3    0  502 -0.13572461585E+04  0.10841491605E+04 -0.41574365978E+03  0.17861521009E+04  0.25500000920E-02 0. -1.
</event>
<event>
 5   0  0.3041329E-06  0.3469005E+04  0.7818609E-02  0.8121175E-01
       -2   -1    0    0    0  501  0.00000000000E+00  0.00000000000E+00  0.14620688205E+04  0.14620688205E+04  0.25500000920E-02 0. -1.
        2   -1    0    0  501    0  0.00000000000E+00  0.00000000000E+00 -0.20576999742E+04  0.20576999742E+04  0.25500000920E-02 0.  1.
    10030    2    1    2    0    0  0.00000000000E+00  0.00000000000E+00 -0.59563115371E+03  0.35197687947E+04  0.34690050298E+04 0.  0.
        2    1    3    3  502    0  0.14459349253E+04  0.50827813715E+03  0.52611713743E+03  0.16204547865E+04  0.25500000920E-02 0. -1.
       -2    1    3    3    0  502 -0.14459349253E+04 -0.50827813715E+03 -0.11217482911E+04  0.18993140082E+04  0.25500000920E-02 0.  1.
</event>
<event>
 5   0  0.1908726E-06  0.3461583E+04  0.7818609E-02  0.8122955E-01
       -2   -1    0    0    0  501  0.00000000000E+00  0.00000000000E+00  0.23379474670E+04  0.23379474670E+04  0.25500000920E-02 0. -1.
        2   -1    0    0  501    0  0.00000000000E+00  0.00000000000E+00 -0.12813117358E+04  0.12813117358E+04  0.25500000920E-02 0.  1.
    10030    2    1    2    0    0  0.00000000000E+00  0.00000000000E+00  0.10566357311E+04  0.36192592028E+04  0.34615831795E+04 0.  0.
        5    1    3    3  502    0 -0.51605785711E+03  0.74513058718E+03  0.20699575774E+04  0.22597083365E+04  0.46999998093E+01 0. -1.
       -5    1    3    3    0  502  0.51605785711E+03 -0.74513058718E+03 -0.10133218463E+04  0.13595508663E+04  0.46999998093E+01 0.  1.
</event>
<event>
 5   0  0.1908726E-06  0.3148498E+04  0.7818609E-02  0.8202553E-01
       -2   -1    0    0    0  501  0.00000000000E+00  0.00000000000E+00  0.11228715067E+04  0.11228715067E+04  0.25500000920E-02 0. -1.
        2   -1    0    0  501    0  0.00000000000E+00  0.00000000000E+00 -0.22070733066E+04  0.22070733066E+04  0.25500000920E-02 0.  1.
    10030    2    1    2    0    0  0.00000000000E+00  0.00000000000E+00 -0.10842017999E+04  0.33299448133E+04  0.31484978826E+04 0.  0.
        5    1    3    3  502    0 -0.35963345496E+02  0.34674617332E+03 -0.21657300088E+04  0.21936122794E+04  0.46999998093E+01 0.  1.
       -5    1    3    3    0  502  0.35963345496E+02 -0.34674617332E+03  0.10815282090E+04  0.11363325340E+04  0.46999998093E+01 0. -1.
</event>
<event>
 5   0  0.1110956E-06  0.2416992E+04  0.7818609E-02  0.8433169E-01
        1   -1    0    0  501    0  0.00000000000E+00  0.00000000000E+00  0.94117557285E+03  0.94117557286E+03  0.50400001928E-02 0. -1.
       -1   -1    0    0    0  501  0.00000000000E+00  0.00000000000E+00 -0.15517428878E+04  0.15517428878E+04  0.50400001928E-02 0.  1.
    10030    2    1    2    0    0  0.00000000000E+00  0.00000000000E+00 -0.61056731497E+03  0.24929184607E+04  0.24169919333E+04 0.  0.
        1    1    3    3  502    0  0.47322146398E+03 -0.64028045802E+03 -0.12429997035E+04  0.14761252934E+04  0.50400001928E-02 0.  1.
       -1    1    3    3    0  502 -0.47322146398E+03  0.64028045802E+03  0.63243238855E+03  0.10167931673E+04  0.50400001928E-02 0. -1.
</event>
<event>
 5   0  0.1102175E-06  0.3492529E+04  0.7818609E-02  0.8115563E-01
        1   -1    0    0  501    0  0.00000000000E+00  0.00000000000E+00  0.14204136355E+04  0.14204136356E+04  0.50400001928E-02 0. -1.
       -1   -1    0    0    0  501  0.00000000000E+00  0.00000000000E+00 -0.21468673446E+04  0.21468673446E+04  0.50400001928E-02 0.  1.
    10030    2    1    2    0    0  0.00000000000E+00  0.00000000000E+00 -0.72645370903E+03  0.35672809801E+04  0.34925289691E+04 0.  0.
        5    1    3    3  502    0 -0.51587664312E+03  0.12978552105E+04  0.70747516601E+03  0.15655989457E+04  0.46999998093E+01 0. -1.
       -5    1    3    3    0  502  0.51587664312E+03 -0.12978552105E+04 -0.14339288750E+04  0.20016820344E+04  0.46999998093E+01 0.  1.
</event>
<event>
 5   0  0.2565004E-06  0.3430242E+04  0.7818609E-02  0.8130524E-01
       -2   -1    0    0    0  501  0.00000000000E+00  0.00000000000E+00  0.17279026512E+04  0.17279026512E+04  0.25500000920E-02 0.  1.
        2   -1    0    0  501    0  0.00000000000E+00  0.00000000000E+00 -0.17024342269E+04  0.17024342269E+04  0.25500000920E-02 0. -1.
    10030    2    1    2    0    0  0.00000000000E+00  0.00000000000E+00  0.25468424360E+02  0.34303368781E+04  0.34302423321E+04 0.  0.
        3    1    3    3  502    0  0.12194664153E+04 -0.28477202418E+03 -0.11592397093E+04  0.17064671569E+04  0.10100000352E+00 0. -1.
       -3    1    3    3    0  502 -0.12194664153E+04  0.28477202418E+03  0.11847081336E+04  0.17238697212E+04  0.10100000352E+00 0.  1.
</event>
<event>
 5   0  0.1908726E-06  0.3556994E+04  0.7818609E-02  0.8100414E-01
        2   -1    0    0  501    0  0.00000000000E+00  0.00000000000E+00  0.11217078240E+04  0.11217078240E+04  0.25500000920E-02 0.  1.
       -2   -1    0    0    0  501  0.00000000000E+00  0.00000000000E+00 -0.28198541539E+04  0.28198541539E+04  0.25500000920E-02 0. -1.
    10030    2    1    2    0    0  0.00000000000E+00  0.00000000000E+00 -0.16981463299E+04  0.39415619780E+04  0.35569944993E+04 0.  0.
        5    1    3    3  502    0 -0.35014700009E+03 -0.17170438718E+04 -0.11855242137E+04  0.21157344660E+04  0.46999998093E+01 0. -1.
       -5    1    3    3    0  502  0.35014700009E+03  0.17170438718E+04 -0.51262211623E+03  0.18258275120E+04  0.46999998093E+01 0.  1.
</event>
<event>
 5   0  0.1102175E-06  0.1782645E+04  0.7818609E-02  0.8715583E-01
       -1   -1    0    0    0  501  0.00000000000E+00  0.00000000000E+00  0.11396456687E+04  0.11396456687E+04  0.50400001928E-02 0.  1.
        1   -1    0    0  501    0  0.00000000000E+00  0.00000000000E+00 -0.69710791812E+03  0.69710791814E+03  0.50400001928E-02 0. -1.
    10030    2    1    2    0    0  0.00000000000E+00  0.00000000000E+00  0.44253775057E+03  0.18367535868E+04  0.17826452474E+04 0.  0.
        5    1    3    3  502    0 -0.55650062107E+02  0.56726736090E+03  0.92730099907E+03  0.10884844606E+04  0.46999998093E+01 0.  1.
       -5    1    3    3    0  502  0.55650062107E+02 -0.56726736090E+03 -0.48476324850E+03  0.74826912622E+03  0.46999998093E+01 0. -1.
</event>
<event>
 5   0  0.2648627E-06  0.1887251E+04  0.7818609E-02  0.8661229E-01
       -2   -1    0    0    0  501  0.00000000000E+00  0.00000000000E+00  0.64196418802E+03  0.64196418803E+03  0.25500000920E-02 0.  1.
        2   -1    0    0  501    0  0.00000000000E+00  0.00000000000E+00 -0.13870382690E+04  0.13870382690E+04  0.25500000920E-02 0. -1.
    10030    2    1    2    0    0  0.00000000000E+00  0.00000000000E+00 -0.74507408097E+03  0.20290024570E+04  0.18872508006E+04 0.  0.
        3    1    3    3  502    0  0.79261800683E+03 -0.48164966770E+03 -0.55936872144E+03  0.10831080666E+04  0.10100000352E+00 0. -1.
       -3    1    3    3    0  502 -0.79261800683E+03  0.48164966770E+03 -0.18570535954E+03  0.94589439046E+03  0.10100000352E+00 0.  1.
</event>
<event>
 5   0  0.1089337E-06  0.3556190E+04  0.7818609E-02  0.8100601E-01
       -1   -1    0    0    0  501  0.00000000000E+00  0.00000000000E+00  0.17110191567E+04  0.17110191567E+04  0.50400001928E-02 0. -1.
        1   -1    0    0  501    0  0.00000000000E+00  0.00000000000E+00 -0.18478004120E+04  0.18478004120E+04  0.50400001928E-02 0.  1.
    10030    2    1    2    0    0  0.00000000000E+00  0.00000000000E+00 -0.13678125534E+03  0.35588195687E+04  0.35561900414E+04 0.  0.
        2    1    3    3  502    0 -0.81747784209E+03 -0.67898921752E+03 -0.14950412958E+04  0.18342423111E+04  0.25500000920E-02 0.  1.
       -2    1    3    3    0  502  0.81747784209E+03  0.67898921752E+03  0.13582600404E+04  0.17245772576E+04  0.25500000920E-02 0. -1.
</event>
<event>
 5   0  0.1130707E-06  0.1868049E+04  0.7818609E-02  0.8670926E-01
       -1   -1    0    0    0  501  0.00000000000E+00  0.00000000000E+00  0.10785474050E+04  0.10785474050E+04  0.50400001928E-02 0.  1.
        1   -1    0    0  501    0  0.00000000000E+00  0.00000000000E+00 -0.80886712340E+03  0.80886712342E+03  0.50400001928E-02 0. -1.
    10030    2    1    2    0    0  0.00000000000E+00  0.00000000000E+00  0.26968028155E+03  0.18874145284E+04  0.18680487541E+04 0.  0.
        3    1    3    3  502    0  0.75435781518E+03 -0.49329026031E+03  0.38235018469E+03  0.97907235084E+03  0.10100000352E+00 0.  1.
       -3    1    3    3    0  502 -0.75435781518E+03  0.49329026031E+03 -0.11266990314E+03  0.90834217755E+03  0.10100000352E+00 0. -1.
</event>
<event>
 5   0  0.1125196E-06  0.3423315E+04  0.7818609E-02  0.8132208E-01
       -1   -1    0    0    0  501  0.00000000000E+00  0.00000000000E+00  0.25149491458E+04  0.25149491458E+04  0.50400001928E-02 0.  1.
        1   -1    0    0  501    0  0.00000000000E+00  0.00000000000E+00 -0.11649423369E+04  0.11649423369E+04  0.50400001928E-02 0. -1.
    10030    2    1    2    0    0  0.00000000000E+00  0.00000000000E+00  0.13500068089E+04  0.36798914827E+04  0.34233146131E+04 0.  0.
        4    1    3    3  502    0 -0.13844815006E+04 -0.90105403940E+03  0.19297293844E+03  0.16631078063E+04  0.12699999809E+01 0.  1.
       -4    1    3    3    0  502  0.13844815006E+04  0.90105403940E+03  0.11570338704E+04  0.20167836765E+04  0.12699999809E+01 0. -1.
</event>
<event>
 5   0  0.1125196E-06  0.1846319E+04  0.7818609E-02  0.8682048E-01
        1   -1    0    0  501    0  0.00000000000E+00  0.00000000000E+00  0.87800306611E+03  0.87800306612E+03  0.50400001928E-02 0.  1.
       -1   -1    0    0    0  501  0.00000000000E+00  0.00000000000E+00 -0.97063790673E+03  0.97063790675E+03  0.50400001928E-02 0. -1.
    10030    2    1    2    0    0  0.00000000000E+00  0.00000000000E+00 -0.92634840627E+02  0.18486409729E+04  0.18463185621E+04 0.  0.
        4    1    3    3  502    0 -0.54842305569E+03  0.39113383899E+03 -0.67835458826E+03  0.95599167796E+03  0.12699999809E+01 0. -1.
       -4    1    3    3    0  502  0.54842305569E+03 -0.39113383899E+03  0.58571974763E+03  0.89264929490E+03  0.12699999809E+01 0.  1.
</event>
<event>
 5   0  0.1782660E-06  0.3305303E+04  0.7818609E-02  0.8161547E-01
       -2   -1    0    0    0  501  0.00000000000E+00  0.00000000000E+00  0.16434252649E+04  0.16434252649E+04  0.25500000920E-02 0. -1.
        2   -1    0    0  501    0  0.00000000000E+00  0.00000000000E+00 -0.16619300042E+04  0.16619300042E+04  0.25500000920E-02 0.  1.
    10030    2    1    2    0    0  0.00000000000E+00  0.00000000000E+00 -0.18504739280E+02  0.33053552690E+04  0.33053034701E+04 0.  0.
        4    1    3    3  502    0 -0.61476702427E+03 -0.99103402487E+03  0.11617353283E+04  0.16461219634E+04  0.12699999809E+01 0. -1.
       -4    1    3    3    0  502  0.61476702427E+03  0.99103402487E+03 -0.11802400676E+04  0.16592333056E+04  0.12699999809E+01 0.  1.
</event>
<event>
 5   0  0.3041329E-06  0.3388275E+04  0.7818609E-02  0.8140790E-01
        2   -1    0    0  501    0  0.00000000000E+00  0.00000000000E+00  0.17872575243E+04  0.17872575243E+04  0.25500000920E-02 0.  1.
       -2   -1    0    0    0  501  0.00000000000E+00  0.00000000000E+00 -0.16058694438E+04  0.16058694438E+04  0.25500000920E-02 0. -1.
    10030    2    1    2    0    0  0.00000000000E+00  0.00000000000E+00  0.18138808045E+03  0.33931269681E+04  0.33882752229E+04 0.  0.
        2    1    3    3  502    0  0.67905618577E+03  0.10605811117E+04  0.12255212931E+04  0.17572285104E+04  0.25500000920E-02 0.  1.
       -2    1    3    3    0  502 -0.67905618577E+03 -0.10605811117E+04 -0.10441332127E+04  0.16358984577E+04  0.25500000920E-02 0. -1.
</event>
<event>
 5   0  0.1125196E-06  0.3480393E+04  0.7818609E-02  0.8118452E-01
        1   -1    0    0  501    0  0.00000000000E+00  0.00000000000E+00  0.17762393003E+04  0.17762393003E+04  0.50400001928E-02 0.  1.
       -1   -1    0    0    0  501  0.00000000000E+00  0.00000000000E+00 -0.17048847875E+04  0.17048847875E+04  0.50400001928E-02 0. -1.
    10030    2    1    2    0    0  0.00000000000E+00  0.00000000000E+00  0.71354512733E+02  0.34811240878E+04  0.34803927146E+04 0.  0.
        4    1    3    3  502    0  0.65310437849E+03  0.66400723983E+03  0.15059626229E+04  0.17706992907E+04  0.12699999809E+01 0.  1.
       -4    1    3    3    0  502 -0.65310437849E+03 -0.66400723983E+03 -0.14346081102E+04  0.17104247971E+04  0.12699999809E+01 0. -1.
</event>
<event>
 5   0  0.3378848E-06  0.3509009E+04  0.7818609E-02  0.8111658E-01
       -2   -1    0    0    0  501  0.00000000000E+00  0.00000000000E+00  0.12964444486E+04  0.12964444486E+04  0.25500000920E-02 0. -1.
        2   -1    0    0  501    0  0.00000000000E+00  0.00000000000E+00 -0.23744059860E+04  0.23744059860E+04  0.25500000920E-02 0.  1.
    10030    2    1    2    0    0  0.00000000000E+00  0.00000000000E+00 -0.10779615374E+04  0.36708504346E+04  0.35090086687E+04 0.  0.
        1    1    3    3  502    0 -0.95912477320E+03  0.12537132407E+04 -0.13401818385E+04  0.20707014707E+04  0.50400001928E-02 0.  1.
       -1    1    3    3    0  502  0.95912477320E+03 -0.12537132407E+04  0.26222030112E+03  0.16001489639E+04  0.50400001928E-02 0. -1.
</event>
<event>
 5   0  0.1089337E-06  0.3487893E+04  0.7818609E-02  0.8116665E-01
       -1   -1    0    0    0  501  0.00000000000E+00  0.00000000000E+00  0.19318367115E+04  0.19318367115E+04  0.50400001928E-02 0.  1.
        1   -1    0    0  501    0  0.00000000000E+00  0.00000000000E+00 -0.15743306828E+04  0.15743306828E+04  0.50400001928E-02 0. -1.
    10030    2    1    2    0    0  0.00000000000E+00  0.00000000000E+00  0.35750602870E+03  0.35061673943E+04  0.34878932375E+04 0.  0.
        2    1    3    3  502    0  0.13862859647E+04  0.35138622028E+03  0.11820245316E+04  0.18553821831E+04  0.25500000920E-02 0.  1.
       -2    1    3    3    0  502 -0.13862859647E+04 -0.35138622028E+03 -0.82451850293E+03  0.16507852112E+04  0.25500000920E-02 0. -1.
</event>
<event>
 5   0  0.1042825E-06  0.1765017E+04  0.7818609E-02  0.8725127E-01
        4   -1    0    0  501    0  0.00000000000E+00  0.00000000000E+00  0.83812432854E+03  0.83812529075E+03  0.12699999809E+01 0.  1.
       -4   -1    0    0    0  501  0.00000000000E+00  0.00000000000E+00 -0.92924136415E+03  0.92924223201E+03  0.12699999809E+01 0. -1.
    10030    2    1    2    0    0  0.00000000000E+00  0.00000000000E+00 -0.91117035609E+02  0.17673675228E+04  0.17650171802E+04 0.  0.
        1    1    3    3  502    0  0.54743172656E+03 -0.10888900258E+02 -0.73859383584E+03  0.91941335522E+03  0.50400001928E-02 0.  1.
       -1    1    3    3    0  502 -0.54743172656E+03  0.10888900258E+02  0.64747680023E+03  0.84795416754E+03  0.50400001928E-02 0. -1.
</event>
<event>
 5   0  0.1110956E-06  0.2237688E+04  0.7818609E-02  0.8502903E-01
        1   -1    0    0  501    0  0.00000000000E+00  0.00000000000E+00  0.20026076122E+04  0.20026076122E+04  0.50400001928E-02 0.  1.
       -1   -1    0    0    0  501  0.00000000000E+00  0.00000000000E+00 -0.62509107396E+03  0.62509107398E+03  0.50400001928E-02 0. -1.
    10030    2    1    2    0    0  0.00000000000E+00  0.00000000000E+00  0.13775165382E+04  0.26276986861E+04  0.22376882205E+04 0.  0.
        1    1    3    3  502    0 -0.59819298860E+03  0.92649630544E+03  0.91026681125E+03  0.14299706022E+04  0.50400001928E-02 0.  1.
       -1    1    3    3    0  502  0.59819298860E+03 -0.92649630544E+03  0.46724972695E+03  0.11977280839E+04  0.50400001928E-02 0. -1.
</event>
<event>
 5   0  0.2565004E-06  0.3511779E+04  0.7818609E-02  0.8111004E-01
       -2   -1    0    0    0  501  0.00000000000E+00  0.00000000000E+00  0.17801247425E+04  0.17801247425E+04  0.25500000920E-02 0. -1.
        2   -1    0    0  501    0  0.00000000000E+00  0.00000000000E+00 -0.17319839328E+04  0.17319839328E+04  0.25500000920E-02 0.  1.
    10030    2    1    2    0    0  0.00000000000E+00  0.00000000000E+00  0.48140809780E+02  0.35121086753E+04  0.35117787245E+04 0.  0.
        3    1    3    3  502    0 -0.12630520465E+04 -0.77676325246E+03  0.96462982998E+03  0.17689466757E+04  0.10100000352E+00 0. -1.
       -3    1    3    3    0  502  0.12630520465E+04  0.77676325246E+03 -0.91648902020E+03  0.17431619996E+04  0.10100000352E+00 0.  1.
</event>
<event>
 5   0  0.1089337E-06  0.3301192E+04  0.7818609E-02  0.8162592E-01
        1   -1    0    0  501    0  0.00000000000E+00  0.00000000000E+00  0.13028327314E+04  0.13028327314E+04  0.50400001928E-02 0.  1.
       -1   -1    0    0    0  501  0.00000000000E+00  0.00000000000E+00 -0.20911870899E+04  0.20911870899E+04  0.50400001928E-02 0. -1.
    10030    2    1    2    0    0  0.00000000000E+00  0.00000000000E+00 -0.78835435846E+03  0.33940198213E+04  0.33011918988E+04 0.  0.
        2    1    3    3  502    0  0.19650233303E+03 -0.13233515021E+03  0.12852620249E+04  0.13069140108E+04  0.25500000920E-02 0.  1.
       -2    1    3    3    0  502 -0.19650233303E+03  0.13233515021E+03 -0.20736163834E+04  0.20871058105E+04  0.25500000920E-02 0. -1.
</event>
<event>
 5   0  0.1782660E-06  0.3504086E+04  0.7818609E-02  0.8112822E-01
        2   -1    0    0  501    0  0.00000000000E+00  0.00000000000E+00  0.12099269492E+04  0.12099269492E+04  0.25500000920E-02 0.  1.
       -2   -1    0    0    0  501  0.00000000000E+00  0.00000000000E+00 -0.25370582266E+04  0.25370582266E+04  0.25500000920E-02 0. -1.
    10030    2    1    2    0    0  0.00000000000E+00  0.00000000000E+00 -0.13271312774E+04  0.37469851758E+04  0.35040862547E+04 0.  0.
        4    1    3    3  502    0  0.51674832404E+03  0.32416504462E+03 -0.24198355882E+04  0.24955395596E+04  0.12699999809E+01 0. -1.
       -4    1    3    3    0  502 -0.51674832404E+03 -0.32416504462E+03  0.10927043108E+04  0.12514456162E+04  0.12699999809E+01 0.  1.
</event>
<event>
 5   0  0.1089337E-06  0.3348462E+04  0.7818609E-02  0.8150673E-01
        1   -1    0    0  501    0  0.00000000000E+00  0.00000000000E+00  0.11616413527E+04  0.11616413527E+04  0.50400001928E-02 0.  1.
       -1   -1    0    0    0  501  0.00000000000E+00  0.00000000000E+00 -0.24130069074E+04  0.24130069074E+04  0.50400001928E-02 0. -1.
    10030    2    1    2    0    0  0.00000000000E+00  0.00000000000E+00 -0.12513655548E+04  0.35746482601E+04  0.33484615022E+04 0.  0.
        2    1    3    3  502    0 -0.43324059390E+03  0.82142012308E+03  0.86147920771E+03  0.12667181439E+04  0.25500000920E-02 0.  1.
       -2    1    3    3    0  502  0.43324059390E+03 -0.82142012308E+03 -0.21128447625E+04  0.23079301162E+04  0.25500000920E-02 0. -1.
</event>
<event>
 5   0  0.1110956E-06  0.3333025E+04  0.7818609E-02  0.8154543E-01
       -1   -1    0    0    0  501  0.00000000000E+00  0.00000000000E+00  0.14023147446E+04  0.14023147447E+04  0.50400001928E-02 0. -1.
        1   -1    0    0  501    0  0.00000000000E+00  0.00000000000E+00 -0.19804859288E+04  0.19804859289E+04  0.50400001928E-02 0.  1.
    10030    2    1    2    0    0  0.00000000000E+00  0.00000000000E+00 -0.57817118420E+03  0.33828006735E+04  0.33330254242E+04 0.  0.
        1    1    3    3  502    0  0.14889506997E+04  0.30444725493E+03  0.40494098618E+03  0.15727808237E+04  0.50400001928E-02 0. -1.
       -1    1    3    3    0  502 -0.14889506997E+04 -0.30444725493E+03 -0.98311217038E+03  0.18100198498E+04  0.50400001928E-02 0.  1.
</event>
<event>
 5   0  0.1102175E-06  0.1961554E+04  0.7818609E-02  0.8624809E-01
       -1   -1    0    0    0  501  0.00000000000E+00  0.00000000000E+00  0.94830714353E+03  0.94830714355E+03  0.50400001928E-02 0. -1.
        1   -1    0    0  501    0  0.00000000000E+00  0.00000000000E+00 -0.10143583344E+04  0.10143583344E+04  0.50400001928E-02 0.  1.
    10030    2    1    2    0    0  0.00000000000E+00  0.00000000000E+00 -0.66051190836E+02  0.19626654779E+04  0.19615537256E+04 0.  0.
        5    1    3    3  502    0  0.35688686124E+02  0.81573203814E+03 -0.57666467673E+03  0.99962827079E+03  0.46999998093E+01 0.  1.
       -5    1    3    3    0  502 -0.35688686124E+02 -0.81573203814E+03  0.51061348589E+03  0.96303720714E+03  0.46999998093E+01 0. -1.
</event>
<event>
 5   0  0.1130707E-06  0.1902399E+04  0.7818609E-02  0.8653663E-01
       -1   -1    0    0    0  501  0.00000000000E+00  0.00000000000E+00  0.76457112607E+03  0.76457112608E+03  0.50400001928E-02 0.  1.
        1   -1    0    0  501    0  0.00000000000E+00  0.00000000000E+00 -0.11833832959E+04  0.11833832959E+04  0.50400001928E-02 0. -1.
    10030    2    1    2    0    0  0.00000000000E+00  0.00000000000E+00 -0.41881216984E+03  0.19479544220E+04  0.19023992211E+04 0.  0.
        3    1    3    3  502    0 -0.73628074843E+03  0.68131989575E+02  0.40327781077E+03  0.84224955409E+03  0.10100000352E+00 0.  1.
       -3    1    3    3    0  502  0.73628074843E+03 -0.68131989575E+02 -0.82208998060E+03  0.11057048679E+04  0.10100000352E+00 0. -1.
</event>
<event>
 5   0  0.1102175E-06  0.3467376E+04  0.7818609E-02  0.8121565E-01
        1   -1    0    0  501    0  0.00000000000E+00  0.00000000000E+00  0.26390380464E+04  0.26390380464E+04  0.50400001928E-02 0.  1.
       -1   -1    0    0    0  501  0.00000000000E+00  0.00000000000E+00 -0.11389276453E+04  0.11389276453E+04  0.50400001928E-02 0. -1.
    10030    2    1    2    0    0  0.00000000000E+00  0.00000000000E+00  0.15001104011E+04  0.37779656917E+04  0.34673756001E+04 0.  0.
        5    1    3    3  502    0 -0.27669319495E+03  0.16546849780E+04  0.12263749590E+04  0.20781143209E+04  0.46999998093E+01 0. -1.
       -5    1    3    3    0  502  0.27669319495E+03 -0.16546849780E+04  0.27373544209E+03  0.16998513708E+04  0.46999998093E+01 0.  1.
</event>
<event>
 5   0  0.1908726E-06  0.3375226E+04  0.7818609E-02  0.8144014E-01
       -2   -1    0    0    0  501  0.00000000000E+00  0.00000000000E+00  0.23717585064E+04  0.23717585064E+04  0.25500000920E-02 0. -1.
        2   -1    0    0  501    0  0.00000000000E+00  0.00000000000E+00 -0.12008124328E+04  0.12008124328E+04  0.25500000920E-02 0.  1.
    10030    2    1    2    0    0  0.00000000000E+00  0.00000000000E+00  0.11709460736E+04  0.35725709392E+04  0.33752256825E+04 0.  0.
        5    1    3    3  502    0 -0.15446805266E+04 -0.42717700981E+03  0.11450586368E+04  0.19696952807E+04  0.46999998093E+01 0. -1.
       -5    1    3    3    0  502  0.15446805266E+04  0.42717700981E+03  0.25887436820E+02  0.16028756585E+04  0.46999998093E+01 0.  1.
</event>
<event>
 5   0  0.1130707E-06  0.3704764E+04  0.7818609E-02  0.8066907E-01
        1   -1    0    0  501    0  0.00000000000E+00  0.00000000000E+00  0.12702100795E+04  0.12702100795E+04  0.50400001928E-02 0.  1.
       -1   -1    0    0    0  501  0.00000000000E+00  0.00000000000E+00 -0.27013797621E+04  0.27013797621E+04  0.50400001928E-02 0. -1.
    10030    2    1    2    0    0  0.00000000000E+00  0.00000000000E+00 -0.14311696826E+04  0.39715898416E+04  0.37047643933E+04 0.  0.
        3    1    3    3  502    0 -0.37116950688E+03  0.55709216693E+03 -0.25671759112E+04  0.26530191583E+04  0.10100000352E+00 0. -1.
       -3    1    3    3    0  502  0.37116950688E+03 -0.55709216693E+03  0.11360062286E+04  0.13185706833E+04  0.10100000352E+00 0.  1.
</event>
<event>
 5   0  0.1908726E-06  0.3619628E+04  0.7818609E-02  0.8086010E-01
        2   -1    0    0  501    0  0.00000000000E+00  0.00000000000E+00  0.21500744335E+04  0.21500744335E+04  0.25500000920E-02 0.  1.
       -2   -1    0    0    0  501  0.00000000000E+00  0.00000000000E+00 -0.15234013054E+04  0.15234013054E+04  0.25500000920E-02 0. -1.
    10030    2    1    2    0    0  0.00000000000E+00  0.00000000000E+00  0.62667312807E+03  0.36734757389E+04  0.36196277150E+04 0.  0.
        5    1    3    3  502    0  0.17145642223E+04  0.26518023734E+03  0.83612423381E+03  0.19259223388E+04  0.46999998093E+01 0. -1.
       -5    1    3    3    0  502 -0.17145642223E+04 -0.26518023734E+03 -0.20945110574E+03  0.17475534001E+04  0.46999998093E+01 0.  1.
</event>
<event>
 5   0  0.1130707E-06  0.2567065E+04  0.7818609E-02  0.8379475E-01
        1   -1    0    0  501    0  0.00000000000E+00  0.00000000000E+00  0.17652102694E+04  0.17652102694E+04  0.50400001928E-02 0. -1.
       -1   -1    0    0    0  501  0.00000000000E+00  0.00000000000E+00 -0.93329150264E+03  0.93329150266E+03  0.50400001928E-02 0.  1.
    10030    2    1    2    0    0  0.00000000000E+00  0.00000000000E+00  0.83191876680E+03  0.26985017721E+04  0.25670650517E+04 0.  0.
        3    1    3    3  502    0 -0.10824435356E+04 -0.68176282813E+03  0.52606573362E+03  0.13831954771E+04  0.10100000352E+00 0.  1.
       -3    1    3    3    0  502  0.10824435356E+04  0.68176282813E+03  0.30585303317E+03  0.13153062950E+04  0.10100000352E+00 0. -1.
</event>
<event>
 5   0  0.1110956E-06  0.2782251E+04  0.7818609E-02  0.8308800E-01
       -1   -1    0    0    0  501  0.00000000000E+00  0.00000000000E+00  0.19525771888E+04  0.19525771889E+04  0.50400001928E-02 0. -1.
        1   -1    0    0  501    0  0.00000000000E+00  0.00000000000E+00 -0.99111551720E+03  0.99111551722E+03  0.50400001928E-02 0.  1.
    10030    2    1    2    0    0  0.00000000000E+00  0.00000000000E+00  0.96146167165E+03  0.29436927061E+04  0.27822505642E+04 0.  0.
        1    1    3    3  502    0 -0.81577985329E+03  0.34484034411E+03  0.16157404500E+04  0.18425604017E+04  0.50400001928E-02 0. -1.
       -1    1    3    3    0  502  0.81577985329E+03 -0.34484034411E+03 -0.65427877837E+03  0.11011323044E+04  0.50400001928E-02 0.  1.
</event>
<event>
 5   0  0.1102175E-06  0.3520202E+04  0.7818609E-02  0.8109019E-01
       -1   -1    0    0    0  501  0.00000000000E+00  0.00000000000E+00  0.16329022601E+04  0.16329022601E+04  0.50400001928E-02 0. -1.
        1   -1    0    0  501    0  0.00000000000E+00  0.00000000000E+00 -0.18972083608E+04  0.18972083609E+04  0.50400001928E-02 0.  1.
    10030    2    1    2    0    0  0.00000000000E+00  0.00000000000E+00 -0.26430610071E+03  0.35301106210E+04  0.35202021649E+04 0.  0.
        5    1    3    3  502    0 -0.12073160307E+04  0.50338136666E+02 -0.14155160839E+04  0.18611431433E+04  0.46999998093E+01 0.  1.
       -5    1    3    3    0  502  0.12073160307E+04 -0.50338136666E+02  0.11512099832E+04  0.16689674777E+04  0.46999998093E+01 0. -1.
</event>
<event>
 5   0  0.1102175E-06  0.3502425E+04  0.7818609E-02  0.8113215E-01
        1   -1    0    0  501    0  0.00000000000E+00  0.00000000000E+00  0.26115954734E+04  0.26115954734E+04  0.50400001928E-02 0.  1.
       -1   -1    0    0    0  501  0.00000000000E+00  0.00000000000E+00 -0.11742803783E+04  0.11742803783E+04  0.50400001928E-02 0. -1.
    10030    2    1    2    0    0  0.00000000000E+00  0.00000000000E+00  0.14373150951E+04  0.37858758517E+04  0.35024250573E+04 0.  0.
        5    1    3    3  502    0 -0.82139175993E+03 -0.68307583310E+03 -0.78124558665E+03  0.13234967978E+04  0.46999998093E+01 0. -1.
       -5    1    3    3    0  502  0.82139175993E+03  0.68307583310E+03  0.22185606817E+04  0.24623790540E+04  0.46999998093E+01 0.  1.
</event>
<event>
 5   0  0.3041329E-06  0.3562545E+04  0.7818609E-02  0.8099126E-01
       -2   -1    0    0    0  501  0.00000000000E+00  0.00000000000E+00  0.16351125566E+04  0.16351125566E+04  0.25500000920E-02 0.  1.
        2   -1    0    0  501    0  0.00000000000E+00  0.00000000000E+00 -0.19404972002E+04  0.19404972002E+04  0.25500000920E-02 0. -1.
    10030    2    1    2    0    0  0.00000000000E+00  0.00000000000E+00 -0.30538464360E+03  0.35756097568E+04  0.35625447860E+04 0.  0.
        2    1    3    3  502    0  0.93279396255E+03  0.65987040289E+03 -0.15242314560E+04  0.19049448960E+04  0.25500000920E-02 0. -1.
       -2    1    3    3    0  502 -0.93279396255E+03 -0.65987040289E+03  0.12188468124E+04  0.16706648608E+04  0.25500000920E-02 0.  1.
</event>
<event>
 5   0  0.1089337E-06  0.3498884E+04  0.7818609E-02  0.8114055E-01
       -1   -1    0    0    0  501  0.00000000000E+00  0.00000000000E+00  0.29869177679E+04  0.29869177679E+04  0.50400001928E-02 0. -1.
        1   -1    0    0  501    0  0.00000000000E+00  0.00000000000E+00 -0.10246505507E+04  0.10246505507E+04  0.50400001928E-02 0.  1.
    10030    2    1    2    0    0  0.00000000000E+00  0.00000000000E+00  0.19622672172E+04  0.40115683186E+04  0.34988837854E+04 0.  0.
        2    1    3    3  502    0  0.98085468635E+03 -0.40114379783E+03 -0.61478837894E+03  0.12251355081E+04  0.25500000920E-02 0.  1.
       -2    1    3    3    0  502 -0.98085468635E+03  0.40114379783E+03  0.25770555961E+04  0.27864328105E+04  0.25500000920E-02 0. -1.
</event>
<event>
 5   0  0.1089337E-06  0.3708851E+04  0.7818609E-02  0.8066003E-01
       -1   -1    0    0    0  501  0.00000000000E+00  0.00000000000E+00  0.10651183750E+04  0.10651183750E+04  0.50400001928E-02 0. -1.
        1   -1    0    0  501    0  0.00000000000E+00  0.00000000000E+00 -0.32286503069E+04  0.32286503069E+04  0.50400001928E-02 0.  1.
    10030    2    1    2    0    0  0.00000000000E+00  0.00000000000E+00 -0.21635319318E+04  0.42937686819E+04  0.37088514494E+04 0.  0.
        2    1    3    3  502    0  0.28692308171E+03  0.85889794093E+03  0.79174266400E+03  0.12028661496E+04  0.25500000920E-02 0. -1.
       -2    1    3    3    0  502 -0.28692308171E+03 -0.85889794093E+03 -0.29552745959E+04  0.30909025324E+04  0.25500000920E-02 0.  1.
</event>
<event>
 5   0  0.1125196E-06  0.3562843E+04  0.7818609E-02  0.8099056E-01
        1   -1    0    0  501    0  0.00000000000E+00  0.00000000000E+00  0.27150221522E+04  0.27150221522E+04  0.50400001928E-02 0. -1.
       -1   -1    0    0    0  501  0.00000000000E+00  0.00000000000E+00 -0.11688529942E+04  0.11688529942E+04  0.50400001928E-02 0.  1.
    10030    2    1    2    0    0  0.00000000000E+00  0.00000000000E+00  0.15461691580E+04  0.38838751464E+04  0.35628425572E+04 0.  0.
        4    1    3    3  502    0 -0.52126963206E+03  0.16561758367E+04  0.12075156234E+04  0.21148844000E+04  0.12699999809E+01 0. -1.
       -4    1    3    3    0  502  0.52126963206E+03 -0.16561758367E+04  0.33865353457E+03  0.17689907464E+04  0.12699999809E+01 0.  1.
</event>
<event>
 5   0  0.1130707E-06  0.2338306E+04  0.7818609E-02  0.8462969E-01
       -1   -1    0    0    0  501  0.00000000000E+00  0.00000000000E+00  0.81835139792E+03  0.81835139793E+03  0.50400001928E-02 0. -1.
        1   -1    0    0  501    0  0.00000000000E+00  0.00000000000E+00 -0.16703321569E+04  0.16703321569E+04  0.50400001928E-02 0.  1.
    10030    2    1    2    0    0  0.00000000000E+00  0.00000000000E+00 -0.85198075898E+03  0.24886835548E+04  0.23383059300E+04 0.  0.
        3    1    3    3  502    0  0.98258560257E+03 -0.63235091296E+03 -0.46824902747E+03  0.12588086850E+04  0.10100000352E+00 0. -1.
       -3    1    3    3    0  502 -0.98258560257E+03  0.63235091296E+03 -0.38373173152E+03  0.12298748698E+04  0.10100000352E+00 0.  1.
</event>
<event>
 5   0  0.1782660E-06  0.3060544E+04  0.7818609E-02  0.8226650E-01
       -2   -1    0    0    0  501  0.00000000000E+00  0.00000000000E+00  0.96237930573E+03  0.96237930573E+03  0.25500000920E-02 0.  1.
        2   -1    0    0  501    0  0.00000000000E+00  0.00000000000E+00 -0.24332735992E+04  0.24332735993E+04  0.25500000920E-02 0. -1.
    10030    2    1    2    0    0  0.00000000000E+00  0.00000000000E+00 -0.14708942935E+04  0.33956529050E+04  0.30605438452E+04 0.  0.
        4    1    3    3  502    0  0.35142700789E+03  0.10779599188E+04  0.40481406055E+03  0.12038997321E+04  0.12699999809E+01 0.  1.
       -4    1    3    3    0  502 -0.35142700789E+03 -0.10779599188E+04 -0.18757083541E+04  0.21917531729E+04  0.12699999809E+01 0. -1.
</event>
<event>
 5   0  0.1102175E-06  0.2933501E+04  0.7818609E-02  0.8262979E-01
        1   -1    0    0  501    0  0.00000000000E+00  0.00000000000E+00  0.13516373387E+04  0.13516373387E+04  0.50400001928E-02 0. -1.
       -1   -1    0    0    0  501  0.00000000000E+00  0.00000000000E+00 -0.15916678602E+04  0.15916678602E+04  0.50400001928E-02 0.  1.
    10030    2    1    2    0    0  0.00000000000E+00  0.00000000000E+00 -0.24003052142E+03  0.29433051989E+04  0.29335014646E+04 0.  0.
        5    1    3    3  502    0 -0.53803452049E+03 -0.10471651129E+03  0.12450052179E+04  0.13603333325E+04  0.46999998093E+01 0. -1.
       -5    1    3    3    0  502  0.53803452049E+03  0.10471651129E+03 -0.14850357393E+04  0.15829718664E+04  0.46999998093E+01 0.  1.
</event>
<event>
 5   0  0.1125196E-06  0.2587432E+04  0.7818609E-02  0.8372483E-01
        1   -1    0    0  501    0  0.00000000000E+00  0.00000000000E+00  0.13550367793E+04  0.13550367793E+04  0.50400001928E-02 0.  1.
       -1   -1    0    0    0  501  0.00000000000E+00  0.00000000000E+00 -0.12351703086E+04  0.12351703086E+04  0.50400001928E-02 0. -1.
    10030    2    1    2    0    0  0.00000000000E+00  0.00000000000E+00  0.11986647076E+03  0.25902070879E+04  0.25874320836E+04 0.  0.
        4    1    3    3  502    0  0.12911352908E+04 -0.50632219386E+02  0.12407709199E+03  0.12980719158E+04  0.12699999809E+01 0.  1.
       -4    1    3    3    0  502 -0.12911352908E+04  0.50632219386E+02 -0.42106212338E+01  0.12921351721E+04  0.12699999809E+01 0. -1.
</event>
<event>
 5   0  0.1782660E-06  0.1892363E+04  0.7818609E-02  0.8658667E-01
        2   -1    0    0  501    0  0.00000000000E+00  0.00000000000E+00  0.10223885859E+04  0.10223885859E+04  0.25500000920E-02 0.  1.
       -2   -1    0    0    0  501  0.00000000000E+00  0.00000000000E+00 -0.87565478709E+03  0.87565478709E+03  0.25500000920E-02 0. -1.
    10030    2    1    2    0    0  0.00000000000E+00  0.00000000000E+00  0.14673379885E+03  0.18980433730E+04  0.18923630302E+04 0.  0.
        4    1    3    3  502    0  0.53180764654E+03  0.61488503349E+02  0.85587387112E+03  0.10095156785E+04  0.12699999809E+01 0.  1.
       -4    1    3    3    0  502 -0.53180764654E+03 -0.61488503349E+02 -0.70914007227E+03  0.88852769454E+03  0.12699999809E+01 0. -1.
</event>
<event>
 5   0  0.3378848E-06  0.1924109E+04  0.7818609E-02  0.8642948E-01
       -2   -1    0    0    0  501  0.00000000000E+00  0.00000000000E+00  0.56251726747E+03  0.56251726747E+03  0.25500000920E-02 0.  1.
        2   -1    0    0  501    0  0.00000000000E+00  0.00000000000E+00 -0.16453704859E+04  0.16453704859E+04  0.25500000920E-02 0. -1.
    10030    2    1    2    0    0  0.00000000000E+00  0.00000000000E+00 -0.10828532185E+04  0.22078877534E+04  0.19241094664E+04 0.  0.
        1    1    3    3  502    0 -0.37310611699E+03 -0.12398869709E+03  0.46612052733E+03  0.60979481595E+03  0.50400001928E-02 0.  1.
       -1    1    3    3    0  502  0.37310611699E+03  0.12398869709E+03 -0.15489737458E+04  0.15980929374E+04  0.50400001928E-02 0. -1.
</event>
<event>
 5   0  0.1782660E-06  0.2104414E+04  0.7818609E-02  0.8559301E-01
       -2   -1    0    0    0  501  0.00000000000E+00  0.00000000000E+00  0.15811327019E+04  0.15811327019E+04  0.25500000920E-02 0. -1.
        2   -1    0    0  501    0  0.00000000000E+00  0.00000000000E+00 -0.70021940205E+03  0.70021940205E+03  0.25500000920E-02 0.  1.
    10030    2    1    2    0    0  0.00000000000E+00  0.00000000000E+00  0.88091329990E+03  0.22813521040E+04  0.21044142131E+04 0.  0.
        4    1    3    3  502    0  0.93823096274E+02  0.10408209395E+04  0.30756434039E+03  0.10893614817E+04  0.12699999809E+01 0. -1.
       -4    1    3    3    0  502 -0.93823096274E+02 -0.10408209395E+04  0.57334895950E+03  0.11919906223E+04  0.12699999809E+01 0.  1.
</event>
<event>
 5   0  0.1782660E-06  0.3516256E+04  0.7818609E-02  0.8109948E-01
        2   -1    0    0  501    0  0.00000000000E+00  0.00000000000E+00  0.21188098082E+04  0.21188098082E+04  0.25500000920E-02 0. -1.
       -2   -1    0    0    0  501  0.00000000000E+00  0.00000000000E+00 -0.14588445331E+04  0.14588445331E+04  0.25500000920E-02 0.  1.
    10030    2    1    2    0    0  0.00000000000E+00  0.00000000000E+00  0.65996527514E+03  0.35776543413E+04  0.35162560233E+04 0.  0.
        4    1    3    3  502    0 -0.17499003932E+04  0.28038678146E+02  0.50046415364E+03  0.18202756757E+04  0.12699999809E+01 0. -1.
       -4    1    3    3    0  502  0.17499003932E+04 -0.28038678146E+02  0.15950112150E+03  0.17573786656E+04  0.12699999809E+01 0.  1.
</event>
<event>
 5   0  0.1125196E-06  0.3970267E+04  0.7818609E-02  0.8010572E-01
        1   -1    0    0  501    0  0.00000000000E+00  0.00000000000E+00  0.29114872382E+04  0.29114872382E+04  0.50400001928E-02 0. -1.
       -1   -1    0    0    0  501  0.00000000000E+00  0.00000000000E+00 -0.13535198107E+04  0.13535198107E+04  0.50400001928E-02 0.  1.
    10030    2    1    2    0    0  0.00000000000E+00  0.00000000000E+00  0.15579674275E+04  0.42650070489E+04  0.39702673237E+04 0.  0.
        4    1    3    3  502    0 -0.16140169821E+04 -0.10603395886E+04  0.28508804424E+03  0.19520880276E+04  0.12699999809E+01 0. -1.
       -4    1    3    3    0  502  0.16140169821E+04  0.10603395886E+04  0.12728793833E+04  0.23129190213E+04  0.12699999809E+01 0.  1.
</event>
<event>
 5   0  0.3378848E-06  0.3407869E+04  0.7818609E-02  0.8135978E-01
        2   -1    0    0  501    0  0.00000000000E+00  0.00000000000E+00  0.10370002390E+04  0.10370002390E+04  0.25500000920E-02 0. -1.
       -2   -1    0    0    0  501  0.00000000000E+00  0.00000000000E+00 -0.27998002257E+04  0.27998002257E+04  0.25500000920E-02 0.  1.
    10030    2    1    2    0    0  0.00000000000E+00  0.00000000000E+00 -0.17627999867E+04  0.38368004647E+04  0.34078694242E+04 0.  0.
        1    1    3    3  502    0 -0.16172027997E+04 -0.47011525793E+03 -0.58988957063E+03  0.17844671352E+04  0.50400001928E-02 0. -1.
       -1    1    3    3    0  502  0.16172027997E+04  0.47011525793E+03 -0.11729104161E+04  0.20523333295E+04  0.50400001928E-02 0.  1.
</event>
<event>
 5   0  0.1125196E-06  0.2043326E+04  0.7818609E-02  0.8586628E-01
       -1   -1    0    0    0  501  0.00000000000E+00  0.00000000000E+00  0.10614075061E+04  0.10614075062E+04  0.50400001928E-02 0. -1.
        1   -1    0    0  501    0  0.00000000000E+00  0.00000000000E+00 -0.98340626826E+03  0.98340626827E+03  0.50400001928E-02 0.  1.
    10030    2    1    2    0    0  0.00000000000E+00  0.00000000000E+00  0.78001237885E+02  0.20448137744E+04  0.20433255196E+04 0.  0.
        4    1    3    3  502    0 -0.32686174657E+03  0.10576287945E+03 -0.92386897303E+03  0.98567737129E+03  0.12699999809E+01 0.  1.
       -4    1    3    3    0  502  0.32686174657E+03 -0.10576287945E+03  0.10018702109E+04  0.10591364031E+04  0.12699999809E+01 0. -1.
</event>
<event>
 5   0  0.1102175E-06  0.3540082E+04  0.7818609E-02  0.8104356E-01
        1   -1    0    0  501    0  0.00000000000E+00  0.00000000000E+00  0.24558737495E+04  0.24558737495E+04  0.50400001928E-02 0.  1.
       -1   -1    0    0    0  501  0.00000000000E+00  0.00000000000E+00 -0.12757354503E+04  0.12757354503E+04  0.50400001928E-02 0. -1.
    10030    2    1    2    0    0  0.00000000000E+00  0.00000000000E+00  0.11801382993E+04  0.37316091998E+04  0.35400820350E+04 0.  0.
        5    1    3    3  502    0  0.49898538882E+03 -0.30648478395E+03  0.23508001355E+04  0.24226437435E+04  0.46999998093E+01 0.  1.
       -5    1    3    3    0  502 -0.49898538882E+03  0.30648478395E+03 -0.11706618362E+04  0.13089654563E+04  0.46999998093E+01 0. -1.
</event>
<event>
 5   0  0.1102175E-06  0.3429481E+04  0.7818609E-02  0.8130708E-01
       -1   -1    0    0    0  501  0.00000000000E+00  0.00000000000E+00  0.17131843899E+04  0.17131843899E+04  0.50400001928E-02 0.  1.
        1   -1    0    0  501    0  0.00000000000E+00  0.00000000000E+00 -0.17162977182E+04  0.17162977183E+04  0.50400001928E-02 0. -1.
    10030    2    1    2    0    0  0.00000000000E+00  0.00000000000E+00 -0.31133283770E+01  0.34294821081E+04  0.34294806950E+04 0.  0.
        5    1    3    3  502    0 -0.15148362292E+04  0.76706894744E+03  0.23758522876E+03  0.17145239579E+04  0.46999998093E+01 0. -1.
       -5    1    3    3    0  502  0.15148362292E+04 -0.76706894744E+03 -0.24069855714E+03  0.17149581502E+04  0.46999998093E+01 0.  1.
</event>
<event>
 5   0  0.1782660E-06  0.2684781E+04  0.7818609E-02  0.8339960E-01
        2   -1    0    0  501    0  0.00000000000E+00  0.00000000000E+00  0.13328551059E+04  0.13328551059E+04  0.25500000920E-02 0.  1.
       -2   -1    0    0    0  501  0.00000000000E+00  0.00000000000E+00 -0.13519936402E+04  0.13519936402E+04  0.25500000920E-02 0. -1.
    10030    2    1    2    0    0  0.00000000000E+00  0.00000000000E+00 -0.19138534297E+02  0.26848487461E+04  0.26847805322E+04 0.  0.
        4    1    3    3  502    0  0.91033522399E+03 -0.78688255128E+03  0.58552201892E+03  0.13381823557E+04  0.12699999809E+01 0.  1.
       -4    1    3    3    0  502 -0.91033522399E+03  0.78688255128E+03 -0.60466055321E+03  0.13466663904E+04  0.12699999809E+01 0. -1.
</event>
<event>
 5   0  0.3041329E-06  0.3582666E+04  0.7818609E-02  0.8094474E-01
       -2   -1    0    0    0  501  0.00000000000E+00  0.00000000000E+00  0.11547876281E+04  0.11547876281E+04  0.25500000920E-02 0.  1.
        2   -1    0    0  501    0  0.00000000000E+00  0.00000000000E+00 -0.27787564105E+04  0.27787564105E+04  0.25500000920E-02 0. -1.
    10030    2    1    2    0    0  0.00000000000E+00  0.00000000000E+00 -0.16239687824E+04  0.39335440385E+04  0.35826657808E+04 0.  0.
        2    1    3    3  502    0 -0.25183173155E+03  0.71769620405E+02 -0.27576290560E+04  0.27700339546E+04  0.25500000920E-02 0. -1.
       -2    1    3    3    0  502  0.25183173155E+03 -0.71769620405E+02  0.11336602736E+04  0.11635100839E+04  0.25500000920E-02 0.  1.
</event>
<event>
 5   0  0.1782660E-06  0.3454999E+04  0.7818609E-02  0.8124538E-01
       -2   -1    0    0    0  501  0.00000000000E+00  0.00000000000E+00  0.14082500103E+04  0.14082500103E+04  0.25500000920E-02 0. -1.
        2   -1    0    0  501    0  0.00000000000E+00  0.00000000000E+00 -0.21191230526E+04  0.21191230526E+04  0.25500000920E-02 0.  1.
    10030    2    1    2    0    0  0.00000000000E+00  0.00000000000E+00 -0.71087304222E+03  0.35273730629E+04  0.34549993116E+04 0.  0.
        4    1    3    3  502    0  0.58067744290E+03 -0.14809810788E+04  0.33229287170E+03  0.16250881249E+04  0.12699999809E+01 0. -1.
       -4    1    3    3    0  502 -0.58067744290E+03  0.14809810788E+04 -0.10431659139E+04  0.19022849380E+04  0.12699999809E+01 0.  1.
</event>
<event>
 5   0  0.3378848E-06  0.2616993E+04  0.7818609E-02  0.8362452E-01
       -2   -1    0    0    0  501  0.00000000000E+00  0.00000000000E+00  0.11949190201E+04  0.11949190201E+04  0.25500000920E-02 0.  1.
        2   -1    0    0  501    0  0.00000000000E+00  0.00000000000E+00 -0.14328691740E+04  0.14328691740E+04  0.25500000920E-02 0. -1.
    10030    2    1    2    0    0  0.00000000000E+00  0.00000000000E+00 -0.23795015390E+03  0.26277881941E+04  0.26169926475E+04 0.  0.
        1    1    3    3  502    0  0.12253394427E+04  0.45546767289E+03 -0.17626372567E+03  0.13190816699E+04  0.50400001928E-02 0.  1.
       -1    1    3    3    0  502 -0.12253394427E+04 -0.45546767289E+03 -0.61686428235E+02  0.13087065241E+04  0.50400001928E-02 0. -1.
</event>
<event>
 5   0  0.1130707E-06  0.2799968E+04  0.7818609E-02  0.8303278E-01
       -1   -1    0    0    0  501  0.00000000000E+00  0.00000000000E+00  0.15682077360E+04  0.15682077360E+04  0.50400001928E-02 0. -1.
        1   -1    0    0  501    0  0.00000000000E+00  0.00000000000E+00 -0.12498055004E+04  0.12498055004E+04  0.50400001928E-02 0.  1.
    10030    2    1    2    0    0  0.00000000000E+00  0.00000000000E+00  0.31840223563E+03  0.28180132364E+04  0.27999676099E+04 0.  0.
        3    1    3    3  502    0 -0.98968887076E+02 -0.12276019518E+04 -0.51078683130E+03  0.13333058876E+04  0.10100000352E+00 0.  1.
       -3    1    3    3    0  502  0.98968887076E+02  0.12276019518E+04  0.82918906693E+03  0.14847073488E+04  0.10100000352E+00 0. -1.
</event>
<event>
 5   0  0.3041329E-06  0.3470185E+04  0.7818609E-02  0.8120892E-01
       -2   -1    0    0    0  501  0.00000000000E+00  0.00000000000E+00  0.97012191443E+03  0.97012191443E+03  0.25500000920E-02 0.  1.
        2   -1    0    0  501    0  0.00000000000E+00  0.00000000000E+00 -0.31032656074E+04  0.31032656074E+04  0.25500000920E-02 0. -1.
    10030    2    1    2    0    0  0.00000000000E+00  0.00000000000E+00 -0.21331436929E+04  0.40733875218E+04  0.34701849933E+04 0.  0.
        2    1    3    3  502    0  0.41816360159E+03 -0.62098211613E+03 -0.29039224116E+04  0.29988739484E+04  0.25500000920E-02 0. -1.
       -2    1    3    3    0  502 -0.41816360159E+03  0.62098211613E+03  0.77077871862E+03  0.10745135734E+04  0.25500000920E-02 0.  1.
</event>
<event>
 5   0  0.1908726E-06  0.3516821E+04  0.7818609E-02  0.8109815E-01
        2   -1    0    0  501    0  0.00000000000E+00  0.00000000000E+00  0.89409044123E+03  0.89409044123E+03  0.25500000920E-02 0.  1.
       -2   -1    0    0    0  501  0.00000000000E+00  0.00000000000E+00 -0.34582715782E+04  0.34582715782E+04  0.25500000920E-02 0. -1.
    10030    2    1    2    0    0  0.00000000000E+00  0.00000000000E+00 -0.25641811369E+04  0.43523620194E+04  0.35168210425E+04 0.  0.
        5    1    3    3  502    0  0.93501538382E+01  0.13356693682E+04 -0.26974266743E+04  0.30100220663E+04  0.46999998093E+01 0. -1.
       -5    1    3    3    0  502 -0.93501538382E+01 -0.13356693682E+04  0.13324553734E+03  0.13423399531E+04  0.46999998093E+01 0.  1.
</event>
<event>
 5   0  0.1908726E-06  0.3069047E+04  0.7818609E-02  0.8224284E-01
        2   -1    0    0  501    0  0.00000000000E+00  0.00000000000E+00  0.21731768419E+04  0.21731768419E+04  0.25500000920E-02 0. -1.
       -2   -1    0    0    0  501  0.00000000000E+00  0.00000000000E+00 -0.10835573480E+04  0.10835573480E+04  0.25500000920E-02 0.  1.
    10030    2    1    2    0    0  0.00000000000E+00  0.00000000000E+00  0.10896194939E+04  0.32567341899E+04  0.30690465852E+04 0.  0.
        5    1    3    3  502    0 -0.14382417504E+04  0.48650666164E+03  0.78092945095E+03  0.17073666747E+04  0.46999998093E+01 0. -1.
       -5    1    3    3    0  502  0.14382417504E+04 -0.48650666164E+03  0.30869004298E+03  0.15493675152E+04  0.46999998093E+01 0.  1.
</event>
<event>
 5   0  0.1908726E-06  0.3430509E+04  0.7818609E-02  0.8130459E-01
        2   -1    0    0  501    0  0.00000000000E+00  0.00000000000E+00  0.13867404575E+04  0.13867404575E+04  0.25500000920E-02 0.  1.
       -2   -1    0    0    0  501  0.00000000000E+00  0.00000000000E+00 -0.21215918856E+04  0.21215918856E+04  0.25500000920E-02 0. -1.
    10030    2    1    2    0    0  0.00000000000E+00  0.00000000000E+00 -0.73485142808E+03  0.35083323430E+04  0.34305085932E+04 0.  0.
        5    1    3    3  502    0  0.34601326509E+03  0.80885680675E+02  0.13486786643E+04  0.13947128388E+04  0.46999998093E+01 0.  1.
       -5    1    3    3    0  502 -0.34601326509E+03 -0.80885680675E+02 -0.20835300924E+04  0.21136195043E+04  0.46999998093E+01 0. -1.
</event>
<event>
 5   0  0.1130707E-06  0.2763871E+04  0.7818609E-02  0.8314573E-01
       -1   -1    0    0    0  501  0.00000000000E+00  0.00000000000E+00  0.11383890981E+04  0.11383890982E+04  0.50400001928E-02 0.  1.
        1   -1    0    0  501    0  0.00000000000E+00  0.00000000000E+00 -0.16775863477E+04  0.16775863477E+04  0.50400001928E-02 0. -1.
    10030    2    1    2    0    0  0.00000000000E+00  0.00000000000E+00 -0.53919724957E+03  0.28159754459E+04  0.27638712050E+04 0.  0.
        3    1    3    3  502    0  0.71867773680E+03 -0.79435928485E+03  0.61992481426E+03  0.12376635845E+04  0.10100000352E+00 0.  1.
       -3    1    3    3    0  502 -0.71867773680E+03  0.79435928485E+03 -0.11591220638E+04  0.15783118614E+04  0.10100000352E+00 0. -1.
</event>
<event>
 5   0  0.1042825E-06  0.3046661E+04  0.7818609E-02  0.8230531E-01
        3   -1    0    0  501    0  0.00000000000E+00  0.00000000000E+00  0.15724659124E+04  0.15724659157E+04  0.10100000352E+00 0. -1.
       -3   -1    0    0    0  501  0.00000000000E+00  0.00000000000E+00 -0.14757305194E+04  0.14757305228E+04  0.10100000352E+00 0.  1.
    10030    2    1    2    0    0  0.00000000000E+00  0.00000000000E+00  0.96735393086E+02  0.30481964385E+04  0.30466610890E+04 0.  0.
        2    1    3    3  502    0 -0.10091056283E+04  0.68887095371E+01  0.11900800612E+04  0.15603307904E+04  0.25500000920E-02 0. -1.
       -2    1    3    3    0  502  0.10091056283E+04 -0.68887095371E+01 -0.10933446681E+04  0.14878656481E+04  0.25500000920E-02 0.  1.
</event>
<event>
 5   0  0.1110956E-06  0.1909433E+04  0.7818609E-02  0.8650175E-01
        1   -1    0    0  501    0  0.00000000000E+00  0.00000000000E+00  0.61777865572E+03  0.61777865574E+03  0.50400001928E-02 0.  1.
       -1   -1    0    0    0  501  0.00000000000E+00  0.00000000000E+00 -0.14754214869E+04  0.14754214869E+04  0.50400001928E-02 0. -1.
    10030    2    1    2    0    0  0.00000000000E+00  0.00000000000E+00 -0.85764283119E+03  0.20932001427E+04  0.19094333221E+04 0.  0.
        1    1    3    3  502    0  0.60582522026E+03  0.73140039893E+03 -0.32189901542E+03  0.10027909639E+04  0.50400001928E-02 0.  1.
       -1    1    3    3    0  502 -0.60582522026E+03 -0.73140039893E+03 -0.53574381577E+03  0.10904091788E+04  0.50400001928E-02 0. -1.
</event>
<event>
 5   0  0.1102175E-06  0.3224667E+04  0.7818609E-02  0.8182333E-01
       -1   -1    0    0    0  501  0.00000000000E+00  0.00000000000E+00  0.17637956621E+04  0.17637956621E+04  0.50400001928E-02 0.  1.
        1   -1    0    0  501    0  0.00000000000E+00  0.00000000000E+00 -0.14738781422E+04  0.14738781422E+04  0.50400001928E-02 0. -1.
    10030    2    1    2    0    0  0.00000000000E+00  0.00000000000E+00  0.28991751992E+03  0.32376738043E+04  0.32246673464E+04 0.  0.
        5    1    3    3  502    0  0.13312393272E+04 -0.49293967897E+03 -0.62259186893E+03  0.15501065766E+04  0.46999998093E+01 0. -1.
       -5    1    3    3    0  502 -0.13312393272E+04  0.49293967897E+03  0.91250938885E+03  0.16875672278E+04  0.46999998093E+01 0.  1.
</event>
<event>
 5   0  0.2565004E-06  0.3182222E+04  0.7818609E-02  0.8193528E-01
       -2   -1    0    0    0  501  0.00000000000E+00  0.00000000000E+00  0.16377548783E+04  0.16377548783E+04  0.25500000920E-02 0.  1.
        2   -1    0    0  501    0  0.00000000000E+00  0.00000000000E+00 -0.15457959000E+04  0.15457959000E+04  0.25500000920E-02 0. -1.
    10030    2    1    2    0    0  0.00000000000E+00  0.00000000000E+00  0.91958978310E+02  0.31835507784E+04  0.31822223531E+04 0.  0.
        3    1    3    3  502    0  0.44248898803E+02 -0.70757422742E+03 -0.13790503002E+04  0.15506124574E+04  0.10100000352E+00 0. -1.
       -3    1    3    3    0  502 -0.44248898803E+02  0.70757422742E+03  0.14710092785E+04  0.16329383210E+04  0.10100000352E+00 0.  1.
</event>
<event>
 5   0  0.3378848E-06  0.3448439E+04  0.7818609E-02  0.8126119E-01
       -2   -1    0    0    0  501  0.00000000000E+00  0.00000000000E+00  0.14766458530E+04  0.14766458530E+04  0.25500000920E-02 0.  1.
        2   -1    0    0  501    0  0.00000000000E+00  0.00000000000E+00 -0.20133009608E+04  0.20133009608E+04  0.25500000920E-02 0. -1.
    10030    2    1    2    0    0  0.00000000000E+00  0.00000000000E+00 -0.53665510785E+03  0.34899468138E+04  0.34484387857E+04 0.  0.
        1    1    3    3  502    0 -0.13757544921E+04  0.74429239534E+02  0.78082434788E+03  0.15836435194E+04  0.50400001928E-02 0.  1.
       -1    1    3    3    0  502  0.13757544921E+04 -0.74429239534E+02 -0.13174794557E+04  0.19063032945E+04  0.50400001928E-02 0. -1.
</event>
<event>
 5   0  0.1130707E-06  0.3098105E+04  0.7818609E-02  0.8216258E-01
        1   -1    0    0  501    0  0.00000000000E+00  0.00000000000E+00  0.19200030714E+04  0.19200030714E+04  0.50400001928E-02 0. -1.
       -1   -1    0    0    0  501  0.00000000000E+00  0.00000000000E+00 -0.12497708166E+04  0.12497708166E+04  0.50400001928E-02 0.  1.
    10030    2    1    2    0    0  0.00000000000E+00  0.00000000000E+00  0.67023225483E+03  0.31697738880E+04  0.30981051024E+04 0.  0.
        3    1    3    3  502    0  0.13192704094E+04  0.73461078548E+03  0.68870651219E+03  0.16596517976E+04  0.10100000352E+00 0. -1.
       -3    1    3    3    0  502 -0.13192704094E+04 -0.73461078548E+03 -0.18474257363E+02  0.15101220903E+04  0.10100000352E+00 0.  1.
</event>
<event>
 5   0  0.2467939E-06  0.1839371E+04  0.7818609E-02  0.8685638E-01
        2   -1    0    0  501    0  0.00000000000E+00  0.00000000000E+00  0.17511373293E+04  0.17511373293E+04  0.25500000920E-02 0. -1.
       -2   -1    0    0    0  501  0.00000000000E+00  0.00000000000E+00 -0.48301236042E+03  0.48301236043E+03  0.25500000920E-02 0.  1.
    10030    2    1    2    0    0  0.00000000000E+00  0.00000000000E+00  0.12681249689E+04  0.22341496897E+04  0.18393705172E+04 0.  0.
        4    1    3    3  502    0 -0.20661684096E+03 -0.87859734602E+03  0.84859313330E+03  0.12388445157E+04  0.12699999809E+01 0.  1.
       -4    1    3    3    0  502  0.20661684096E+03  0.87859734602E+03  0.41953183559E+03  0.99530517400E+03  0.12699999809E+01 0. -1.
</event>
<event>
 5   0  0.1908726E-06  0.3527900E+04  0.7818609E-02  0.8107210E-01
       -2   -1    0    0    0  501  0.00000000000E+00  0.00000000000E+00  0.11042574148E+04  0.11042574149E+04  0.25500000920E-02 0.  1.
        2   -1    0    0  501    0  0.00000000000E+00  0.00000000000E+00 -0.28177480662E+04  0.28177480662E+04  0.25500000920E-02 0. -1.
    10030    2    1    2    0    0  0.00000000000E+00  0.00000000000E+00 -0.17134906514E+04  0.39220054811E+04  0.35278997692E+04 0.  0.
        5    1    3    3  502    0  0.68896519333E+03 -0.15141171119E+04 -0.20445082468E+03  0.16760208519E+04  0.46999998093E+01 0.  1.
       -5    1    3    3    0  502 -0.68896519333E+03  0.15141171119E+04 -0.15090398267E+04  0.22459846292E+04  0.46999998093E+01 0. -1.
</event>
<event>
 5   0  0.3378848E-06  0.3220853E+04  0.7818609E-02  0.8183332E-01
       -2   -1    0    0    0  501  0.00000000000E+00  0.00000000000E+00  0.17038338142E+04  0.17038338142E+04  0.25500000920E-02 0.  1.
        2   -1    0    0  501    0  0.00000000000E+00  0.00000000000E+00 -0.15221395546E+04  0.15221395546E+04  0.25500000920E-02 0. -1.
    10030    2    1    2    0    0  0.00000000000E+00  0.00000000000E+00  0.18169425968E+03  0.32259733688E+04  0.32208525847E+04 0.  0.
        1    1    3    3  502    0 -0.10502131934E+04 -0.73449877151E+03 -0.88591442096E+03  0.15579732213E+04  0.50400001928E-02 0. -1.
       -1    1    3    3    0  502  0.10502131934E+04  0.73449877151E+03  0.10676086806E+04  0.16680001475E+04  0.50400001928E-02 0.  1.
</event>
<event>
 5   0  0.1782660E-06  0.3576869E+04  0.7818609E-02  0.8095811E-01
        2   -1    0    0  501    0  0.00000000000E+00  0.00000000000E+00  0.14067104560E+04  0.14067104560E+04  0.25500000920E-02 0. -1.
       -2   -1    0    0    0  501  0.00000000000E+00  0.00000000000E+00 -0.22737431865E+04  0.22737431865E+04  0.25500000920E-02 0.  1.
    10030    2    1    2    0    0  0.00000000000E+00  0.00000000000E+00 -0.86703273048E+03  0.36804536425E+04  0.35768691979E+04 0.  0.
        4    1    3    3  502    0  0.59935051084E+03  0.43419312245E+03 -0.21087787682E+04  0.22348812515E+04  0.12699999809E+01 0.  1.
       -4    1    3    3    0  502 -0.59935051084E+03 -0.43419312245E+03  0.12417460377E+04  0.14455723909E+04  0.12699999809E+01 0. -1.
</event>
<event>
 5   0  0.2565004E-06  0.3514793E+04  0.7818609E-02  0.8110293E-01
        2   -1    0    0  501    0  0.00000000000E+00  0.00000000000E+00  0.21982241851E+04  0.21982241851E+04  0.25500000920E-02 0. -1.
       -2   -1    0    0    0  501  0.00000000000E+00  0.00000000000E+00 -0.14049714886E+04  0.14049714886E+04  0.25500000920E-02 0.  1.
    10030    2    1    2    0    0  0.00000000000E+00  0.00000000000E+00  0.79325269652E+03  0.36031956737E+04  0.35147929132E+04 0.  0.
        3    1    3    3  502    0 -0.14212264938E+04 -0.10265005700E+04  0.52156928117E+03  0.18291043415E+04  0.10100000352E+00 0. -1.
       -3    1    3    3    0  502  0.14212264938E+04  0.10265005700E+04  0.27168341535E+03  0.17740913322E+04  0.10100000352E+00 0.  1.
</event>
<event>
 5   0  0.1102175E-06  0.2052514E+04  0.7818609E-02  0.8582455E-01
        1   -1    0    0  501    0  0.00000000000E+00  0.00000000000E+00  0.17667916595E+04  0.17667916595E+04  0.50400001928E-02 0.  1.
       -1   -1    0    0    0  501  0.00000000000E+00  0.00000000000E+00 -0.59611053983E+03  0.59611053985E+03  0.50400001928E-02 0. -1.
    10030    2    1    2    0    0  0.00000000000E+00  0.00000000000E+00  0.11706811196E+04  0.23629021993E+04  0.20525137076E+04 0.  0.
        5    1    3    3  502    0 -0.44366571126E+03  0.85465824198E+03  0.17685718647E+03  0.97907125805E+03  0.46999998093E+01 0. -1.
       -5    1    3    3    0  502  0.44366571126E+03 -0.85465824198E+03  0.99382393317E+03  0.13838309413E+04  0.46999998093E+01 0.  1.
</event>
<event>
 5   0  0.1102175E-06  0.3644607E+04  0.7818609E-02  0.8080350E-01
        1   -1    0    0  501    0  0.00000000000E+00  0.00000000000E+00  0.17830184016E+04  0.17830184017E+04  0.50400001928E-02 0.  1.
       -1   -1    0    0    0  501  0.00000000000E+00  0.00000000000E+00 -0.18624546094E+04  0.18624546094E+04  0.50400001928E-02 0. -1.
    10030    2    1    2    0    0  0.00000000000E+00  0.00000000000E+00 -0.79436207770E+02  0.36454730111E+04  0.36446074361E+04 0.  0.
        5    1    3    3  502    0 -0.86741270976E+03  0.42700892211E+03 -0.15847620497E+04  0.18564035856E+04  0.46999998093E+01 0. -1.
       -5    1    3    3    0  502  0.86741270976E+03 -0.42700892211E+03  0.15053258419E+04  0.17890694254E+04  0.46999998093E+01 0.  1.
</event>
<event>
 5   0  0.1125196E-06  0.3399902E+04  0.7818609E-02  0.8137930E-01
        1   -1    0    0  501    0  0.00000000000E+00  0.00000000000E+00  0.23639790707E+04  0.23639790707E+04  0.50400001928E-02 0.  1.
       -1   -1    0    0    0  501  0.00000000000E+00  0.00000000000E+00 -0.12224445723E+04  0.12224445724E+04  0.50400001928E-02 0. -1.
    10030    2    1    2    0    0  0.00000000000E+00  0.00000000000E+00  0.11415344983E+04  0.35864236430E+04  0.33999019892E+04 0.  0.
        4    1    3    3  502    0 -0.60633517331E+03 -0.98626354095E+03  0.18838354677E+04  0.22111525946E+04  0.12699999809E+01 0.  1.
       -4    1    3    3    0  502  0.60633517331E+03  0.98626354095E+03 -0.74230096933E+03  0.13752710484E+04  0.12699999809E+01 0. -1.
</event>
<event>
 5   0  0.1130707E-06  0.3407779E+04  0.7818609E-02  0.8136000E-01
       -1   -1    0    0    0  501  0.00000000000E+00  0.00000000000E+00  0.12720572247E+04  0.12720572247E+04  0.50400001928E-02 0.  1.
        1   -1    0    0  501    0  0.00000000000E+00  0.00000000000E+00 -0.22823177012E+04  0.22823177012E+04  0.50400001928E-02 0. -1.
    10030    2    1    2    0    0  0.00000000000E+00  0.00000000000E+00 -0.10102604765E+04  0.35543749260E+04  0.34077785849E+04 0.  0.
        3    1    3    3  502    0  0.13707436307E+04 -0.53829132726E+03 -0.13990540298E+04  0.20312675458E+04  0.10100000352E+00 0. -1.
       -3    1    3    3    0  502 -0.13707436307E+04  0.53829132726E+03  0.38879355334E+03  0.15231073801E+04  0.10100000352E+00 0.  1.
</event>
<event>
 5   0  0.1122917E-06  0.1740077E+04  0.7818609E-02  0.8738831E-01
        1   -1    0    0  501    0  0.00000000000E+00  0.00000000000E+00  0.73971418818E+03  0.73971418819E+03  0.50400001928E-02 0.  1.
       -1   -1    0    0    0  501  0.00000000000E+00  0.00000000000E+00 -0.10233237343E+04  0.10233237343E+04  0.50400001928E-02 0. -1.
    10030    2    1    2    0    0  0.00000000000E+00  0.00000000000E+00 -0.28360954616E+03  0.17630379225E+04  0.17400771080E+04 0.  0.
        5    1    3    3  502    0  0.64793299665E+02 -0.13757828252E+03 -0.10097406653E+04  0.10211387059E+04  0.46999998093E+01 0. -1.
       -5    1    3    3    0  502 -0.64793299665E+02  0.13757828252E+03  0.72613111914E+03  0.74189921666E+03  0.46999998093E+01 0.  1.
</event>
<event>
 5   0  0.1125196E-06  0.3457242E+04  0.7818609E-02  0.8123998E-01
        1   -1    0    0  501    0  0.00000000000E+00  0.00000000000E+00  0.15361748036E+04  0.15361748036E+04  0.50400001928E-02 0.  1.
       -1   -1    0    0    0  501  0.00000000000E+00  0.00000000000E+00 -0.19451761462E+04  0.19451761462E+04  0.50400001928E-02 0. -1.
    10030    2    1    2    0    0  0.00000000000E+00  0.00000000000E+00 -0.40900134262E+03  0.34813509498E+04  0.34572420131E+04 0.  0.
        4    1    3    3  502    0 -0.14312418786E+04 -0.43348136052E+03  0.66859210348E+03  0.16381014678E+04  0.12699999809E+01 0. -1.
       -4    1    3    3    0  502  0.14312418786E+04  0.43348136052E+03 -0.10775934461E+04  0.18432494820E+04  0.12699999809E+01 0.  1.
</event>
<event>
 5   0  0.1102175E-06  0.3491672E+04  0.7818609E-02  0.8115766E-01
        1   -1    0    0  501    0  0.00000000000E+00  0.00000000000E+00  0.18408467741E+04  0.18408467742E+04  0.50400001928E-02 0.  1.
       -1   -1    0    0    0  501  0.00000000000E+00  0.00000000000E+00 -0.16557286323E+04  0.16557286323E+04  0.50400001928E-02 0. -1.
    10030    2    1    2    0    0  0.00000000000E+00  0.00000000000E+00  0.18511814184E+03  0.34965754065E+04  0.34916716407E+04 0.  0.
        5    1    3    3  502    0  0.89039356216E+03  0.44019932403E+03  0.15303137526E+04  0.18244063176E+04  0.46999998093E+01 0.  1.
       -5    1    3    3    0  502 -0.89039356216E+03 -0.44019932403E+03 -0.13451956108E+04  0.16721690888E+04  0.46999998093E+01 0. -1.
</event>
<event>
 5   0  0.1102175E-06  0.3412044E+04  0.7818609E-02  0.8134957E-01
        1   -1    0    0  501    0  0.00000000000E+00  0.00000000000E+00  0.17574408121E+04  0.17574408121E+04  0.50400001928E-02 0. -1.
       -1   -1    0    0    0  501  0.00000000000E+00  0.00000000000E+00 -0.16561074133E+04  0.16561074133E+04  0.50400001928E-02 0.  1.
    10030    2    1    2    0    0  0.00000000000E+00  0.00000000000E+00  0.10133339885E+03  0.34135482254E+04  0.34120438199E+04 0.  0.
        5    1    3    3  502    0  0.70824417143E+03 -0.12796284211E+04  0.92936481462E+03  0.17328588376E+04  0.46999998093E+01 0. -1.
       -5    1    3    3    0  502 -0.70824417143E+03  0.12796284211E+04 -0.82803141577E+03  0.16806893877E+04  0.46999998093E+01 0.  1.
</event>
<event>
 5   0  0.1089337E-06  0.1887844E+04  0.7818609E-02  0.8660931E-01
        1   -1    0    0  501    0  0.00000000000E+00  0.00000000000E+00  0.10685940602E+04  0.10685940603E+04  0.50400001928E-02 0. -1.
       -1   -1    0    0    0  501  0.00000000000E+00  0.00000000000E+00 -0.83379557963E+03  0.83379557964E+03  0.50400001928E-02 0.  1.
    10030    2    1    2    0    0  0.00000000000E+00  0.00000000000E+00  0.23479848062E+03  0.19023896399E+04  0.18878442773E+04 0.  0.
        2    1    3    3  502    0 -0.48378759490E+03 -0.54925654233E+03 -0.48322644936E+03  0.87706384468E+03  0.25500000920E-02 0.  1.
       -2    1    3    3    0  502  0.48378759490E+03  0.54925654233E+03  0.71802492998E+03  0.10253257952E+04  0.25500000920E-02 0. -1.
</event>
<event>
 5   0  0.1042825E-06  0.1831684E+04  0.7818609E-02  0.8689629E-01
        3   -1    0    0  501    0  0.00000000000E+00  0.00000000000E+00  0.27606018221E+04  0.27606018240E+04  0.10100000352E+00 0.  1.
       -3   -1    0    0    0  501  0.00000000000E+00  0.00000000000E+00 -0.30383462354E+03  0.30383464033E+03  0.10100000352E+00 0. -1.
    10030    2    1    2    0    0  0.00000000000E+00  0.00000000000E+00  0.24567671986E+04  0.30644364643E+04  0.18316838635E+04 0.  0.
        2    1    3    3  502    0  0.80353275637E+03  0.34601091256E+03  0.16815764420E+04  0.18955441890E+04  0.25500000920E-02 0.  1.
       -2    1    3    3    0  502 -0.80353275637E+03 -0.34601091256E+03  0.77519075661E+03  0.11688922753E+04  0.25500000920E-02 0. -1.
</event>
<event>
 5   0  0.1110956E-06  0.2277874E+04  0.7818609E-02  0.8486697E-01
       -1   -1    0    0    0  501  0.00000000000E+00  0.00000000000E+00  0.76246674264E+03  0.76246674266E+03  0.50400001928E-02 0.  1.
        1   -1    0    0  501    0  0.00000000000E+00  0.00000000000E+00 -0.17012899288E+04  0.17012899288E+04  0.50400001928E-02 0. -1.
    10030    2    1    2    0    0  0.00000000000E+00  0.00000000000E+00 -0.93882318618E+03  0.24637566715E+04  0.22778735613E+04 0.  0.
        1    1    3    3  502    0 -0.63084140383E+03  0.71318099897E+03  0.20655960266E+03  0.97429712283E+03  0.50400001928E-02 0.  1.
       -1    1    3    3    0  502  0.63084140383E+03 -0.71318099897E+03 -0.11453827888E+04  0.14894595487E+04  0.50400001928E-02 0. -1.
</event>
<event>
 5   0  0.3378848E-06  0.2384262E+04  0.7818609E-02  0.8445419E-01
       -2   -1    0    0    0  501  0.00000000000E+00  0.00000000000E+00  0.93307520565E+03  0.93307520566E+03  0.25500000920E-02 0.  1.
        2   -1    0    0  501    0  0.00000000000E+00  0.00000000000E+00 -0.15231097603E+04  0.15231097603E+04  0.25500000920E-02 0. -1.
    10030    2    1    2    0    0  0.00000000000E+00  0.00000000000E+00 -0.59003455462E+03  0.24561849659E+04  0.23842616910E+04 0.  0.
        1    1    3    3  502    0  0.34051589528E+03  0.11197555591E+04 -0.52850923739E+03  0.12841828534E+04  0.50400001928E-02 0. -1.
       -1    1    3    3    0  502 -0.34051589528E+03 -0.11197555591E+04 -0.61525317226E+02  0.11720021125E+04  0.50400001928E-02 0.  1.
</event>
<event>
 5   0  0.1908726E-06  0.3427783E+04  0.7818609E-02  0.8131121E-01
       -2   -1    0    0    0  501  0.00000000000E+00  0.00000000000E+00  0.24296161820E+04  0.24296161820E+04  0.25500000920E-02 0.  1.
        2   -1    0    0  501    0  0.00000000000E+00  0.00000000000E+00 -0.12090072849E+04  0.12090072849E+04  0.25500000920E-02 0. -1.
    10030    2    1    2    0    0  0.00000000000E+00  0.00000000000E+00  0.12206088971E+04  0.36386234668E+04  0.34277827606E+04 0.  0.
        5    1    3    3  502    0 -0.85837386478E+03 -0.22525546581E+03 -0.94612162316E+03  0.12971946394E+04  0.46999998093E+01 0. -1.
       -5    1    3    3    0  502  0.85837386478E+03  0.22525546581E+03  0.21667305203E+04  0.23414288275E+04  0.46999998093E+01 0.  1.
</event>
<event>
 5   0  0.1908726E-06  0.2639268E+04  0.7818609E-02  0.8354984E-01
       -2   -1    0    0    0  501  0.00000000000E+00  0.00000000000E+00  0.17592405522E+04  0.17592405522E+04  0.25500000920E-02 0. -1.
        2   -1    0    0  501    0  0.00000000000E+00  0.00000000000E+00 -0.98987794215E+03  0.98987794215E+03  0.25500000920E-02 0.  1.
    10030    2    1    2    0    0  0.00000000000E+00  0.00000000000E+00  0.76936261002E+03  0.27491184943E+04  0.26392676390E+04 0.  0.
        5    1    3    3  502    0  0.44578352105E+03  0.36061568182E+03  0.16226979977E+04  0.17210280356E+04  0.46999998093E+01 0. -1.
       -5    1    3    3    0  502 -0.44578352105E+03 -0.36061568182E+03 -0.85333538763E+03  0.10280904588E+04  0.46999998093E+01 0.  1.
</event>
<event>
 5   0  0.1125196E-06  0.1893584E+04  0.7818609E-02  0.8658057E-01
        1   -1    0    0  501    0  0.00000000000E+00  0.00000000000E+00  0.89711226401E+03  0.89711226402E+03  0.50400001928E-02 0.  1.
       -1   -1    0    0    0  501  0.00000000000E+00  0.00000000000E+00 -0.99922259889E+03  0.99922259890E+03  0.50400001928E-02 0. -1.
    10030    2    1    2    0    0  0.00000000000E+00  0.00000000000E+00 -0.10211033489E+03  0.18963348629E+04  0.18935837430E+04 0.  0.
        4    1    3    3  502    0 -0.25117556629E+03  0.61192048678E+03 -0.72944423680E+03  0.98469607227E+03  0.12699999809E+01 0. -1.
       -4    1    3    3    0  502  0.25117556629E+03 -0.61192048678E+03  0.62733390191E+03  0.91163879066E+03  0.12699999809E+01 0.  1.
</event>
<event>
 5   0  0.1102175E-06  0.3563591E+04  0.7818609E-02  0.8098883E-01
        1   -1    0    0  501    0  0.00000000000E+00  0.00000000000E+00  0.13473552604E+04  0.13473552604E+04  0.50400001928E-02 0. -1.
       -1   -1    0    0    0  501  0.00000000000E+00  0.00000000000E+00 -0.23563166164E+04  0.23563166164E+04  0.50400001928E-02 0.  1.
    10030    2    1    2    0    0  0.00000000000E+00  0.00000000000E+00 -0.10089613560E+04  0.37036718768E+04  0.35635912158E+04 0.  0.
        5    1    3    3  502    0  0.11856781356E+03  0.72002736414E+03 -0.21938853658E+04  0.23120667854E+04  0.46999998093E+01 0.  1.
       -5    1    3    3    0  502 -0.11856781356E+03 -0.72002736414E+03  0.11849240098E+04  0.13916050915E+04  0.46999998093E+01 0. -1.
</event>
<event>
 5   0  0.1089337E-06  0.3519335E+04  0.7818609E-02  0.8109223E-01
       -1   -1    0    0    0  501  0.00000000000E+00  0.00000000000E+00  0.19135677033E+04  0.19135677033E+04  0.50400001928E-02 0.  1.
        1   -1    0    0  501    0  0.00000000000E+00  0.00000000000E+00 -0.16181447123E+04  0.16181447123E+04  0.50400001928E-02 0. -1.
    10030    2    1    2    0    0  0.00000000000E+00  0.00000000000E+00  0.29542299103E+03  0.35317124156E+04  0.35193348581E+04 0.  0.
        2    1    3    3  502    0 -0.32672354164E+03  0.64294873813E+03  0.17584416839E+04  0.19005916206E+04  0.25500000920E-02 0.  1.
       -2    1    3    3    0  502  0.32672354164E+03 -0.64294873813E+03 -0.14630186928E+04  0.16311207951E+04  0.25500000920E-02 0. -1.
</event>
<event>
 5   0  0.3041329E-06  0.3422868E+04  0.7818609E-02  0.8132317E-01
       -2   -1    0    0    0  501  0.00000000000E+00  0.00000000000E+00  0.15045054186E+04  0.15045054186E+04  0.25500000920E-02 0. -1.
        2   -1    0    0  501    0  0.00000000000E+00  0.00000000000E+00 -0.19468231757E+04  0.19468231757E+04  0.25500000920E-02 0.  1.
    10030    2    1    2    0    0  0.00000000000E+00  0.00000000000E+00 -0.44231775717E+03  0.34513285943E+04  0.34228678133E+04 0.  0.
        2    1    3    3  502    0 -0.10725299487E+04  0.56230634392E+03 -0.14405518545E+04  0.18819401056E+04  0.25500000920E-02 0.  1.
       -2    1    3    3    0  502  0.10725299487E+04 -0.56230634392E+03  0.99823409737E+03  0.15693884887E+04  0.25500000920E-02 0. -1.
</event>
<event>
 5   0  0.2565004E-06  0.3434134E+04  0.7818609E-02  0.8129579E-01
        2   -1    0    0  501    0  0.00000000000E+00  0.00000000000E+00  0.25254895505E+04  0.25254895505E+04  0.25500000920E-02 0. -1.
       -2   -1    0    0    0  501  0.00000000000E+00  0.00000000000E+00 -0.11674249553E+04  0.11674249553E+04  0.25500000920E-02 0.  1.
    10030    2    1    2    0    0  0.00000000000E+00  0.00000000000E+00  0.13580645952E+04  0.36929145058E+04  0.34341342581E+04 0.  0.
        3    1    3    3  502    0  0.72394019718E+03 -0.14094012100E+04 -0.32507107550E+02  0.15847895450E+04  0.10100000352E+00 0.  1.
       -3    1    3    3    0  502 -0.72394019718E+03  0.14094012100E+04  0.13905717028E+04  0.21081249608E+04  0.10100000352E+00 0. -1.
</event>
<event>
 5   0  0.3378848E-06  0.3311744E+04  0.7818609E-02  0.8159914E-01
        2   -1    0    0  501    0  0.00000000000E+00  0.00000000000E+00  0.13475435709E+04  0.13475435709E+04  0.25500000920E-02 0. -1.
       -2   -1    0    0    0  501  0.00000000000E+00  0.00000000000E+00 -0.20347479558E+04  0.20347479558E+04  0.25500000920E-02 0.  1.
    10030    2    1    2    0    0  0.00000000000E+00  0.00000000000E+00 -0.68720438484E+03  0.33822915267E+04  0.33117436653E+04 0.  0.
        1    1    3    3  502    0  0.41412196845E+03  0.10738137153E+04  0.87227898344E+03  0.14441064798E+04  0.50400001928E-02 0. -1.
       -1    1    3    3    0  502 -0.41412196845E+03 -0.10738137153E+04 -0.15594833683E+04  0.19381850469E+04  0.50400001928E-02 0.  1.
</event>
<event>
 5   0  0.2565004E-06  0.3493292E+04  0.7818609E-02  0.8115381E-01
       -2   -1    0    0    0  501  0.00000000000E+00  0.00000000000E+00  0.11941442006E+04  0.11941442006E+04  0.25500000920E-02 0.  1.
        2   -1    0    0  501    0  0.00000000000E+00  0.00000000000E+00 -0.25547776292E+04  0.25547776292E+04  0.25500000920E-02 0. -1.
    10030    2    1    2    0    0  0.00000000000E+00  0.00000000000E+00 -0.13606334286E+04  0.37489218298E+04  0.34932923666E+04 0.  0.
        3    1    3    3  502    0 -0.56056480826E+03 -0.93349817977E+03  0.78531539278E+03  0.13425244997E+04  0.10100000352E+00 0.  1.
       -3    1    3    3    0  502  0.56056480826E+03  0.93349817977E+03 -0.21459488214E+04  0.24063973301E+04  0.10100000352E+00 0. -1.
</event>
<event>
 5   0  0.1908726E-06  0.2174192E+04  0.7818609E-02  0.8529247E-01
       -2   -1    0    0    0  501  0.00000000000E+00  0.00000000000E+00  0.61717551246E+03  0.61717551247E+03  0.25500000920E-02 0. -1.
        2   -1    0    0  501    0  0.00000000000E+00  0.00000000000E+00 -0.19148162943E+04  0.19148162943E+04  0.25500000920E-02 0.  1.
    10030    2    1    2    0    0  0.00000000000E+00  0.00000000000E+00 -0.12976407819E+04  0.25319918068E+04  0.21741920133E+04 0.  0.
        5    1    3    3  502    0 -0.90774312685E+03  0.23919891331E+03 -0.12872557586E+04  0.15931927638E+04  0.46999998093E+01 0.  1.
       -5    1    3    3    0  502  0.90774312685E+03 -0.23919891331E+03 -0.10385023261E+02  0.93879904302E+03  0.46999998093E+01 0. -1.
</event>
<event>
 5   0  0.1110956E-06  0.2678179E+04  0.7818609E-02  0.8342120E-01
        1   -1    0    0  501    0  0.00000000000E+00  0.00000000000E+00  0.16144914361E+04  0.16144914361E+04  0.50400001928E-02 0.  1.
       -1   -1    0    0    0  501  0.00000000000E+00  0.00000000000E+00 -0.11106658929E+04  0.11106658929E+04  0.50400001928E-02 0. -1.
    10030    2    1    2    0    0  0.00000000000E+00  0.00000000000E+00  0.50382554322E+03  0.27251573290E+04  0.26781789130E+04 0.  0.
        1    1    3    3  502    0 -0.64620708204E+03 -0.67904002472E+03 -0.72114692642E+03  0.11826799388E+04  0.50400001928E-02 0. -1.
       -1    1    3    3    0  502  0.64620708204E+03  0.67904002472E+03  0.12249724696E+04  0.15424773903E+04  0.50400001928E-02 0.  1.
</event>
<event>
 5   0  0.1125196E-06  0.3264902E+04  0.7818609E-02  0.8171884E-01
        1   -1    0    0  501    0  0.00000000000E+00  0.00000000000E+00  0.21360334415E+04  0.21360334415E+04  0.50400001928E-02 0. -1.
       -1   -1    0    0    0  501  0.00000000000E+00  0.00000000000E+00 -0.12475911675E+04  0.12475911676E+04  0.50400001928E-02 0.  1.
    10030    2    1    2    0    0  0.00000000000E+00  0.00000000000E+00  0.88844227390E+03  0.33836246090E+04  0.32649021150E+04 0.  0.
        4    1    3    3  502    0  0.10326627898E+04  0.68943873619E+03 -0.65411693949E+03  0.14034203902E+04  0.12699999809E+01 0.  1.
       -4    1    3    3    0  502 -0.10326627898E+04 -0.68943873619E+03  0.15425592134E+04  0.19802042188E+04  0.12699999809E+01 0. -1.
</event>
<event>
 5   0  0.1144990E-06  0.1931101E+04  0.7818609E-02  0.8639528E-01
       -1   -1    0    0    0  501  0.00000000000E+00  0.00000000000E+00  0.10782657964E+04  0.10782657965E+04  0.50400001928E-02 0. -1.
        1   -1    0    0  501    0  0.00000000000E+00  0.00000000000E+00 -0.86461785590E+03  0.86461785592E+03  0.50400001928E-02 0.  1.
    10030    2    1    2    0    0  0.00000000000E+00  0.00000000000E+00  0.21364794054E+03  0.19428836524E+04  0.19311010963E+04 0.  0.
        1    1    3    3  502    0  0.21860821501E+03 -0.11380505443E+03  0.10460867651E+04  0.10747272501E+04  0.50400001928E-02 0. -1.
       -1    1    3    3    0  502 -0.21860821501E+03  0.11380505443E+03 -0.83243882455E+03  0.86815640223E+03  0.50400001928E-02 0.  1.
</event>
<event>
 5   0  0.3041329E-06  0.3510020E+04  0.7818609E-02  0.8111419E-01
        2   -1    0    0  501    0  0.00000000000E+00  0.00000000000E+00  0.18692639152E+04  0.18692639152E+04  0.25500000920E-02 0.  1.
       -2   -1    0    0    0  501  0.00000000000E+00  0.00000000000E+00 -0.16477397091E+04  0.16477397091E+04  0.25500000920E-02 0. -1.
    10030    2    1    2    0    0  0.00000000000E+00  0.00000000000E+00  0.22152420613E+03  0.35170036244E+04  0.35100201595E+04 0.  0.
        2    1    3    3  502    0  0.10396877019E+04  0.94806018426E+03  0.11617969937E+04  0.18247029580E+04  0.25500000920E-02 0.  1.
       -2    1    3    3    0  502 -0.10396877019E+04 -0.94806018426E+03 -0.94027278754E+03  0.16923006664E+04  0.25500000920E-02 0. -1.
</event>
<event>
 5   0  0.3378848E-06  0.3550805E+04  0.7818609E-02  0.8101854E-01
        2   -1    0    0  501    0  0.00000000000E+00  0.00000000000E+00  0.26057090448E+04  0.26057090448E+04  0.25500000920E-02 0. -1.
       -2   -1    0    0    0  501  0.00000000000E+00  0.00000000000E+00 -0.12096723881E+04  0.12096723881E+04  0.25500000920E-02 0.  1.
    10030    2    1    2    0    0  0.00000000000E+00  0.00000000000E+00  0.13960366567E+04  0.38153814329E+04  0.35508051385E+04 0.  0.
        1    1    3    3  502    0  0.15788447640E+03 -0.14200419285E+04  0.18303964284E+04  0.23220244769E+04  0.50400001928E-02 0. -1.
       -1    1    3    3    0  502 -0.15788447640E+03  0.14200419285E+04 -0.43435977165E+03  0.14933569559E+04  0.50400001928E-02 0.  1.
</event>
<event>
 5   0  0.2565004E-06  0.3460930E+04  0.7818609E-02  0.8123112E-01
       -2   -1    0    0    0  501  0.00000000000E+00  0.00000000000E+00  0.14783808839E+04  0.14783808839E+04  0.25500000920E-02 0.  1.
        2   -1    0    0  501    0  0.00000000000E+00  0.00000000000E+00 -0.20255332156E+04  0.20255332156E+04  0.25500000920E-02 0. -1.
    10030    2    1    2    0    0  0.00000000000E+00  0.00000000000E+00 -0.54715233166E+03  0.35039140995E+04  0.34609302713E+04 0.  0.
        3    1    3    3  502    0  0.12189079282E+04 -0.11840403152E+04  0.57318738718E+02  0.17002862858E+04  0.10100000352E+00 0.  1.
       -3    1    3    3    0  502 -0.12189079282E+04  0.11840403152E+04 -0.60447107037E+03  0.18036278138E+04  0.10100000352E+00 0. -1.
</event>
<event>
 5   0  0.1908726E-06  0.1779711E+04  0.7818609E-02  0.8717164E-01
       -2   -1    0    0    0  501  0.00000000000E+00  0.00000000000E+00  0.46614520713E+03  0.46614520714E+03  0.25500000920E-02 0. -1.
        2   -1    0    0  501    0  0.00000000000E+00  0.00000000000E+00 -0.16987044279E+04  0.16987044279E+04  0.25500000920E-02 0.  1.
    10030    2    1    2    0    0  0.00000000000E+00  0.00000000000E+00 -0.12325592208E+04  0.21648496350E+04  0.17797111309E+04 0.  0.
        5    1    3    3  502    0 -0.56976567772E+03  0.28405588395E+03 -0.13725081471E+04  0.15129842619E+04  0.46999998093E+01 0.  1.
       -5    1    3    3    0  502  0.56976567772E+03 -0.28405588395E+03  0.13994892638E+03  0.65186537315E+03  0.46999998093E+01 0. -1.
</event>
<event>
 5   0  0.1782660E-06  0.3065303E+04  0.7818609E-02  0.8225325E-01
        2   -1    0    0  501    0  0.00000000000E+00  0.00000000000E+00  0.20736773779E+04  0.20736773779E+04  0.25500000920E-02 0. -1.
       -2   -1    0    0    0  501  0.00000000000E+00  0.00000000000E+00 -0.11327800260E+04  0.11327800261E+04  0.25500000920E-02 0.  1.
    10030    2    1    2    0    0  0.00000000000E+00  0.00000000000E+00  0.94089735182E+03  0.32064574039E+04  0.30653028001E+04 0.  0.
        4    1    3    3  502    0  0.62529035569E+03  0.40328889686E+03 -0.93117473025E+03  0.11919387377E+04  0.12699999809E+01 0.  1.
       -4    1    3    3    0  502 -0.62529035569E+03 -0.40328889686E+03  0.18720720821E+04  0.20145186662E+04  0.12699999809E+01 0. -1.
</event>
<event>
 5   0  0.3378848E-06  0.1948103E+04  0.7818609E-02  0.8631276E-01
        2   -1    0    0  501    0  0.00000000000E+00  0.00000000000E+00  0.16046009139E+04  0.16046009139E+04  0.25500000920E-02 0.  1.
       -2   -1    0    0    0  501  0.00000000000E+00  0.00000000000E+00 -0.59128516462E+03  0.59128516462E+03  0.25500000920E-02 0. -1.
    10030    2    1    2    0    0  0.00000000000E+00  0.00000000000E+00  0.10133157493E+04  0.21958860785E+04  0.19481034013E+04 0.  0.
        1    1    3    3  502    0 -0.23095374482E+03 -0.76684053586E+03 -0.11829109806E+03  0.80955347173E+03  0.50400001928E-02 0.  1.
       -1    1    3    3    0  502  0.23095374482E+03  0.76684053586E+03  0.11316068473E+04  0.13863326068E+04  0.50400001928E-02 0. -1.
</event>
<event>
 5   0  0.2565004E-06  0.3319770E+04  0.7818609E-02  0.8157883E-01
       -2   -1    0    0    0  501  0.00000000000E+00  0.00000000000E+00  0.13492307705E+04  0.13492307705E+04  0.25500000920E-02 0. -1.
        2   -1    0    0  501    0  0.00000000000E+00  0.00000000000E+00 -0.20420654235E+04  0.20420654235E+04  0.25500000920E-02 0.  1.
    10030    2    1    2    0    0  0.00000000000E+00  0.00000000000E+00 -0.69283465301E+03  0.33912961940E+04  0.33197695732E+04 0.  0.
        3    1    3    3  502    0 -0.11748064438E+04  0.90948960877E+03 -0.11025515704E+04  0.18501247267E+04  0.10100000352E+00 0.  1.
       -3    1    3    3    0  502  0.11748064438E+04 -0.90948960877E+03  0.40971691736E+03  0.15411714673E+04  0.10100000352E+00 0. -1.
</event>
<event>
 5   0  0.1130707E-06  0.3373413E+04  0.7818609E-02  0.8144463E-01
        1   -1    0    0  501    0  0.00000000000E+00  0.00000000000E+00  0.24597772680E+04  0.24597772680E+04  0.50400001928E-02 0. -1.
       -1   -1    0    0    0  501  0.00000000000E+00  0.00000000000E+00 -0.11566003136E+04  0.11566003136E+04  0.50400001928E-02 0.  1.
    10030    2    1    2    0    0  0.00000000000E+00  0.00000000000E+00  0.13031769544E+04  0.36163775817E+04  0.33734132031E+04 0.  0.
        3    1    3    3  502    0 -0.85477105914E+03  0.14378028974E+04  0.41901027407E+03  0.17243782518E+04  0.10100000352E+00 0. -1.
       -3    1    3    3    0  502  0.85477105914E+03 -0.14378028974E+04  0.88416668032E+03  0.18919993298E+04  0.10100000352E+00 0.  1.
</event>
<event>
 5   0  0.3378848E-06  0.3483939E+04  0.7818609E-02  0.8117607E-01
        2   -1    0    0  501    0  0.00000000000E+00  0.00000000000E+00  0.20748134162E+04  0.20748134162E+04  0.25500000920E-02 0.  1.
       -2   -1    0    0    0  501  0.00000000000E+00  0.00000000000E+00 -0.14625204890E+04  0.14625204890E+04  0.25500000920E-02 0. -1.
    10030    2    1    2    0    0  0.00000000000E+00  0.00000000000E+00  0.61229292728E+03  0.35373339052E+04  0.34839386516E+04 0.  0.
        1    1    3    3  502    0  0.13643512027E+04  0.49531657178E+03  0.12840612393E+04  0.19379385896E+04  0.50400001928E-02 0.  1.
       -1    1    3    3    0  502 -0.13643512027E+04 -0.49531657178E+03 -0.67176831207E+03  0.15993953156E+04  0.50400001928E-02 0. -1.
</event>
<event>
 5   0  0.2565004E-06  0.3273568E+04  0.7818609E-02  0.8169654E-01
        2   -1    0    0  501    0  0.00000000000E+00  0.00000000000E+00  0.26167890343E+04  0.26167890343E+04  0.25500000920E-02 0. -1.
       -2   -1    0    0    0  501  0.00000000000E+00  0.00000000000E+00 -0.10237976038E+04  0.10237976038E+04  0.25500000920E-02 0.  1.
    10030    2    1    2    0    0  0.00000000000E+00  0.00000000000E+00  0.15929914305E+04  0.36405866380E+04  0.32735682934E+04 0.  0.
        3    1    3    3  502    0 -0.11240967408E+04  0.11886912461E+04  0.85190063704E+03  0.18445365453E+04  0.10100000352E+00 0. -1.
       -3    1    3    3    0  502  0.11240967408E+04 -0.11886912461E+04  0.74109079344E+03  0.17960500928E+04  0.10100000352E+00 0.  1.
</event>
<event>
 5   0  0.1102175E-06  0.3663465E+04  0.7818609E-02  0.8076107E-01
        1   -1    0    0  501    0  0.00000000000E+00  0.00000000000E+00  0.20596563546E+04  0.20596563546E+04  0.50400001928E-02 0. -1.
       -1   -1    0    0    0  501  0.00000000000E+00  0.00000000000E+00 -0.16290305753E+04  0.16290305753E+04  0.50400001928E-02 0.  1.
    10030    2    1    2    0    0  0.00000000000E+00  0.00000000000E+00  0.43062577925E+03  0.36886869299E+04  0.36634645767E+04 0.  0.
        5    1    3    3  502    0 -0.12365432184E+04 -0.11331160477E+03 -0.11405622966E+04  0.16860554834E+04  0.46999998093E+01 0.  1.
       -5    1    3    3    0  502  0.12365432184E+04  0.11331160477E+03  0.15711880759E+04  0.20026314465E+04  0.46999998093E+01 0. -1.
</event>
<event>
 5   0  0.1110956E-06  0.3507969E+04  0.7818609E-02  0.8111904E-01
        1   -1    0    0  501    0  0.00000000000E+00  0.00000000000E+00  0.24734251629E+04  0.24734251629E+04  0.50400001928E-02 0.  1.
       -1   -1    0    0    0  501  0.00000000000E+00  0.00000000000E+00 -0.12438062720E+04  0.12438062720E+04  0.50400001928E-02 0. -1.
    10030    2    1    2    0    0  0.00000000000E+00  0.00000000000E+00  0.12296188909E+04  0.37172314349E+04  0.35079690597E+04 0.  0.
        1    1    3    3  502    0  0.75111646939E+03  0.99347721969E+03  0.19235087955E+04  0.22915189336E+04  0.50400001928E-02 0.  1.
       -1    1    3    3    0  502 -0.75111646939E+03 -0.99347721969E+03 -0.69388990460E+03  0.14257125013E+04  0.50400001928E-02 0. -1.
</event>
<event>
 5   0  0.1130707E-06  0.2123181E+04  0.7818609E-02  0.8551100E-01
        1   -1    0    0  501    0  0.00000000000E+00  0.00000000000E+00  0.15477334508E+04  0.15477334508E+04  0.50400001928E-02 0. -1.
       -1   -1    0    0    0  501  0.00000000000E+00  0.00000000000E+00 -0.72814487764E+03  0.72814487765E+03  0.50400001928E-02 0.  1.
    10030    2    1    2    0    0  0.00000000000E+00  0.00000000000E+00  0.81958857313E+03  0.22758783284E+04  0.21231808064E+04 0.  0.
        3    1    3    3  502    0  0.85359532712E+03  0.48858276390E+03  0.83807407601E+03  0.12921711445E+04  0.10100000352E+00 0. -1.
       -3    1    3    3    0  502 -0.85359532712E+03 -0.48858276390E+03 -0.18485502878E+02  0.98370718391E+03  0.10100000352E+00 0.  1.
</event>
<event>
 5   0  0.1102175E-06  0.3355930E+04  0.7818609E-02  0.8148808E-01
       -1   -1    0    0    0  501  0.00000000000E+00  0.00000000000E+00  0.16641699188E+04  0.16641699188E+04  0.50400001928E-02 0.  1.
        1   -1    0    0  501    0  0.00000000000E+00  0.00000000000E+00 -0.16918740421E+04  0.16918740421E+04  0.50400001928E-02 0. -1.
    10030    2    1    2    0    0  0.00000000000E+00  0.00000000000E+00 -0.27704123243E+02  0.33560439609E+04  0.33559296103E+04 0.  0.
        5    1    3    3  502    0  0.19862616734E+03  0.15102890832E+03  0.16455060512E+04  0.16643239890E+04  0.46999998093E+01 0.  1.
       -5    1    3    3    0  502 -0.19862616734E+03 -0.15102890832E+03 -0.16732101745E+04  0.16917199720E+04  0.46999998093E+01 0. -1.
</event>
<event>
 5   0  0.1908726E-06  0.3725046E+04  0.7818609E-02  0.8062434E-01
        2   -1    0    0  501    0  0.00000000000E+00  0.00000000000E+00  0.14952297536E+04  0.14952297536E+04  0.25500000920E-02 0.  1.
       -2   -1    0    0    0  501  0.00000000000E+00  0.00000000000E+00 -0.23200394575E+04  0.23200394575E+04  0.25500000920E-02 0. -1.
    10030    2    1    2    0    0  0.00000000000E+00  0.00000000000E+00 -0.82480970397E+03  0.38152692111E+04  0.37250460541E+04 0.  0.
        5    1    3    3  502    0  0.59365708964E+03  0.28718249439E+03 -0.21964512882E+04  0.22933213636E+04  0.46999998093E+01 0. -1.
       -5    1    3    3    0  502 -0.59365708964E+03 -0.28718249439E+03  0.13716415842E+04  0.15219478476E+04  0.46999998093E+01 0.  1.
</event>
<event>
 5   0  0.1042825E-06  0.3490866E+04  0.7818609E-02  0.8115958E-01
       -4   -1    0    0    0  501  0.00000000000E+00  0.00000000000E+00  0.13694870886E+04  0.13694876774E+04  0.12699999809E+01 0.  1.
        4   -1    0    0  501    0  0.00000000000E+00  0.00000000000E+00 -0.22245801491E+04  0.22245805116E+04  0.12699999809E+01 0. -1.
    10030    2    1    2    0    0  0.00000000000E+00  0.00000000000E+00 -0.85509306051E+03  0.35940681890E+04  0.34908655095E+04 0.  0.
        4    1    3    3  502    0 -0.13807085928E+04 -0.55343150849E+02 -0.15254277405E+04  0.20582396573E+04  0.12699999809E+01 0. -1.
       -4    1    3    3    0  502  0.13807085928E+04  0.55343150849E+02  0.67033468001E+03  0.15358285317E+04  0.12699999809E+01 0.  1.
</event>
<event>
 5   0  0.3378848E-06  0.3572130E+04  0.7818609E-02  0.8096906E-01
       -2   -1    0    0    0  501  0.00000000000E+00  0.00000000000E+00  0.11283548804E+04  0.11283548804E+04  0.25500000920E-02 0. -1.
        2   -1    0    0  501    0  0.00000000000E+00  0.00000000000E+00 -0.28271490859E+04  0.28271490859E+04  0.25500000920E-02 0.  1.
    10030    2    1    2    0    0  0.00000000000E+00  0.00000000000E+00 -0.16987942055E+04  0.39555039663E+04  0.35721295994E+04 0.  0.
        1    1    3    3  502    0 -0.21813243878E+03 -0.13418405976E+04 -0.21321300034E+04  0.25286550381E+04  0.50400001928E-02 0.  1.
       -1    1    3    3    0  502  0.21813243878E+03  0.13418405976E+04  0.43333579796E+03  0.14268489282E+04  0.50400001928E-02 0. -1.
</event>
<event>
 5   0  0.3378848E-06  0.4204267E+04  0.7818609E-02  0.7964561E-01
        2   -1    0    0  501    0  0.00000000000E+00  0.00000000000E+00  0.20745038062E+04  0.20745038062E+04  0.25500000920E-02 0.  1.
       -2   -1    0    0    0  501  0.00000000000E+00  0.00000000000E+00 -0.21301312766E+04  0.21301312766E+04  0.25500000920E-02 0. -1.
    10030    2    1    2    0    0  0.00000000000E+00  0.00000000000E+00 -0.55627470362E+02  0.42046350828E+04  0.42042670900E+04 0.  0.
        1    1    3    3  502    0 -0.48624226356E+03  0.19952045369E+04 -0.47695521317E+03  0.21082596990E+04  0.50400001928E-02 0.  1.
       -1    1    3    3    0  502  0.48624226356E+03 -0.19952045369E+04  0.42132774281E+03  0.20963753838E+04  0.50400001928E-02 0. -1.
</event>
<event>
 5   0  0.1782660E-06  0.3566021E+04  0.7818609E-02  0.8098320E-01
        2   -1    0    0  501    0  0.00000000000E+00  0.00000000000E+00  0.18942334664E+04  0.18942334664E+04  0.25500000920E-02 0. -1.
       -2   -1    0    0    0  501  0.00000000000E+00  0.00000000000E+00 -0.16783184501E+04  0.16783184501E+04  0.25500000920E-02 0.  1.
    10030    2    1    2    0    0  0.00000000000E+00  0.00000000000E+00  0.21591501628E+03  0.35725519165E+04  0.35660212986E+04 0.  0.
        4    1    3    3  502    0 -0.44519252317E+01  0.14183419117E+04  0.11904045272E+04  0.18516960197E+04  0.12699999809E+01 0. -1.
       -4    1    3    3    0  502  0.44519252317E+01 -0.14183419117E+04 -0.97448951089E+03  0.17208558969E+04  0.12699999809E+01 0.  1.
</event>
<event>
 5   0  0.1472735E-06  0.1820283E+04  0.7818609E-02  0.8695587E-01
       -1   -1    0    0    0  501  0.00000000000E+00  0.00000000000E+00  0.67267149083E+03  0.67267149085E+03  0.50400001928E-02 0. -1.
        1   -1    0    0  501    0  0.00000000000E+00  0.00000000000E+00 -0.12314444197E+04  0.12314444197E+04  0.50400001928E-02 0.  1.
    10030    2    1    2    0    0  0.00000000000E+00  0.00000000000E+00 -0.55877292884E+03  0.19041159105E+04  0.18202830040E+04 0.  0.
        2    1    3    3  502    0  0.37871360108E+03  0.36698871648E+03  0.49656689160E+03  0.72435032099E+03  0.25500000920E-02 0. -1.
       -2    1    3    3    0  502 -0.37871360108E+03 -0.36698871648E+03 -0.10553398204E+04  0.11797655896E+04  0.25500000920E-02 0.  1.
</event>
<event>
 5   0  0.3041329E-06  0.3238605E+04  0.7818609E-02  0.8178695E-01
        2   -1    0    0  501    0  0.00000000000E+00  0.00000000000E+00  0.20391681561E+04  0.20391681561E+04  0.25500000920E-02 0. -1.
       -2   -1    0    0    0  501  0.00000000000E+00  0.00000000000E+00 -0.12858872621E+04  0.12858872621E+04  0.25500000920E-02 0.  1.
    10030    2    1    2    0    0  0.00000000000E+00  0.00000000000E+00  0.75328089409E+03  0.33250554182E+04  0.32386048584E+04 0.  0.
        2    1    3    3  502    0  0.11143139794E+04 -0.46363446068E+03  0.14850360411E+04  0.19136312605E+04  0.25500000920E-02 0. -1.
       -2    1    3    3    0  502 -0.11143139794E+04  0.46363446068E+03 -0.73175514701E+03  0.14114241577E+04  0.25500000920E-02 0.  1.
</event>
<event>
 5   0  0.3378848E-06  0.3468718E+04  0.7818609E-02  0.8121244E-01
        2   -1    0    0  501    0  0.00000000000E+00  0.00000000000E+00  0.11926749848E+04  0.11926749848E+04  0.25500000920E-02 0.  1.
       -2   -1    0    0    0  501  0.00000000000E+00  0.00000000000E+00 -0.25220633118E+04  0.25220633118E+04  0.25500000920E-02 0. -1.
    10030    2    1    2    0    0  0.00000000000E+00  0.00000000000E+00 -0.13293883270E+04  0.37147382966E+04  0.34687183928E+04 0.  0.
        1    1    3    3  502    0 -0.57861806554E+03 -0.15701668738E+04 -0.17653668388E+03  0.16826728970E+04  0.50400001928E-02 0.  1.
       -1    1    3    3    0  502  0.57861806554E+03  0.15701668738E+04 -0.11528516431E+04  0.20320653997E+04  0.50400001928E-02 0. -1.
</event>
<event>
 5   0  0.1089337E-06  0.3486724E+04  0.7818609E-02  0.8116943E-01
        1   -1    0    0  501    0  0.00000000000E+00  0.00000000000E+00  0.29123853535E+04  0.29123853535E+04  0.50400001928E-02 0.  1.
       -1   -1    0    0    0  501  0.00000000000E+00  0.00000000000E+00 -0.10435813729E+04  0.10435813730E+04  0.50400001928E-02 0. -1.
    10030    2    1    2    0    0  0.00000000000E+00  0.00000000000E+00  0.18688039806E+04  0.39559667265E+04  0.34867240245E+04 0.  0.
        2    1    3    3  502    0 -0.62330480354E+03  0.16278175600E+04  0.97049909267E+03  0.19950356828E+04  0.25500000920E-02 0.  1.
       -2    1    3    3    0  502  0.62330480354E+03 -0.16278175600E+04  0.89830488791E+03  0.19609310437E+04  0.25500000920E-02 0. -1.
</event>
<event>
 5   0  0.1782660E-06  0.1858382E+04  0.7818609E-02  0.8675854E-01
       -2   -1    0    0    0  501  0.00000000000E+00  0.00000000000E+00  0.60848830329E+03  0.60848830329E+03  0.25500000920E-02 0.  1.
        2   -1    0    0  501    0  0.00000000000E+00  0.00000000000E+00 -0.14189193184E+04  0.14189193184E+04  0.25500000920E-02 0. -1.
    10030    2    1    2    0    0  0.00000000000E+00  0.00000000000E+00 -0.81043101508E+03  0.20274076217E+04  0.18583818860E+04 0.  0.
        4    1    3    3  502    0 -0.67450562699E+02 -0.87586128923E+03 -0.74832051535E+02  0.88163712786E+03  0.12699999809E+01 0. -1.
       -4    1    3    3    0  502  0.67450562699E+02  0.87586128923E+03 -0.73559896354E+03  0.11457704938E+04  0.12699999809E+01 0.  1.
</event>
<event>
 5   0  0.1130707E-06  0.3494683E+04  0.7818609E-02  0.8115051E-01
        1   -1    0    0  501    0  0.00000000000E+00  0.00000000000E+00  0.15578729994E+04  0.15578729994E+04  0.50400001928E-02 0. -1.
       -1   -1    0    0    0  501  0.00000000000E+00  0.00000000000E+00 -0.19598531780E+04  0.19598531780E+04  0.50400001928E-02 0.  1.
    10030    2    1    2    0    0  0.00000000000E+00  0.00000000000E+00 -0.40198017868E+03  0.35177261774E+04  0.34946830178E+04 0.  0.
        3    1    3    3  502    0  0.39877608585E+02  0.11092593579E+04  0.11574102792E+04  0.16036349682E+04  0.10100000352E+00 0. -1.
       -3    1    3    3    0  502 -0.39877608585E+02 -0.11092593579E+04 -0.15593904578E+04  0.19140912092E+04  0.10100000352E+00 0.  1.
</event>
<event>
 5   0  0.1102175E-06  0.3561204E+04  0.7818609E-02  0.8099437E-01
        1   -1    0    0  501    0  0.00000000000E+00  0.00000000000E+00  0.20038801426E+04  0.20038801426E+04  0.50400001928E-02 0.  1.
       -1   -1    0    0    0  501  0.00000000000E+00  0.00000000000E+00 -0.15822024004E+04  0.15822024004E+04  0.50400001928E-02 0. -1.
    10030    2    1    2    0    0  0.00000000000E+00  0.00000000000E+00  0.42167774220E+03  0.35860825431E+04  0.35612042749E+04 0.  0.
        5    1    3    3  502    0  0.93936612194E+01  0.23463898859E+03  0.19882127081E+04  0.20020378514E+04  0.46999998093E+01 0.  1.
       -5    1    3    3    0  502 -0.93936612194E+01 -0.23463898859E+03 -0.15665349659E+04  0.15840446917E+04  0.46999998093E+01 0. -1.
</event>
<event>
 5   0  0.2565004E-06  0.3540731E+04  0.7818609E-02  0.8104205E-01
        2   -1    0    0  501    0  0.00000000000E+00  0.00000000000E+00  0.29299659143E+04  0.29299659143E+04  0.25500000920E-02 0. -1.
       -2   -1    0    0    0  501  0.00000000000E+00  0.00000000000E+00 -0.10697030175E+04  0.10697030175E+04  0.25500000920E-02 0.  1.
    10030    2    1    2    0    0  0.00000000000E+00  0.00000000000E+00  0.18602628968E+04  0.39996689318E+04  0.35407306476E+04 0.  0.
        3    1    3    3  502    0  0.68057651870E+02  0.20664932377E+03 -0.10545437884E+04  0.10767536389E+04  0.10100000352E+00 0.  1.
       -3    1    3    3    0  502 -0.68057651870E+02 -0.20664932377E+03  0.29148066852E+04  0.29229152929E+04  0.10100000352E+00 0. -1.
</event>
<event>
 5   0  0.3041329E-06  0.3416488E+04  0.7818609E-02  0.8133872E-01
        2   -1    0    0  501    0  0.00000000000E+00  0.00000000000E+00  0.17273599801E+04  0.17273599801E+04  0.25500000920E-02 0. -1.
       -2   -1    0    0    0  501  0.00000000000E+00  0.00000000000E+00 -0.16893391767E+04  0.16893391767E+04  0.25500000920E-02 0.  1.
    10030    2    1    2    0    0  0.00000000000E+00  0.00000000000E+00  0.38020803383E+02  0.34166991567E+04  0.34164876037E+04 0.  0.
        2    1    3    3  502    0 -0.18964053925E+03  0.16901694700E+04 -0.14056299260E+03  0.17065738561E+04  0.25500000920E-02 0.  1.
       -2    1    3    3    0  502  0.18964053925E+03 -0.16901694700E+04  0.17858379598E+03  0.17101253006E+04  0.25500000920E-02 0. -1.
</event>
<event>
 5   0  0.1102175E-06  0.3145727E+04  0.7818609E-02  0.8203299E-01
       -1   -1    0    0    0  501  0.00000000000E+00  0.00000000000E+00  0.10399708971E+04  0.10399708971E+04  0.50400001928E-02 0. -1.
        1   -1    0    0  501    0  0.00000000000E+00  0.00000000000E+00 -0.23788157299E+04  0.23788157299E+04  0.50400001928E-02 0.  1.
    10030    2    1    2    0    0  0.00000000000E+00  0.00000000000E+00 -0.13388448328E+04  0.34187866270E+04  0.31457267069E+04 0.  0.
        5    1    3    3  502    0  0.13784238292E+04 -0.64964324124E+03 -0.10928414366E+04  0.18752101453E+04  0.46999998093E+01 0.  1.
       -5    1    3    3    0  502 -0.13784238292E+04  0.64964324124E+03 -0.24600339619E+03  0.15435764816E+04  0.46999998093E+01 0. -1.
</event>
<event>
 5   0  0.3378848E-06  0.3533569E+04  0.7818609E-02  0.8105880E-01
        2   -1    0    0  501    0  0.00000000000E+00  0.00000000000E+00  0.15217217187E+04  0.15217217187E+04  0.25500000920E-02 0.  1.
       -2   -1    0    0    0  501  0.00000000000E+00  0.00000000000E+00 -0.20513126944E+04  0.20513126944E+04  0.25500000920E-02 0. -1.
    10030    2    1    2    0    0  0.00000000000E+00  0.00000000000E+00 -0.52959097562E+03  0.35730344131E+04  0.35335687790E+04 0.  0.
        1    1    3    3  502    0 -0.29713523899E+03  0.97278036612E+02 -0.20231173072E+04  0.20471336071E+04  0.50400001928E-02 0. -1.
       -1    1    3    3    0  502  0.29713523899E+03 -0.97278036612E+02  0.14935263316E+04  0.15259008060E+04  0.50400001928E-02 0.  1.
</event>
<event>
 5   0  0.2565004E-06  0.3423192E+04  0.7818609E-02  0.8132238E-01
       -2   -1    0    0    0  501  0.00000000000E+00  0.00000000000E+00  0.24333067494E+04  0.24333067494E+04  0.25500000920E-02 0. -1.
        2   -1    0    0  501    0  0.00000000000E+00  0.00000000000E+00 -0.12039422098E+04  0.12039422098E+04  0.25500000920E-02 0.  1.
    10030    2    1    2    0    0  0.00000000000E+00  0.00000000000E+00  0.12293645396E+04  0.36372489592E+04  0.34231919052E+04 0.  0.
        3    1    3    3  502    0  0.15126675926E+03 -0.11419473961E+04 -0.73043181839E+03  0.13639853883E+04  0.10100000352E+00 0.  1.
       -3    1    3    3    0  502 -0.15126675926E+03  0.11419473961E+04  0.19597963580E+04  0.22732635709E+04  0.10100000352E+00 0. -1.
</event>
<event>
 5   0  0.1102175E-06  0.2171577E+04  0.7818609E-02  0.8530352E-01
       -1   -1    0    0    0  501  0.00000000000E+00  0.00000000000E+00  0.13836503112E+04  0.13836503112E+04  0.50400001928E-02 0.  1.
        1   -1    0    0  501    0  0.00000000000E+00  0.00000000000E+00 -0.85204802234E+03  0.85204802235E+03  0.50400001928E-02 0. -1.
    10030    2    1    2    0    0  0.00000000000E+00  0.00000000000E+00  0.53160228887E+03  0.22356983336E+04  0.21715768568E+04 0.  0.
        5    1    3    3  502    0 -0.78015942585E+03  0.34849930120E+03  0.95551851164E+03  0.12818495266E+04  0.46999998093E+01 0.  1.
       -5    1    3    3    0  502  0.78015942585E+03 -0.34849930120E+03 -0.42391622277E+03  0.95384880700E+03  0.46999998093E+01 0. -1.
</event>
<event>
 5   0  0.3041329E-06  0.3436701E+04  0.7818609E-02  0.8128957E-01
       -2   -1    0    0    0  501  0.00000000000E+00  0.00000000000E+00  0.10640512736E+04  0.10640512736E+04  0.25500000920E-02 0.  1.
        2   -1    0    0  501    0  0.00000000000E+00  0.00000000000E+00 -0.27749871241E+04  0.27749871241E+04  0.25500000920E-02 0. -1.
    10030    2    1    2    0    0  0.00000000000E+00  0.00000000000E+00 -0.17109358505E+04  0.38390383978E+04  0.34367010832E+04 0.  0.
        2    1    3    3  502    0  0.96604315731E+03 -0.11312947800E+02 -0.24428727718E+04  0.26269744467E+04  0.25500000920E-02 0. -1.
       -2    1    3    3    0  502 -0.96604315731E+03  0.11312947800E+02  0.73193692133E+03  0.12120639510E+04  0.25500000920E-02 0.  1.
</event>
<event>
 5   0  0.3378848E-06  0.3552128E+04  0.7818609E-02  0.8101546E-01
       -2   -1    0    0    0  501  0.00000000000E+00  0.00000000000E+00  0.16994033176E+04  0.16994033176E+04  0.25500000920E-02 0.  1.
        2   -1    0    0  501    0  0.00000000000E+00  0.00000000000E+00 -0.18561825500E+04  0.18561825500E+04  0.25500000920E-02 0. -1.
    10030    2    1    2    0    0  0.00000000000E+00  0.00000000000E+00 -0.15677923241E+03  0.35555858676E+04  0.35521276911E+04 0.  0.
        1    1    3    3  502    0  0.12009670551E+04 -0.81554619769E+03  0.94581976445E+03  0.17326316674E+04  0.50400001928E-02 0.  1.
       -1    1    3    3    0  502 -0.12009670551E+04  0.81554619769E+03 -0.11025989969E+04  0.18229542002E+04  0.50400001928E-02 0. -1.
</event>
<event>
 5   0  0.1130707E-06  0.2791826E+04  0.7818609E-02  0.8305811E-01
       -1   -1    0    0    0  501  0.00000000000E+00  0.00000000000E+00  0.75614183238E+03  0.75614183239E+03  0.50400001928E-02 0. -1.
        1   -1    0    0  501    0  0.00000000000E+00  0.00000000000E+00 -0.25769934587E+04  0.25769934587E+04  0.50400001928E-02 0.  1.
    10030    2    1    2    0    0  0.00000000000E+00  0.00000000000E+00 -0.18208516263E+04  0.33331352911E+04  0.27918256077E+04 0.  0.
        3    1    3    3  502    0 -0.11910231856E+03 -0.13254062200E+04 -0.14136838199E+04  0.19414914275E+04  0.10100000352E+00 0.  1.
       -3    1    3    3    0  502  0.11910231856E+03  0.13254062200E+04 -0.40716780637E+03  0.13916438635E+04  0.10100000352E+00 0. -1.
</event>
<event>
 5   0  0.1110956E-06  0.3478144E+04  0.7818609E-02  0.8118989E-01
       -1   -1    0    0    0  501  0.00000000000E+00  0.00000000000E+00  0.15436264735E+04  0.15436264735E+04  0.50400001928E-02 0.  1.
        1   -1    0    0  501    0  0.00000000000E+00  0.00000000000E+00 -0.19592634276E+04  0.19592634276E+04  0.50400001928E-02 0. -1.
    10030    2    1    2    0    0  0.00000000000E+00  0.00000000000E+00 -0.41563695406E+03  0.35028899011E+04  0.34781436977E+04 0.  0.
        1    1    3    3  502    0  0.10766204265E+04 -0.10924947365E+04  0.61759463138E+03  0.16535051923E+04  0.50400001928E-02 0.  1.
       -1    1    3    3    0  502 -0.10766204265E+04  0.10924947365E+04 -0.10332315854E+04  0.18493847089E+04  0.50400001928E-02 0. -1.
</event>
<event>
 5   0  0.1782660E-06  0.3161522E+04  0.7818609E-02  0.8199054E-01
       -2   -1    0    0    0  501  0.00000000000E+00  0.00000000000E+00  0.16211415278E+04  0.16211415278E+04  0.25500000920E-02 0.  1.
        2   -1    0    0  501    0  0.00000000000E+00  0.00000000000E+00 -0.15413864109E+04  0.15413864109E+04  0.25500000920E-02 0. -1.
    10030    2    1    2    0    0  0.00000000000E+00  0.00000000000E+00  0.79755116874E+02  0.31625279387E+04  0.31615221151E+04 0.  0.
        4    1    3    3  502    0  0.46793871737E+03 -0.62049340232E+03 -0.13370868761E+04  0.15465385973E+04  0.12699999809E+01 0. -1.
       -4    1    3    3    0  502 -0.46793871737E+03  0.62049340232E+03  0.14168419930E+04  0.16159893414E+04  0.12699999809E+01 0.  1.
</event>
<event>
 5   0  0.1125196E-06  0.2608414E+04  0.7818609E-02  0.8365349E-01
       -1   -1    0    0    0  501  0.00000000000E+00  0.00000000000E+00  0.15822553252E+04  0.15822553253E+04  0.50400001928E-02 0.  1.
        1   -1    0    0  501    0  0.00000000000E+00  0.00000000000E+00 -0.10750194928E+04  0.10750194928E+04  0.50400001928E-02 0. -1.
    10030    2    1    2    0    0  0.00000000000E+00  0.00000000000E+00  0.50723583248E+03  0.26572748180E+04  0.26084135540E+04 0.  0.
        4    1    3    3  502    0 -0.16438330285E+03  0.11055448963E+04  0.93829561529E+03  0.14593326086E+04  0.12699999809E+01 0.  1.
       -4    1    3    3    0  502  0.16438330285E+03 -0.11055448963E+04 -0.43105978281E+03  0.11979422094E+04  0.12699999809E+01 0. -1.
</event>
<event>
 5   0  0.1782660E-06  0.3426886E+04  0.7818609E-02  0.8131339E-01
       -2   -1    0    0    0  501  0.00000000000E+00  0.00000000000E+00  0.18235965190E+04  0.18235965190E+04  0.25500000920E-02 0. -1.
        2   -1    0    0  501    0  0.00000000000E+00  0.00000000000E+00 -0.16099429362E+04  0.16099429362E+04  0.25500000920E-02 0.  1.
    10030    2    1    2    0    0  0.00000000000E+00  0.00000000000E+00  0.21365358275E+03  0.34335394552E+04  0.34268856615E+04 0.  0.
        4    1    3    3  502    0  0.11812658279E+04 -0.29581540206E+03  0.13145671886E+04  0.17919219332E+04  0.12699999809E+01 0. -1.
       -4    1    3    3    0  502 -0.11812658279E+04  0.29581540206E+03 -0.11009136059E+04  0.16416175221E+04  0.12699999809E+01 0.  1.
</event>
<event>
 5   0  0.1782660E-06  0.3535895E+04  0.7818609E-02  0.8105336E-01
       -2   -1    0    0    0  501  0.00000000000E+00  0.00000000000E+00  0.11386850599E+04  0.11386850599E+04  0.25500000920E-02 0.  1.
        2   -1    0    0  501    0  0.00000000000E+00  0.00000000000E+00 -0.27449548476E+04  0.27449548476E+04  0.25500000920E-02 0. -1.
    10030    2    1    2    0    0  0.00000000000E+00  0.00000000000E+00 -0.16062697877E+04  0.38836399076E+04  0.35358954030E+04 0.  0.
        4    1    3    3  502    0  0.45009237770E+03  0.11353464284E+04  0.60087852876E+03  0.13611213319E+04  0.12699999809E+01 0.  1.
       -4    1    3    3    0  502 -0.45009237770E+03 -0.11353464284E+04 -0.22071483165E+04  0.25225185757E+04  0.12699999809E+01 0. -1.
</event>
<event>
 5   0  0.1130707E-06  0.3435997E+04  0.7818609E-02  0.8129128E-01
       -1   -1    0    0    0  501  0.00000000000E+00  0.00000000000E+00  0.10247969682E+04  0.10247969682E+04  0.50400001928E-02 0.  1.
        1   -1    0    0  501    0  0.00000000000E+00  0.00000000000E+00 -0.28801007509E+04  0.28801007509E+04  0.50400001928E-02 0. -1.
    10030    2    1    2    0    0  0.00000000000E+00  0.00000000000E+00 -0.18553037827E+04  0.39048977191E+04  0.34359968089E+04 0.  0.
        3    1    3    3  502    0  0.10721561451E+04  0.13397465434E+04 -0.10232699737E+04  0.19978791378E+04  0.10100000352E+00 0.  1.
       -3    1    3    3    0  502 -0.10721561451E+04 -0.13397465434E+04 -0.83203380896E+03  0.19070185813E+04  0.10100000352E+00 0. -1.
</event>
<event>
 5   0  0.1782660E-06  0.3492319E+04  0.7818609E-02  0.8115613E-01
       -2   -1    0    0    0  501  0.00000000000E+00  0.00000000000E+00  0.14002280890E+04  0.14002280890E+04  0.25500000920E-02 0.  1.
        2   -1    0    0  501    0  0.00000000000E+00  0.00000000000E+00 -0.21775541570E+04  0.21775541570E+04  0.25500000920E-02 0. -1.
    10030    2    1    2    0    0  0.00000000000E+00  0.00000000000E+00 -0.77732606805E+03  0.35777822460E+04  0.34923187116E+04 0.  0.
        4    1    3    3  502    0  0.73924852360E+03  0.85023566001E+03 -0.17553568095E+04  0.20858255437E+04  0.12699999809E+01 0. -1.
       -4    1    3    3    0  502 -0.73924852360E+03 -0.85023566001E+03  0.97803074148E+03  0.14919567022E+04  0.12699999809E+01 0.  1.
</event>
<event>
 5   0  0.1782660E-06  0.3500639E+04  0.7818609E-02  0.8113638E-01
       -2   -1    0    0    0  501  0.00000000000E+00  0.00000000000E+00  0.13792390315E+04  0.13792390315E+04  0.25500000920E-02 0. -1.
        2   -1    0    0  501    0  0.00000000000E+00  0.00000000000E+00 -0.22212383674E+04  0.22212383674E+04  0.25500000920E-02 0.  1.
    10030    2    1    2    0    0  0.00000000000E+00  0.00000000000E+00 -0.84199933595E+03  0.36004773989E+04  0.35006391728E+04 0.  0.
        4    1    3    3  502    0  0.83834526241E+01  0.14210610861E+03  0.13732748022E+04  0.13806338123E+04  0.12699999809E+01 0. -1.
       -4    1    3    3    0  502 -0.83834526241E+01 -0.14210610861E+03 -0.22152741382E+04  0.22198435865E+04  0.12699999809E+01 0.  1.
</event>
<event>
 5   0  0.1089337E-06  0.1941746E+04  0.7818609E-02  0.8634351E-01
        1   -1    0    0  501    0  0.00000000000E+00  0.00000000000E+00  0.11623021648E+04  0.11623021649E+04  0.50400001928E-02 0.  1.
       -1   -1    0    0    0  501  0.00000000000E+00  0.00000000000E+00 -0.81097212984E+03  0.81097212985E+03  0.50400001928E-02 0. -1.
    10030    2    1    2    0    0  0.00000000000E+00  0.00000000000E+00  0.35133003500E+03  0.19732742947E+04  0.19417462884E+04 0.  0.
        2    1    3    3  502    0  0.75409747921E+03  0.56968076259E+03  0.40152463686E+03  0.10268501417E+04  0.25500000920E-02 0.  1.
       -2    1    3    3    0  502 -0.75409747921E+03 -0.56968076259E+03 -0.50194601858E+02  0.94642415305E+03  0.25500000920E-02 0. -1.
</event>
<event>
 5   0  0.1130707E-06  0.3157403E+04  0.7818609E-02  0.8200158E-01
       -1   -1    0    0    0  501  0.00000000000E+00  0.00000000000E+00  0.14710538838E+04  0.14710538838E+04  0.50400001928E-02 0. -1.
        1   -1    0    0  501    0  0.00000000000E+00  0.00000000000E+00 -0.16942269379E+04  0.16942269379E+04  0.50400001928E-02 0.  1.
    10030    2    1    2    0    0  0.00000000000E+00  0.00000000000E+00 -0.22317305416E+03  0.31652808217E+04  0.31574034376E+04 0.  0.
        3    1    3    3  502    0  0.11525623190E+04  0.30788595919E+02 -0.11926792090E+04  0.16588645341E+04  0.10100000352E+00 0.  1.
       -3    1    3    3    0  502 -0.11525623190E+04 -0.30788595919E+02  0.96950615486E+03  0.15064162875E+04  0.10100000352E+00 0. -1.
</event>
<event>
 5   0  0.1110956E-06  0.3518456E+04  0.7818609E-02  0.8109430E-01
        1   -1    0    0  501    0  0.00000000000E+00  0.00000000000E+00  0.29109502171E+04  0.29109502171E+04  0.50400001928E-02 0.  1.
       -1   -1    0    0    0  501  0.00000000000E+00  0.00000000000E+00 -0.10631868026E+04  0.10631868026E+04  0.50400001928E-02 0. -1.
    10030    2    1    2    0    0  0.00000000000E+00  0.00000000000E+00  0.18477634145E+04  0.39741370197E+04  0.35184563967E+04 0.  0.
        1    1    3    3  502    0 -0.15290569358E+04 -0.27706450958E+03  0.18553719871E+04  0.24201621982E+04  0.50400001928E-02 0.  1.
       -1    1    3    3    0  502  0.15290569358E+04  0.27706450958E+03 -0.76085726041E+01  0.15539748214E+04  0.50400001928E-02 0. -1.
</event>
<event>
 5   0  0.1782660E-06  0.3472772E+04  0.7818609E-02  0.8120273E-01
        2   -1    0    0  501    0  0.00000000000E+00  0.00000000000E+00  0.15698491000E+04  0.15698491000E+04  0.25500000920E-02 0. -1.
       -2   -1    0    0    0  501  0.00000000000E+00  0.00000000000E+00 -0.19205899794E+04  0.19205899794E+04  0.25500000920E-02 0.  1.
    10030    2    1    2    0    0  0.00000000000E+00  0.00000000000E+00 -0.35074087937E+03  0.34904390793E+04  0.34727720631E+04 0.  0.
        4    1    3    3  502    0 -0.16298431401E+04  0.59696892280E+03 -0.22330247649E+03  0.17500360468E+04  0.12699999809E+01 0.  1.
       -4    1    3    3    0  502  0.16298431401E+04 -0.59696892280E+03 -0.12743840288E+03  0.17404030325E+04  0.12699999809E+01 0. -1.
</event>
<event>
 5   0  0.3378848E-06  0.3364829E+04  0.7818609E-02  0.8146593E-01
        2   -1    0    0  501    0  0.00000000000E+00  0.00000000000E+00  0.13814356530E+04  0.13814356530E+04  0.25500000920E-02 0. -1.
       -2   -1    0    0    0  501  0.00000000000E+00  0.00000000000E+00 -0.20489687666E+04  0.20489687666E+04  0.25500000920E-02 0.  1.
    10030    2    1    2    0    0  0.00000000000E+00  0.00000000000E+00 -0.66753311353E+03  0.34304044196E+04  0.33648289740E+04 0.  0.
        1    1    3    3  502    0  0.80787513060E+03  0.60471251059E+03 -0.17061734223E+04  0.19822631495E+04  0.50400001928E-02 0.  1.
       -1    1    3    3    0  502 -0.80787513060E+03 -0.60471251059E+03  0.10386403087E+04  0.14481412701E+04  0.50400001928E-02 0. -1.
</event>
<event>
 5   0  0.3041329E-06  0.3474032E+04  0.7818609E-02  0.8119972E-01
       -2   -1    0    0    0  501  0.00000000000E+00  0.00000000000E+00  0.22487066641E+04  0.22487066641E+04  0.25500000920E-02 0.  1.
        2   -1    0    0  501    0  0.00000000000E+00  0.00000000000E+00 -0.13417598336E+04  0.13417598336E+04  0.25500000920E-02 0. -1.
    10030    2    1    2    0    0  0.00000000000E+00  0.00000000000E+00  0.90694683047E+03  0.35904664976E+04  0.34740318245E+04 0.  0.
        2    1    3    3  502    0 -0.41089436023E+03 -0.16324462459E+03  0.21895771975E+04  0.22337706433E+04  0.25500000920E-02 0.  1.
       -2    1    3    3    0  502  0.41089436023E+03  0.16324462459E+03 -0.12826303671E+04  0.13566958544E+04  0.25500000920E-02 0. -1.
</event>
<event>
 5   0  0.2565004E-06  0.3449265E+04  0.7818609E-02  0.8125920E-01
       -2   -1    0    0    0  501  0.00000000000E+00  0.00000000000E+00  0.12365336858E+04  0.12365336858E+04  0.25500000920E-02 0. -1.
        2   -1    0    0  501    0  0.00000000000E+00  0.00000000000E+00 -0.24053995722E+04  0.24053995722E+04  0.25500000920E-02 0.  1.
    10030    2    1    2    0    0  0.00000000000E+00  0.00000000000E+00 -0.11688658864E+04  0.36419332580E+04  0.34492651965E+04 0.  0.
        3    1    3    3  502    0  0.15037208000E+04 -0.79211761652E+03 -0.27527927288E+03  0.17217448275E+04  0.10100000352E+00 0. -1.
       -3    1    3    3    0  502 -0.15037208000E+04  0.79211761652E+03 -0.89358661356E+03  0.19201884306E+04  0.10100000352E+00 0.  1.
</event>
<event>
 5   0  0.3041329E-06  0.2346567E+04  0.7818609E-02  0.8459784E-01
        2   -1    0    0  501    0  0.00000000000E+00  0.00000000000E+00  0.11133618148E+04  0.11133618148E+04  0.25500000920E-02 0.  1.
       -2   -1    0    0    0  501  0.00000000000E+00  0.00000000000E+00 -0.12364297020E+04  0.12364297020E+04  0.25500000920E-02 0. -1.
    10030    2    1    2    0    0  0.00000000000E+00  0.00000000000E+00 -0.12306788726E+03  0.23497915168E+04  0.23465665274E+04 0.  0.
        2    1    3    3  502    0  0.10065943757E+04  0.24121639047E+03  0.49165268197E+03  0.11459231841E+04  0.25500000920E-02 0.  1.
       -2    1    3    3    0  502 -0.10065943757E+04 -0.24121639047E+03 -0.61472056923E+03  0.12038683327E+04  0.25500000920E-02 0. -1.
</event>
<event>
 5   0  0.1125196E-06  0.3464508E+04  0.7818609E-02  0.8122253E-01
       -1   -1    0    0    0  501  0.00000000000E+00  0.00000000000E+00  0.12813503396E+04  0.12813503396E+04  0.50400001928E-02 0.  1.
        1   -1    0    0  501    0  0.00000000000E+00  0.00000000000E+00 -0.23418291422E+04  0.23418291422E+04  0.50400001928E-02 0. -1.
    10030    2    1    2    0    0  0.00000000000E+00  0.00000000000E+00 -0.10604788026E+04  0.36231794818E+04  0.34645077957E+04 0.  0.
        4    1    3    3  502    0 -0.53313070737E+03  0.12918267208E+04  0.54018976137E+03  0.14982827566E+04  0.12699999809E+01 0.  1.
       -4    1    3    3    0  502  0.53313070737E+03 -0.12918267208E+04 -0.16006685640E+04  0.21248967251E+04  0.12699999809E+01 0. -1.
</event>
<event>
 5   0  0.1782660E-06  0.2546579E+04  0.7818609E-02  0.8386577E-01
        2   -1    0    0  501    0  0.00000000000E+00  0.00000000000E+00  0.12855745290E+04  0.12855745290E+04  0.25500000920E-02 0.  1.
       -2   -1    0    0    0  501  0.00000000000E+00  0.00000000000E+00 -0.12611215088E+04  0.12611215088E+04  0.25500000920E-02 0. -1.
    10030    2    1    2    0    0  0.00000000000E+00  0.00000000000E+00  0.24453020165E+02  0.25466960378E+04  0.25465786378E+04 0.  0.
        4    1    3    3  502    0 -0.21106533625E+03  0.63649662861E+03  0.10946753854E+04  0.12837415420E+04  0.12699999809E+01 0.  1.
       -4    1    3    3    0  502  0.21106533625E+03 -0.63649662861E+03 -0.10702223653E+04  0.12629544958E+04  0.12699999809E+01 0. -1.
</event>
<event>
 5   0  0.1908726E-06  0.3506710E+04  0.7818609E-02  0.8112201E-01
        2   -1    0    0  501    0  0.00000000000E+00  0.00000000000E+00  0.20470248716E+04  0.20470248716E+04  0.25500000920E-02 0.  1.
       -2   -1    0    0    0  501  0.00000000000E+00  0.00000000000E+00 -0.15018159107E+04  0.15018159107E+04  0.25500000920E-02 0. -1.
    10030    2    1    2    0    0  0.00000000000E+00  0.00000000000E+00  0.54520896095E+03  0.35488407823E+04  0.35067104367E+04 0.  0.
        5    1    3    3  502    0  0.44774681727E+03 -0.12197728081E+04 -0.91878578630E+03  0.15913869193E+04  0.46999998093E+01 0. -1.
       -5    1    3    3    0  502 -0.44774681727E+03  0.12197728081E+04  0.14639947472E+04  0.19574538630E+04  0.46999998093E+01 0.  1.
</event>
<event>
 5   0  0.1908726E-06  0.3350758E+04  0.7818609E-02  0.8150099E-01
        2   -1    0    0  501    0  0.00000000000E+00  0.00000000000E+00  0.18776066041E+04  0.18776066041E+04  0.25500000920E-02 0.  1.
       -2   -1    0    0    0  501  0.00000000000E+00  0.00000000000E+00 -0.14949326849E+04  0.14949326849E+04  0.25500000920E-02 0. -1.
    10030    2    1    2    0    0  0.00000000000E+00  0.00000000000E+00  0.38267391921E+03  0.33725392891E+04  0.33507584109E+04 0.  0.
        5    1    3    3  502    0 -0.15997172840E+04 -0.11784591306E+03 -0.29542882966E+03  0.16310375015E+04  0.46999998093E+01 0.  1.
       -5    1    3    3    0  502  0.15997172840E+04  0.11784591306E+03  0.67810274886E+03  0.17415017875E+04  0.46999998093E+01 0. -1.
</event>
<event>
 5   0  0.2565004E-06  0.3491498E+04  0.7818609E-02  0.8115808E-01
        2   -1    0    0  501    0  0.00000000000E+00  0.00000000000E+00  0.25777608554E+04  0.25777608554E+04  0.25500000920E-02 0.  1.
       -2   -1    0    0    0  501  0.00000000000E+00  0.00000000000E+00 -0.11822818413E+04  0.11822818413E+04  0.25500000920E-02 0. -1.
    10030    2    1    2    0    0  0.00000000000E+00  0.00000000000E+00  0.13954790142E+04  0.37600426967E+04  0.34914981601E+04 0.  0.
        3    1    3    3  502    0 -0.10562263569E+04  0.12176974025E+04  0.14195439792E+04  0.21479074003E+04  0.10100000352E+00 0.  1.
       -3    1    3    3    0  502  0.10562263569E+04 -0.12176974025E+04 -0.24064965012E+02  0.16121352964E+04  0.10100000352E+00 0. -1.
</event>
<event>
 5   0  0.2565004E-06  0.1885776E+04  0.7818609E-02  0.8661969E-01
        2   -1    0    0  501    0  0.00000000000E+00  0.00000000000E+00  0.83128239372E+03  0.83128239373E+03  0.25500000920E-02 0. -1.
       -2   -1    0    0    0  501  0.00000000000E+00  0.00000000000E+00 -0.10694778686E+04  0.10694778687E+04  0.25500000920E-02 0.  1.
    10030    2    1    2    0    0  0.00000000000E+00  0.00000000000E+00 -0.23819547493E+03  0.19007602624E+04  0.18857763629E+04 0.  0.
        3    1    3    3  502    0 -0.23813224714E+03 -0.56948004923E+03  0.59932341054E+03  0.86035054149E+03  0.10100000352E+00 0. -1.
       -3    1    3    3    0  502  0.23813224714E+03  0.56948004923E+03 -0.83751888547E+03  0.10404097209E+04  0.10100000352E+00 0.  1.
</event>
<event>
 5   0  0.1130707E-06  0.3364762E+04  0.7818609E-02  0.8146609E-01
       -1   -1    0    0    0  501  0.00000000000E+00  0.00000000000E+00  0.16639108951E+04  0.16639108951E+04  0.50400001928E-02 0.  1.
        1   -1    0    0  501    0  0.00000000000E+00  0.00000000000E+00 -0.17010564499E+04  0.17010564499E+04  0.50400001928E-02 0. -1.
    10030    2    1    2    0    0  0.00000000000E+00  0.00000000000E+00 -0.37145554823E+02  0.33649673450E+04  0.33647623156E+04 0.  0.
        3    1    3    3  502    0 -0.14970197504E+04  0.44153840639E+03 -0.64660949358E+03  0.16894165101E+04  0.10100000352E+00 0. -1.
       -3    1    3    3    0  502  0.14970197504E+04 -0.44153840639E+03  0.60946393875E+03  0.16755508348E+04  0.10100000352E+00 0.  1.
</event>
<event>
 5   0  0.1130707E-06  0.3448394E+04  0.7818609E-02  0.8126130E-01
        1   -1    0    0  501    0  0.00000000000E+00  0.00000000000E+00  0.20350377807E+04  0.20350377807E+04  0.50400001928E-02 0.  1.
       -1   -1    0    0    0  501  0.00000000000E+00  0.00000000000E+00 -0.14608356339E+04  0.14608356339E+04  0.50400001928E-02 0. -1.
    10030    2    1    2    0    0  0.00000000000E+00  0.00000000000E+00  0.57420214682E+03  0.34958734146E+04  0.34483942387E+04 0.  0.
        3    1    3    3  502    0  0.56860932333E+03  0.46884588213E+03 -0.12931174224E+04  0.14883835870E+04  0.10100000352E+00 0. -1.
       -3    1    3    3    0  502 -0.56860932333E+03 -0.46884588213E+03  0.18673195692E+04  0.20074898275E+04  0.10100000352E+00 0.  1.
</event>
<event>
 5   0  0.1042825E-06  0.3599341E+04  0.7818609E-02  0.8090643E-01
        3   -1    0    0  501    0  0.00000000000E+00  0.00000000000E+00  0.21595502732E+04  0.21595502756E+04  0.10100000352E+00 0.  1.
       -3   -1    0    0    0  501  0.00000000000E+00  0.00000000000E+00 -0.14997628567E+04  0.14997628601E+04  0.10100000352E+00 0. -1.
    10030    2    1    2    0    0  0.00000000000E+00  0.00000000000E+00  0.65978741654E+03  0.36593131357E+04  0.35993406604E+04 0.  0.
        1    1    3    3  502    0  0.15605035739E+04 -0.13272025273E+03 -0.57146034750E+03  0.16671391659E+04  0.50400001928E-02 0. -1.
       -1    1    3    3    0  502 -0.15605035739E+04  0.13272025273E+03  0.12312477640E+04  0.19921739698E+04  0.50400001928E-02 0.  1.
</event>
<event>
 5   0  0.2565004E-06  0.3611795E+04  0.7818609E-02  0.8087795E-01
        2   -1    0    0  501    0  0.00000000000E+00  0.00000000000E+00  0.14182921179E+04  0.14182921179E+04  0.25500000920E-02 0. -1.
       -2   -1    0    0    0  501  0.00000000000E+00  0.00000000000E+00 -0.22994314369E+04  0.22994314369E+04  0.25500000920E-02 0.  1.
    10030    2    1    2    0    0  0.00000000000E+00  0.00000000000E+00 -0.88113931898E+03  0.37177235548E+04  0.36117948350E+04 0.  0.
        3    1    3    3  502    0  0.11460278732E+04 -0.36081142037E+03 -0.18283323526E+04  0.21877760326E+04  0.10100000352E+00 0.  1.
       -3    1    3    3    0  502 -0.11460278732E+04  0.36081142037E+03  0.94719303360E+03  0.15299475221E+04  0.10100000352E+00 0. -1.
</event>
<event>
 5   0  0.1782660E-06  0.3509663E+04  0.7818609E-02  0.8111504E-01
       -2   -1    0    0    0  501  0.00000000000E+00  0.00000000000E+00  0.16936811330E+04  0.16936811330E+04  0.25500000920E-02 0.  1.
        2   -1    0    0  501    0  0.00000000000E+00  0.00000000000E+00 -0.18181897099E+04  0.18181897099E+04  0.25500000920E-02 0. -1.
    10030    2    1    2    0    0  0.00000000000E+00  0.00000000000E+00 -0.12450857681E+03  0.35118708429E+04  0.35096630082E+04 0.  0.
        4    1    3    3  502    0 -0.74976772955E+02  0.11584213378E+04  0.12545790777E+04  0.17092488958E+04  0.12699999809E+01 0.  1.
       -4    1    3    3    0  502  0.74976772955E+02 -0.11584213378E+04 -0.13790876546E+04  0.18026219471E+04  0.12699999809E+01 0. -1.
</event>
<event>
 5   0  0.1089337E-06  0.3457754E+04  0.7818609E-02  0.8123875E-01
        1   -1    0    0  501    0  0.00000000000E+00  0.00000000000E+00  0.10883591587E+04  0.10883591588E+04  0.50400001928E-02 0. -1.
       -1   -1    0    0    0  501  0.00000000000E+00  0.00000000000E+00 -0.27463499704E+04  0.27463499704E+04  0.50400001928E-02 0.  1.
    10030    2    1    2    0    0  0.00000000000E+00  0.00000000000E+00 -0.16579908116E+04  0.38347091291E+04  0.34577536890E+04 0.  0.
        2    1    3    3  502    0 -0.51416056412E+03  0.73999698400E+03  0.80734413829E+03  0.12098599835E+04  0.25500000920E-02 0. -1.
       -2    1    3    3    0  502  0.51416056412E+03 -0.73999698400E+03 -0.24653349499E+04  0.26248491456E+04  0.25500000920E-02 0.  1.
</event>
<event>
 5   0  0.1130707E-06  0.2622241E+04  0.7818609E-02  0.8360685E-01
       -1   -1    0    0    0  501  0.00000000000E+00  0.00000000000E+00  0.88533490685E+03  0.88533490686E+03  0.50400001928E-02 0.  1.
        1   -1    0    0  501    0  0.00000000000E+00  0.00000000000E+00 -0.19416804927E+04  0.19416804927E+04  0.50400001928E-02 0. -1.
    10030    2    1    2    0    0  0.00000000000E+00  0.00000000000E+00 -0.10563455859E+04  0.28270153996E+04  0.26222414215E+04 0.  0.
        3    1    3    3  502    0 -0.10439094401E+04 -0.15079146398E+03  0.31146061019E+03  0.10997693879E+04  0.10100000352E+00 0.  1.
       -3    1    3    3    0  502  0.10439094401E+04  0.15079146398E+03 -0.13678061960E+04  0.17272460117E+04  0.10100000352E+00 0. -1.
</event>
<event>
 5   0  0.1130707E-06  0.3603889E+04  0.7818609E-02  0.8089601E-01
        1   -1    0    0  501    0  0.00000000000E+00  0.00000000000E+00  0.21412246099E+04  0.21412246099E+04  0.50400001928E-02 0.  1.
       -1   -1    0    0    0  501  0.00000000000E+00  0.00000000000E+00 -0.15164237766E+04  0.15164237766E+04  0.50400001928E-02 0. -1.
    10030    2    1    2    0    0  0.00000000000E+00  0.00000000000E+00  0.62480083334E+03  0.36576483865E+04  0.36038889602E+04 0.  0.
        3    1    3    3  502    0 -0.17139931120E+04 -0.55453739544E+03  0.27031146961E+03  0.18216345439E+04  0.10100000352E+00 0.  1.
       -3    1    3    3    0  502  0.17139931120E+04  0.55453739544E+03  0.35448936374E+03  0.18360138425E+04  0.10100000352E+00 0. -1.
</event>
<event>
 5   0  0.2565004E-06  0.3486758E+04  0.7818609E-02  0.8116935E-01
        2   -1    0    0  501    0  0.00000000000E+00  0.00000000000E+00  0.17147690400E+04  0.17147690400E+04  0.25500000920E-02 0. -1.
       -2   -1    0    0    0  501  0.00000000000E+00  0.00000000000E+00 -0.17724663338E+04  0.17724663338E+04  0.25500000920E-02 0.  1.
    10030    2    1    2    0    0  0.00000000000E+00  0.00000000000E+00 -0.57697293827E+02  0.34872353737E+04  0.34867580321E+04 0.  0.
        3    1    3    3  502    0  0.11823850941E+04 -0.64545057112E+03 -0.11356750967E+04  0.17619304430E+04  0.10100000352E+00 0.  1.
       -3    1    3    3    0  502 -0.11823850941E+04  0.64545057112E+03  0.10779778029E+04  0.17253049308E+04  0.10100000352E+00 0. -1.
</event>
<event>
 5   0  0.3041329E-06  0.1787717E+04  0.7818609E-02  0.8712859E-01
        2   -1    0    0  501    0  0.00000000000E+00  0.00000000000E+00  0.83462247014E+03  0.83462247014E+03  0.25500000920E-02 0. -1.
       -2   -1    0    0    0  501  0.00000000000E+00  0.00000000000E+00 -0.95729871108E+03  0.95729871108E+03  0.25500000920E-02 0.  1.
    10030    2    1    2    0    0  0.00000000000E+00  0.00000000000E+00 -0.12267624094E+03  0.17919211812E+04  0.17877169965E+04 0.  0.
        2    1    3    3  502    0  0.20152803754E+03  0.52615702782E+03 -0.75689238568E+03  0.94357874677E+03  0.25500000920E-02 0.  1.
       -2    1    3    3    0  502 -0.20152803754E+03 -0.52615702782E+03  0.63421614474E+03  0.84834243446E+03  0.25500000920E-02 0. -1.
</event>
<event>
 5   0  0.3378848E-06  0.3481965E+04  0.7818609E-02  0.8118077E-01
        2   -1    0    0  501    0  0.00000000000E+00  0.00000000000E+00  0.21574719870E+04  0.21574719870E+04  0.25500000920E-02 0.  1.
       -2   -1    0    0    0  501  0.00000000000E+00  0.00000000000E+00 -0.14048942014E+04  0.14048942014E+04  0.25500000920E-02 0. -1.
    10030    2    1    2    0    0  0.00000000000E+00  0.00000000000E+00  0.75257778564E+03  0.35623661884E+04  0.34819648960E+04 0.  0.
        1    1    3    3  502    0 -0.12026247930E+04 -0.79319989813E+03  0.13763816735E+04  0.19924605347E+04  0.50400001928E-02 0.  1.
       -1    1    3    3    0  502  0.12026247930E+04  0.79319989813E+03 -0.62380388781E+03  0.15699056538E+04  0.50400001928E-02 0. -1.
</event>
<event>
 5   0  0.1089337E-06  0.3494137E+04  0.7818609E-02  0.8115181E-01
       -1   -1    0    0    0  501  0.00000000000E+00  0.00000000000E+00  0.20664144306E+04  0.20664144306E+04  0.50400001928E-02 0.  1.
        1   -1    0    0  501    0  0.00000000000E+00  0.00000000000E+00 -0.14770748109E+04  0.14770748109E+04  0.50400001928E-02 0. -1.
    10030    2    1    2    0    0  0.00000000000E+00  0.00000000000E+00  0.58933961971E+03  0.35434892415E+04  0.34941372064E+04 0.  0.
        2    1    3    3  502    0  0.13741148168E+04  0.50886344230E+03  0.12594826756E+04  0.19322086178E+04  0.25500000920E-02 0.  1.
       -2    1    3    3    0  502 -0.13741148168E+04 -0.50886344230E+03 -0.67014305588E+03  0.16112806236E+04  0.25500000920E-02 0. -1.
</event>
<event>
 5   0  0.3378848E-06  0.3512070E+04  0.7818609E-02  0.8110936E-01
        2   -1    0    0  501    0  0.00000000000E+00  0.00000000000E+00  0.21479246836E+04  0.21479246836E+04  0.25500000920E-02 0.  1.
       -2   -1    0    0    0  501  0.00000000000E+00  0.00000000000E+00 -0.14356453692E+04  0.14356453692E+04  0.25500000920E-02 0. -1.
    10030    2    1    2    0    0  0.00000000000E+00  0.00000000000E+00  0.71227931436E+03  0.35835700528E+04  0.35120695468E+04 0.  0.
        1    1    3    3  502    0 -0.32013008266E+03  0.14205285231E+04  0.13575858357E+04  0.19908349645E+04  0.50400001928E-02 0.  1.
       -1    1    3    3    0  502  0.32013008266E+03 -0.14205285231E+04 -0.64530652131E+03  0.15927350882E+04  0.50400001928E-02 0. -1.
</event>
<event>
 5   0  0.2565004E-06  0.3462131E+04  0.7818609E-02  0.8122824E-01
        2   -1    0    0  501    0  0.00000000000E+00  0.00000000000E+00  0.20905961850E+04  0.20905961850E+04  0.25500000920E-02 0. -1.
       -2   -1    0    0    0  501  0.00000000000E+00  0.00000000000E+00 -0.14333647930E+04  0.14333647930E+04  0.25500000920E-02 0.  1.
    10030    2    1    2    0    0  0.00000000000E+00  0.00000000000E+00  0.65723139200E+03  0.35239609780E+04  0.34621305394E+04 0.  0.
        3    1    3    3  502    0 -0.13664645721E+03 -0.16407193758E+04 -0.21568165512E+03  0.16604670761E+04  0.10100000352E+00 0.  1.
       -3    1    3    3    0  502  0.13664645721E+03  0.16407193758E+04  0.87291304712E+03  0.18634939019E+04  0.10100000352E+00 0. -1.
</event>
<event>
 5   0  0.1089337E-06  0.2850738E+04  0.7818609E-02  0.8287687E-01
       -1   -1    0    0    0  501  0.00000000000E+00  0.00000000000E+00  0.12301542235E+04  0.12301542235E+04  0.50400001928E-02 0. -1.
        1   -1    0    0  501    0  0.00000000000E+00  0.00000000000E+00 -0.16515621067E+04  0.16515621067E+04  0.50400001928E-02 0.  1.
    10030    2    1    2    0    0  0.00000000000E+00  0.00000000000E+00 -0.42140788319E+03  0.28817163303E+04  0.28507375193E+04 0.  0.
        2    1    3    3  502    0 -0.75433031771E+03 -0.93619269801E+03 -0.98466443725E+03  0.15540383039E+04  0.25500000920E-02 0.  1.
       -2    1    3    3    0  502  0.75433031771E+03  0.93619269801E+03  0.56325655406E+03  0.13276780264E+04  0.25500000920E-02 0. -1.
</event>
<event>
 5   0  0.1102175E-06  0.3500625E+04  0.7818609E-02  0.8113642E-01
        1   -1    0    0  501    0  0.00000000000E+00  0.00000000000E+00  0.29134971209E+04  0.29134971209E+04  0.50400001928E-02 0. -1.
       -1   -1    0    0    0  501  0.00000000000E+00  0.00000000000E+00 -0.10515180182E+04  0.10515180182E+04  0.50400001928E-02 0.  1.
    10030    2    1    2    0    0  0.00000000000E+00  0.00000000000E+00  0.18619791027E+04  0.39650151391E+04  0.35006254976E+04 0.  0.
        5    1    3    3  502    0 -0.36580424277E+03  0.17113203633E+04  0.89270469061E+03  0.19645289218E+04  0.46999998093E+01 0. -1.
       -5    1    3    3    0  502  0.36580424277E+03 -0.17113203633E+04  0.96927441204E+03  0.20004862173E+04  0.46999998093E+01 0.  1.
</event>
<event>
 5   0  0.1908726E-06  0.3515792E+04  0.7818609E-02  0.8110058E-01
        2   -1    0    0  501    0  0.00000000000E+00  0.00000000000E+00  0.29954473722E+04  0.29954473722E+04  0.25500000920E-02 0. -1.
       -2   -1    0    0    0  501  0.00000000000E+00  0.00000000000E+00 -0.10316314764E+04  0.10316314765E+04  0.25500000920E-02 0.  1.
    10030    2    1    2    0    0  0.00000000000E+00  0.00000000000E+00  0.19638158958E+04  0.40270788487E+04  0.35157916862E+04 0.  0.
        5    1    3    3  502    0  0.18270344695E+03  0.37269082568E+03 -0.97469162737E+03  0.10593983479E+04  0.46999998093E+01 0.  1.
       -5    1    3    3    0  502 -0.18270344695E+03 -0.37269082568E+03  0.29385075232E+04  0.29676805008E+04  0.46999998093E+01 0. -1.
</event>
<event>
 5   0  0.1782660E-06  0.3591459E+04  0.7818609E-02  0.8092451E-01
        2   -1    0    0  501    0  0.00000000000E+00  0.00000000000E+00  0.13264499901E+04  0.13264499901E+04  0.25500000920E-02 0.  1.
       -2   -1    0    0    0  501  0.00000000000E+00  0.00000000000E+00 -0.24310334276E+04  0.24310334276E+04  0.25500000920E-02 0. -1.
    10030    2    1    2    0    0  0.00000000000E+00  0.00000000000E+00 -0.11045834375E+04  0.37574834177E+04  0.35914589046E+04 0.  0.
        4    1    3    3  502    0  0.10252727056E+04 -0.13149416050E+03  0.98397793212E+03  0.14271261398E+04  0.12699999809E+01 0.  1.
       -4    1    3    3    0  502 -0.10252727056E+04  0.13149416050E+03 -0.20885613697E+04  0.23303572779E+04  0.12699999809E+01 0. -1.
</event>
<event>
 5   0  0.1782660E-06  0.3436187E+04  0.7818609E-02  0.8129081E-01
        2   -1    0    0  501    0  0.00000000000E+00  0.00000000000E+00  0.13239660241E+04  0.13239660241E+04  0.25500000920E-02 0.  1.
       -2   -1    0    0    0  501  0.00000000000E+00  0.00000000000E+00 -0.22295479336E+04  0.22295479336E+04  0.25500000920E-02 0. -1.
    10030    2    1    2    0    0  0.00000000000E+00  0.00000000000E+00 -0.90558190954E+03  0.35535139577E+04  0.34361872552E+04 0.  0.
        4    1    3    3  502    0 -0.13602808810E+04 -0.98148273104E+03 -0.83719744556E+03  0.18747196063E+04  0.12699999809E+01 0. -1.
       -4    1    3    3    0  502  0.13602808810E+04  0.98148273104E+03 -0.68384463985E+02  0.16787943514E+04  0.12699999809E+01 0.  1.
</event>
<event>
 5   0  0.3041329E-06  0.3485739E+04  0.7818609E-02  0.8117178E-01
       -2   -1    0    0    0  501  0.00000000000E+00  0.00000000000E+00  0.20781919438E+04  0.20781919438E+04  0.25500000920E-02 0. -1.
        2   -1    0    0  501    0  0.00000000000E+00  0.00000000000E+00 -0.14616523738E+04  0.14616523738E+04  0.25500000920E-02 0.  1.
    10030    2    1    2    0    0  0.00000000000E+00  0.00000000000E+00  0.61653957000E+03  0.35398443177E+04  0.34857390539E+04 0.  0.
        2    1    3    3  502    0  0.38078498949E+03  0.79667099168E+03  0.18342286468E+04  0.20357005197E+04  0.25500000920E-02 0. -1.
       -2    1    3    3    0  502 -0.38078498949E+03 -0.79667099168E+03 -0.12176890768E+04  0.15041437980E+04  0.25500000920E-02 0.  1.
</event>
<event>
 5   0  0.1102175E-06  0.3288505E+04  0.7818609E-02  0.8165826E-01
        1   -1    0    0  501    0  0.00000000000E+00  0.00000000000E+00  0.20966690482E+04  0.20966690482E+04  0.50400001928E-02 0. -1.
       -1   -1    0    0    0  501  0.00000000000E+00  0.00000000000E+00 -0.12894578593E+04  0.12894578593E+04  0.50400001928E-02 0.  1.
    10030    2    1    2    0    0  0.00000000000E+00  0.00000000000E+00  0.80721118890E+03  0.33861269075E+04  0.32885050600E+04 0.  0.
        5    1    3    3  502    0  0.10354381844E+04 -0.56586668434E+03  0.15826776278E+04  0.19741397878E+04  0.46999998093E+01 0. -1.
       -5    1    3    3    0  502 -0.10354381844E+04  0.56586668434E+03 -0.77546643893E+03  0.14119871196E+04  0.46999998093E+01 0.  1.
</event>
<event>
 5   0  0.3378848E-06  0.1782222E+04  0.7818609E-02  0.8715811E-01
        2   -1    0    0  501    0  0.00000000000E+00  0.00000000000E+00  0.17019071880E+04  0.17019071880E+04  0.25500000920E-02 0.  1.
       -2   -1    0    0    0  501  0.00000000000E+00  0.00000000000E+00 -0.46658174379E+03  0.46658174380E+03  0.25500000920E-02 0. -1.
    10030    2    1    2    0    0  0.00000000000E+00  0.00000000000E+00  0.12353254442E+04  0.21684889318E+04  0.17822220103E+04 0.  0.
        1    1    3    3  502    0  0.13861039816E+03 -0.73795780259E+03  0.33777428416E+02  0.75162189669E+03  0.50400001928E-02 0. -1.
       -1    1    3    3    0  502 -0.13861039816E+03  0.73795780259E+03  0.12015480158E+04  0.14168670351E+04  0.50400001928E-02 0.  1.
</event>
<event>
 5   0  0.1782660E-06  0.3490249E+04  0.7818609E-02  0.8116105E-01
       -2   -1    0    0    0  501  0.00000000000E+00  0.00000000000E+00  0.18830675999E+04  0.18830675999E+04  0.25500000920E-02 0. -1.
        2   -1    0    0  501    0  0.00000000000E+00  0.00000000000E+00 -0.16172867291E+04  0.16172867291E+04  0.25500000920E-02 0.  1.
    10030    2    1    2    0    0  0.00000000000E+00  0.00000000000E+00  0.26578087075E+03  0.35003543290E+04  0.34902494119E+04 0.  0.
        4    1    3    3  502    0 -0.36791512846E+03  0.10764559186E+04 -0.11943229327E+04  0.16494022453E+04  0.12699999809E+01 0.  1.
       -4    1    3    3    0  502  0.36791512846E+03 -0.10764559186E+04  0.14601038035E+04  0.18509520837E+04  0.12699999809E+01 0. -1.
</event>
<event>
 5   0  0.1102175E-06  0.3171107E+04  0.7818609E-02  0.8196490E-01
       -1   -1    0    0    0  501  0.00000000000E+00  0.00000000000E+00  0.15854918903E+04  0.15854918903E+04  0.50400001928E-02 0. -1.
        1   -1    0    0  501    0  0.00000000000E+00  0.00000000000E+00 -0.15856156069E+04  0.15856156069E+04  0.50400001928E-02 0.  1.
    10030    2    1    2    0    0  0.00000000000E+00  0.00000000000E+00 -0.12371657925E+00  0.31711074972E+04  0.31711074948E+04 0.  0.
        5    1    3    3  502    0 -0.24846680931E+03 -0.14308602435E+04  0.63622565898E+03  0.15855289247E+04  0.46999998093E+01 0.  1.
       -5    1    3    3    0  502  0.24846680931E+03  0.14308602435E+04 -0.63634937556E+03  0.15855785725E+04  0.46999998093E+01 0. -1.
</event>
<event>
 5   0  0.2565004E-06  0.3468786E+04  0.7818609E-02  0.8121227E-01
        2   -1    0    0  501    0  0.00000000000E+00  0.00000000000E+00  0.17468155093E+04  0.17468155093E+04  0.25500000920E-02 0. -1.
       -2   -1    0    0    0  501  0.00000000000E+00  0.00000000000E+00 -0.17220592405E+04  0.17220592405E+04  0.25500000920E-02 0.  1.
    10030    2    1    2    0    0  0.00000000000E+00  0.00000000000E+00  0.24756268810E+02  0.34688747497E+04  0.34687864098E+04 0.  0.
        3    1    3    3  502    0 -0.12783498558E+04  0.62946861867E+03 -0.97643958524E+03  0.17273804936E+04  0.10100000352E+00 0.  1.
       -3    1    3    3    0  502  0.12783498558E+04 -0.62946861867E+03  0.10011958540E+04  0.17414942561E+04  0.10100000352E+00 0. -1.
</event>
<event>
 5   0  0.1130707E-06  0.2808975E+04  0.7818609E-02  0.8300487E-01
        1   -1    0    0  501    0  0.00000000000E+00  0.00000000000E+00  0.13621107035E+04  0.13621107035E+04  0.50400001928E-02 0. -1.
       -1   -1    0    0    0  501  0.00000000000E+00  0.00000000000E+00 -0.14481830211E+04  0.14481830211E+04  0.50400001928E-02 0.  1.
    10030    2    1    2    0    0  0.00000000000E+00  0.00000000000E+00 -0.86072317591E+02  0.28102937246E+04  0.28089753246E+04 0.  0.
        3    1    3    3  502    0  0.17722540231E+03  0.33125671882E+03  0.13109081966E+04  0.13636789091E+04  0.10100000352E+00 0. -1.
       -3    1    3    3    0  502 -0.17722540231E+03 -0.33125671882E+03 -0.13969805142E+04  0.14466148154E+04  0.10100000352E+00 0.  1.
</event>
<event>
 5   0  0.1125196E-06  0.2254955E+04  0.7818609E-02  0.8495897E-01
        1   -1    0    0  501    0  0.00000000000E+00  0.00000000000E+00  0.23771907949E+04  0.23771907949E+04  0.50400001928E-02 0. -1.
       -1   -1    0    0    0  501  0.00000000000E+00  0.00000000000E+00 -0.53475097226E+03  0.53475097229E+03  0.50400001928E-02 0.  1.
    10030    2    1    2    0    0  0.00000000000E+00  0.00000000000E+00  0.18424398226E+04  0.29119417672E+04  0.22549546238E+04 0.  0.
        4    1    3    3  502    0 -0.23492943307E+03 -0.41205214170E+03 -0.39964181747E+03  0.62023705240E+03  0.12699999809E+01 0.  1.
       -4    1    3    3    0  502  0.23492943307E+03  0.41205214170E+03  0.22420816401E+04  0.22917047148E+04  0.12699999809E+01 0. -1.
</event>
<event>
 5   0  0.1125196E-06  0.3476919E+04  0.7818609E-02  0.8119282E-01
        1   -1    0    0  501    0  0.00000000000E+00  0.00000000000E+00  0.23748033915E+04  0.23748033916E+04  0.50400001928E-02 0. -1.
       -1   -1    0    0    0  501  0.00000000000E+00  0.00000000000E+00 -0.12726278889E+04  0.12726278889E+04  0.50400001928E-02 0.  1.
    10030    2    1    2    0    0  0.00000000000E+00  0.00000000000E+00  0.11021755027E+04  0.36474312804E+04  0.34769187662E+04 0.  0.
        4    1    3    3  502    0  0.10959385605E+04 -0.11863492418E+04  0.12258533769E+04  0.20276153399E+04  0.12699999809E+01 0. -1.
       -4    1    3    3    0  502 -0.10959385605E+04  0.11863492418E+04 -0.12367787425E+03  0.16198159406E+04  0.12699999809E+01 0.  1.
</event>
<event>
 5   0  0.1042825E-06  0.3344573E+04  0.7818609E-02  0.8151645E-01
       -4   -1    0    0    0  501  0.00000000000E+00  0.00000000000E+00  0.13696241682E+04  0.13696247570E+04  0.12699999809E+01 0.  1.
        4   -1    0    0  501    0  0.00000000000E+00  0.00000000000E+00 -0.20418310386E+04  0.20418314335E+04  0.12699999809E+01 0. -1.
    10030    2    1    2    0    0  0.00000000000E+00  0.00000000000E+00 -0.67220687037E+03  0.34114561905E+04  0.33445734053E+04 0.  0.
        3    1    3    3  502    0 -0.47670247875E+03 -0.15131990683E+04  0.20317154786E+03  0.15994672118E+04  0.10100000352E+00 0.  1.
       -3    1    3    3    0  502  0.47670247875E+03  0.15131990683E+04 -0.87537841823E+03  0.18119889787E+04  0.10100000352E+00 0. -1.
</event>
<event>
 5   0  0.1102175E-06  0.3416207E+04  0.7818609E-02  0.8133940E-01
        1   -1    0    0  501    0  0.00000000000E+00  0.00000000000E+00  0.17110909207E+04  0.17110909207E+04  0.50400001928E-02 0. -1.
       -1   -1    0    0    0  501  0.00000000000E+00  0.00000000000E+00 -0.17051213513E+04  0.17051213514E+04  0.50400001928E-02 0.  1.
    10030    2    1    2    0    0  0.00000000000E+00  0.00000000000E+00  0.59695693907E+01  0.34162122721E+04  0.34162070564E+04 0.  0.
        5    1    3    3  502    0 -0.73366903109E+03  0.15317496553E+04  0.18483202948E+03  0.17084239002E+04  0.46999998093E+01 0.  1.
       -5    1    3    3    0  502  0.73366903109E+03 -0.15317496553E+04 -0.17886246009E+03  0.17077883719E+04  0.46999998093E+01 0. -1.
</event>
<event>
 5   0  0.1125196E-06  0.3050479E+04  0.7818609E-02  0.8229461E-01
        1   -1    0    0  501    0  0.00000000000E+00  0.00000000000E+00  0.13849716873E+04  0.13849716873E+04  0.50400001928E-02 0. -1.
       -1   -1    0    0    0  501  0.00000000000E+00  0.00000000000E+00 -0.16797134716E+04  0.16797134716E+04  0.50400001928E-02 0.  1.
    10030    2    1    2    0    0  0.00000000000E+00  0.00000000000E+00 -0.29474178423E+03  0.30646851589E+04  0.30504790450E+04 0.  0.
        4    1    3    3  502    0  0.58787886788E+03  0.13763494791E+04 -0.44270337800E+03  0.15607457659E+04  0.12699999809E+01 0. -1.
       -4    1    3    3    0  502 -0.58787886788E+03 -0.13763494791E+04  0.14796159377E+03  0.15039393931E+04  0.12699999809E+01 0.  1.
</event>
<event>
 5   0  0.1782660E-06  0.2627828E+04  0.7818609E-02  0.8358810E-01
        2   -1    0    0  501    0  0.00000000000E+00  0.00000000000E+00  0.10594291149E+04  0.10594291149E+04  0.25500000920E-02 0. -1.
       -2   -1    0    0    0  501  0.00000000000E+00  0.00000000000E+00 -0.16295285045E+04  0.16295285045E+04  0.25500000920E-02 0.  1.
    10030    2    1    2    0    0  0.00000000000E+00  0.00000000000E+00 -0.57009938961E+03  0.26889576194E+04  0.26278279557E+04 0.  0.
        4    1    3    3  502    0  0.87942817539E+03 -0.12385495930E+03  0.70579088824E+03  0.11344057288E+04  0.12699999809E+01 0. -1.
       -4    1    3    3    0  502 -0.87942817539E+03  0.12385495930E+03 -0.12758902778E+04  0.15545518906E+04  0.12699999809E+01 0.  1.
</event>
<event>
 5   0  0.1782660E-06  0.3283504E+04  0.7818609E-02  0.8167106E-01
        2   -1    0    0  501    0  0.00000000000E+00  0.00000000000E+00  0.11523407240E+04  0.11523407240E+04  0.25500000920E-02 0. -1.
       -2   -1    0    0    0  501  0.00000000000E+00  0.00000000000E+00 -0.23390207057E+04  0.23390207057E+04  0.25500000920E-02 0.  1.
    10030    2    1    2    0    0  0.00000000000E+00  0.00000000000E+00 -0.11866799817E+04  0.34913614298E+04  0.32835035030E+04 0.  0.
        4    1    3    3  502    0 -0.12274471572E+04 -0.81042878556E+03  0.18216193077E+03  0.14820951123E+04  0.12699999809E+01 0. -1.
       -4    1    3    3    0  502  0.12274471572E+04  0.81042878556E+03 -0.13688419125E+04  0.20092663174E+04  0.12699999809E+01 0.  1.
</event>
<event>
 5   0  0.3041329E-06  0.1731842E+04  0.7818609E-02  0.8743409E-01
        2   -1    0    0  501    0  0.00000000000E+00  0.00000000000E+00  0.13518214327E+04  0.13518214327E+04  0.25500000920E-02 0. -1.
       -2   -1    0    0    0  501  0.00000000000E+00  0.00000000000E+00 -0.55467309500E+03  0.55467309501E+03  0.25500000920E-02 0.  1.
    10030    2    1    2    0    0  0.00000000000E+00  0.00000000000E+00  0.79714833773E+03  0.19064945277E+04  0.17318417687E+04 0.  0.
        2    1    3    3  502    0  0.66860156675E+03 -0.36950925204E+03 -0.50288192668E+02  0.76556779238E+03  0.25500000920E-02 0.  1.
       -2    1    3    3    0  502 -0.66860156675E+03  0.36950925204E+03  0.84743653039E+03  0.11409267354E+04  0.25500000920E-02 0. -1.
</event>
<event>
 5   0  0.1130707E-06  0.3493157E+04  0.7818609E-02  0.8115413E-01
        1   -1    0    0  501    0  0.00000000000E+00  0.00000000000E+00  0.10662563315E+04  0.10662563315E+04  0.50400001928E-02 0. -1.
       -1   -1    0    0    0  501  0.00000000000E+00  0.00000000000E+00 -0.28609793273E+04  0.28609793273E+04  0.50400001928E-02 0.  1.
    10030    2    1    2    0    0  0.00000000000E+00  0.00000000000E+00 -0.17947229958E+04  0.39272356588E+04  0.34931574955E+04 0.  0.
        3    1    3    3  502    0  0.53402651840E+02 -0.15560088785E+04 -0.17872526778E+04  0.23702927283E+04  0.10100000352E+00 0.  1.
       -3    1    3    3    0  502 -0.53402651840E+02  0.15560088785E+04 -0.74703179911E+01  0.15569429305E+04  0.10100000352E+00 0. -1.
</event>
<event>
 5   0  0.1125196E-06  0.2022391E+04  0.7818609E-02  0.8596223E-01
        1   -1    0    0  501    0  0.00000000000E+00  0.00000000000E+00  0.18184926110E+04  0.18184926110E+04  0.50400001928E-02 0. -1.
       -1   -1    0    0    0  501  0.00000000000E+00  0.00000000000E+00 -0.56228781232E+03  0.56228781234E+03  0.50400001928E-02 0.  1.
    10030    2    1    2    0    0  0.00000000000E+00  0.00000000000E+00  0.12562047987E+04  0.23807804233E+04  0.20223908939E+04 0.  0.
        4    1    3    3  502    0  0.90459651516E+03  0.38379442157E+03  0.90896428887E+03  0.13385853371E+04  0.12699999809E+01 0.  1.
       -4    1    3    3    0  502 -0.90459651516E+03 -0.38379442157E+03  0.34724050978E+03  0.10421950862E+04  0.12699999809E+01 0. -1.
</event>
<event>
 5   0  0.1782660E-06  0.3483597E+04  0.7818609E-02  0.8117688E-01
       -2   -1    0    0    0  501  0.00000000000E+00  0.00000000000E+00  0.14825822015E+04  0.14825822015E+04  0.25500000920E-02 0. -1.
        2   -1    0    0  501    0  0.00000000000E+00  0.00000000000E+00 -0.20463364710E+04  0.20463364710E+04  0.25500000920E-02 0.  1.
    10030    2    1    2    0    0  0.00000000000E+00  0.00000000000E+00 -0.56375426949E+03  0.35289186725E+04  0.34835970090E+04 0.  0.
        4    1    3    3  502    0  0.68305989278E+03  0.14594312379E+04 -0.95180545431E+03  0.18714821910E+04  0.12699999809E+01 0. -1.
       -4    1    3    3    0  502 -0.68305989278E+03 -0.14594312379E+04  0.38805118482E+03  0.16574364815E+04  0.12699999809E+01 0.  1.
</event>
<event>
 5   0  0.1102175E-06  0.3096480E+04  0.7818609E-02  0.8216705E-01
        1   -1    0    0  501    0  0.00000000000E+00  0.00000000000E+00  0.14367349147E+04  0.14367349147E+04  0.50400001928E-02 0.  1.
       -1   -1    0    0    0  501  0.00000000000E+00  0.00000000000E+00 -0.16683985656E+04  0.16683985656E+04  0.50400001928E-02 0. -1.
    10030    2    1    2    0    0  0.00000000000E+00  0.00000000000E+00 -0.23166365090E+03  0.31051334804E+04  0.30964795953E+04 0.  0.
        5    1    3    3  502    0 -0.12605066884E+04 -0.85345146571E+03  0.16738955521E+03  0.15314365377E+04  0.46999998093E+01 0. -1.
       -5    1    3    3    0  502  0.12605066884E+04  0.85345146571E+03 -0.39905320611E+03  0.15736969426E+04  0.46999998093E+01 0.  1.
</event>
<event>
 5   0  0.1908726E-06  0.3074521E+04  0.7818609E-02  0.8222765E-01
        2   -1    0    0  501    0  0.00000000000E+00  0.00000000000E+00  0.15574195719E+04  0.15574195719E+04  0.25500000920E-02 0. -1.
       -2   -1    0    0    0  501  0.00000000000E+00  0.00000000000E+00 -0.15173621039E+04  0.15173621039E+04  0.25500000920E-02 0.  1.
    10030    2    1    2    0    0  0.00000000000E+00  0.00000000000E+00  0.40057468007E+02  0.30747816757E+04  0.30745207354E+04 0.  0.
        5    1    3    3  502    0  0.30466125244E+03  0.32713379362E+03  0.14909738638E+04  0.15565539342E+04  0.46999998093E+01 0. -1.
       -5    1    3    3    0  502 -0.30466125244E+03 -0.32713379362E+03 -0.14509163957E+04  0.15182277415E+04  0.46999998093E+01 0.  1.
</event>
<event>
 5   0  0.1125196E-06  0.3687914E+04  0.7818609E-02  0.8070646E-01
        1   -1    0    0  501    0  0.00000000000E+00  0.00000000000E+00  0.24211327442E+04  0.24211327442E+04  0.50400001928E-02 0. -1.
       -1   -1    0    0    0  501  0.00000000000E+00  0.00000000000E+00 -0.14043746663E+04  0.14043746663E+04  0.50400001928E-02 0.  1.
    10030    2    1    2    0    0  0.00000000000E+00  0.00000000000E+00  0.10167580779E+04  0.38255074104E+04  0.36879140389E+04 0.  0.
        4    1    3    3  502    0  0.52389970156E+03  0.60360130033E+03  0.22321144142E+04  0.23708947252E+04  0.12699999809E+01 0. -1.
       -4    1    3    3    0  502 -0.52389970156E+03 -0.60360130033E+03 -0.12153563363E+04  0.14546126852E+04  0.12699999809E+01 0.  1.
</event>
<event>
 5   0  0.1089337E-06  0.3456511E+04  0.7818609E-02  0.8124174E-01
       -1   -1    0    0    0  501  0.00000000000E+00  0.00000000000E+00  0.15886635197E+04  0.15886635197E+04  0.50400001928E-02 0.  1.
        1   -1    0    0  501    0  0.00000000000E+00  0.00000000000E+00 -0.18801132760E+04  0.18801132760E+04  0.50400001928E-02 0. -1.
    10030    2    1    2    0    0  0.00000000000E+00  0.00000000000E+00 -0.29144975633E+03  0.34687767957E+04  0.34565111743E+04 0.  0.
        2    1    3    3  502    0 -0.10758234292E+04 -0.97708691487E+03 -0.10843365429E+04  0.18132513968E+04  0.25500000920E-02 0. -1.
       -2    1    3    3    0  502  0.10758234292E+04  0.97708691487E+03  0.79288678652E+03  0.16555253988E+04  0.25500000920E-02 0.  1.
</event>
<event>
 5   0  0.1130707E-06  0.3491188E+04  0.7818609E-02  0.8115881E-01
       -1   -1    0    0    0  501  0.00000000000E+00  0.00000000000E+00  0.17687639139E+04  0.17687639139E+04  0.50400001928E-02 0.  1.
        1   -1    0    0  501    0  0.00000000000E+00  0.00000000000E+00 -0.17227277736E+04  0.17227277736E+04  0.50400001928E-02 0. -1.
    10030    2    1    2    0    0  0.00000000000E+00  0.00000000000E+00  0.46036140283E+02  0.34914916875E+04  0.34911881756E+04 0.  0.
        3    1    3    3  502    0 -0.27170462863E+02  0.16267992406E+04 -0.60940128293E+03  0.17374072456E+04  0.10100000352E+00 0. -1.
       -3    1    3    3    0  502  0.27170462863E+02 -0.16267992406E+04  0.65543742321E+03  0.17540844419E+04  0.10100000352E+00 0.  1.
</event>
<event>
 5   0  0.1130707E-06  0.3786831E+04  0.7818609E-02  0.8048987E-01
       -1   -1    0    0    0  501  0.00000000000E+00  0.00000000000E+00  0.17868404624E+04  0.17868404624E+04  0.50400001928E-02 0.  1.
        1   -1    0    0  501    0  0.00000000000E+00  0.00000000000E+00 -0.20063469564E+04  0.20063469564E+04  0.50400001928E-02 0. -1.
    10030    2    1    2    0    0  0.00000000000E+00  0.00000000000E+00 -0.21950649403E+03  0.37931874188E+04  0.37868308244E+04 0.  0.
        3    1    3    3  502    0 -0.11892921109E+04  0.13704874704E+04  0.43186714955E+03  0.18652508884E+04  0.10100000352E+00 0.  1.
       -3    1    3    3    0  502  0.11892921109E+04 -0.13704874704E+04 -0.65137364359E+03  0.19279365304E+04  0.10100000352E+00 0. -1.
</event>
<event>
 5   0  0.1125196E-06  0.1885784E+04  0.7818609E-02  0.8661965E-01
        1   -1    0    0  501    0  0.00000000000E+00  0.00000000000E+00  0.18385238980E+04  0.18385238980E+04  0.50400001928E-02 0. -1.
       -1   -1    0    0    0  501  0.00000000000E+00  0.00000000000E+00 -0.48356461498E+03  0.48356461501E+03  0.50400001928E-02 0.  1.
    10030    2    1    2    0    0  0.00000000000E+00  0.00000000000E+00  0.13549592830E+04  0.23220885130E+04  0.18857837638E+04 0.  0.
        4    1    3    3  502    0 -0.13987870418E+03 -0.41214921603E+03 -0.35246770928E+03  0.56006082451E+03  0.12699999809E+01 0.  1.
       -4    1    3    3    0  502  0.13987870418E+03  0.41214921603E+03  0.17074269923E+04  0.17620276885E+04  0.12699999809E+01 0. -1.
</event>
<event>
 5   0  0.1782660E-06  0.3435052E+04  0.7818609E-02  0.8129357E-01
        2   -1    0    0  501    0  0.00000000000E+00  0.00000000000E+00  0.26260240890E+04  0.26260240890E+04  0.25500000920E-02 0.  1.
       -2   -1    0    0    0  501  0.00000000000E+00  0.00000000000E+00 -0.11233316946E+04  0.11233316946E+04  0.25500000920E-02 0. -1.
    10030    2    1    2    0    0  0.00000000000E+00  0.00000000000E+00  0.15026923945E+04  0.37493557836E+04  0.34350523082E+04 0.  0.
        4    1    3    3  502    0  0.44585964232E+03 -0.15576717417E+04  0.13733688065E+04  0.21239763575E+04  0.12699999809E+01 0.  1.
       -4    1    3    3    0  502 -0.44585964232E+03  0.15576717417E+04  0.12932358797E+03  0.16253794261E+04  0.12699999809E+01 0. -1.
</event>
<event>
 5   0  0.1782660E-06  0.3482410E+04  0.7818609E-02  0.8117971E-01
       -2   -1    0    0    0  501  0.00000000000E+00  0.00000000000E+00  0.22197124047E+04  0.22197124047E+04  0.25500000920E-02 0. -1.
        2   -1    0    0  501    0  0.00000000000E+00  0.00000000000E+00 -0.13658502715E+04  0.13658502715E+04  0.25500000920E-02 0.  1.
    10030    2    1    2    0    0  0.00000000000E+00  0.00000000000E+00  0.85386213320E+03  0.35855626761E+04  0.34824099646E+04 0.  0.
        4    1    3    3  502    0  0.34050128825E+03  0.99375643257E+03 -0.10028342084E+04  0.14522985358E+04  0.12699999809E+01 0.  1.
       -4    1    3    3    0  502 -0.34050128825E+03 -0.99375643257E+03  0.18566963416E+04  0.21332641403E+04  0.12699999809E+01 0. -1.
</event>
<event>
 5   0  0.1089337E-06  0.3460387E+04  0.7818609E-02  0.8123242E-01
       -1   -1    0    0    0  501  0.00000000000E+00  0.00000000000E+00  0.18236449164E+04  0.18236449164E+04  0.50400001928E-02 0. -1.
        1   -1    0    0  501    0  0.00000000000E+00  0.00000000000E+00 -0.16415307796E+04  0.16415307796E+04  0.50400001928E-02 0.  1.
    10030    2    1    2    0    0  0.00000000000E+00  0.00000000000E+00  0.18211413676E+03  0.34651756960E+04  0.34603868346E+04 0.  0.
        2    1    3    3  502    0  0.10290159541E+04 -0.11176573578E+04  0.92017480082E+03  0.17761625678E+04  0.25500000920E-02 0. -1.
       -2    1    3    3    0  502 -0.10290159541E+04  0.11176573578E+04 -0.73806066407E+03  0.16890131282E+04  0.25500000920E-02 0.  1.
</event>
<event>
 5   0  0.1102175E-06  0.3462819E+04  0.7818609E-02  0.8122658E-01
       -1   -1    0    0    0  501  0.00000000000E+00  0.00000000000E+00  0.19726880058E+04  0.19726880058E+04  0.50400001928E-02 0. -1.
        1   -1    0    0  501    0  0.00000000000E+00  0.00000000000E+00 -0.15196419918E+04  0.15196419918E+04  0.50400001928E-02 0.  1.
    10030    2    1    2    0    0  0.00000000000E+00  0.00000000000E+00  0.45304601400E+03  0.34923299976E+04  0.34628193891E+04 0.  0.
        5    1    3    3  502    0 -0.20702142268E+02  0.12901777683E+03  0.19677017207E+04  0.19720411550E+04  0.46999998093E+01 0. -1.
       -5    1    3    3    0  502  0.20702142268E+02 -0.12901777683E+03 -0.15146557066E+04  0.15202888427E+04  0.46999998093E+01 0.  1.
</event>
<event>
 5   0  0.2565004E-06  0.3184455E+04  0.7818609E-02  0.8192935E-01
        2   -1    0    0  501    0  0.00000000000E+00  0.00000000000E+00  0.10298889237E+04  0.10298889237E+04  0.25500000920E-02 0. -1.
       -2   -1    0    0    0  501  0.00000000000E+00  0.00000000000E+00 -0.24616142075E+04  0.24616142075E+04  0.25500000920E-02 0.  1.
    10030    2    1    2    0    0  0.00000000000E+00  0.00000000000E+00 -0.14317252838E+04  0.34915031312E+04  0.31844554993E+04 0.  0.
        3    1    3    3  502    0 -0.32336535022E+03  0.12700213542E+04  0.27557689132E+03  0.13392020098E+04  0.10100000352E+00 0. -1.
       -3    1    3    3    0  502  0.32336535022E+03 -0.12700213542E+04 -0.17073021752E+04  0.21523011214E+04  0.10100000352E+00 0.  1.
</event>
<event>
 5   0  0.1908726E-06  0.1828886E+04  0.7818609E-02  0.8691087E-01
        2   -1    0    0  501    0  0.00000000000E+00  0.00000000000E+00  0.68405750477E+03  0.68405750477E+03  0.25500000920E-02 0. -1.
       -2   -1    0    0    0  501  0.00000000000E+00  0.00000000000E+00 -0.12224206747E+04  0.12224206747E+04  0.25500000920E-02 0.  1.
    10030    2    1    2    0    0  0.00000000000E+00  0.00000000000E+00 -0.53836316991E+03  0.19064781794E+04  0.18288860396E+04 0.  0.
        5    1    3    3  502    0 -0.21762749207E+03 -0.80237418895E+03 -0.66615001817E+03  0.10653375057E+04  0.46999998093E+01 0.  1.
       -5    1    3    3    0  502  0.21762749207E+03  0.80237418895E+03  0.12778684826E+03  0.84114067372E+03  0.46999998093E+01 0. -1.
</event>
<event>
 5   0  0.1089337E-06  0.3498372E+04  0.7818609E-02  0.8114176E-01
        1   -1    0    0  501    0  0.00000000000E+00  0.00000000000E+00  0.22170811089E+04  0.22170811089E+04  0.50400001928E-02 0.  1.
       -1   -1    0    0    0  501  0.00000000000E+00  0.00000000000E+00 -0.13800356151E+04  0.13800356151E+04  0.50400001928E-02 0. -1.
    10030    2    1    2    0    0  0.00000000000E+00  0.00000000000E+00  0.83704549384E+03  0.35971167240E+04  0.34983715593E+04 0.  0.
        2    1    3    3  502    0 -0.13265521050E+04  0.70840663157E+03 -0.50004081137E+03  0.15848095330E+04  0.25500000920E-02 0. -1.
       -2    1    3    3    0  502  0.13265521050E+04 -0.70840663157E+03  0.13370863052E+04  0.20123071909E+04  0.25500000920E-02 0.  1.
</event>
<event>
 5   0  0.1125196E-06  0.3439292E+04  0.7818609E-02  0.8128330E-01
        1   -1    0    0  501    0  0.00000000000E+00  0.00000000000E+00  0.19158475295E+04  0.19158475295E+04  0.50400001928E-02 0. -1.
       -1   -1    0    0    0  501  0.00000000000E+00  0.00000000000E+00 -0.15435376063E+04  0.15435376063E+04  0.50400001928E-02 0.  1.
    10030    2    1    2    0    0  0.00000000000E+00  0.00000000000E+00  0.37230992324E+03  0.34593851358E+04  0.34392922003E+04 0.  0.
        4    1    3    3  502    0 -0.57624400042E+03 -0.11069588303E+04  0.13761840452E+04  0.18577672457E+04  0.12699999809E+01 0. -1.
       -4    1    3    3    0  502  0.57624400042E+03  0.11069588303E+04 -0.10038741220E+04  0.16016178901E+04  0.12699999809E+01 0.  1.
</event>
<event>
 5   0  0.1125196E-06  0.2314389E+04  0.7818609E-02  0.8472269E-01
       -1   -1    0    0    0  501  0.00000000000E+00  0.00000000000E+00  0.72000092114E+03  0.72000092116E+03  0.50400001928E-02 0. -1.
        1   -1    0    0  501    0  0.00000000000E+00  0.00000000000E+00 -0.18598582337E+04  0.18598582337E+04  0.50400001928E-02 0.  1.
    10030    2    1    2    0    0  0.00000000000E+00  0.00000000000E+00 -0.11398573126E+04  0.25798591549E+04  0.23143894586E+04 0.  0.
        4    1    3    3  502    0  0.98286260525E+02 -0.24567142805E+03  0.68582552811E+03  0.73510061045E+03  0.12699999809E+01 0. -1.
       -4    1    3    3    0  502 -0.98286260525E+02  0.24567142805E+03 -0.18256828407E+04  0.18447585444E+04  0.12699999809E+01 0.  1.
</event>
<event>
 5   0  0.1102175E-06  0.3478109E+04  0.7818609E-02  0.8118998E-01
       -1   -1    0    0    0  501  0.00000000000E+00  0.00000000000E+00  0.22481020242E+04  0.22481020242E+04  0.50400001928E-02 0. -1.
        1   -1    0    0  501    0  0.00000000000E+00  0.00000000000E+00 -0.13452725128E+04  0.13452725128E+04  0.50400001928E-02 0.  1.
    10030    2    1    2    0    0  0.00000000000E+00  0.00000000000E+00  0.90282951141E+03  0.35933745371E+04  0.34781086005E+04 0.  0.
        5    1    3    3  502    0 -0.18567893882E+03 -0.40134941982E+03 -0.12862063230E+04  0.13601127970E+04  0.46999998093E+01 0.  1.
       -5    1    3    3    0  502  0.18567893882E+03  0.40134941982E+03  0.21890358345E+04  0.22332617401E+04  0.46999998093E+01 0. -1.
</event>
<event>
 5   0  0.2565004E-06  0.3504559E+04  0.7818609E-02  0.8112710E-01
       -2   -1    0    0    0  501  0.00000000000E+00  0.00000000000E+00  0.18566907841E+04  0.18566907841E+04  0.25500000920E-02 0. -1.
        2   -1    0    0  501    0  0.00000000000E+00  0.00000000000E+00 -0.16537396303E+04  0.16537396303E+04  0.25500000920E-02 0.  1.
    10030    2    1    2    0    0  0.00000000000E+00  0.00000000000E+00  0.20295115380E+03  0.35104304144E+04  0.35045588201E+04 0.  0.
        3    1    3    3  502    0 -0.91793143736E+02  0.14365258944E+04 -0.89942348742E+03  0.16973494768E+04  0.10100000352E+00 0.  1.
       -3    1    3    3    0  502  0.91793143736E+02 -0.14365258944E+04  0.11023746412E+04  0.18130809376E+04  0.10100000352E+00 0. -1.
</event>
<event>
 5   0  0.1782660E-06  0.3391836E+04  0.7818609E-02  0.8139913E-01
        2   -1    0    0  501    0  0.00000000000E+00  0.00000000000E+00  0.16311491567E+04  0.16311491567E+04  0.25500000920E-02 0.  1.
       -2   -1    0    0    0  501  0.00000000000E+00  0.00000000000E+00 -0.17632591130E+04  0.17632591130E+04  0.25500000920E-02 0. -1.
    10030    2    1    2    0    0  0.00000000000E+00  0.00000000000E+00 -0.13210995623E+03  0.33944082697E+04  0.33918364437E+04 0.  0.
        4    1    3    3  502    0  0.12110951566E+04 -0.30282767609E+03  0.10827182445E+04  0.16524940210E+04  0.12699999809E+01 0.  1.
       -4    1    3    3    0  502 -0.12110951566E+04  0.30282767609E+03 -0.12148282007E+04  0.17419142487E+04  0.12699999809E+01 0. -1.
</event>
<event>
 5   0  0.1102175E-06  0.3619740E+04  0.7818609E-02  0.8085985E-01
        1   -1    0    0  501    0  0.00000000000E+00  0.00000000000E+00  0.27747092042E+04  0.27747092042E+04  0.50400001928E-02 0. -1.
       -1   -1    0    0    0  501  0.00000000000E+00  0.00000000000E+00 -0.11805305025E+04  0.11805305025E+04  0.50400001928E-02 0.  1.
    10030    2    1    2    0    0  0.00000000000E+00  0.00000000000E+00  0.15941787017E+04  0.39552397066E+04  0.36197396873E+04 0.  0.
        5    1    3    3  502    0 -0.31858082317E+02 -0.25128170249E+03  0.27552395744E+04  0.27668618747E+04  0.46999998093E+01 0. -1.
       -5    1    3    3    0  502  0.31858082317E+02  0.25128170249E+03 -0.11610608727E+04  0.11883778319E+04  0.46999998093E+01 0.  1.
</event>
<event>
 5   0  0.1089337E-06  0.2309498E+04  0.7818609E-02  0.8474186E-01
        1   -1    0    0  501    0  0.00000000000E+00  0.00000000000E+00  0.93487983470E+03  0.93487983471E+03  0.50400001928E-02 0.  1.
       -1   -1    0    0    0  501  0.00000000000E+00  0.00000000000E+00 -0.14263275895E+04  0.14263275895E+04  0.50400001928E-02 0. -1.
    10030    2    1    2    0    0  0.00000000000E+00  0.00000000000E+00 -0.49144775484E+03  0.23612074243E+04  0.23094976953E+04 0.  0.
        2    1    3    3  502    0  0.62576441749E+03  0.81400969057E+03 -0.78599874738E+03  0.12930533297E+04  0.25500000920E-02 0. -1.
       -2    1    3    3    0  502 -0.62576441749E+03 -0.81400969057E+03  0.29455099253E+03  0.10681540946E+04  0.25500000920E-02 0.  1.
</event>
<event>
 5   0  0.1110956E-06  0.1921697E+04  0.7818609E-02  0.8644131E-01
        1   -1    0    0  501    0  0.00000000000E+00  0.00000000000E+00  0.84660366960E+03  0.84660366961E+03  0.50400001928E-02 0. -1.
       -1   -1    0    0    0  501  0.00000000000E+00  0.00000000000E+00 -0.10905097445E+04  0.10905097445E+04  0.50400001928E-02 0.  1.
    10030    2    1    2    0    0  0.00000000000E+00  0.00000000000E+00 -0.24390607492E+03  0.19371134141E+04  0.19216966998E+04 0.  0.
        1    1    3    3  502    0  0.76995223488E+01  0.40826100904E+03 -0.99869687802E+03  0.10789493910E+04  0.50400001928E-02 0.  1.
       -1    1    3    3    0  502 -0.76995223488E+01 -0.40826100904E+03  0.75479080310E+03  0.85816402314E+03  0.50400001928E-02 0. -1.
</event>
<event>
 5   0  0.1102175E-06  0.3050519E+04  0.7818609E-02  0.8229450E-01
        1   -1    0    0  501    0  0.00000000000E+00  0.00000000000E+00  0.19443093770E+04  0.19443093770E+04  0.50400001928E-02 0. -1.
       -1   -1    0    0    0  501  0.00000000000E+00  0.00000000000E+00 -0.11965256873E+04  0.11965256873E+04  0.50400001928E-02 0.  1.
    10030    2    1    2    0    0  0.00000000000E+00  0.00000000000E+00  0.74778368969E+03  0.31408350644E+04  0.30505187190E+04 0.  0.
        5    1    3    3  502    0  0.28827141207E+03  0.82048430166E+03  0.16640262959E+04  0.18775783605E+04  0.46999998093E+01 0. -1.
       -5    1    3    3    0  502 -0.28827141207E+03 -0.82048430166E+03 -0.91624260626E+03  0.12632567038E+04  0.46999998093E+01 0.  1.
</event>
<event>
 5   0  0.2565004E-06  0.3457769E+04  0.7818609E-02  0.8123872E-01
        2   -1    0    0  501    0  0.00000000000E+00  0.00000000000E+00  0.14562545886E+04  0.14562545886E+04  0.25500000920E-02 0. -1.
       -2   -1    0    0    0  501  0.00000000000E+00  0.00000000000E+00 -0.20525545108E+04  0.20525545108E+04  0.25500000920E-02 0.  1.
    10030    2    1    2    0    0  0.00000000000E+00  0.00000000000E+00 -0.59629992224E+03  0.35088090994E+04  0.34577691795E+04 0.  0.
        3    1    3    3  502    0 -0.86026114569E+03 -0.83088781825E+03  0.96872455625E+03  0.15391072352E+04  0.10100000352E+00 0. -1.
       -3    1    3    3    0  502  0.86026114569E+03  0.83088781825E+03 -0.15650244785E+04  0.19697018642E+04  0.10100000352E+00 0.  1.
</event>
<event>
 5   0  0.1110956E-06  0.3472537E+04  0.7818609E-02  0.8120329E-01
       -1   -1    0    0    0  501  0.00000000000E+00  0.00000000000E+00  0.11893092999E+04  0.11893092999E+04  0.50400001928E-02 0.  1.
        1   -1    0    0  501    0  0.00000000000E+00  0.00000000000E+00 -0.25347719170E+04  0.25347719170E+04  0.50400001928E-02 0. -1.
    10030    2    1    2    0    0  0.00000000000E+00  0.00000000000E+00 -0.13454626171E+04  0.37240812169E+04  0.34725367177E+04 0.  0.
        1    1    3    3  502    0 -0.60362509884E+03 -0.84760932233E+03 -0.21633136171E+04  0.24005688137E+04  0.50400001928E-02 0. -1.
       -1    1    3    3    0  502  0.60362509884E+03  0.84760932233E+03  0.81785099995E+03  0.13235124032E+04  0.50400001928E-02 0.  1.
</event>
<event>
 5   0  0.1125196E-06  0.1900494E+04  0.7818609E-02  0.8654611E-01
       -1   -1    0    0    0  501  0.00000000000E+00  0.00000000000E+00  0.14276311423E+04  0.14276311424E+04  0.50400001928E-02 0.  1.
        1   -1    0    0  501    0  0.00000000000E+00  0.00000000000E+00 -0.63249474182E+03  0.63249474184E+03  0.50400001928E-02 0. -1.
    10030    2    1    2    0    0  0.00000000000E+00  0.00000000000E+00  0.79513640053E+03  0.20601258842E+04  0.19004938209E+04 0.  0.
        4    1    3    3  502    0  0.56727014541E+01 -0.37051958359E+03  0.13460797441E+04  0.13961551604E+04  0.12699999809E+01 0.  1.
       -4    1    3    3    0  502 -0.56727014541E+01  0.37051958359E+03 -0.55094334359E+03  0.66397072384E+03  0.12699999809E+01 0. -1.
</event>
<event>
 5   0  0.1782660E-06  0.3330872E+04  0.7818609E-02  0.8155084E-01
        2   -1    0    0  501    0  0.00000000000E+00  0.00000000000E+00  0.99185989491E+03  0.99185989491E+03  0.25500000920E-02 0. -1.
       -2   -1    0    0    0  501  0.00000000000E+00  0.00000000000E+00 -0.27964410348E+04  0.27964410348E+04  0.25500000920E-02 0.  1.
    10030    2    1    2    0    0  0.00000000000E+00  0.00000000000E+00 -0.18045811399E+04  0.37883009297E+04  0.33308723848E+04 0.  0.
        4    1    3    3  502    0 -0.14024214294E+04  0.77504451651E+03 -0.38584228840E+03  0.16481370552E+04  0.12699999809E+01 0. -1.
       -4    1    3    3    0  502  0.14024214294E+04 -0.77504451651E+03 -0.14187388515E+04  0.21401638745E+04  0.12699999809E+01 0.  1.
</event>
<event>
 5   0  0.3041329E-06  0.2054876E+04  0.7818609E-02  0.8581385E-01
       -2   -1    0    0    0  501  0.00000000000E+00  0.00000000000E+00  0.92150679209E+03  0.92150679210E+03  0.25500000920E-02 0. -1.
        2   -1    0    0  501    0  0.00000000000E+00  0.00000000000E+00 -0.11455468614E+04  0.11455468614E+04  0.25500000920E-02 0.  1.
    10030    2    1    2    0    0  0.00000000000E+00  0.00000000000E+00 -0.22404006935E+03  0.20670536535E+04  0.20548763598E+04 0.  0.
        2    1    3    3  502    0  0.51412699910E+02 -0.57298561997E+03  0.74430220238E+03  0.94071332237E+03  0.25500000920E-02 0. -1.
       -2    1    3    3    0  502 -0.51412699910E+02  0.57298561997E+03 -0.96834227173E+03  0.11263403312E+04  0.25500000920E-02 0.  1.
</event>
<event>
 5   0  0.1908726E-06  0.3493361E+04  0.7818609E-02  0.8115365E-01
       -2   -1    0    0    0  501  0.00000000000E+00  0.00000000000E+00  0.15266110170E+04  0.15266110170E+04  0.25500000920E-02 0.  1.
        2   -1    0    0  501    0  0.00000000000E+00  0.00000000000E+00 -0.19984745993E+04  0.19984745993E+04  0.25500000920E-02 0. -1.
    10030    2    1    2    0    0  0.00000000000E+00  0.00000000000E+00 -0.47186358233E+03  0.35250856163E+04  0.34933613271E+04 0.  0.
        5    1    3    3  502    0  0.46264992852E+03 -0.28481606669E+03 -0.19110390104E+04  0.19867705800E+04  0.46999998093E+01 0. -1.
       -5    1    3    3    0  502 -0.46264992852E+03  0.28481606669E+03  0.14391754281E+04  0.15383150363E+04  0.46999998093E+01 0.  1.
</event>
<event>
 5   0  0.3041329E-06  0.3261503E+04  0.7818609E-02  0.8172760E-01
       -2   -1    0    0    0  501  0.00000000000E+00  0.00000000000E+00  0.13820624568E+04  0.13820624568E+04  0.25500000920E-02 0.  1.
        2   -1    0    0  501    0  0.00000000000E+00  0.00000000000E+00 -0.19241902989E+04  0.19241902989E+04  0.25500000920E-02 0. -1.
    10030    2    1    2    0    0  0.00000000000E+00  0.00000000000E+00 -0.54212784215E+03  0.33062527558E+04  0.32615034398E+04 0.  0.
        2    1    3    3  502    0 -0.45053002551E+03  0.14371437899E+04 -0.90493643660E+03  0.17570627567E+04  0.25500000920E-02 0. -1.
       -2    1    3    3    0  502  0.45053002551E+03 -0.14371437899E+04  0.36280859445E+03  0.15491899990E+04  0.25500000920E-02 0.  1.
</event>
<event>
 5   0  0.1908726E-06  0.1913681E+04  0.7818609E-02  0.8648076E-01
        2   -1    0    0  501    0  0.00000000000E+00  0.00000000000E+00  0.91883108596E+03  0.91883108596E+03  0.25500000920E-02 0. -1.
       -2   -1    0    0    0  501  0.00000000000E+00  0.00000000000E+00 -0.99642191492E+03  0.99642191493E+03  0.25500000920E-02 0.  1.
    10030    2    1    2    0    0  0.00000000000E+00  0.00000000000E+00 -0.77590828969E+02  0.19152530009E+04  0.19136806736E+04 0.  0.
        5    1    3    3  502    0 -0.67440087428E+03  0.90080695633E+02 -0.71209645667E+03  0.98490330721E+03  0.46999998093E+01 0.  1.
       -5    1    3    3    0  502  0.67440087428E+03 -0.90080695633E+02  0.63450562770E+03  0.93034969368E+03  0.46999998093E+01 0. -1.
</event>
<event>
 5   0  0.1130707E-06  0.1871993E+04  0.7818609E-02  0.8668924E-01
       -1   -1    0    0    0  501  0.00000000000E+00  0.00000000000E+00  0.51269481800E+03  0.51269481803E+03  0.50400001928E-02 0.  1.
        1   -1    0    0  501    0  0.00000000000E+00  0.00000000000E+00 -0.17087932604E+04  0.17087932604E+04  0.50400001928E-02 0. -1.
    10030    2    1    2    0    0  0.00000000000E+00  0.00000000000E+00 -0.11960984423E+04  0.22214880784E+04  0.18719930018E+04 0.  0.
        3    1    3    3  502    0 -0.27821914089E+03  0.87829746208E+03 -0.79404151731E+03  0.12162706375E+04  0.10100000352E+00 0. -1.
       -3    1    3    3    0  502  0.27821914089E+03 -0.87829746208E+03 -0.40205692503E+03  0.10052174409E+04  0.10100000352E+00 0.  1.
</event>
<event>
 5   0  0.1125196E-06  0.2376431E+04  0.7818609E-02  0.8448381E-01
       -1   -1    0    0    0  501  0.00000000000E+00  0.00000000000E+00  0.47185677238E+03  0.47185677241E+03  0.50400001928E-02 0.  1.
        1   -1    0    0  501    0  0.00000000000E+00  0.00000000000E+00 -0.29921276774E+04  0.29921276774E+04  0.50400001928E-02 0. -1.
    10030    2    1    2    0    0  0.00000000000E+00  0.00000000000E+00 -0.25202709051E+04  0.34639844499E+04  0.23764306920E+04 0.  0.
        4    1    3    3  502    0 -0.92851010367E+03  0.22151412092E+03 -0.22915182335E+04  0.24823893622E+04  0.12699999809E+01 0. -1.
       -4    1    3    3    0  502  0.92851010367E+03 -0.22151412092E+03 -0.22875267156E+03  0.98159508762E+03  0.12699999809E+01 0.  1.
</event>
<event>
 5   0  0.1102175E-06  0.3492449E+04  0.7818609E-02  0.8115582E-01
       -1   -1    0    0    0  501  0.00000000000E+00  0.00000000000E+00  0.14200140763E+04  0.14200140763E+04  0.50400001928E-02 0. -1.
        1   -1    0    0  501    0  0.00000000000E+00  0.00000000000E+00 -0.21473729670E+04  0.21473729670E+04  0.50400001928E-02 0.  1.
    10030    2    1    2    0    0  0.00000000000E+00  0.00000000000E+00 -0.72735889065E+03  0.35673870433E+04  0.34924489060E+04 0.  0.
        5    1    3    3  502    0 -0.87978982362E+03  0.73233736100E+03 -0.17106595164E+04  0.20583309295E+04  0.46999998093E+01 0.  1.
       -5    1    3    3    0  502  0.87978982362E+03 -0.73233736100E+03  0.98330062576E+03  0.15090561138E+04  0.46999998093E+01 0. -1.
</event>
<event>
 5   0  0.3041329E-06  0.3661806E+04  0.7818609E-02  0.8076479E-01
       -2   -1    0    0    0  501  0.00000000000E+00  0.00000000000E+00  0.13017750068E+04  0.13017750068E+04  0.25500000920E-02 0.  1.
        2   -1    0    0  501    0  0.00000000000E+00  0.00000000000E+00 -0.25751036889E+04  0.25751036889E+04  0.25500000920E-02 0. -1.
    10030    2    1    2    0    0  0.00000000000E+00  0.00000000000E+00 -0.12733286821E+04  0.38768786957E+04  0.36618059053E+04 0.  0.
        2    1    3    3  502    0 -0.17559437409E+04 -0.29517531715E+03 -0.10880114240E+04  0.20866805572E+04  0.25500000920E-02 0. -1.
       -2    1    3    3    0  502  0.17559437409E+04  0.29517531715E+03 -0.18531725813E+03  0.17901981385E+04  0.25500000920E-02 0.  1.
</event>
<event>
 5   0  0.1782660E-06  0.2431214E+04  0.7818609E-02  0.8427909E-01
       -2   -1    0    0    0  501  0.00000000000E+00  0.00000000000E+00  0.20762957975E+04  0.20762957975E+04  0.25500000920E-02 0.  1.
        2   -1    0    0  501    0  0.00000000000E+00  0.00000000000E+00 -0.71170015701E+03  0.71170015702E+03  0.25500000920E-02 0. -1.
    10030    2    1    2    0    0  0.00000000000E+00  0.00000000000E+00  0.13645956405E+04  0.27879959545E+04  0.24312137258E+04 0.  0.
        4    1    3    3  502    0 -0.27007865140E+01 -0.92201132163E+03  0.15907576197E+04  0.18386472171E+04  0.12699999809E+01 0.  1.
       -4    1    3    3    0  502  0.27007865140E+01  0.92201132163E+03 -0.22616197922E+03  0.94934873740E+03  0.12699999809E+01 0. -1.
</event>
<event>
 5   0  0.1782660E-06  0.2246021E+04  0.7818609E-02  0.8499514E-01
        2   -1    0    0  501    0  0.00000000000E+00  0.00000000000E+00  0.87914954413E+03  0.87914954414E+03  0.25500000920E-02 0.  1.
       -2   -1    0    0    0  501  0.00000000000E+00  0.00000000000E+00 -0.14345146803E+04  0.14345146803E+04  0.25500000920E-02 0. -1.
    10030    2    1    2    0    0  0.00000000000E+00  0.00000000000E+00 -0.55536513621E+03  0.23136642245E+04  0.22460213065E+04 0.  0.
        4    1    3    3  502    0 -0.41256511935E+02 -0.93359217836E+03  0.36385349963E+03  0.10028396868E+04  0.12699999809E+01 0.  1.
       -4    1    3    3    0  502  0.41256511935E+02  0.93359217836E+03 -0.91921863585E+03  0.13108245377E+04  0.12699999809E+01 0. -1.
</event>
<event>
 5   0  0.1782660E-06  0.3679011E+04  0.7818609E-02  0.8072629E-01
       -2   -1    0    0    0  501  0.00000000000E+00  0.00000000000E+00  0.22313784708E+04  0.22313784708E+04  0.25500000920E-02 0. -1.
        2   -1    0    0  501    0  0.00000000000E+00  0.00000000000E+00 -0.15164527202E+04  0.15164527202E+04  0.25500000920E-02 0.  1.
    10030    2    1    2    0    0  0.00000000000E+00  0.00000000000E+00  0.71492575061E+03  0.37478311910E+04  0.36790107104E+04 0.  0.
        4    1    3    3  502    0 -0.11593765619E+04 -0.25221374722E+03 -0.10745397647E+04  0.16007507943E+04  0.12699999809E+01 0.  1.
       -4    1    3    3    0  502  0.11593765619E+04  0.25221374722E+03  0.17894655153E+04  0.21470803967E+04  0.12699999809E+01 0. -1.
</event>
<event>
 5   0  0.1908726E-06  0.3492363E+04  0.7818609E-02  0.8115602E-01
        2   -1    0    0  501    0  0.00000000000E+00  0.00000000000E+00  0.22701010219E+04  0.22701010219E+04  0.25500000920E-02 0. -1.
       -2   -1    0    0    0  501  0.00000000000E+00  0.00000000000E+00 -0.13431781804E+04  0.13431781804E+04  0.25500000920E-02 0.  1.
    10030    2    1    2    0    0  0.00000000000E+00  0.00000000000E+00  0.92692284147E+03  0.36132792024E+04  0.34923631885E+04 0.  0.
        5    1    3    3  502    0  0.14779374845E+03  0.94395833257E+03  0.19756497956E+04  0.21945647702E+04  0.46999998093E+01 0. -1.
       -5    1    3    3    0  502 -0.14779374845E+03 -0.94395833257E+03 -0.10487269541E+04  0.14187144322E+04  0.46999998093E+01 0.  1.
</event>
<event>
 5   0  0.1102175E-06  0.3233222E+04  0.7818609E-02  0.8180098E-01
       -1   -1    0    0    0  501  0.00000000000E+00  0.00000000000E+00  0.32215803021E+04  0.32215803021E+04  0.50400001928E-02 0.  1.
        1   -1    0    0  501    0  0.00000000000E+00  0.00000000000E+00 -0.81122625515E+03  0.81122625517E+03  0.50400001928E-02 0. -1.
    10030    2    1    2    0    0  0.00000000000E+00  0.00000000000E+00  0.24103540469E+04  0.40328065572E+04  0.32332216281E+04 0.  0.
        5    1    3    3  502    0  0.11712894887E+04 -0.10289624551E+04  0.17383543268E+04  0.23350761564E+04  0.46999998093E+01 0.  1.
       -5    1    3    3    0  502 -0.11712894887E+04  0.10289624551E+04  0.67199972007E+03  0.16977304009E+04  0.46999998093E+01 0. -1.
</event>
<event>
 5   0  0.1908726E-06  0.3580605E+04  0.7818609E-02  0.8094949E-01
       -2   -1    0    0    0  501  0.00000000000E+00  0.00000000000E+00  0.10666355018E+04  0.10666355018E+04  0.25500000920E-02 0. -1.
        2   -1    0    0  501    0  0.00000000000E+00  0.00000000000E+00 -0.30049474774E+04  0.30049474774E+04  0.25500000920E-02 0.  1.
    10030    2    1    2    0    0  0.00000000000E+00  0.00000000000E+00 -0.19383119756E+04  0.40715829792E+04  0.35806053457E+04 0.  0.
        5    1    3    3  502    0  0.13915208991E+04 -0.34368384691E+02 -0.22494405538E+04  0.26452819308E+04  0.46999998093E+01 0.  1.
       -5    1    3    3    0  502 -0.13915208991E+04  0.34368384691E+02  0.31112857813E+03  0.14263010484E+04  0.46999998093E+01 0. -1.
</event>
<event>
 5   0  0.1782660E-06  0.3523070E+04  0.7818609E-02  0.8108344E-01
        2   -1    0    0  501    0  0.00000000000E+00  0.00000000000E+00  0.18048235220E+04  0.18048235220E+04  0.25500000920E-02 0.  1.
       -2   -1    0    0    0  501  0.00000000000E+00  0.00000000000E+00 -0.17192851107E+04  0.17192851107E+04  0.25500000920E-02 0. -1.
    10030    2    1    2    0    0  0.00000000000E+00  0.00000000000E+00  0.85538411304E+02  0.35241086327E+04  0.35230703705E+04 0.  0.
        4    1    3    3  502    0  0.40065180756E+03 -0.14278017999E+04  0.99376740148E+03  0.17851372810E+04  0.12699999809E+01 0.  1.
       -4    1    3    3    0  502 -0.40065180756E+03  0.14278017999E+04 -0.90822899017E+03  0.17389713518E+04  0.12699999809E+01 0. -1.
</event>
<event>
 5   0  0.2565004E-06  0.3316059E+04  0.7818609E-02  0.8158821E-01
        2   -1    0    0  501    0  0.00000000000E+00  0.00000000000E+00  0.19048335226E+04  0.19048335226E+04  0.25500000920E-02 0.  1.
       -2   -1    0    0    0  501  0.00000000000E+00  0.00000000000E+00 -0.14432031056E+04  0.14432031056E+04  0.25500000920E-02 0. -1.
    10030    2    1    2    0    0  0.00000000000E+00  0.00000000000E+00  0.46163041695E+03  0.33480366282E+04  0.33160588990E+04 0.  0.
        3    1    3    3  502    0  0.11627120478E+03  0.12692781580E+04  0.13014540248E+04  0.18216389939E+04  0.10100000352E+00 0.  1.
       -3    1    3    3    0  502 -0.11627120478E+03 -0.12692781580E+04 -0.83982360781E+03  0.15263976343E+04  0.10100000352E+00 0. -1.
</event>
<event>
 5   0  0.1782660E-06  0.3691510E+04  0.7818609E-02  0.8069846E-01
       -2   -1    0    0    0  501  0.00000000000E+00  0.00000000000E+00  0.16998401745E+04  0.16998401745E+04  0.25500000920E-02 0. -1.
        2   -1    0    0  501    0  0.00000000000E+00  0.00000000000E+00 -0.20041949471E+04  0.20041949471E+04  0.25500000920E-02 0.  1.
    10030    2    1    2    0    0  0.00000000000E+00  0.00000000000E+00 -0.30435477259E+03  0.37040351217E+04  0.36915097663E+04 0.  0.
        4    1    3    3  502    0 -0.24326363318E+03  0.13371342070E+04  0.11009413456E+04  0.17490507546E+04  0.12699999809E+01 0. -1.
       -4    1    3    3    0  502  0.24326363318E+03 -0.13371342070E+04 -0.14052961182E+04  0.19549843671E+04  0.12699999809E+01 0.  1.
</event>
<event>
 5   0  0.1125196E-06  0.3525608E+04  0.7818609E-02  0.8107748E-01
       -1   -1    0    0    0  501  0.00000000000E+00  0.00000000000E+00  0.15449908222E+04  0.15449908222E+04  0.50400001928E-02 0. -1.
        1   -1    0    0  501    0  0.00000000000E+00  0.00000000000E+00 -0.20113245976E+04  0.20113245976E+04  0.50400001928E-02 0.  1.
    10030    2    1    2    0    0  0.00000000000E+00  0.00000000000E+00 -0.46633377538E+03  0.35563154198E+04  0.35256080574E+04 0.  0.
        4    1    3    3  502    0 -0.11299384836E+04  0.12943695892E+04 -0.63070967363E+03  0.18302868397E+04  0.12699999809E+01 0. -1.
       -4    1    3    3    0  502  0.11299384836E+04 -0.12943695892E+04  0.16437589825E+03  0.17260285800E+04  0.12699999809E+01 0.  1.
</event>
<event>
 5   0  0.3378848E-06  0.3489336E+04  0.7818609E-02  0.8116322E-01
       -2   -1    0    0    0  501  0.00000000000E+00  0.00000000000E+00  0.20730367172E+04  0.20730367172E+04  0.25500000920E-02 0.  1.
        2   -1    0    0  501    0  0.00000000000E+00  0.00000000000E+00 -0.14683126615E+04  0.14683126615E+04  0.25500000920E-02 0. -1.
    10030    2    1    2    0    0  0.00000000000E+00  0.00000000000E+00  0.60472405573E+03  0.35413493787E+04  0.34893357876E+04 0.  0.
        1    1    3    3  502    0 -0.11345693858E+04 -0.10696123706E+04 -0.49195885998E+03  0.16350357288E+04  0.50400001928E-02 0.  1.
       -1    1    3    3    0  502  0.11345693858E+04  0.10696123706E+04  0.10966829157E+04  0.19063136500E+04  0.50400001928E-02 0. -1.
</event>
<event>
 5   0  0.1782660E-06  0.3573132E+04  0.7818609E-02  0.8096674E-01
       -2   -1    0    0    0  501  0.00000000000E+00  0.00000000000E+00  0.15276322505E+04  0.15276322505E+04  0.25500000920E-02 0.  1.
        2   -1    0    0  501    0  0.00000000000E+00  0.00000000000E+00 -0.20893895564E+04  0.20893895564E+04  0.25500000920E-02 0. -1.
    10030    2    1    2    0    0  0.00000000000E+00  0.00000000000E+00 -0.56175730593E+03  0.36170218069E+04  0.35731324465E+04 0.  0.
        4    1    3    3  502    0  0.28267726821E+03  0.44388218371E+03 -0.20091515125E+04  0.20769278379E+04  0.12699999809E+01 0. -1.
       -4    1    3    3    0  502 -0.28267726821E+03 -0.44388218371E+03  0.14473942066E+04  0.15400939689E+04  0.12699999809E+01 0.  1.
</event>
<event>
 5   0  0.1908726E-06  0.3348545E+04  0.7818609E-02  0.8150652E-01
        2   -1    0    0  501    0  0.00000000000E+00  0.00000000000E+00  0.18234128473E+04  0.18234128473E+04  0.25500000920E-02 0. -1.
       -2   -1    0    0    0  501  0.00000000000E+00  0.00000000000E+00 -0.15373305738E+04  0.15373305738E+04  0.25500000920E-02 0.  1.
    10030    2    1    2    0    0  0.00000000000E+00  0.00000000000E+00  0.28608227347E+03  0.33607434211E+04  0.33485449490E+04 0.  0.
        5    1    3    3  502    0  0.55259216603E+02  0.10802144399E+04  0.14256832034E+04  0.17895562309E+04  0.46999998093E+01 0. -1.
       -5    1    3    3    0  502 -0.55259216603E+02 -0.10802144399E+04 -0.11396009299E+04  0.15711871902E+04  0.46999998093E+01 0.  1.
</event>
<event>
 5   0  0.3378848E-06  0.3584088E+04  0.7818609E-02  0.8094146E-01
        2   -1    0    0  501    0  0.00000000000E+00  0.00000000000E+00  0.17311896217E+04  0.17311896217E+04  0.25500000920E-02 0. -1.
       -2   -1    0    0    0  501  0.00000000000E+00  0.00000000000E+00 -0.18550371347E+04  0.18550371347E+04  0.25500000920E-02 0.  1.
    10030    2    1    2    0    0  0.00000000000E+00  0.00000000000E+00 -0.12384751298E+03  0.35862267565E+04  0.35840876304E+04 0.  0.
        1    1    3    3  502    0  0.25981867210E+03  0.15977652782E+03  0.17050256541E+04  0.17320931737E+04  0.50400001928E-02 0. -1.
       -1    1    3    3    0  502 -0.25981867210E+03 -0.15977652782E+03 -0.18288731671E+04  0.18541335827E+04  0.50400001928E-02 0.  1.
</event>
<event>
 5   0  0.1782660E-06  0.1867975E+04  0.7818609E-02  0.8670963E-01
       -2   -1    0    0    0  501  0.00000000000E+00  0.00000000000E+00  0.85259750938E+03  0.85259750938E+03  0.25500000920E-02 0. -1.
        2   -1    0    0  501    0  0.00000000000E+00  0.00000000000E+00 -0.10231473327E+04  0.10231473327E+04  0.25500000920E-02 0.  1.
    10030    2    1    2    0    0  0.00000000000E+00  0.00000000000E+00 -0.17054982331E+03  0.18757448421E+04  0.18679752328E+04 0.  0.
        4    1    3    3  502    0  0.73367475573E+03  0.47063536117E+03  0.25161264842E+03  0.90724132849E+03  0.12699999809E+01 0. -1.
       -4    1    3    3    0  502 -0.73367475573E+03 -0.47063536117E+03 -0.42216247173E+03  0.96850351358E+03  0.12699999809E+01 0.  1.
</event>
<event>
 5   0  0.1908726E-06  0.1811896E+04  0.7818609E-02  0.8699999E-01
       -2   -1    0    0    0  501  0.00000000000E+00  0.00000000000E+00  0.12267009222E+04  0.12267009222E+04  0.25500000920E-02 0.  1.
        2   -1    0    0  501    0  0.00000000000E+00  0.00000000000E+00 -0.66906439343E+03  0.66906439344E+03  0.25500000920E-02 0. -1.
    10030    2    1    2    0    0  0.00000000000E+00  0.00000000000E+00  0.55763652876E+03  0.18957653156E+04  0.18118961432E+04 0.  0.
        5    1    3    3  502    0  0.80346054752E+03  0.29186428679E+03 -0.35044099491E+02  0.85556051348E+03  0.46999998093E+01 0. -1.
       -5    1    3    3    0  502 -0.80346054752E+03 -0.29186428679E+03  0.59268062825E+03  0.10402048022E+04  0.46999998093E+01 0.  1.
</event>
<event>
 5   0  0.2565004E-06  0.3343895E+04  0.7818609E-02  0.8151815E-01
        2   -1    0    0  501    0  0.00000000000E+00  0.00000000000E+00  0.21704993156E+04  0.21704993156E+04  0.25500000920E-02 0.  1.
       -2   -1    0    0    0  501  0.00000000000E+00  0.00000000000E+00 -0.12879101529E+04  0.12879101529E+04  0.25500000920E-02 0. -1.
    10030    2    1    2    0    0  0.00000000000E+00  0.00000000000E+00  0.88258916271E+03  0.34584094685E+04  0.33438947982E+04 0.  0.
        3    1    3    3  502    0  0.67568588372E+03  0.27309093211E+03  0.19975779690E+04  0.21263696346E+04  0.10100000352E+00 0.  1.
       -3    1    3    3    0  502 -0.67568588372E+03 -0.27309093211E+03 -0.11149888063E+04  0.13320398339E+04  0.10100000352E+00 0. -1.
</event>
<event>
 5   0  0.1125196E-06  0.3453266E+04  0.7818609E-02  0.8124956E-01
        1   -1    0    0  501    0  0.00000000000E+00  0.00000000000E+00  0.19329473546E+04  0.19329473546E+04  0.50400001928E-02 0. -1.
       -1   -1    0    0    0  501  0.00000000000E+00  0.00000000000E+00 -0.15423392997E+04  0.15423392997E+04  0.50400001928E-02 0.  1.
    10030    2    1    2    0    0  0.00000000000E+00  0.00000000000E+00  0.39060805487E+03  0.34752866543E+04  0.34532655092E+04 0.  0.
        4    1    3    3  502    0 -0.79465872298E+03 -0.83045410763E+03 -0.11013697715E+04  0.15919024773E+04  0.12699999809E+01 0.  1.
       -4    1    3    3    0  502  0.79465872298E+03  0.83045410763E+03  0.14919778264E+04  0.18833841770E+04  0.12699999809E+01 0. -1.
</event>
<event>
 5   0  0.3378848E-06  0.1956882E+04  0.7818609E-02  0.8627049E-01
       -2   -1    0    0    0  501  0.00000000000E+00  0.00000000000E+00  0.48422630028E+03  0.48422630029E+03  0.25500000920E-02 0.  1.
        2   -1    0    0  501    0  0.00000000000E+00  0.00000000000E+00 -0.19770656938E+04  0.19770656938E+04  0.25500000920E-02 0. -1.
    10030    2    1    2    0    0  0.00000000000E+00  0.00000000000E+00 -0.14928393935E+04  0.24612919941E+04  0.19568824250E+04 0.  0.
        1    1    3    3  502    0  0.53247149491E+03  0.80935098939E+03 -0.57409122906E+03  0.11261241744E+04  0.50400001928E-02 0.  1.
       -1    1    3    3    0  502 -0.53247149491E+03 -0.80935098939E+03 -0.91874816442E+03  0.13351678196E+04  0.50400001928E-02 0. -1.
</event>
<event>
 5   0  0.3041329E-06  0.3545522E+04  0.7818609E-02  0.8103086E-01
       -2   -1    0    0    0  501  0.00000000000E+00  0.00000000000E+00  0.18494024769E+04  0.18494024769E+04  0.25500000920E-02 0. -1.
        2   -1    0    0  501    0  0.00000000000E+00  0.00000000000E+00 -0.16992951876E+04  0.16992951876E+04  0.25500000920E-02 0.  1.
    10030    2    1    2    0    0  0.00000000000E+00  0.00000000000E+00  0.15010728926E+03  0.35486976645E+04  0.35455215294E+04 0.  0.
        2    1    3    3  502    0  0.17032792633E+04  0.40234303950E+03 -0.20740574938E+03  0.17624010086E+04  0.25500000920E-02 0.  1.
       -2    1    3    3    0  502 -0.17032792633E+04 -0.40234303950E+03  0.35751303864E+03  0.17862966559E+04  0.25500000920E-02 0. -1.
</event>
<event>
 5   0  0.1130707E-06  0.3346900E+04  0.7818609E-02  0.8151063E-01
        1   -1    0    0  501    0  0.00000000000E+00  0.00000000000E+00  0.27464578816E+04  0.27464578816E+04  0.50400001928E-02 0.  1.
       -1   -1    0    0    0  501  0.00000000000E+00  0.00000000000E+00 -0.10196530531E+04  0.10196530531E+04  0.50400001928E-02 0. -1.
    10030    2    1    2    0    0  0.00000000000E+00  0.00000000000E+00  0.17268048285E+04  0.37661109347E+04  0.33468995588E+04 0.  0.
        3    1    3    3  502    0 -0.16017822392E+04  0.27068628123E+03  0.13155482459E+04  0.20903694894E+04  0.10100000352E+00 0.  1.
       -3    1    3    3    0  502  0.16017822392E+04 -0.27068628123E+03  0.41125658264E+03  0.16757414453E+04  0.10100000352E+00 0. -1.
</event>
<event>
 5   0  0.1110956E-06  0.3465234E+04  0.7818609E-02  0.8122079E-01
        1   -1    0    0  501    0  0.00000000000E+00  0.00000000000E+00  0.23966365424E+04  0.23966365424E+04  0.50400001928E-02 0. -1.
       -1   -1    0    0    0  501  0.00000000000E+00  0.00000000000E+00 -0.12525728367E+04  0.12525728367E+04  0.50400001928E-02 0.  1.
    10030    2    1    2    0    0  0.00000000000E+00  0.00000000000E+00  0.11440637057E+04  0.36492093791E+04  0.34652340945E+04 0.  0.
        1    1    3    3  502    0  0.12530577291E+04  0.33937788147E+03 -0.63633335163E+03  0.14457700900E+04  0.50400001928E-02 0. -1.
       -1    1    3    3    0  502 -0.12530577291E+04 -0.33937788147E+03  0.17803970574E+04  0.22034392891E+04  0.50400001928E-02 0.  1.
</event>
<event>
 5   0  0.3378848E-06  0.3233875E+04  0.7818609E-02  0.8179928E-01
        2   -1    0    0  501    0  0.00000000000E+00  0.00000000000E+00  0.21422534645E+04  0.21422534645E+04  0.25500000920E-02 0.  1.
       -2   -1    0    0    0  501  0.00000000000E+00  0.00000000000E+00 -0.12204380540E+04  0.12204380540E+04  0.25500000920E-02 0. -1.
    10030    2    1    2    0    0  0.00000000000E+00  0.00000000000E+00  0.92181541045E+03  0.33626915185E+04  0.32338754765E+04 0.  0.
        1    1    3    3  502    0 -0.85129470679E+03  0.74175972522E+02 -0.96646303075E+03  0.12900602864E+04  0.50400001928E-02 0. -1.
       -1    1    3    3    0  502  0.85129470679E+03 -0.74175972522E+02  0.18882784412E+04  0.20726312321E+04  0.50400001928E-02 0.  1.
</event>
<event>
 5   0  0.2565004E-06  0.2182506E+04  0.7818609E-02  0.8525745E-01
       -2   -1    0    0    0  501  0.00000000000E+00  0.00000000000E+00  0.11611535087E+04  0.11611535087E+04  0.25500000920E-02 0.  1.
        2   -1    0    0  501    0  0.00000000000E+00  0.00000000000E+00 -0.10255600799E+04  0.10255600799E+04  0.25500000920E-02 0. -1.
    10030    2    1    2    0    0  0.00000000000E+00  0.00000000000E+00  0.13559342877E+03  0.21867135886E+04  0.21825056107E+04 0.  0.
        3    1    3    3  502    0  0.29370878376E+03  0.70502718065E+03 -0.71313180675E+03  0.10449330883E+04  0.10100000352E+00 0. -1.
       -3    1    3    3    0  502 -0.29370878376E+03 -0.70502718065E+03  0.84872523552E+03  0.11417805002E+04  0.10100000352E+00 0.  1.
</event>
<event>
 5   0  0.1130707E-06  0.3486582E+04  0.7818609E-02  0.8116977E-01
        1   -1    0    0  501    0  0.00000000000E+00  0.00000000000E+00  0.11641315223E+04  0.11641315223E+04  0.50400001928E-02 0. -1.
       -1   -1    0    0    0  501  0.00000000000E+00  0.00000000000E+00 -0.26105839438E+04  0.26105839438E+04  0.50400001928E-02 0.  1.
    10030    2    1    2    0    0  0.00000000000E+00  0.00000000000E+00 -0.14464524215E+04  0.37747154661E+04  0.34865817418E+04 0.  0.
        3    1    3    3  502    0  0.15579777765E+04  0.71637434655E+03 -0.38331133478E+03  0.17571040226E+04  0.10100000352E+00 0. -1.
       -3    1    3    3    0  502 -0.15579777765E+04 -0.71637434655E+03 -0.10631410868E+04  0.20176114435E+04  0.10100000352E+00 0.  1.
</event>
<event>
 5   0  0.1782660E-06  0.3465025E+04  0.7818609E-02  0.8122129E-01
        2   -1    0    0  501    0  0.00000000000E+00  0.00000000000E+00  0.25444909080E+04  0.25444909080E+04  0.25500000920E-02 0.  1.
       -2   -1    0    0    0  501  0.00000000000E+00  0.00000000000E+00 -0.11796460950E+04  0.11796460950E+04  0.25500000920E-02 0. -1.
    10030    2    1    2    0    0  0.00000000000E+00  0.00000000000E+00  0.13648448130E+04  0.37241370029E+04  0.34650245386E+04 0.  0.
        4    1    3    3  502    0  0.40103264227E+02 -0.15340347481E+04  0.15467524042E+04  0.21788335166E+04  0.12699999809E+01 0.  1.
       -4    1    3    3    0  502 -0.40103264227E+02  0.15340347481E+04 -0.18190759115E+03  0.15453034864E+04  0.12699999809E+01 0. -1.
</event>
<event>
 5   0  0.1089337E-06  0.3450010E+04  0.7818609E-02  0.8125740E-01
        1   -1    0    0  501    0  0.00000000000E+00  0.00000000000E+00  0.22602288881E+04  0.22602288881E+04  0.50400001928E-02 0.  1.
       -1   -1    0    0    0  501  0.00000000000E+00  0.00000000000E+00 -0.13165223927E+04  0.13165223927E+04  0.50400001928E-02 0. -1.
    10030    2    1    2    0    0  0.00000000000E+00  0.00000000000E+00  0.94370649539E+03  0.35767512808E+04  0.34500098225E+04 0.  0.
        2    1    3    3  502    0  0.15720594755E+04 -0.59584010566E+03  0.71337996611E+02  0.16827018559E+04  0.25500000920E-02 0.  1.
       -2    1    3    3    0  502 -0.15720594755E+04  0.59584010566E+03  0.87236849878E+03  0.18940494249E+04  0.25500000920E-02 0. -1.
</event>
<event>
 5   0  0.3378848E-06  0.3519944E+04  0.7818609E-02  0.8109080E-01
        2   -1    0    0  501    0  0.00000000000E+00  0.00000000000E+00  0.29038591773E+04  0.29038591773E+04  0.25500000920E-02 0. -1.
       -2   -1    0    0    0  501  0.00000000000E+00  0.00000000000E+00 -0.10666844580E+04  0.10666844580E+04  0.25500000920E-02 0.  1.
    10030    2    1    2    0    0  0.00000000000E+00  0.00000000000E+00  0.18371747193E+04  0.39705436352E+04  0.35199440067E+04 0.  0.
        1    1    3    3  502    0  0.16604931263E+04  0.46603735671E+03  0.52286008313E+03  0.18021683902E+04  0.50400001928E-02 0.  1.
       -1    1    3    3    0  502 -0.16604931263E+04 -0.46603735671E+03  0.13143146362E+04  0.21683752450E+04  0.50400001928E-02 0. -1.
</event>
<event>
 5   0  0.1130707E-06  0.3484070E+04  0.7818609E-02  0.8117576E-01
        1   -1    0    0  501    0  0.00000000000E+00  0.00000000000E+00  0.15979068828E+04  0.15979068828E+04  0.50400001928E-02 0. -1.
       -1   -1    0    0    0  501  0.00000000000E+00  0.00000000000E+00 -0.18991628656E+04  0.18991628656E+04  0.50400001928E-02 0.  1.
    10030    2    1    2    0    0  0.00000000000E+00  0.00000000000E+00 -0.30125598281E+03  0.34970697484E+04  0.34840696977E+04 0.  0.
        3    1    3    3  502    0  0.11208423086E+04 -0.21819281631E+03 -0.14711317019E+04  0.18622900097E+04  0.10100000352E+00 0.  1.
       -3    1    3    3    0  502 -0.11208423086E+04  0.21819281631E+03  0.11698757191E+04  0.16347797387E+04  0.10100000352E+00 0. -1.
</event>
<event>
 5   0  0.1782660E-06  0.3514373E+04  0.7818609E-02  0.8110392E-01
        2   -1    0    0  501    0  0.00000000000E+00  0.00000000000E+00  0.17957422439E+04  0.17957422439E+04  0.25500000920E-02 0. -1.
       -2   -1    0    0    0  501  0.00000000000E+00  0.00000000000E+00 -0.17194585607E+04  0.17194585607E+04  0.25500000920E-02 0.  1.
    10030    2    1    2    0    0  0.00000000000E+00  0.00000000000E+00  0.76283683215E+02  0.35152008047E+04  0.35143729877E+04 0.  0.
        4    1    3    3  502    0  0.10563678905E+04 -0.25189906122E+03 -0.13436090890E+04  0.17276149033E+04  0.12699999809E+01 0.  1.
       -4    1    3    3    0  502 -0.10563678905E+04  0.25189906122E+03  0.14198927722E+04  0.17875859014E+04  0.12699999809E+01 0. -1.
</event>
<event>
 5   0  0.3041329E-06  0.3192269E+04  0.7818609E-02  0.8190862E-01
        2   -1    0    0  501    0  0.00000000000E+00  0.00000000000E+00  0.22326970023E+04  0.22326970023E+04  0.25500000920E-02 0. -1.
       -2   -1    0    0    0  501  0.00000000000E+00  0.00000000000E+00 -0.11410615259E+04  0.11410615259E+04  0.25500000920E-02 0.  1.
    10030    2    1    2    0    0  0.00000000000E+00  0.00000000000E+00  0.10916354763E+04  0.33737585282E+04  0.31922685654E+04 0.  0.
        2    1    3    3  502    0  0.35062460775E+03  0.13789721220E+04 -0.21858942803E+03  0.14395426589E+04  0.25500000920E-02 0.  1.
       -2    1    3    3    0  502 -0.35062460775E+03 -0.13789721220E+04  0.13102249044E+04  0.19342158693E+04  0.25500000920E-02 0. -1.
</event>
<event>
 5   0  0.3041329E-06  0.1842622E+04  0.7818609E-02  0.8683956E-01
       -2   -1    0    0    0  501  0.00000000000E+00  0.00000000000E+00  0.40655613523E+03  0.40655613524E+03  0.25500000920E-02 0. -1.
        2   -1    0    0  501    0  0.00000000000E+00  0.00000000000E+00 -0.20878154800E+04  0.20878154800E+04  0.25500000920E-02 0.  1.
    10030    2    1    2    0    0  0.00000000000E+00  0.00000000000E+00 -0.16812593448E+04  0.24943716152E+04  0.18426222539E+04 0.  0.
        2    1    3    3  502    0  0.51874830672E+03 -0.64879394223E+03 -0.13800457005E+04  0.16107636452E+04  0.25500000920E-02 0.  1.
       -2    1    3    3    0  502 -0.51874830672E+03  0.64879394223E+03 -0.30121364422E+03  0.88360797001E+03  0.25500000920E-02 0. -1.
</event>
<event>
 5   0  0.1782660E-06  0.2648798E+04  0.7818609E-02  0.8351812E-01
        2   -1    0    0  501    0  0.00000000000E+00  0.00000000000E+00  0.14863691160E+04  0.14863691160E+04  0.25500000920E-02 0.  1.
       -2   -1    0    0    0  501  0.00000000000E+00  0.00000000000E+00 -0.11800790780E+04  0.11800790780E+04  0.25500000920E-02 0. -1.
    10030    2    1    2    0    0  0.00000000000E+00  0.00000000000E+00  0.30629003796E+03  0.26664481941E+04  0.26487982906E+04 0.  0.
        4    1    3    3  502    0 -0.31236237551E+03  0.12852097339E+04  0.84152441333E+02  0.13252990455E+04  0.12699999809E+01 0.  1.
       -4    1    3    3    0  502  0.31236237551E+03 -0.12852097339E+04  0.22213759663E+03  0.13411491485E+04  0.12699999809E+01 0. -1.
</event>
<event>
 5   0  0.1130707E-06  0.1812811E+04  0.7818609E-02  0.8699516E-01
        1   -1    0    0  501    0  0.00000000000E+00  0.00000000000E+00  0.17563277789E+04  0.17563277789E+04  0.50400001928E-02 0.  1.
       -1   -1    0    0    0  501  0.00000000000E+00  0.00000000000E+00 -0.46777776186E+03  0.46777776189E+03  0.50400001928E-02 0. -1.
    10030    2    1    2    0    0  0.00000000000E+00  0.00000000000E+00  0.12885500170E+04  0.22241055407E+04  0.18128111623E+04 0.  0.
        3    1    3    3  502    0  0.54987362886E+03  0.66466487896E+03  0.30287832245E+03  0.91426237889E+03  0.10100000352E+00 0. -1.
       -3    1    3    3    0  502 -0.54987362886E+03 -0.66466487896E+03  0.98567169455E+03  0.13098431619E+04  0.10100000352E+00 0.  1.
</event>
<event>
 5   0  0.1089337E-06  0.3494187E+04  0.7818609E-02  0.8115169E-01
       -1   -1    0    0    0  501  0.00000000000E+00  0.00000000000E+00  0.13219602743E+04  0.13219602743E+04  0.50400001928E-02 0. -1.
        1   -1    0    0  501    0  0.00000000000E+00  0.00000000000E+00 -0.23089466847E+04  0.23089466847E+04  0.50400001928E-02 0.  1.
    10030    2    1    2    0    0  0.00000000000E+00  0.00000000000E+00 -0.98698641034E+03  0.36309069590E+04  0.34941870544E+04 0.  0.
        2    1    3    3  502    0 -0.67716895616E+03 -0.28839394444E+02  0.11797756604E+04  0.13606101994E+04  0.25500000920E-02 0. -1.
       -2    1    3    3    0  502  0.67716895616E+03  0.28839394444E+02 -0.21667620707E+04  0.22702967597E+04  0.25500000920E-02 0.  1.
</event>
<event>
 5   0  0.3378848E-06  0.3537656E+04  0.7818609E-02  0.8104924E-01
       -2   -1    0    0    0  501  0.00000000000E+00  0.00000000000E+00  0.13754063249E+04  0.13754063249E+04  0.25500000920E-02 0. -1.
        2   -1    0    0  501    0  0.00000000000E+00  0.00000000000E+00 -0.22747840830E+04  0.22747840830E+04  0.25500000920E-02 0.  1.
    10030    2    1    2    0    0  0.00000000000E+00  0.00000000000E+00 -0.89937775811E+03  0.36501904079E+04  0.35376559558E+04 0.  0.
        1    1    3    3  502    0 -0.25531058596E+03 -0.16959268927E+04 -0.30199381011E+01  0.17150395450E+04  0.50400001928E-02 0. -1.
       -1    1    3    3    0  502  0.25531058596E+03  0.16959268927E+04 -0.89635782001E+03  0.19351508629E+04  0.50400001928E-02 0.  1.
</event>
<event>
 5   0  0.1908726E-06  0.3537147E+04  0.7818609E-02  0.8105043E-01
       -2   -1    0    0    0  501  0.00000000000E+00  0.00000000000E+00  0.20358312780E+04  0.20358312780E+04  0.25500000920E-02 0. -1.
        2   -1    0    0  501    0  0.00000000000E+00  0.00000000000E+00 -0.15364001742E+04  0.15364001742E+04  0.25500000920E-02 0.  1.
    10030    2    1    2    0    0  0.00000000000E+00  0.00000000000E+00  0.49943110387E+03  0.35722314522E+04  0.35371466072E+04 0.  0.
        5    1    3    3  502    0 -0.35412019594E+03  0.14101716043E+04 -0.76717023403E+03  0.16439456575E+04  0.46999998093E+01 0.  1.
       -5    1    3    3    0  502  0.35412019594E+03 -0.14101716043E+04  0.12666013379E+04  0.19282857947E+04  0.46999998093E+01 0. -1.
</event>
<event>
 5   0  0.1110956E-06  0.2688477E+04  0.7818609E-02  0.8338753E-01
       -1   -1    0    0    0  501  0.00000000000E+00  0.00000000000E+00  0.13068555106E+04  0.13068555106E+04  0.50400001928E-02 0. -1.
        1   -1    0    0  501    0  0.00000000000E+00  0.00000000000E+00 -0.13826910769E+04  0.13826910769E+04  0.50400001928E-02 0.  1.
    10030    2    1    2    0    0  0.00000000000E+00  0.00000000000E+00 -0.75835566356E+02  0.26895465875E+04  0.26884772294E+04 0.  0.
        1    1    3    3  502    0 -0.62280333898E+03  0.50460524226E+03 -0.11174517268E+04  0.13752122787E+04  0.50400001928E-02 0.  1.
       -1    1    3    3    0  502  0.62280333898E+03 -0.50460524226E+03  0.10416161605E+04  0.13143343088E+04  0.50400001928E-02 0. -1.
</event>
<event>
 5   0  0.1908726E-06  0.3283354E+04  0.7818609E-02  0.8167144E-01
        2   -1    0    0  501    0  0.00000000000E+00  0.00000000000E+00  0.27037224641E+04  0.27037224641E+04  0.25500000920E-02 0.  1.
       -2   -1    0    0    0  501  0.00000000000E+00  0.00000000000E+00 -0.99681239294E+03  0.99681239295E+03  0.25500000920E-02 0. -1.
    10030    2    1    2    0    0  0.00000000000E+00  0.00000000000E+00  0.17069100711E+04  0.37005348570E+04  0.32833544184E+04 0.  0.
        5    1    3    3  502    0  0.10209034679E+04 -0.17176091993E+03  0.22894435955E+04  0.25126320406E+04  0.46999998093E+01 0.  1.
       -5    1    3    3    0  502 -0.10209034679E+04  0.17176091993E+03 -0.58253352435E+03  0.11879028165E+04  0.46999998093E+01 0. -1.
</event>
<event>
 5   0  0.1782660E-06  0.3446772E+04  0.7818609E-02  0.8126522E-01
       -2   -1    0    0    0  501  0.00000000000E+00  0.00000000000E+00  0.20688425498E+04  0.20688425498E+04  0.25500000920E-02 0. -1.
        2   -1    0    0  501    0  0.00000000000E+00  0.00000000000E+00 -0.14356136645E+04  0.14356136645E+04  0.25500000920E-02 0.  1.
    10030    2    1    2    0    0  0.00000000000E+00  0.00000000000E+00  0.63322888528E+03  0.35044562142E+04  0.34467716107E+04 0.  0.
        4    1    3    3  502    0 -0.30361534465E+03  0.15343080161E+04 -0.41921973572E+03  0.16192684044E+04  0.12699999809E+01 0.  1.
       -4    1    3    3    0  502  0.30361534465E+03 -0.15343080161E+04  0.10524486210E+04  0.18851878099E+04  0.12699999809E+01 0. -1.
</event>
<event>
 5   0  0.1908726E-06  0.2143881E+04  0.7818609E-02  0.8542156E-01
        2   -1    0    0  501    0  0.00000000000E+00  0.00000000000E+00  0.11340865002E+04  0.11340865002E+04  0.25500000920E-02 0.  1.
       -2   -1    0    0    0  501  0.00000000000E+00  0.00000000000E+00 -0.10131999014E+04  0.10131999014E+04  0.25500000920E-02 0. -1.
    10030    2    1    2    0    0  0.00000000000E+00  0.00000000000E+00  0.12088659884E+03  0.21472864016E+04  0.21438809017E+04 0.  0.
        5    1    3    3  502    0  0.75914351325E+02  0.17704424855E+03 -0.99571100981E+03  0.10141844801E+04  0.46999998093E+01 0. -1.
       -5    1    3    3    0  502 -0.75914351325E+02 -0.17704424855E+03  0.11165976087E+04  0.11331019214E+04  0.46999998093E+01 0.  1.
</event>
<event>
 5   0  0.1110956E-06  0.3545487E+04  0.7818609E-02  0.8103094E-01
       -1   -1    0    0    0  501  0.00000000000E+00  0.00000000000E+00  0.17839609717E+04  0.17839609717E+04  0.50400001928E-02 0.  1.
        1   -1    0    0  501    0  0.00000000000E+00  0.00000000000E+00 -0.17615967971E+04  0.17615967971E+04  0.50400001928E-02 0. -1.
    10030    2    1    2    0    0  0.00000000000E+00  0.00000000000E+00  0.22364174535E+02  0.35455577688E+04  0.35454872353E+04 0.  0.
        1    1    3    3  502    0 -0.12725138068E+04  0.35147720120E+03  0.11943338179E+04  0.17802418038E+04  0.50400001928E-02 0.  1.
       -1    1    3    3    0  502  0.12725138068E+04 -0.35147720120E+03 -0.11719696433E+04  0.17653159650E+04  0.50400001928E-02 0. -1.
</event>
<event>
 5   0  0.1110956E-06  0.1747503E+04  0.7818609E-02  0.8734726E-01
       -1   -1    0    0    0  501  0.00000000000E+00  0.00000000000E+00  0.61562687747E+03  0.61562687749E+03  0.50400001928E-02 0. -1.
        1   -1    0    0  501    0  0.00000000000E+00  0.00000000000E+00 -0.12401044621E+04  0.12401044622E+04  0.50400001928E-02 0.  1.
    10030    2    1    2    0    0  0.00000000000E+00  0.00000000000E+00 -0.62447758468E+03  0.18557313396E+04  0.17475029474E+04 0.  0.
        1    1    3    3  502    0 -0.34117812126E+03  0.20772226405E+03  0.51299369335E+03  0.65016427067E+03  0.50400001928E-02 0. -1.
       -1    1    3    3    0  502  0.34117812126E+03 -0.20772226405E+03 -0.11374712780E+04  0.12055670690E+04  0.50400001928E-02 0.  1.
</event>
<event>
 5   0  0.1782660E-06  0.2195490E+04  0.7818609E-02  0.8520307E-01
       -2   -1    0    0    0  501  0.00000000000E+00  0.00000000000E+00  0.61057264541E+03  0.61057264542E+03  0.25500000920E-02 0. -1.
        2   -1    0    0  501    0  0.00000000000E+00  0.00000000000E+00 -0.19736301273E+04  0.19736301273E+04  0.25500000920E-02 0.  1.
    10030    2    1    2    0    0  0.00000000000E+00  0.00000000000E+00 -0.13630574819E+04  0.25842027727E+04  0.21954904399E+04 0.  0.
        4    1    3    3  502    0 -0.67763360468E+03 -0.82138600546E+03 -0.99556233727E+03  0.14577408043E+04  0.12699999809E+01 0.  1.
       -4    1    3    3    0  502  0.67763360468E+03  0.82138600546E+03 -0.36749514464E+03  0.11264619685E+04  0.12699999809E+01 0. -1.
</event>
<event>
 5   0  0.1130707E-06  0.3497656E+04  0.7818609E-02  0.8114346E-01
        1   -1    0    0  501    0  0.00000000000E+00  0.00000000000E+00  0.26145523848E+04  0.26145523848E+04  0.50400001928E-02 0.  1.
       -1   -1    0    0    0  501  0.00000000000E+00  0.00000000000E+00 -0.11697602983E+04  0.11697602984E+04  0.50400001928E-02 0. -1.
    10030    2    1    2    0    0  0.00000000000E+00  0.00000000000E+00  0.14447920865E+04  0.37843126832E+04  0.34976561167E+04 0.  0.
        3    1    3    3  502    0  0.15038531027E+03 -0.73866716939E+03  0.24297480287E+04  0.25439969383E+04  0.10100000352E+00 0.  1.
       -3    1    3    3    0  502 -0.15038531027E+03  0.73866716939E+03 -0.98495594225E+03  0.12403157449E+04  0.10100000352E+00 0. -1.
</event>
<event>
 5   0  0.1110956E-06  0.3567320E+04  0.7818609E-02  0.8098019E-01
       -1   -1    0    0    0  501  0.00000000000E+00  0.00000000000E+00  0.12134030244E+04  0.12134030244E+04  0.50400001928E-02 0. -1.
        1   -1    0    0  501    0  0.00000000000E+00  0.00000000000E+00 -0.26219184180E+04  0.26219184180E+04  0.50400001928E-02 0.  1.
    10030    2    1    2    0    0  0.00000000000E+00  0.00000000000E+00 -0.14085153936E+04  0.38353214425E+04  0.35673204164E+04 0.  0.
        1    1    3    3  502    0 -0.10566041143E+04 -0.76038065831E+03  0.60671494187E+03  0.14362082094E+04  0.50400001928E-02 0. -1.
       -1    1    3    3    0  502  0.10566041143E+04  0.76038065831E+03 -0.20152303355E+04  0.23991132331E+04  0.50400001928E-02 0.  1.
</event>
<event>
 5   0  0.1130707E-06  0.2545001E+04  0.7818609E-02  0.8387127E-01
        1   -1    0    0  501    0  0.00000000000E+00  0.00000000000E+00  0.12691689701E+04  0.12691689701E+04  0.50400001928E-02 0.  1.
       -1   -1    0    0    0  501  0.00000000000E+00  0.00000000000E+00 -0.12758404712E+04  0.12758404712E+04  0.50400001928E-02 0. -1.
    10030    2    1    2    0    0  0.00000000000E+00  0.00000000000E+00 -0.66715010945E+01  0.25450094412E+04  0.25450006969E+04 0.  0.
        3    1    3    3  502    0  0.69942142256E+03 -0.25977033200E+02 -0.10660679628E+04  0.12752905724E+04  0.10100000352E+00 0. -1.
       -3    1    3    3    0  502 -0.69942142256E+03  0.25977033200E+02  0.10593964617E+04  0.12697188688E+04  0.10100000352E+00 0.  1.
</event>
<event>
 5   0  0.3041329E-06  0.3577801E+04  0.7818609E-02  0.8095596E-01
        2   -1    0    0  501    0  0.00000000000E+00  0.00000000000E+00  0.14303117753E+04  0.14303117753E+04  0.25500000920E-02 0.  1.
       -2   -1    0    0    0  501  0.00000000000E+00  0.00000000000E+00 -0.22373898773E+04  0.22373898773E+04  0.25500000920E-02 0. -1.
    10030    2    1    2    0    0  0.00000000000E+00  0.00000000000E+00 -0.80707810201E+03  0.36677016526E+04  0.35778010495E+04 0.  0.
        2    1    3    3  502    0  0.16771521721E+04 -0.70249674089E+02 -0.10374546711E+04  0.19733440196E+04  0.25500000920E-02 0. -1.
       -2    1    3    3    0  502 -0.16771521721E+04  0.70249674089E+02  0.23037656909E+03  0.16943576330E+04  0.25500000920E-02 0.  1.
</event>
<event>
 5   0  0.1908726E-06  0.3496358E+04  0.7818609E-02  0.8114654E-01
       -2   -1    0    0    0  501  0.00000000000E+00  0.00000000000E+00  0.17550166123E+04  0.17550166123E+04  0.25500000920E-02 0. -1.
        2   -1    0    0  501    0  0.00000000000E+00  0.00000000000E+00 -0.17413680875E+04  0.17413680875E+04  0.25500000920E-02 0.  1.
    10030    2    1    2    0    0  0.00000000000E+00  0.00000000000E+00  0.13648524791E+02  0.34963846999E+04  0.34963580605E+04 0.  0.
        5    1    3    3  502    0 -0.63791629798E+03 -0.83782103994E+03 -0.13886169604E+04  0.17427450906E+04  0.46999998093E+01 0.  1.
       -5    1    3    3    0  502  0.63791629798E+03  0.83782103994E+03  0.14022654852E+04  0.17536396093E+04  0.46999998093E+01 0. -1.
</event>
<event>
 5   0  0.2565004E-06  0.3497618E+04  0.7818609E-02  0.8114355E-01
        2   -1    0    0  501    0  0.00000000000E+00  0.00000000000E+00  0.21341236402E+04  0.21341236402E+04  0.25500000920E-02 0.  1.
       -2   -1    0    0    0  501  0.00000000000E+00  0.00000000000E+00 -0.14330626825E+04  0.14330626825E+04  0.25500000920E-02 0. -1.
    10030    2    1    2    0    0  0.00000000000E+00  0.00000000000E+00  0.70106095770E+03  0.35671863228E+04  0.34976180173E+04 0.  0.
        3    1    3    3  502    0 -0.87736597315E+02 -0.74012355825E+03  0.19640381388E+04  0.21006966494E+04  0.10100000352E+00 0.  1.
       -3    1    3    3    0  502  0.87736597315E+02  0.74012355825E+03 -0.12629771811E+04  0.14664896734E+04  0.10100000352E+00 0. -1.
</event>
<event>
 5   0  0.1102175E-06  0.1962233E+04  0.7818609E-02  0.8624484E-01
       -1   -1    0    0    0  501  0.00000000000E+00  0.00000000000E+00  0.11807799024E+04  0.11807799024E+04  0.50400001928E-02 0.  1.
        1   -1    0    0  501    0  0.00000000000E+00  0.00000000000E+00 -0.81521541135E+03  0.81521541137E+03  0.50400001928E-02 0. -1.
    10030    2    1    2    0    0  0.00000000000E+00  0.00000000000E+00  0.36556449101E+03  0.19959953137E+04  0.19622333947E+04 0.  0.
        5    1    3    3  502    0 -0.18091354044E+03  0.53009282251E+03  0.10021475819E+04  0.11480635764E+04  0.46999998093E+01 0.  1.
       -5    1    3    3    0  502  0.18091354044E+03 -0.53009282251E+03 -0.63658309088E+03  0.84793173734E+03  0.46999998093E+01 0. -1.
</event>
<event>
 5   0  0.1782660E-06  0.3407933E+04  0.7818609E-02  0.8135962E-01
        2   -1    0    0  501    0  0.00000000000E+00  0.00000000000E+00  0.19084924798E+04  0.19084924798E+04  0.25500000920E-02 0. -1.
       -2   -1    0    0    0  501  0.00000000000E+00  0.00000000000E+00 -0.15213590232E+04  0.15213590232E+04  0.25500000920E-02 0.  1.
    10030    2    1    2    0    0  0.00000000000E+00  0.00000000000E+00  0.38713345656E+03  0.34298515029E+04  0.34079332474E+04 0.  0.
        4    1    3    3  502    0 -0.95444964935E+03 -0.91640311164E+03 -0.88699201963E+03  0.15929611583E+04  0.12699999809E+01 0.  1.
       -4    1    3    3    0  502  0.95444964935E+03  0.91640311164E+03  0.12741254762E+04  0.18368903446E+04  0.12699999809E+01 0. -1.
</event>
<event>
 5   0  0.1782660E-06  0.3498964E+04  0.7818609E-02  0.8114036E-01
       -2   -1    0    0    0  501  0.00000000000E+00  0.00000000000E+00  0.13780054986E+04  0.13780054986E+04  0.25500000920E-02 0. -1.
        2   -1    0    0  501    0  0.00000000000E+00  0.00000000000E+00 -0.22210989945E+04  0.22210989945E+04  0.25500000920E-02 0.  1.
    10030    2    1    2    0    0  0.00000000000E+00  0.00000000000E+00 -0.84309349592E+03  0.35991044931E+04  0.34989636336E+04 0.  0.
        4    1    3    3  502    0 -0.15929023830E+04  0.71585757882E+03 -0.52891291284E+03  0.18247028682E+04  0.12699999809E+01 0. -1.
       -4    1    3    3    0  502  0.15929023830E+04 -0.71585757882E+03 -0.31418058308E+03  0.17744016249E+04  0.12699999809E+01 0.  1.
</event>
<event>
 5   0  0.1130707E-06  0.3308833E+04  0.7818609E-02  0.8160651E-01
       -1   -1    0    0    0  501  0.00000000000E+00  0.00000000000E+00  0.12671664541E+04  0.12671664541E+04  0.50400001928E-02 0. -1.
        1   -1    0    0  501    0  0.00000000000E+00  0.00000000000E+00 -0.21600118255E+04  0.21600118255E+04  0.50400001928E-02 0.  1.
    10030    2    1    2    0    0  0.00000000000E+00  0.00000000000E+00 -0.89284537137E+03  0.34271782796E+04  0.33088333447E+04 0.  0.
        3    1    3    3  502    0 -0.20395645757E+03  0.15730212307E+04 -0.93345373823E+03  0.18404700271E+04  0.10100000352E+00 0.  1.
       -3    1    3    3    0  502  0.20395645757E+03 -0.15730212307E+04  0.40608366859E+02  0.15867082525E+04  0.10100000352E+00 0. -1.
</event>
<event>
 5   0  0.1130707E-06  0.2513097E+04  0.7818609E-02  0.8398334E-01
       -1   -1    0    0    0  501  0.00000000000E+00  0.00000000000E+00  0.11496396201E+04  0.11496396201E+04  0.50400001928E-02 0. -1.
        1   -1    0    0  501    0  0.00000000000E+00  0.00000000000E+00 -0.13733996784E+04  0.13733996784E+04  0.50400001928E-02 0.  1.
    10030    2    1    2    0    0  0.00000000000E+00  0.00000000000E+00 -0.22376005832E+03  0.25230392985E+04  0.25130974390E+04 0.  0.
        3    1    3    3  502    0  0.46623507474E+01  0.35091908577E+03  0.10994372092E+04  0.11540919068E+04  0.10100000352E+00 0. -1.
       -3    1    3    3    0  502 -0.46623507474E+01 -0.35091908577E+03 -0.13231972675E+04  0.13689473917E+04  0.10100000352E+00 0.  1.
</event>
<event>
 5   0  0.1130707E-06  0.3019256E+04  0.7818609E-02  0.8238253E-01
       -1   -1    0    0    0  501  0.00000000000E+00  0.00000000000E+00  0.18342565782E+04  0.18342565782E+04  0.50400001928E-02 0.  1.
        1   -1    0    0  501    0  0.00000000000E+00  0.00000000000E+00 -0.12424527813E+04  0.12424527813E+04  0.50400001928E-02 0. -1.
    10030    2    1    2    0    0  0.00000000000E+00  0.00000000000E+00  0.59180379688E+03  0.30767093595E+04  0.30192563238E+04 0.  0.
        3    1    3    3  502    0 -0.15416966524E+03  0.68762014717E+03  0.16563674290E+04  0.18000396725E+04  0.10100000352E+00 0.  1.
       -3    1    3    3    0  502  0.15416966524E+03 -0.68762014717E+03 -0.10645636322E+04  0.12766696870E+04  0.10100000352E+00 0. -1.
</event>
<event>
 5   0  0.1782660E-06  0.3557018E+04  0.7818609E-02  0.8100409E-01
       -2   -1    0    0    0  501  0.00000000000E+00  0.00000000000E+00  0.13132555214E+04  0.13132555214E+04  0.25500000920E-02 0.  1.
        2   -1    0    0  501    0  0.00000000000E+00  0.00000000000E+00 -0.24085894471E+04  0.24085894471E+04  0.25500000920E-02 0. -1.
    10030    2    1    2    0    0  0.00000000000E+00  0.00000000000E+00 -0.10953339257E+04  0.37218449685E+04  0.35570175092E+04 0.  0.
        4    1    3    3  502    0  0.36407559872E+03 -0.37474398003E+03 -0.23264758407E+04  0.23844235241E+04  0.12699999809E+01 0. -1.
       -4    1    3    3    0  502 -0.36407559872E+03  0.37474398003E+03  0.12311419150E+04  0.13374214444E+04  0.12699999809E+01 0.  1.
</event>
<event>
 5   0  0.1102175E-06  0.3568977E+04  0.7818609E-02  0.8097635E-01
       -1   -1    0    0    0  501  0.00000000000E+00  0.00000000000E+00  0.13536598966E+04  0.13536598966E+04  0.50400001928E-02 0.  1.
        1   -1    0    0  501    0  0.00000000000E+00  0.00000000000E+00 -0.23524363533E+04  0.23524363533E+04  0.50400001928E-02 0. -1.
    10030    2    1    2    0    0  0.00000000000E+00  0.00000000000E+00 -0.99877645667E+03  0.37060962499E+04  0.35689767446E+04 0.  0.
        5    1    3    3  502    0 -0.13575690942E+04  0.95811576527E+03 -0.11750772489E+04  0.20351433109E+04  0.46999998093E+01 0. -1.
       -5    1    3    3    0  502  0.13575690942E+04 -0.95811576527E+03  0.17630079219E+03  0.16709529390E+04  0.46999998093E+01 0.  1.
</event>
<event>
 5   0  0.2565004E-06  0.3321558E+04  0.7818609E-02  0.8157431E-01
       -2   -1    0    0    0  501  0.00000000000E+00  0.00000000000E+00  0.18773714928E+04  0.18773714928E+04  0.25500000920E-02 0. -1.
        2   -1    0    0  501    0  0.00000000000E+00  0.00000000000E+00 -0.14691752071E+04  0.14691752071E+04  0.25500000920E-02 0.  1.
    10030    2    1    2    0    0  0.00000000000E+00  0.00000000000E+00  0.40819628569E+03  0.33465466999E+04  0.33215584605E+04 0.  0.
        3    1    3    3  502    0  0.69685458567E+03  0.51860620708E+03 -0.12220467010E+04  0.14993187991E+04  0.10100000352E+00 0.  1.
       -3    1    3    3    0  502 -0.69685458567E+03 -0.51860620708E+03  0.16302429867E+04  0.18472279008E+04  0.10100000352E+00 0. -1.
</event>
<event>
 5   0  0.1110956E-06  0.2192653E+04  0.7818609E-02  0.8521492E-01
        1   -1    0    0  501    0  0.00000000000E+00  0.00000000000E+00  0.11776148405E+04  0.11776148405E+04  0.50400001928E-02 0.  1.
       -1   -1    0    0    0  501  0.00000000000E+00  0.00000000000E+00 -0.10206494108E+04  0.10206494108E+04  0.50400001928E-02 0. -1.
    10030    2    1    2    0    0  0.00000000000E+00  0.00000000000E+00  0.15696542975E+03  0.21982642513E+04  0.21926530898E+04 0.  0.
        1    1    3    3  502    0  0.11645107670E+03  0.12630471363E+03 -0.10070708060E+04  0.10216189810E+04  0.50400001928E-02 0. -1.
       -1    1    3    3    0  502 -0.11645107670E+03 -0.12630471363E+03  0.11640362358E+04  0.11766452703E+04  0.50400001928E-02 0.  1.
</event>
<event>
 5   0  0.1782660E-06  0.3415958E+04  0.7818609E-02  0.8134001E-01
        2   -1    0    0  501    0  0.00000000000E+00  0.00000000000E+00  0.26681446769E+04  0.26681446769E+04  0.25500000920E-02 0. -1.
       -2   -1    0    0    0  501  0.00000000000E+00  0.00000000000E+00 -0.10933410723E+04  0.10933410723E+04  0.25500000920E-02 0.  1.
    10030    2    1    2    0    0  0.00000000000E+00  0.00000000000E+00  0.15748036046E+04  0.37614857491E+04  0.34159579400E+04 0.  0.
        4    1    3    3  502    0  0.30792000291E+03 -0.52985754485E+03 -0.96810613326E+03  0.11457725971E+04  0.12699999809E+01 0.  1.
       -4    1    3    3    0  502 -0.30792000291E+03  0.52985754485E+03  0.25429097379E+04  0.26157131521E+04  0.12699999809E+01 0. -1.
</event>
<event>
 5   0  0.1782660E-06  0.3680945E+04  0.7818609E-02  0.8072198E-01
        2   -1    0    0  501    0  0.00000000000E+00  0.00000000000E+00  0.13364154852E+04  0.13364154852E+04  0.25500000920E-02 0. -1.
       -2   -1    0    0    0  501  0.00000000000E+00  0.00000000000E+00 -0.25346455637E+04  0.25346455637E+04  0.25500000920E-02 0.  1.
    10030    2    1    2    0    0  0.00000000000E+00  0.00000000000E+00 -0.11982300784E+04  0.38710610489E+04  0.36809453030E+04 0.  0.
        4    1    3    3  502    0  0.19588309134E+03  0.42391886545E+03 -0.24713037866E+04  0.25150390471E+04  0.12699999809E+01 0.  1.
       -4    1    3    3    0  502 -0.19588309134E+03 -0.42391886545E+03  0.12730737082E+04  0.13560220018E+04  0.12699999809E+01 0. -1.
</event>
<event>
 5   0  0.1130707E-06  0.3435276E+04  0.7818609E-02  0.8129302E-01
       -1   -1    0    0    0  501  0.00000000000E+00  0.00000000000E+00  0.13986461603E+04  0.13986461603E+04  0.50400001928E-02 0.  1.
        1   -1    0    0  501    0  0.00000000000E+00  0.00000000000E+00 -0.21093832834E+04  0.21093832834E+04  0.50400001928E-02 0. -1.
    10030    2    1    2    0    0  0.00000000000E+00  0.00000000000E+00 -0.71073712313E+03  0.35080294437E+04  0.34352763090E+04 0.  0.
        3    1    3    3  502    0  0.29791894435E+03  0.52889536332E+03  0.12854570179E+04  0.14215786147E+04  0.10100000352E+00 0.  1.
       -3    1    3    3    0  502 -0.29791894435E+03 -0.52889536332E+03 -0.19961941410E+04  0.20864508289E+04  0.10100000352E+00 0. -1.
</event>
<event>
 5   0  0.1125196E-06  0.1955242E+04  0.7818609E-02  0.8627837E-01
        1   -1    0    0  501    0  0.00000000000E+00  0.00000000000E+00  0.58982145070E+03  0.58982145072E+03  0.50400001928E-02 0. -1.
       -1   -1    0    0    0  501  0.00000000000E+00  0.00000000000E+00 -0.16203927820E+04  0.16203927820E+04  0.50400001928E-02 0.  1.
    10030    2    1    2    0    0  0.00000000000E+00  0.00000000000E+00 -0.10305713313E+04  0.22102142327E+04  0.19552415926E+04 0.  0.
        4    1    3    3  502    0 -0.46203705368E+03 -0.48971415206E+03  0.28598119151E+03  0.73149507483E+03  0.12699999809E+01 0. -1.
       -4    1    3    3    0  502  0.46203705368E+03  0.48971415206E+03 -0.13165525228E+04  0.14787191579E+04  0.12699999809E+01 0.  1.
</event>
<event>
 5   0  0.2565004E-06  0.3238259E+04  0.7818609E-02  0.8178785E-01
       -2   -1    0    0    0  501  0.00000000000E+00  0.00000000000E+00  0.16816169982E+04  0.16816169982E+04  0.25500000920E-02 0. -1.
        2   -1    0    0  501    0  0.00000000000E+00  0.00000000000E+00 -0.15589641341E+04  0.15589641341E+04  0.25500000920E-02 0.  1.
    10030    2    1    2    0    0  0.00000000000E+00  0.00000000000E+00  0.12265286411E+03  0.32405811323E+04  0.32382591542E+04 0.  0.
        3    1    3    3  502    0  0.55277725854E+02 -0.12652608964E+04 -0.94817826077E+03  0.15820817891E+04  0.10100000352E+00 0.  1.
       -3    1    3    3    0  502 -0.55277725854E+02  0.12652608964E+04  0.10708311249E+04  0.16584993431E+04  0.10100000352E+00 0. -1.
</event>
<event>
 5   0  0.1125196E-06  0.2484261E+04  0.7818609E-02  0.8408614E-01
        1   -1    0    0  501    0  0.00000000000E+00  0.00000000000E+00  0.16704444785E+04  0.16704444785E+04  0.50400001928E-02 0.  1.
       -1   -1    0    0    0  501  0.00000000000E+00  0.00000000000E+00 -0.92363961026E+03  0.92363961027E+03  0.50400001928E-02 0. -1.
    10030    2    1    2    0    0  0.00000000000E+00  0.00000000000E+00  0.74680486821E+03  0.25940840887E+04  0.24842614090E+04 0.  0.
        4    1    3    3  502    0 -0.34763825898E+03 -0.22044237754E+03 -0.85034440389E+03  0.94474039770E+03  0.12699999809E+01 0. -1.
       -4    1    3    3    0  502  0.34763825898E+03  0.22044237754E+03  0.15971492721E+04  0.16493436910E+04  0.12699999809E+01 0.  1.
</event>
<event>
 5   0  0.1110956E-06  0.3133182E+04  0.7818609E-02  0.8206690E-01
        1   -1    0    0  501    0  0.00000000000E+00  0.00000000000E+00  0.15814346578E+04  0.15814346578E+04  0.50400001928E-02 0. -1.
       -1   -1    0    0    0  501  0.00000000000E+00  0.00000000000E+00 -0.15518866006E+04  0.15518866006E+04  0.50400001928E-02 0.  1.
    10030    2    1    2    0    0  0.00000000000E+00  0.00000000000E+00  0.29548057194E+02  0.31333212584E+04  0.31331819323E+04 0.  0.
        1    1    3    3  502    0 -0.13994290710E+03 -0.23528434301E+03 -0.15277810344E+04  0.15521139225E+04  0.50400001928E-02 0.  1.
       -1    1    3    3    0  502  0.13994290710E+03  0.23528434301E+03  0.15573290916E+04  0.15812073359E+04  0.50400001928E-02 0. -1.
</event>
<event>
 5   0  0.1130707E-06  0.3431980E+04  0.7818609E-02  0.8130102E-01
        1   -1    0    0  501    0  0.00000000000E+00  0.00000000000E+00  0.29721485882E+04  0.29721485882E+04  0.50400001928E-02 0.  1.
       -1   -1    0    0    0  501  0.00000000000E+00  0.00000000000E+00 -0.99073816343E+03  0.99073816344E+03  0.50400001928E-02 0. -1.
    10030    2    1    2    0    0  0.00000000000E+00  0.00000000000E+00  0.19814104247E+04  0.39628867516E+04  0.34319796233E+04 0.  0.
        3    1    3    3  502    0  0.15640025247E+04  0.24617667752E+03  0.22658540068E+03  0.15993898236E+04  0.10100000352E+00 0. -1.
       -3    1    3    3    0  502 -0.15640025247E+04 -0.24617667752E+03  0.17548250241E+04  0.23634969281E+04  0.10100000352E+00 0.  1.
</event>
<event>
 5   0  0.1089337E-06  0.1991093E+04  0.7818609E-02  0.8610796E-01
       -1   -1    0    0    0  501  0.00000000000E+00  0.00000000000E+00  0.11316043100E+04  0.11316043100E+04  0.50400001928E-02 0.  1.
        1   -1    0    0  501    0  0.00000000000E+00  0.00000000000E+00 -0.87584732277E+03  0.87584732279E+03  0.50400001928E-02 0. -1.
    10030    2    1    2    0    0  0.00000000000E+00  0.00000000000E+00  0.25575698721E+03  0.20074516328E+04  0.19910927707E+04 0.  0.
        2    1    3    3  502    0  0.46925061590E+03  0.12518483051E+03  0.10040670733E+04  0.11153555801E+04  0.25500000920E-02 0.  1.
       -2    1    3    3    0  502 -0.46925061590E+03 -0.12518483051E+03 -0.74831008609E+03  0.89209605271E+03  0.25500000920E-02 0. -1.
</event>
<event>
 5   0  0.1089337E-06  0.3522714E+04  0.7818609E-02  0.8108428E-01
        1   -1    0    0  501    0  0.00000000000E+00  0.00000000000E+00  0.24299513862E+04  0.24299513862E+04  0.50400001928E-02 0. -1.
       -1   -1    0    0    0  501  0.00000000000E+00  0.00000000000E+00 -0.12767244451E+04  0.12767244451E+04  0.50400001928E-02 0.  1.
    10030    2    1    2    0    0  0.00000000000E+00  0.00000000000E+00  0.11532269411E+04  0.37066758314E+04  0.35227139170E+04 0.  0.
        2    1    3    3  502    0 -0.11957581224E+03 -0.17240040678E+04  0.93481718891E+03  0.19647828321E+04  0.25500000920E-02 0. -1.
       -2    1    3    3    0  502  0.11957581224E+03  0.17240040678E+04  0.21840975220E+03  0.17418929992E+04  0.25500000920E-02 0.  1.
</event>
<event>
 5   0  0.1130707E-06  0.3469113E+04  0.7818609E-02  0.8121149E-01
        1   -1    0    0  501    0  0.00000000000E+00  0.00000000000E+00  0.25259764588E+04  0.25259764588E+04  0.50400001928E-02 0. -1.
       -1   -1    0    0    0  501  0.00000000000E+00  0.00000000000E+00 -0.11910982821E+04  0.11910982821E+04  0.50400001928E-02 0.  1.
    10030    2    1    2    0    0  0.00000000000E+00  0.00000000000E+00  0.13348781768E+04  0.37170747409E+04  0.34691129821E+04 0.  0.
        3    1    3    3  502    0  0.38245258057E+03 -0.29087616778E+03  0.24532435602E+04  0.24998565754E+04  0.10100000352E+00 0. -1.
       -3    1    3    3    0  502 -0.38245258057E+03  0.29087616778E+03 -0.11183653835E+04  0.12172181655E+04  0.10100000352E+00 0.  1.
</event>
<event>
 5   0  0.2565004E-06  0.2893867E+04  0.7818609E-02  0.8274704E-01
        2   -1    0    0  501    0  0.00000000000E+00  0.00000000000E+00  0.20581568653E+04  0.20581568653E+04  0.25500000920E-02 0.  1.
       -2   -1    0    0    0  501  0.00000000000E+00  0.00000000000E+00 -0.10172290225E+04  0.10172290225E+04  0.25500000920E-02 0. -1.
    10030    2    1    2    0    0  0.00000000000E+00  0.00000000000E+00  0.10409278428E+04  0.30753858879E+04  0.28938672370E+04 0.  0.
        3    1    3    3  502    0  0.37022837325E+03  0.27199379413E+03  0.19785939694E+04  0.20312271607E+04  0.10100000352E+00 0.  1.
       -3    1    3    3    0  502 -0.37022837325E+03 -0.27199379413E+03 -0.93766612658E+03  0.10441587272E+04  0.10100000352E+00 0. -1.
</event>
<event>
 5   0  0.1130707E-06  0.2200331E+04  0.7818609E-02  0.8518290E-01
        1   -1    0    0  501    0  0.00000000000E+00  0.00000000000E+00  0.10343185037E+04  0.10343185037E+04  0.50400001928E-02 0.  1.
       -1   -1    0    0    0  501  0.00000000000E+00  0.00000000000E+00 -0.11702044514E+04  0.11702044514E+04  0.50400001928E-02 0. -1.
    10030    2    1    2    0    0  0.00000000000E+00  0.00000000000E+00 -0.13588594769E+03  0.22045229552E+04  0.22003309908E+04 0.  0.
        3    1    3    3  502    0 -0.79921088441E+03  0.15129968938E+03  0.67423443746E+03  0.10565139472E+04  0.10100000352E+00 0.  1.
       -3    1    3    3    0  502  0.79921088441E+03 -0.15129968938E+03 -0.81012038515E+03  0.11480090080E+04  0.10100000352E+00 0. -1.
</event>
<event>
 5   0  0.1125196E-06  0.2493015E+04  0.7818609E-02  0.8405478E-01
        1   -1    0    0  501    0  0.00000000000E+00  0.00000000000E+00  0.23493365134E+04  0.23493365134E+04  0.50400001928E-02 0. -1.
       -1   -1    0    0    0  501  0.00000000000E+00  0.00000000000E+00 -0.66136995253E+03  0.66136995255E+03  0.50400001928E-02 0.  1.
    10030    2    1    2    0    0  0.00000000000E+00  0.00000000000E+00  0.16879665609E+04  0.30107064660E+04  0.24930147038E+04 0.  0.
        4    1    3    3  502    0 -0.68878568070E+03 -0.10037075593E+04  0.52010512323E+03  0.13237694402E+04  0.12699999809E+01 0.  1.
       -4    1    3    3    0  502  0.68878568070E+03  0.10037075593E+04  0.11678614377E+04  0.16869370258E+04  0.12699999809E+01 0. -1.
</event>
<event>
 5   0  0.1908726E-06  0.3383106E+04  0.7818609E-02  0.8142065E-01
       -2   -1    0    0    0  501  0.00000000000E+00  0.00000000000E+00  0.16278771688E+04  0.16278771688E+04  0.25500000920E-02 0. -1.
        2   -1    0    0  501    0  0.00000000000E+00  0.00000000000E+00 -0.17577194737E+04  0.17577194737E+04  0.25500000920E-02 0.  1.
    10030    2    1    2    0    0  0.00000000000E+00  0.00000000000E+00 -0.12984230489E+03  0.33855966424E+04  0.33831059104E+04 0.  0.
        5    1    3    3  502    0 -0.88474982137E+03  0.11308933096E+04  0.82995606436E+03  0.16584785446E+04  0.46999998093E+01 0. -1.
       -5    1    3    3    0  502  0.88474982137E+03 -0.11308933096E+04 -0.95979836925E+03  0.17271180978E+04  0.46999998093E+01 0.  1.
</event>
<event>
 5   0  0.1110956E-06  0.2975630E+04  0.7818609E-02  0.8250724E-01
       -1   -1    0    0    0  501  0.00000000000E+00  0.00000000000E+00  0.10907156113E+04  0.10907156113E+04  0.50400001928E-02 0.  1.
        1   -1    0    0  501    0  0.00000000000E+00  0.00000000000E+00 -0.20294871442E+04  0.20294871442E+04  0.50400001928E-02 0. -1.
    10030    2    1    2    0    0  0.00000000000E+00  0.00000000000E+00 -0.93877153289E+03  0.31202027556E+04  0.29756298905E+04 0.  0.
        1    1    3    3  502    0 -0.54994262801E+03 -0.39311872142E+03 -0.18591530514E+04  0.19782389370E+04  0.50400001928E-02 0. -1.
       -1    1    3    3    0  502  0.54994262801E+03  0.39311872142E+03  0.92038151854E+03  0.11419638186E+04  0.50400001928E-02 0.  1.
</event>
<event>
 5   0  0.1782660E-06  0.3277155E+04  0.7818609E-02  0.8168733E-01
        2   -1    0    0  501    0  0.00000000000E+00  0.00000000000E+00  0.22639052282E+04  0.22639052282E+04  0.25500000920E-02 0.  1.
       -2   -1    0    0    0  501  0.00000000000E+00  0.00000000000E+00 -0.11859756915E+04  0.11859756915E+04  0.25500000920E-02 0. -1.
    10030    2    1    2    0    0  0.00000000000E+00  0.00000000000E+00  0.10779295368E+04  0.34498809197E+04  0.32771552106E+04 0.  0.
        4    1    3    3  502    0  0.10776138945E+04  0.16146546797E+03 -0.74930487084E+03  0.13224152923E+04  0.12699999809E+01 0. -1.
       -4    1    3    3    0  502 -0.10776138945E+04 -0.16146546797E+03  0.18272344076E+04  0.21274656275E+04  0.12699999809E+01 0.  1.
</event>
<event>
 5   0  0.3378848E-06  0.1948302E+04  0.7818609E-02  0.8631180E-01
        2   -1    0    0  501    0  0.00000000000E+00  0.00000000000E+00  0.71638251245E+03  0.71638251246E+03  0.25500000920E-02 0.  1.
       -2   -1    0    0    0  501  0.00000000000E+00  0.00000000000E+00 -0.13246702971E+04  0.13246702971E+04  0.25500000920E-02 0. -1.
    10030    2    1    2    0    0  0.00000000000E+00  0.00000000000E+00 -0.60828778462E+03  0.20410528095E+04  0.19483024771E+04 0.  0.
        1    1    3    3  502    0 -0.32576203917E+03  0.75372661816E+03  0.24497132662E+03  0.85687552887E+03  0.50400001928E-02 0.  1.
       -1    1    3    3    0  502  0.32576203917E+03 -0.75372661816E+03 -0.85325911125E+03  0.11841772807E+04  0.50400001928E-02 0. -1.
</event>
<event>
 5   0  0.1102175E-06  0.3479804E+04  0.7818609E-02  0.8118593E-01
       -1   -1    0    0    0  501  0.00000000000E+00  0.00000000000E+00  0.15396841669E+04  0.15396841669E+04  0.50400001928E-02 0.  1.
        1   -1    0    0  501    0  0.00000000000E+00  0.00000000000E+00 -0.19661561365E+04  0.19661561365E+04  0.50400001928E-02 0. -1.
    10030    2    1    2    0    0  0.00000000000E+00  0.00000000000E+00 -0.42647196958E+03  0.35058403034E+04  0.34798042893E+04 0.  0.
        5    1    3    3  502    0  0.65001428279E+03  0.12585622820E+04 -0.12311118903E+04  0.18767408351E+04  0.46999998093E+01 0. -1.
       -5    1    3    3    0  502 -0.65001428279E+03 -0.12585622820E+04  0.80463992071E+03  0.16290994683E+04  0.46999998093E+01 0.  1.
</event>
<event>
 5   0  0.1089337E-06  0.3492998E+04  0.7818609E-02  0.8115451E-01
        1   -1    0    0  501    0  0.00000000000E+00  0.00000000000E+00  0.15481609238E+04  0.15481609238E+04  0.50400001928E-02 0.  1.
       -1   -1    0    0    0  501  0.00000000000E+00  0.00000000000E+00 -0.19702464370E+04  0.19702464371E+04  0.50400001928E-02 0. -1.
    10030    2    1    2    0    0  0.00000000000E+00  0.00000000000E+00 -0.42208551325E+03  0.35184073609E+04  0.34929978781E+04 0.  0.
        2    1    3    3  502    0 -0.16130745438E+03  0.10025262809E+03 -0.19598138139E+04  0.19689948881E+04  0.25500000920E-02 0. -1.
       -2    1    3    3    0  502  0.16130745438E+03 -0.10025262809E+03  0.15377283006E+04  0.15494124728E+04  0.25500000920E-02 0.  1.
</event>
<event>
 5   0  0.1908726E-06  0.3554100E+04  0.7818609E-02  0.8101087E-01
        2   -1    0    0  501    0  0.00000000000E+00  0.00000000000E+00  0.26290768005E+04  0.26290768006E+04  0.25500000920E-02 0.  1.
       -2   -1    0    0    0  501  0.00000000000E+00  0.00000000000E+00 -0.12011466065E+04  0.12011466065E+04  0.25500000920E-02 0. -1.
    10030    2    1    2    0    0  0.00000000000E+00  0.00000000000E+00  0.14279301940E+04  0.38302234071E+04  0.35540999858E+04 0.  0.
        5    1    3    3  502    0 -0.48175602682E+03 -0.15548621773E+04 -0.54300715216E+02  0.16286976139E+04  0.46999998093E+01 0. -1.
       -5    1    3    3    0  502  0.48175602682E+03  0.15548621773E+04  0.14822309092E+04  0.22015257932E+04  0.46999998093E+01 0.  1.
</event>
<event>
 5   0  0.1908726E-06  0.3113228E+04  0.7818609E-02  0.8212117E-01
       -2   -1    0    0    0  501  0.00000000000E+00  0.00000000000E+00  0.11649602573E+04  0.11649602573E+04  0.25500000920E-02 0.  1.
        2   -1    0    0  501    0  0.00000000000E+00  0.00000000000E+00 -0.20799398534E+04  0.20799398534E+04  0.25500000920E-02 0. -1.
    10030    2    1    2    0    0  0.00000000000E+00  0.00000000000E+00 -0.91497959610E+03  0.32449001108E+04  0.31132280783E+04 0.  0.
        5    1    3    3  502    0  0.72899703475E+02  0.26463721350E+03  0.11395276262E+04  0.11721316148E+04  0.46999998093E+01 0.  1.
       -5    1    3    3    0  502 -0.72899703475E+02 -0.26463721350E+03 -0.20545072223E+04  0.20727684960E+04  0.46999998093E+01 0. -1.
</event>
<event>
 5   0  0.1125196E-06  0.3600999E+04  0.7818609E-02  0.8090263E-01
        1   -1    0    0  501    0  0.00000000000E+00  0.00000000000E+00  0.20564804072E+04  0.20564804072E+04  0.50400001928E-02 0.  1.
       -1   -1    0    0    0  501  0.00000000000E+00  0.00000000000E+00 -0.15763822845E+04  0.15763822845E+04  0.50400001928E-02 0. -1.
    10030    2    1    2    0    0  0.00000000000E+00  0.00000000000E+00  0.48009812269E+03  0.36328626917E+04  0.36009994626E+04 0.  0.
        4    1    3    3  502    0  0.13153454355E+04  0.50330644242E+03  0.13717354195E+04  0.19659884698E+04  0.12699999809E+01 0.  1.
       -4    1    3    3    0  502 -0.13153454355E+04 -0.50330644242E+03 -0.89163729681E+03  0.16668742219E+04  0.12699999809E+01 0. -1.
</event>
<event>
 5   0  0.1130707E-06  0.4053855E+04  0.7818609E-02  0.7993770E-01
        1   -1    0    0  501    0  0.00000000000E+00  0.00000000000E+00  0.16449885750E+04  0.16449885750E+04  0.50400001928E-02 0. -1.
       -1   -1    0    0    0  501  0.00000000000E+00  0.00000000000E+00 -0.24975459125E+04  0.24975459125E+04  0.50400001928E-02 0.  1.
    10030    2    1    2    0    0  0.00000000000E+00  0.00000000000E+00 -0.85255733751E+03  0.41425344876E+04  0.40538547047E+04 0.  0.
        3    1    3    3  502    0 -0.56194215854E+02  0.15206104345E+04 -0.17946078632E+04  0.23528772336E+04  0.10100000352E+00 0.  1.
       -3    1    3    3    0  502  0.56194215854E+02 -0.15206104345E+04  0.94205052572E+03  0.17896572540E+04  0.10100000352E+00 0. -1.
</event>
<event>
 5   0  0.1102175E-06  0.3350899E+04  0.7818609E-02  0.8150064E-01
       -1   -1    0    0    0  501  0.00000000000E+00  0.00000000000E+00  0.14302197636E+04  0.14302197636E+04  0.50400001928E-02 0. -1.
        1   -1    0    0  501    0  0.00000000000E+00  0.00000000000E+00 -0.19627265190E+04  0.19627265190E+04  0.50400001928E-02 0.  1.
    10030    2    1    2    0    0  0.00000000000E+00  0.00000000000E+00 -0.53250675539E+03  0.33929462827E+04  0.33508985411E+04 0.  0.
        5    1    3    3  502    0  0.12286965086E+04  0.91316621508E+03 -0.95563477194E+03  0.18046682670E+04  0.46999998093E+01 0.  1.
       -5    1    3    3    0  502 -0.12286965086E+04 -0.91316621508E+03  0.42312801655E+03  0.15882780157E+04  0.46999998093E+01 0. -1.
</event>
<event>
 5   0  0.1089337E-06  0.1957184E+04  0.7818609E-02  0.8626904E-01
       -1   -1    0    0    0  501  0.00000000000E+00  0.00000000000E+00  0.65701341143E+03  0.65701341145E+03  0.50400001928E-02 0. -1.
        1   -1    0    0  501    0  0.00000000000E+00  0.00000000000E+00 -0.14575690174E+04  0.14575690174E+04  0.50400001928E-02 0.  1.
    10030    2    1    2    0    0  0.00000000000E+00  0.00000000000E+00 -0.80055560600E+03  0.21145824289E+04  0.19571840921E+04 0.  0.
        2    1    3    3  502    0 -0.81940907549E+03 -0.42880951618E+03 -0.54655324766E+02  0.92644267966E+03  0.25500000920E-02 0. -1.
       -2    1    3    3    0  502  0.81940907549E+03  0.42880951618E+03 -0.74590028124E+03  0.11881397492E+04  0.25500000920E-02 0.  1.
</event>
<event>
 5   0  0.1782660E-06  0.3450296E+04  0.7818609E-02  0.8125671E-01
       -2   -1    0    0    0  501  0.00000000000E+00  0.00000000000E+00  0.21991234744E+04  0.21991234744E+04  0.25500000920E-02 0.  1.
        2   -1    0    0  501    0  0.00000000000E+00  0.00000000000E+00 -0.13533279498E+04  0.13533279498E+04  0.25500000920E-02 0. -1.
    10030    2    1    2    0    0  0.00000000000E+00  0.00000000000E+00  0.84579552453E+03  0.35524514242E+04  0.34502957920E+04 0.  0.
        4    1    3    3  502    0 -0.12798189922E+04  0.23558034990E+03  0.15889934254E+04  0.20538589223E+04  0.12699999809E+01 0.  1.
       -4    1    3    3    0  502  0.12798189922E+04 -0.23558034990E+03 -0.74319790084E+03  0.14985925019E+04  0.12699999809E+01 0. -1.
</event>
<event>
 5   0  0.1130707E-06  0.3474784E+04  0.7818609E-02  0.8119792E-01
       -1   -1    0    0    0  501  0.00000000000E+00  0.00000000000E+00  0.19123670937E+04  0.19123670938E+04  0.50400001928E-02 0. -1.
        1   -1    0    0  501    0  0.00000000000E+00  0.00000000000E+00 -0.15784264055E+04  0.15784264055E+04  0.50400001928E-02 0.  1.
    10030    2    1    2    0    0  0.00000000000E+00  0.00000000000E+00  0.33394068821E+03  0.34907934993E+04  0.34747838597E+04 0.  0.
        3    1    3    3  502    0 -0.81387968837E+03 -0.14935164202E+04  0.52291801089E+03  0.17794478641E+04  0.10100000352E+00 0.  1.
       -3    1    3    3    0  502  0.81387968837E+03  0.14935164202E+04 -0.18897732268E+03  0.17113456352E+04  0.10100000352E+00 0. -1.
</event>
<event>
 5   0  0.1782660E-06  0.3490688E+04  0.7818609E-02  0.8116000E-01
        2   -1    0    0  501    0  0.00000000000E+00  0.00000000000E+00  0.20527540553E+04  0.20527540553E+04  0.25500000920E-02 0. -1.
       -2   -1    0    0    0  501  0.00000000000E+00  0.00000000000E+00 -0.14839703748E+04  0.14839703748E+04  0.25500000920E-02 0.  1.
    10030    2    1    2    0    0  0.00000000000E+00  0.00000000000E+00  0.56878368049E+03  0.35367244301E+04  0.34906883016E+04 0.  0.
        4    1    3    3  502    0 -0.15642923819E+04 -0.68367948405E+03 -0.83433596295E+02  0.17092077319E+04  0.12699999809E+01 0. -1.
       -4    1    3    3    0  502  0.15642923819E+04  0.68367948405E+03  0.65221727678E+03  0.18275166982E+04  0.12699999809E+01 0.  1.
</event>
<event>
 5   0  0.1102175E-06  0.3448232E+04  0.7818609E-02  0.8126169E-01
       -1   -1    0    0    0  501  0.00000000000E+00  0.00000000000E+00  0.17316707325E+04  0.17316707325E+04  0.50400001928E-02 0. -1.
        1   -1    0    0  501    0  0.00000000000E+00  0.00000000000E+00 -0.17165943009E+04  0.17165943009E+04  0.50400001928E-02 0.  1.
    10030    2    1    2    0    0  0.00000000000E+00  0.00000000000E+00  0.15076431557E+02  0.34482650334E+04  0.34482320748E+04 0.  0.
        5    1    3    3  502    0  0.10357444678E+04  0.87790512878E+03 -0.10550489977E+04  0.17194866953E+04  0.46999998093E+01 0.  1.
       -5    1    3    3    0  502 -0.10357444678E+04 -0.87790512878E+03  0.10701254293E+04  0.17287783381E+04  0.46999998093E+01 0. -1.
</event>
<event>
 5   0  0.1125196E-06  0.3501490E+04  0.7818609E-02  0.8113437E-01
       -1   -1    0    0    0  501  0.00000000000E+00  0.00000000000E+00  0.24496143923E+04  0.24496143923E+04  0.50400001928E-02 0.  1.
        1   -1    0    0  501    0  0.00000000000E+00  0.00000000000E+00 -0.12512611108E+04  0.12512611108E+04  0.50400001928E-02 0. -1.
    10030    2    1    2    0    0  0.00000000000E+00  0.00000000000E+00  0.11983532815E+04  0.37008755032E+04  0.35014895263E+04 0.  0.
        4    1    3    3  502    0 -0.13539545144E+04 -0.42294013425E+02  0.17714424284E+04  0.22300205158E+04  0.12699999809E+01 0.  1.
       -4    1    3    3    0  502  0.13539545144E+04  0.42294013425E+02 -0.57308914694E+03  0.14708549874E+04  0.12699999809E+01 0. -1.
</event>
<event>
 5   0  0.1908726E-06  0.2031419E+04  0.7818609E-02  0.8592071E-01
       -2   -1    0    0    0  501  0.00000000000E+00  0.00000000000E+00  0.81527680409E+03  0.81527680409E+03  0.25500000920E-02 0. -1.
        2   -1    0    0  501    0  0.00000000000E+00  0.00000000000E+00 -0.12654172643E+04  0.12654172643E+04  0.25500000920E-02 0.  1.
    10030    2    1    2    0    0  0.00000000000E+00  0.00000000000E+00 -0.45014046020E+03  0.20806940684E+04  0.20314185616E+04 0.  0.
        5    1    3    3  502    0  0.28772803604E+03 -0.11362456088E+03 -0.12159798489E+04  0.12547219001E+04  0.46999998093E+01 0.  1.
       -5    1    3    3    0  502 -0.28772803604E+03  0.11362456088E+03  0.76583938870E+03  0.82597216832E+03  0.46999998093E+01 0. -1.
</event>
<event>
 5   0  0.1782660E-06  0.3583254E+04  0.7818609E-02  0.8094338E-01
        2   -1    0    0  501    0  0.00000000000E+00  0.00000000000E+00  0.32508779093E+04  0.32508779093E+04  0.25500000920E-02 0. -1.
       -2   -1    0    0    0  501  0.00000000000E+00  0.00000000000E+00 -0.98740336273E+03  0.98740336274E+03  0.25500000920E-02 0.  1.
    10030    2    1    2    0    0  0.00000000000E+00  0.00000000000E+00  0.22634745466E+04  0.42382812720E+04  0.35832542637E+04 0.  0.
        4    1    3    3  502    0  0.12733996353E+03  0.68723686898E+03 -0.81949796536E+03  0.10770740497E+04  0.12699999809E+01 0.  1.
       -4    1    3    3    0  502 -0.12733996353E+03 -0.68723686898E+03  0.30829725119E+04  0.31612072224E+04  0.12699999809E+01 0. -1.
</event>
<event>
 5   0  0.1782660E-06  0.2806699E+04  0.7818609E-02  0.8301192E-01
        2   -1    0    0  501    0  0.00000000000E+00  0.00000000000E+00  0.12146779213E+04  0.12146779213E+04  0.25500000920E-02 0. -1.
       -2   -1    0    0    0  501  0.00000000000E+00  0.00000000000E+00 -0.16213269564E+04  0.16213269565E+04  0.25500000920E-02 0.  1.
    10030    2    1    2    0    0  0.00000000000E+00  0.00000000000E+00 -0.40664903513E+03  0.28360048778E+04  0.28066991697E+04 0.  0.
        4    1    3    3  502    0 -0.13716763788E+04  0.16856452252E+03 -0.44975282424E+03  0.14533372981E+04  0.12699999809E+01 0.  1.
       -4    1    3    3    0  502  0.13716763788E+04 -0.16856452252E+03  0.43103789108E+02  0.13826675797E+04  0.12699999809E+01 0. -1.
</event>
<event>
 5   0  0.2565004E-06  0.3418534E+04  0.7818609E-02  0.8133372E-01
       -2   -1    0    0    0  501  0.00000000000E+00  0.00000000000E+00  0.13149411914E+04  0.13149411914E+04  0.25500000920E-02 0. -1.
        2   -1    0    0  501    0  0.00000000000E+00  0.00000000000E+00 -0.22218438762E+04  0.22218438762E+04  0.25500000920E-02 0.  1.
    10030    2    1    2    0    0  0.00000000000E+00  0.00000000000E+00 -0.90690268476E+03  0.35367850676E+04  0.34185342085E+04 0.  0.
        3    1    3    3  502    0  0.15263142396E+04  0.76908045148E+03 -0.43092373897E+03  0.17626160041E+04  0.10100000352E+00 0.  1.
       -3    1    3    3    0  502 -0.15263142396E+04 -0.76908045148E+03 -0.47597894579E+03  0.17741690635E+04  0.10100000352E+00 0. -1.
</event>
<event>
 5   0  0.1782660E-06  0.3586022E+04  0.7818609E-02  0.8093701E-01
       -2   -1    0    0    0  501  0.00000000000E+00  0.00000000000E+00  0.11950833490E+04  0.11950833491E+04  0.25500000920E-02 0.  1.
        2   -1    0    0  501    0  0.00000000000E+00  0.00000000000E+00 -0.26900953204E+04  0.26900953204E+04  0.25500000920E-02 0. -1.
    10030    2    1    2    0    0  0.00000000000E+00  0.00000000000E+00 -0.14950119714E+04  0.38851786695E+04  0.35860218208E+04 0.  0.
        4    1    3    3  502    0 -0.19132161571E+03 -0.16309518052E+04 -0.15274793527E+04  0.22427221266E+04  0.12699999809E+01 0. -1.
       -4    1    3    3    0  502  0.19132161571E+03  0.16309518052E+04  0.32467381320E+02  0.16424565429E+04  0.12699999809E+01 0.  1.
</event>
<event>
 5   0  0.1130707E-06  0.3477490E+04  0.7818609E-02  0.8119145E-01
       -1   -1    0    0    0  501  0.00000000000E+00  0.00000000000E+00  0.18545489194E+04  0.18545489194E+04  0.50400001928E-02 0.  1.
        1   -1    0    0  501    0  0.00000000000E+00  0.00000000000E+00 -0.16301723956E+04  0.16301723957E+04  0.50400001928E-02 0. -1.
    10030    2    1    2    0    0  0.00000000000E+00  0.00000000000E+00  0.22437652378E+03  0.34847213151E+04  0.34774901609E+04 0.  0.
        3    1    3    3  502    0  0.20974253936E+03 -0.92201139330E+03 -0.13500023689E+04  0.16482121673E+04  0.10100000352E+00 0. -1.
       -3    1    3    3    0  502 -0.20974253936E+03  0.92201139330E+03  0.15743788926E+04  0.18365091478E+04  0.10100000352E+00 0.  1.
</event>
<event>
 5   0  0.2565004E-06  0.3358539E+04  0.7818609E-02  0.8148158E-01
        2   -1    0    0  501    0  0.00000000000E+00  0.00000000000E+00  0.32226337217E+04  0.32226337217E+04  0.25500000920E-02 0.  1.
       -2   -1    0    0    0  501  0.00000000000E+00  0.00000000000E+00 -0.87504398205E+03  0.87504398205E+03  0.25500000920E-02 0. -1.
    10030    2    1    2    0    0  0.00000000000E+00  0.00000000000E+00  0.23475897397E+04  0.40976777038E+04  0.33585391137E+04 0.  0.
        3    1    3    3  502    0  0.10854473871E+04  0.68722517686E+03  0.24932124178E+04  0.28047428838E+04  0.10100000352E+00 0.  1.
       -3    1    3    3    0  502 -0.10854473871E+04 -0.68722517686E+03 -0.14562267816E+03  0.12929348199E+04  0.10100000352E+00 0. -1.
</event>
<event>
 5   0  0.1908726E-06  0.3531956E+04  0.7818609E-02  0.8106258E-01
        2   -1    0    0  501    0  0.00000000000E+00  0.00000000000E+00  0.17305072146E+04  0.17305072146E+04  0.25500000920E-02 0. -1.
       -2   -1    0    0    0  501  0.00000000000E+00  0.00000000000E+00 -0.18021758878E+04  0.18021758878E+04  0.25500000920E-02 0.  1.
    10030    2    1    2    0    0  0.00000000000E+00  0.00000000000E+00 -0.71668673191E+02  0.35326831024E+04  0.35319560449E+04 0.  0.
        5    1    3    3  502    0 -0.23794579452E+03 -0.14269974176E+04  0.97715075125E+03  0.17457907984E+04  0.46999998093E+01 0. -1.
       -5    1    3    3    0  502  0.23794579452E+03  0.14269974176E+04 -0.10488194244E+04  0.17868923040E+04  0.46999998093E+01 0.  1.
</event>
<event>
 5   0  0.2565004E-06  0.2105924E+04  0.7818609E-02  0.8558638E-01
       -2   -1    0    0    0  501  0.00000000000E+00  0.00000000000E+00  0.76506011337E+03  0.76506011338E+03  0.25500000920E-02 0.  1.
        2   -1    0    0  501    0  0.00000000000E+00  0.00000000000E+00 -0.14492044757E+04  0.14492044757E+04  0.25500000920E-02 0. -1.
    10030    2    1    2    0    0  0.00000000000E+00  0.00000000000E+00 -0.68414436235E+03  0.22142645891E+04  0.21059235888E+04 0.  0.
        3    1    3    3  502    0 -0.18527923753E+03 -0.15223107458E+02  0.74766831435E+03  0.77043368134E+03  0.10100000352E+00 0.  1.
       -3    1    3    3    0  502  0.18527923753E+03  0.15223107458E+02 -0.14318126767E+04  0.14438309078E+04  0.10100000352E+00 0. -1.
</event>
<event>
 5   0  0.1125196E-06  0.3450868E+04  0.7818609E-02  0.8125533E-01
        1   -1    0    0  501    0  0.00000000000E+00  0.00000000000E+00  0.11600341899E+04  0.11600341899E+04  0.50400001928E-02 0. -1.
       -1   -1    0    0    0  501  0.00000000000E+00  0.00000000000E+00 -0.25664099259E+04  0.25664099259E+04  0.50400001928E-02 0.  1.
    10030    2    1    2    0    0  0.00000000000E+00  0.00000000000E+00 -0.14063757360E+04  0.37264441158E+04  0.34508684469E+04 0.  0.
        4    1    3    3  502    0  0.10241814274E+02  0.61124210835E+03 -0.24455428670E+04  0.25207941878E+04  0.12699999809E+01 0.  1.
       -4    1    3    3    0  502 -0.10241814274E+02 -0.61124210835E+03  0.10391671311E+04  0.12056499280E+04  0.12699999809E+01 0. -1.
</event>
<event>
 5   0  0.1042825E-06  0.3536516E+04  0.7818609E-02  0.8105190E-01
        3   -1    0    0  501    0  0.00000000000E+00  0.00000000000E+00  0.23728840459E+04  0.23728840481E+04  0.10100000352E+00 0.  1.
       -3   -1    0    0    0  501  0.00000000000E+00  0.00000000000E+00 -0.13176943229E+04  0.13176943268E+04  0.10100000352E+00 0. -1.
    10030    2    1    2    0    0  0.00000000000E+00  0.00000000000E+00  0.10551897230E+04  0.36905783749E+04  0.35365157132E+04 0.  0.
        5    1    3    3  502    0 -0.15802851275E+04 -0.79306879534E+03  0.54984404125E+03  0.18516505497E+04  0.46999998093E+01 0.  1.
       -5    1    3    3    0  502  0.15802851275E+04  0.79306879534E+03  0.50534568173E+03  0.18389278252E+04  0.46999998093E+01 0. -1.
</event>
<event>
 5   0  0.1102175E-06  0.3469286E+04  0.7818609E-02  0.8121108E-01
        1   -1    0    0  501    0  0.00000000000E+00  0.00000000000E+00  0.16152152739E+04  0.16152152739E+04  0.50400001928E-02 0.  1.
       -1   -1    0    0    0  501  0.00000000000E+00  0.00000000000E+00 -0.18629008605E+04  0.18629008606E+04  0.50400001928E-02 0. -1.
    10030    2    1    2    0    0  0.00000000000E+00  0.00000000000E+00 -0.24768558665E+03  0.34781161345E+04  0.34692857615E+04 0.  0.
        5    1    3    3  502    0  0.11019254538E+04  0.12601781210E+04 -0.57961540256E+03  0.17715148058E+04  0.46999998093E+01 0.  1.
       -5    1    3    3    0  502 -0.11019254538E+04 -0.12601781210E+04  0.33192981591E+03  0.17066013287E+04  0.46999998093E+01 0. -1.
</event>
<event>
 5   0  0.1908726E-06  0.2005960E+04  0.7818609E-02  0.8603839E-01
       -2   -1    0    0    0  501  0.00000000000E+00  0.00000000000E+00  0.71744528423E+03  0.71744528424E+03  0.25500000920E-02 0. -1.
        2   -1    0    0  501    0  0.00000000000E+00  0.00000000000E+00 -0.14021536487E+04  0.14021536487E+04  0.25500000920E-02 0.  1.
    10030    2    1    2    0    0  0.00000000000E+00  0.00000000000E+00 -0.68470836450E+03  0.21195989330E+04  0.20059596437E+04 0.  0.
        5    1    3    3  502    0 -0.64865158788E+03 -0.22495023091E+02  0.46561519310E+03  0.79879566008E+03  0.46999998093E+01 0. -1.
       -5    1    3    3    0  502  0.64865158788E+03  0.22495023091E+02 -0.11503235576E+04  0.13208032729E+04  0.46999998093E+01 0.  1.
</event>
<event>
 5   0  0.1110956E-06  0.2825716E+04  0.7818609E-02  0.8295329E-01
        1   -1    0    0  501    0  0.00000000000E+00  0.00000000000E+00  0.15753153978E+04  0.15753153978E+04  0.50400001928E-02 0. -1.
       -1   -1    0    0    0  501  0.00000000000E+00  0.00000000000E+00 -0.12671539901E+04  0.12671539901E+04  0.50400001928E-02 0.  1.
    10030    2    1    2    0    0  0.00000000000E+00  0.00000000000E+00  0.30816140772E+03  0.28424693880E+04  0.28257156206E+04 0.  0.
        1    1    3    3  502    0 -0.88048668976E+03 -0.12854662398E+02  0.12655048956E+04  0.15417278275E+04  0.50400001928E-02 0. -1.
       -1    1    3    3    0  502  0.88048668976E+03  0.12854662398E+02 -0.95734348792E+03  0.13007415604E+04  0.50400001928E-02 0.  1.
</event>
<event>
 5   0  0.1102175E-06  0.2643788E+04  0.7818609E-02  0.8353478E-01
       -1   -1    0    0    0  501  0.00000000000E+00  0.00000000000E+00  0.92552391952E+03  0.92552391953E+03  0.50400001928E-02 0. -1.
        1   -1    0    0  501    0  0.00000000000E+00  0.00000000000E+00 -0.18880163709E+04  0.18880163709E+04  0.50400001928E-02 0.  1.
    10030    2    1    2    0    0  0.00000000000E+00  0.00000000000E+00 -0.96249245141E+03  0.28135402905E+04  0.26437884271E+04 0.  0.
        5    1    3    3  502    0  0.79116109867E+03  0.28975660187E+03  0.60272528330E+03  0.10359510749E+04  0.46999998093E+01 0. -1.
       -5    1    3    3    0  502 -0.79116109867E+03 -0.28975660187E+03 -0.15652177347E+04  0.17775892156E+04  0.46999998093E+01 0.  1.
</event>
<event>
 5   0  0.1110956E-06  0.2160276E+04  0.7818609E-02  0.8535146E-01
       -1   -1    0    0    0  501  0.00000000000E+00  0.00000000000E+00  0.79072748257E+03  0.79072748259E+03  0.50400001928E-02 0. -1.
        1   -1    0    0  501    0  0.00000000000E+00  0.00000000000E+00 -0.14754741759E+04  0.14754741759E+04  0.50400001928E-02 0.  1.
    10030    2    1    2    0    0  0.00000000000E+00  0.00000000000E+00 -0.68474669337E+03  0.22662016585E+04  0.21602758905E+04 0.  0.
        1    1    3    3  502    0 -0.69875286909E+03 -0.78820366191E+03 -0.91530615543E+02  0.10573071637E+04  0.50400001928E-02 0.  1.
       -1    1    3    3    0  502  0.69875286909E+03  0.78820366191E+03 -0.59321607783E+03  0.12088944949E+04  0.50400001928E-02 0. -1.
</event>
<event>
 5   0  0.3041329E-06  0.1994885E+04  0.7818609E-02  0.8609016E-01
        2   -1    0    0  501    0  0.00000000000E+00  0.00000000000E+00  0.85469437774E+03  0.85469437775E+03  0.25500000920E-02 0. -1.
       -2   -1    0    0    0  501  0.00000000000E+00  0.00000000000E+00 -0.11640318894E+04  0.11640318894E+04  0.25500000920E-02 0.  1.
    10030    2    1    2    0    0  0.00000000000E+00  0.00000000000E+00 -0.30933751162E+03  0.20187262671E+04  0.19948849705E+04 0.  0.
        2    1    3    3  502    0 -0.90070099781E+03  0.38301457793E+03  0.39797245645E+02  0.97956432925E+03  0.25500000920E-02 0. -1.
       -2    1    3    3    0  502  0.90070099781E+03 -0.38301457793E+03 -0.34913475726E+03  0.10391619379E+04  0.25500000920E-02 0.  1.
</event>
<event>
 5   0  0.1110956E-06  0.2086174E+04  0.7818609E-02  0.8567359E-01
       -1   -1    0    0    0  501  0.00000000000E+00  0.00000000000E+00  0.79837091429E+03  0.79837091431E+03  0.50400001928E-02 0.  1.
        1   -1    0    0  501    0  0.00000000000E+00  0.00000000000E+00 -0.13628127532E+04  0.13628127532E+04  0.50400001928E-02 0. -1.
    10030    2    1    2    0    0  0.00000000000E+00  0.00000000000E+00 -0.56444183892E+03  0.21611836675E+04  0.20861735918E+04 0.  0.
        1    1    3    3  502    0 -0.30569313589E+03 -0.91894183132E+03 -0.68361560817E+03  0.11854251062E+04  0.50400001928E-02 0. -1.
       -1    1    3    3    0  502  0.30569313589E+03  0.91894183132E+03  0.11917376925E+03  0.97575856132E+03  0.50400001928E-02 0.  1.
</event>
<event>
 5   0  0.1908726E-06  0.3417782E+04  0.7818609E-02  0.8133556E-01
        2   -1    0    0  501    0  0.00000000000E+00  0.00000000000E+00  0.16197688914E+04  0.16197688915E+04  0.25500000920E-02 0.  1.
       -2   -1    0    0    0  501  0.00000000000E+00  0.00000000000E+00 -0.18029162539E+04  0.18029162539E+04  0.25500000920E-02 0. -1.
    10030    2    1    2    0    0  0.00000000000E+00  0.00000000000E+00 -0.18314736249E+03  0.34226851454E+04  0.34177815390E+04 0.  0.
        5    1    3    3  502    0  0.86735828258E+02 -0.16230617332E+04 -0.61999832696E+03  0.17396184953E+04  0.46999998093E+01 0. -1.
       -5    1    3    3    0  502 -0.86735828258E+02  0.16230617332E+04  0.43685096447E+03  0.16830666501E+04  0.46999998093E+01 0.  1.
</event>
<event>
 5   0  0.1125196E-06  0.2460869E+04  0.7818609E-02  0.8417060E-01
        1   -1    0    0  501    0  0.00000000000E+00  0.00000000000E+00  0.16438563092E+04  0.16438563092E+04  0.50400001928E-02 0.  1.
       -1   -1    0    0    0  501  0.00000000000E+00  0.00000000000E+00 -0.92098656581E+03  0.92098656582E+03  0.50400001928E-02 0. -1.
    10030    2    1    2    0    0  0.00000000000E+00  0.00000000000E+00  0.72286974343E+03  0.25648428751E+04  0.24608694211E+04 0.  0.
        4    1    3    3  502    0  0.34634817770E+03  0.10796004566E+04  0.85961953977E+03  0.14228287220E+04  0.12699999809E+01 0.  1.
       -4    1    3    3    0  502 -0.34634817770E+03 -0.10796004566E+04 -0.13674979634E+03  0.11420141531E+04  0.12699999809E+01 0. -1.
</event>
<event>
 5   0  0.1782660E-06  0.3438608E+04  0.7818609E-02  0.8128495E-01
        2   -1    0    0  501    0  0.00000000000E+00  0.00000000000E+00  0.13429058943E+04  0.13429058943E+04  0.25500000920E-02 0. -1.
       -2   -1    0    0    0  501  0.00000000000E+00  0.00000000000E+00 -0.22012012541E+04  0.22012012541E+04  0.25500000920E-02 0.  1.
    10030    2    1    2    0    0  0.00000000000E+00  0.00000000000E+00 -0.85829535976E+03  0.35441071484E+04  0.34386079385E+04 0.  0.
        4    1    3    3  502    0 -0.65170303659E+03 -0.10695249733E+04 -0.16431671572E+04  0.20660591560E+04  0.12699999809E+01 0.  1.
       -4    1    3    3    0  502  0.65170303659E+03  0.10695249733E+04  0.78487179749E+03  0.14780479924E+04  0.12699999809E+01 0. -1.
</event>
<event>
 5   0  0.3041329E-06  0.3491198E+04  0.7818609E-02  0.8115879E-01
        2   -1    0    0  501    0  0.00000000000E+00  0.00000000000E+00  0.28546064169E+04  0.28546064169E+04  0.25500000920E-02 0. -1.
       -2   -1    0    0    0  501  0.00000000000E+00  0.00000000000E+00 -0.10674381422E+04  0.10674381422E+04  0.25500000920E-02 0.  1.
    10030    2    1    2    0    0  0.00000000000E+00  0.00000000000E+00  0.17871682746E+04  0.39220445591E+04  0.34911979437E+04 0.  0.
        2    1    3    3  502    0 -0.57770123580E+03 -0.14365131364E+04 -0.12003038180E+02  0.15483710091E+04  0.25500000920E-02 0.  1.
       -2    1    3    3    0  502  0.57770123580E+03  0.14365131364E+04  0.17991713128E+04  0.23736735500E+04  0.25500000920E-02 0. -1.
</event>
<event>
 5   0  0.1102175E-06  0.3286663E+04  0.7818609E-02  0.8166297E-01
        1   -1    0    0  501    0  0.00000000000E+00  0.00000000000E+00  0.12098949328E+04  0.12098949329E+04  0.50400001928E-02 0.  1.
       -1   -1    0    0    0  501  0.00000000000E+00  0.00000000000E+00 -0.22320439140E+04  0.22320439140E+04  0.50400001928E-02 0. -1.
    10030    2    1    2    0    0  0.00000000000E+00  0.00000000000E+00 -0.10221489811E+04  0.34419388468E+04  0.32866631232E+04 0.  0.
        5    1    3    3  502    0  0.12376904096E+04  0.87690500022E+03 -0.11731420678E+04  0.19175829397E+04  0.46999998093E+01 0.  1.
       -5    1    3    3    0  502 -0.12376904096E+04 -0.87690500022E+03  0.15099308674E+03  0.15243559071E+04  0.46999998093E+01 0. -1.
</event>
<event>
 5   0  0.1110956E-06  0.3048371E+04  0.7818609E-02  0.8230052E-01
       -1   -1    0    0    0  501  0.00000000000E+00  0.00000000000E+00  0.12920977987E+04  0.12920977987E+04  0.50400001928E-02 0. -1.
        1   -1    0    0  501    0  0.00000000000E+00  0.00000000000E+00 -0.17979606653E+04  0.17979606653E+04  0.50400001928E-02 0.  1.
    10030    2    1    2    0    0  0.00000000000E+00  0.00000000000E+00 -0.50586286660E+03  0.30900584640E+04  0.30483707240E+04 0.  0.
        1    1    3    3  502    0  0.74316540345E+03 -0.11154221800E+04 -0.98858297048E+03  0.16654602205E+04  0.50400001928E-02 0.  1.
       -1    1    3    3    0  502 -0.74316540345E+03  0.11154221800E+04  0.48272010388E+03  0.14245982435E+04  0.50400001928E-02 0. -1.
</event>
<event>
 5   0  0.1782660E-06  0.1936589E+04  0.7818609E-02  0.8636855E-01
        2   -1    0    0  501    0  0.00000000000E+00  0.00000000000E+00  0.19806054859E+04  0.19806054859E+04  0.25500000920E-02 0. -1.
       -2   -1    0    0    0  501  0.00000000000E+00  0.00000000000E+00 -0.47338777086E+03  0.47338777087E+03  0.25500000920E-02 0.  1.
    10030    2    1    2    0    0  0.00000000000E+00  0.00000000000E+00  0.15072177150E+04  0.24539932567E+04  0.19365891830E+04 0.  0.
        4    1    3    3  502    0 -0.80158167869E+03 -0.50900198629E+03  0.99395982909E+03  0.13746177521E+04  0.12699999809E+01 0. -1.
       -4    1    3    3    0  502  0.80158167869E+03  0.50900198629E+03  0.51325788592E+03  0.10793755046E+04  0.12699999809E+01 0.  1.
</event>
<event>
 5   0  0.1042825E-06  0.2709915E+04  0.7818609E-02  0.8331795E-01
       -3   -1    0    0    0  501  0.00000000000E+00  0.00000000000E+00  0.19113469602E+04  0.19113469629E+04  0.10100000352E+00 0.  1.
        3   -1    0    0  501    0  0.00000000000E+00  0.00000000000E+00 -0.96053211641E+03  0.96053212172E+03  0.10100000352E+00 0. -1.
    10030    2    1    2    0    0  0.00000000000E+00  0.00000000000E+00  0.95081484380E+03  0.28718790846E+04  0.27099152403E+04 0.  0.
        2    1    3    3  502    0 -0.71754178039E+03 -0.30895352375E+03  0.16486379172E+04  0.18243698826E+04  0.25500000920E-02 0.  1.
       -2    1    3    3    0  502  0.71754178039E+03  0.30895352375E+03 -0.69782307343E+03  0.10475092020E+04  0.25500000920E-02 0. -1.
</event>
<event>
 5   0  0.1125196E-06  0.3593144E+04  0.7818609E-02  0.8092064E-01
       -1   -1    0    0    0  501  0.00000000000E+00  0.00000000000E+00  0.15911579977E+04  0.15911579977E+04  0.50400001928E-02 0. -1.
        1   -1    0    0  501    0  0.00000000000E+00  0.00000000000E+00 -0.20285043379E+04  0.20285043379E+04  0.50400001928E-02 0.  1.
    10030    2    1    2    0    0  0.00000000000E+00  0.00000000000E+00 -0.43734634026E+03  0.36196623356E+04  0.35931439719E+04 0.  0.
        4    1    3    3  502    0  0.83688334569E+03 -0.14416542577E+04  0.45629307554E+03  0.17282782521E+04  0.12699999809E+01 0. -1.
       -4    1    3    3    0  502 -0.83688334569E+03  0.14416542577E+04 -0.89363941580E+03  0.18913840835E+04  0.12699999809E+01 0.  1.
</event>
<event>
 5   0  0.1125196E-06  0.3224523E+04  0.7818609E-02  0.8182371E-01
       -1   -1    0    0    0  501  0.00000000000E+00  0.00000000000E+00  0.24059252001E+04  0.24059252001E+04  0.50400001928E-02 0. -1.
        1   -1    0    0  501    0  0.00000000000E+00  0.00000000000E+00 -0.10804104803E+04  0.10804104803E+04  0.50400001928E-02 0.  1.
    10030    2    1    2    0    0  0.00000000000E+00  0.00000000000E+00  0.13255147198E+04  0.34863356804E+04  0.32245227870E+04 0.  0.
        4    1    3    3  502    0  0.14143104214E+04 -0.42258680783E+03 -0.38379942103E+02  0.14765934482E+04  0.12699999809E+01 0.  1.
       -4    1    3    3    0  502 -0.14143104214E+04  0.42258680783E+03  0.13638946619E+04  0.20097422322E+04  0.12699999809E+01 0. -1.
</event>
<event>
 5   0  0.1782660E-06  0.2390188E+04  0.7818609E-02  0.8443186E-01
       -2   -1    0    0    0  501  0.00000000000E+00  0.00000000000E+00  0.11573415466E+04  0.11573415466E+04  0.25500000920E-02 0. -1.
        2   -1    0    0  501    0  0.00000000000E+00  0.00000000000E+00 -0.12340782978E+04  0.12340782978E+04  0.25500000920E-02 0.  1.
    10030    2    1    2    0    0  0.00000000000E+00  0.00000000000E+00 -0.76736751175E+02  0.23914198444E+04  0.23901883489E+04 0.  0.
        4    1    3    3  502    0 -0.54887412954E+03 -0.73882686560E+03  0.72433700697E+03  0.11712359540E+04  0.12699999809E+01 0. -1.
       -4    1    3    3    0  502  0.54887412954E+03  0.73882686560E+03 -0.80107375814E+03  0.12201838904E+04  0.12699999809E+01 0.  1.
</event>
<event>
 5   0  0.2565004E-06  0.3504651E+04  0.7818609E-02  0.8112689E-01
       -2   -1    0    0    0  501  0.00000000000E+00  0.00000000000E+00  0.15886026228E+04  0.15886026228E+04  0.25500000920E-02 0. -1.
        2   -1    0    0  501    0  0.00000000000E+00  0.00000000000E+00 -0.19329218844E+04  0.19329218844E+04  0.25500000920E-02 0.  1.
    10030    2    1    2    0    0  0.00000000000E+00  0.00000000000E+00 -0.34431926166E+03  0.35215245072E+04  0.35046510669E+04 0.  0.
        3    1    3    3  502    0  0.83438530387E+03  0.13566489199E+04  0.56207705221E+03  0.16889718026E+04  0.10100000352E+00 0. -1.
       -3    1    3    3    0  502 -0.83438530387E+03 -0.13566489199E+04 -0.90639631387E+03  0.18325527046E+04  0.10100000352E+00 0.  1.
</event>
<event>
 5   0  0.1130707E-06  0.3490440E+04  0.7818609E-02  0.8116059E-01
        1   -1    0    0  501    0  0.00000000000E+00  0.00000000000E+00  0.22003289328E+04  0.22003289328E+04  0.50400001928E-02 0. -1.
       -1   -1    0    0    0  501  0.00000000000E+00  0.00000000000E+00 -0.13842443243E+04  0.13842443243E+04  0.50400001928E-02 0.  1.
    10030    2    1    2    0    0  0.00000000000E+00  0.00000000000E+00  0.81608460852E+03  0.35845732571E+04  0.34904399933E+04 0.  0.
        3    1    3    3  502    0  0.54814618459E+03 -0.17571472611E+03  0.21000348337E+04  0.21774954001E+04  0.10100000352E+00 0. -1.
       -3    1    3    3    0  502 -0.54814618459E+03  0.17571472611E+03 -0.12839502252E+04  0.14070778570E+04  0.10100000352E+00 0.  1.
</event>
<event>
 5   0  0.1782660E-06  0.3468201E+04  0.7818609E-02  0.8121368E-01
       -2   -1    0    0    0  501  0.00000000000E+00  0.00000000000E+00  0.14471874119E+04  0.14471874119E+04  0.25500000920E-02 0.  1.
        2   -1    0    0  501    0  0.00000000000E+00  0.00000000000E+00 -0.20778953801E+04  0.20778953801E+04  0.25500000920E-02 0. -1.
    10030    2    1    2    0    0  0.00000000000E+00  0.00000000000E+00 -0.63070796818E+03  0.35250827919E+04  0.34682007077E+04 0.  0.
        4    1    3    3  502    0 -0.13580042505E+04 -0.87834079531E+03 -0.95127049468E+03  0.18763196060E+04  0.12699999809E+01 0. -1.
       -4    1    3    3    0  502  0.13580042505E+04  0.87834079531E+03  0.32056252650E+03  0.16487631859E+04  0.12699999809E+01 0.  1.
</event>
<event>
 5   0  0.2565004E-06  0.2465127E+04  0.7818609E-02  0.8415516E-01
        2   -1    0    0  501    0  0.00000000000E+00  0.00000000000E+00  0.15114367065E+04  0.15114367065E+04  0.25500000920E-02 0. -1.
       -2   -1    0    0    0  501  0.00000000000E+00  0.00000000000E+00 -0.10051447479E+04  0.10051447479E+04  0.25500000920E-02 0.  1.
    10030    2    1    2    0    0  0.00000000000E+00  0.00000000000E+00  0.50629195865E+03  0.25165814544E+04  0.24651269073E+04 0.  0.
        3    1    3    3  502    0 -0.10722391085E+04 -0.10037133599E+03 -0.35890253288E+03  0.11351573235E+04  0.10100000352E+00 0.  1.
       -3    1    3    3    0  502  0.10722391085E+04  0.10037133599E+03  0.86519449153E+03  0.13814241308E+04  0.10100000352E+00 0. -1.
</event>
<event>
 5   0  0.1102175E-06  0.2465010E+04  0.7818609E-02  0.8415558E-01
       -1   -1    0    0    0  501  0.00000000000E+00  0.00000000000E+00  0.15073719001E+04  0.15073719001E+04  0.50400001928E-02 0. -1.
        1   -1    0    0  501    0  0.00000000000E+00  0.00000000000E+00 -0.10077598184E+04  0.10077598185E+04  0.50400001928E-02 0.  1.
    10030    2    1    2    0    0  0.00000000000E+00  0.00000000000E+00  0.49961208170E+03  0.25151317186E+04  0.24650102088E+04 0.  0.
        5    1    3    3  502    0  0.85848731766E+03  0.64345678727E+03 -0.36916681497E+03  0.11346115366E+04  0.46999998093E+01 0.  1.
       -5    1    3    3    0  502 -0.85848731766E+03 -0.64345678727E+03  0.86877889666E+03  0.13805201820E+04  0.46999998093E+01 0. -1.
</event>
<event>
 5   0  0.1782660E-06  0.3643666E+04  0.7818609E-02  0.8080562E-01
       -2   -1    0    0    0  501  0.00000000000E+00  0.00000000000E+00  0.16046954590E+04  0.16046954590E+04  0.25500000920E-02 0. -1.
        2   -1    0    0  501    0  0.00000000000E+00  0.00000000000E+00 -0.20683524069E+04  0.20683524069E+04  0.25500000920E-02 0.  1.
    10030    2    1    2    0    0  0.00000000000E+00  0.00000000000E+00 -0.46365694787E+03  0.36730478660E+04  0.36436661291E+04 0.  0.
        4    1    3    3  502    0  0.16700455975E+04 -0.41647753443E+02 -0.96452323274E+03  0.19290136113E+04  0.12699999809E+01 0.  1.
       -4    1    3    3    0  502 -0.16700455975E+04  0.41647753443E+02  0.50086628487E+03  0.17440342547E+04  0.12699999809E+01 0. -1.
</event>
<event>
 5   0  0.1110956E-06  0.2247072E+04  0.7818609E-02  0.8499087E-01
        1   -1    0    0  501    0  0.00000000000E+00  0.00000000000E+00  0.82700998904E+03  0.82700998905E+03  0.50400001928E-02 0.  1.
       -1   -1    0    0    0  501  0.00000000000E+00  0.00000000000E+00 -0.15263826440E+04  0.15263826440E+04  0.50400001928E-02 0. -1.
    10030    2    1    2    0    0  0.00000000000E+00  0.00000000000E+00 -0.69937265494E+03  0.23533926330E+04  0.22470724899E+04 0.  0.
        1    1    3    3  502    0 -0.48161995999E+03  0.10098167143E+04 -0.45774827986E+03  0.12088097741E+04  0.50400001928E-02 0.  1.
       -1    1    3    3    0  502  0.48161995999E+03 -0.10098167143E+04 -0.24162437508E+03  0.11445828589E+04  0.50400001928E-02 0. -1.
</event>
<event>
 5   0  0.1102175E-06  0.2845926E+04  0.7818609E-02  0.8289150E-01
        1   -1    0    0  501    0  0.00000000000E+00  0.00000000000E+00  0.17125516118E+04  0.17125516118E+04  0.50400001928E-02 0.  1.
       -1   -1    0    0    0  501  0.00000000000E+00  0.00000000000E+00 -0.11823432796E+04  0.11823432796E+04  0.50400001928E-02 0. -1.
    10030    2    1    2    0    0  0.00000000000E+00  0.00000000000E+00  0.53020833220E+03  0.28948948914E+04  0.28459261334E+04 0.  0.
        5    1    3    3  502    0  0.62627629776E+03  0.94941481007E+03 -0.60470641951E+03  0.12881391332E+04  0.46999998093E+01 0. -1.
       -5    1    3    3    0  502 -0.62627629776E+03 -0.94941481007E+03  0.11349147517E+04  0.16067557582E+04  0.46999998093E+01 0.  1.
</event>
<event>
 5   0  0.1125196E-06  0.3498532E+04  0.7818609E-02  0.8114138E-01
       -1   -1    0    0    0  501  0.00000000000E+00  0.00000000000E+00  0.13475898990E+04  0.13475898990E+04  0.50400001928E-02 0. -1.
        1   -1    0    0  501    0  0.00000000000E+00  0.00000000000E+00 -0.22706691323E+04  0.22706691323E+04  0.50400001928E-02 0.  1.
    10030    2    1    2    0    0  0.00000000000E+00  0.00000000000E+00 -0.92307923328E+03  0.36182590313E+04  0.34985315701E+04 0.  0.
        4    1    3    3  502    0 -0.16773450307E+04  0.48766237973E+03 -0.55760669686E+03  0.18336378568E+04  0.12699999809E+01 0.  1.
       -4    1    3    3    0  502  0.16773450307E+04 -0.48766237973E+03 -0.36547253642E+03  0.17846211745E+04  0.12699999809E+01 0. -1.
</event>
<event>
 5   0  0.3378848E-06  0.3569256E+04  0.7818609E-02  0.8097570E-01
       -2   -1    0    0    0  501  0.00000000000E+00  0.00000000000E+00  0.15308822343E+04  0.15308822343E+04  0.25500000920E-02 0. -1.
        2   -1    0    0  501    0  0.00000000000E+00  0.00000000000E+00 -0.20804324887E+04  0.20804324887E+04  0.25500000920E-02 0.  1.
    10030    2    1    2    0    0  0.00000000000E+00  0.00000000000E+00 -0.54955025439E+03  0.36113147230E+04  0.35692560214E+04 0.  0.
        1    1    3    3  502    0 -0.30604344417E+03  0.11590533467E+04 -0.16124088779E+04  0.20092111984E+04  0.50400001928E-02 0.  1.
       -1    1    3    3    0  502  0.30604344417E+03 -0.11590533467E+04  0.10628586235E+04  0.16021035247E+04  0.50400001928E-02 0. -1.
</event>
<event>
 5   0  0.1782660E-06  0.2826035E+04  0.7818609E-02  0.8295231E-01
        2   -1    0    0  501    0  0.00000000000E+00  0.00000000000E+00  0.20040246263E+04  0.20040246263E+04  0.25500000920E-02 0.  1.
       -2   -1    0    0    0  501  0.00000000000E+00  0.00000000000E+00 -0.99630425992E+03  0.99630425992E+03  0.25500000920E-02 0. -1.
    10030    2    1    2    0    0  0.00000000000E+00  0.00000000000E+00  0.10077203664E+04  0.30003288862E+04  0.28260348704E+04 0.  0.
        4    1    3    3  502    0  0.11182982472E+04 -0.74790833760E+03  0.96254629555E+03  0.16542233329E+04  0.12699999809E+01 0.  1.
       -4    1    3    3    0  502 -0.11182982472E+04  0.74790833760E+03  0.45174070846E+02  0.13461055533E+04  0.12699999809E+01 0. -1.
</event>
<event>
 5   0  0.1908726E-06  0.2430351E+04  0.7818609E-02  0.8428227E-01
        2   -1    0    0  501    0  0.00000000000E+00  0.00000000000E+00  0.14352833707E+04  0.14352833707E+04  0.25500000920E-02 0.  1.
       -2   -1    0    0    0  501  0.00000000000E+00  0.00000000000E+00 -0.10288221060E+04  0.10288221060E+04  0.25500000920E-02 0. -1.
    10030    2    1    2    0    0  0.00000000000E+00  0.00000000000E+00  0.40646126469E+03  0.24641054767E+04  0.24303508060E+04 0.  0.
        5    1    3    3  502    0 -0.64704992445E+03 -0.74514889710E+03  0.92209759169E+03  0.13506319048E+04  0.46999998093E+01 0.  1.
       -5    1    3    3    0  502  0.64704992445E+03  0.74514889710E+03 -0.51563632699E+03  0.11134735719E+04  0.46999998093E+01 0. -1.
</event>
<event>
 5   0  0.1089337E-06  0.3484855E+04  0.7818609E-02  0.8117388E-01
        1   -1    0    0  501    0  0.00000000000E+00  0.00000000000E+00  0.19062762886E+04  0.19062762886E+04  0.50400001928E-02 0.  1.
       -1   -1    0    0    0  501  0.00000000000E+00  0.00000000000E+00 -0.15926620495E+04  0.15926620495E+04  0.50400001928E-02 0. -1.
    10030    2    1    2    0    0  0.00000000000E+00  0.00000000000E+00  0.31361423904E+03  0.34989383381E+04  0.34848551768E+04 0.  0.
        2    1    3    3  502    0 -0.14652238944E+04 -0.46901698479E+03  0.97815698978E+03  0.18230877898E+04  0.25500000920E-02 0.  1.
       -2    1    3    3    0  502  0.14652238944E+04  0.46901698479E+03 -0.66454275074E+03  0.16758505483E+04  0.25500000920E-02 0. -1.
</event>
<event>
 5   0  0.1908726E-06  0.3485133E+04  0.7818609E-02  0.8117322E-01
       -2   -1    0    0    0  501  0.00000000000E+00  0.00000000000E+00  0.13084447610E+04  0.13084447610E+04  0.25500000920E-02 0. -1.
        2   -1    0    0  501    0  0.00000000000E+00  0.00000000000E+00 -0.23207237834E+04  0.23207237834E+04  0.25500000920E-02 0.  1.
    10030    2    1    2    0    0  0.00000000000E+00  0.00000000000E+00 -0.10122790224E+04  0.36291685444E+04  0.34851334988E+04 0.  0.
        5    1    3    3  502    0 -0.35991199788E+03 -0.14459920693E+04 -0.14468499633E+04  0.20769753530E+04  0.46999998093E+01 0.  1.
       -5    1    3    3    0  502  0.35991199788E+03  0.14459920693E+04  0.43457094086E+03  0.15521931914E+04  0.46999998093E+01 0. -1.
</event>
<event>
 5   0  0.1130707E-06  0.2378354E+04  0.7818609E-02  0.8447652E-01
        1   -1    0    0  501    0  0.00000000000E+00  0.00000000000E+00  0.13009940833E+04  0.13009940833E+04  0.50400001928E-02 0. -1.
       -1   -1    0    0    0  501  0.00000000000E+00  0.00000000000E+00 -0.10869699423E+04  0.10869699424E+04  0.50400001928E-02 0.  1.
    10030    2    1    2    0    0  0.00000000000E+00  0.00000000000E+00  0.21402414094E+03  0.23879640257E+04  0.23783536017E+04 0.  0.
        3    1    3    3  502    0 -0.89872679240E+03  0.47647938846E+03  0.72545474007E+03  0.12494106791E+04  0.10100000352E+00 0.  1.
       -3    1    3    3    0  502  0.89872679240E+03 -0.47647938846E+03 -0.51143059913E+03  0.11385533465E+04  0.10100000352E+00 0. -1.
</event>
<event>
 5   0  0.1782660E-06  0.2423832E+04  0.7818609E-02  0.8430635E-01
       -2   -1    0    0    0  501  0.00000000000E+00  0.00000000000E+00  0.17734830920E+04  0.17734830920E+04  0.25500000920E-02 0.  1.
        2   -1    0    0  501    0  0.00000000000E+00  0.00000000000E+00 -0.82816690891E+03  0.82816690891E+03  0.25500000920E-02 0. -1.
    10030    2    1    2    0    0  0.00000000000E+00  0.00000000000E+00  0.94531618306E+03  0.26016500009E+04  0.24238316858E+04 0.  0.
        4    1    3    3  502    0 -0.35923367395E+03 -0.65447952957E+03 -0.55202149479E+03  0.92850505154E+03  0.12699999809E+01 0. -1.
       -4    1    3    3    0  502  0.35923367395E+03  0.65447952957E+03  0.14973376778E+04  0.16731449493E+04  0.12699999809E+01 0.  1.
</event>
<event>
 5   0  0.1102175E-06  0.3429322E+04  0.7818609E-02  0.8130747E-01
        1   -1    0    0  501    0  0.00000000000E+00  0.00000000000E+00  0.24245973255E+04  0.24245973255E+04  0.50400001928E-02 0.  1.
       -1   -1    0    0    0  501  0.00000000000E+00  0.00000000000E+00 -0.12125985127E+04  0.12125985127E+04  0.50400001928E-02 0. -1.
    10030    2    1    2    0    0  0.00000000000E+00  0.00000000000E+00  0.12119988128E+04  0.36371958382E+04  0.34293224466E+04 0.  0.
        5    1    3    3  502    0  0.13214261576E+04 -0.10883422095E+04  0.50324999639E+03  0.17843594100E+04  0.46999998093E+01 0.  1.
       -5    1    3    3    0  502 -0.13214261576E+04  0.10883422095E+04  0.70874881639E+03  0.18528364282E+04  0.46999998093E+01 0. -1.
</event>
<event>
 5   0  0.1782660E-06  0.3400250E+04  0.7818609E-02  0.8137845E-01
       -2   -1    0    0    0  501  0.00000000000E+00  0.00000000000E+00  0.16304108767E+04  0.16304108767E+04  0.25500000920E-02 0. -1.
        2   -1    0    0  501    0  0.00000000000E+00  0.00000000000E+00 -0.17728195921E+04  0.17728195921E+04  0.25500000920E-02 0.  1.
    10030    2    1    2    0    0  0.00000000000E+00  0.00000000000E+00 -0.14240871538E+03  0.34032304688E+04  0.34002496058E+04 0.  0.
        4    1    3    3  502    0 -0.49063853873E+02  0.16857957282E+04  0.14371216427E+03  0.16926220187E+04  0.12699999809E+01 0.  1.
       -4    1    3    3    0  502  0.49063853873E+02 -0.16857957282E+04 -0.28612087965E+03  0.17106084502E+04  0.12699999809E+01 0. -1.
</event>
<event>
 5   0  0.2565004E-06  0.2197909E+04  0.7818609E-02  0.8519299E-01
       -2   -1    0    0    0  501  0.00000000000E+00  0.00000000000E+00  0.15669047660E+04  0.15669047660E+04  0.25500000920E-02 0.  1.
        2   -1    0    0  501    0  0.00000000000E+00  0.00000000000E+00 -0.77075595925E+03  0.77075595925E+03  0.25500000920E-02 0. -1.
    10030    2    1    2    0    0  0.00000000000E+00  0.00000000000E+00  0.79614880673E+03  0.23376607252E+04  0.21979091755E+04 0.  0.
        3    1    3    3  502    0  0.86573678412E+03 -0.27539483033E+03  0.10557431701E+04  0.13928159043E+04  0.10100000352E+00 0.  1.
       -3    1    3    3    0  502 -0.86573678412E+03  0.27539483033E+03 -0.25959436333E+03  0.94484482092E+03  0.10100000352E+00 0. -1.
</event>
<event>
 5   0  0.1130707E-06  0.1865752E+04  0.7818609E-02  0.8672094E-01
       -1   -1    0    0    0  501  0.00000000000E+00  0.00000000000E+00  0.57562208295E+03  0.57562208298E+03  0.50400001928E-02 0. -1.
        1   -1    0    0  501    0  0.00000000000E+00  0.00000000000E+00 -0.15118563227E+04  0.15118563227E+04  0.50400001928E-02 0.  1.
    10030    2    1    2    0    0  0.00000000000E+00  0.00000000000E+00 -0.93623423973E+03  0.20874784057E+04  0.18657522725E+04 0.  0.
        3    1    3    3  502    0 -0.70164412177E+03 -0.50167834949E+03 -0.70539484119E+02  0.86542559991E+03  0.10100000352E+00 0. -1.
       -3    1    3    3    0  502  0.70164412177E+03  0.50167834949E+03 -0.86569475561E+03  0.12220528058E+04  0.10100000352E+00 0.  1.
</event>
<event>
 5   0  0.1110956E-06  0.3467249E+04  0.7818609E-02  0.8121596E-01
        1   -1    0    0  501    0  0.00000000000E+00  0.00000000000E+00  0.19952642998E+04  0.19952642998E+04  0.50400001928E-02 0. -1.
       -1   -1    0    0    0  501  0.00000000000E+00  0.00000000000E+00 -0.15062939477E+04  0.15062939477E+04  0.50400001928E-02 0.  1.
    10030    2    1    2    0    0  0.00000000000E+00  0.00000000000E+00  0.48897035215E+03  0.35015582475E+04  0.34672493644E+04 0.  0.
        1    1    3    3  502    0  0.16613386975E+04 -0.32150912536E+03 -0.13612626957E+03  0.16976291546E+04  0.50400001928E-02 0. -1.
       -1    1    3    3    0  502 -0.16613386975E+04  0.32150912536E+03  0.62509662172E+03  0.18039290928E+04  0.50400001928E-02 0.  1.
</event>
<event>
 5   0  0.1908726E-06  0.2678094E+04  0.7818609E-02  0.8342148E-01
        2   -1    0    0  501    0  0.00000000000E+00  0.00000000000E+00  0.26249256635E+04  0.26249256635E+04  0.25500000920E-02 0. -1.
       -2   -1    0    0    0  501  0.00000000000E+00  0.00000000000E+00 -0.68308491682E+03  0.68308491683E+03  0.25500000920E-02 0.  1.
    10030    2    1    2    0    0  0.00000000000E+00  0.00000000000E+00  0.19418407467E+04  0.33080105804E+04  0.26780941944E+04 0.  0.
        5    1    3    3  502    0 -0.18925965070E+02 -0.97243186103E+03 -0.16590511473E+03  0.98667548545E+03  0.46999998093E+01 0.  1.
       -5    1    3    3    0  502  0.18925965070E+02  0.97243186103E+03  0.21077458614E+04  0.23213350949E+04  0.46999998093E+01 0. -1.
</event>
<event>
 5   0  0.1782660E-06  0.3455260E+04  0.7818609E-02  0.8124475E-01
        2   -1    0    0  501    0  0.00000000000E+00  0.00000000000E+00  0.27781008149E+04  0.27781008149E+04  0.25500000920E-02 0.  1.
       -2   -1    0    0    0  501  0.00000000000E+00  0.00000000000E+00 -0.10743687212E+04  0.10743687213E+04  0.25500000920E-02 0. -1.
    10030    2    1    2    0    0  0.00000000000E+00  0.00000000000E+00  0.17037320937E+04  0.38524695362E+04  0.34552595387E+04 0.  0.
        4    1    3    3  502    0  0.10288112598E+04  0.62631607991E+02 -0.69400138778E+03  0.12425839472E+04  0.12699999809E+01 0. -1.
       -4    1    3    3    0  502 -0.10288112598E+04 -0.62631607991E+02  0.23977334814E+04  0.26098855890E+04  0.12699999809E+01 0.  1.
</event>
<event>
 5   0  0.1908726E-06  0.2374264E+04  0.7818609E-02  0.8449202E-01
       -2   -1    0    0    0  501  0.00000000000E+00  0.00000000000E+00  0.56942277355E+03  0.56942277356E+03  0.25500000920E-02 0. -1.
        2   -1    0    0  501    0  0.00000000000E+00  0.00000000000E+00 -0.24749312164E+04  0.24749312164E+04  0.25500000920E-02 0.  1.
    10030    2    1    2    0    0  0.00000000000E+00  0.00000000000E+00 -0.19055084429E+04  0.30443539900E+04  0.23742638418E+04 0.  0.
        5    1    3    3  502    0 -0.69679045159E+03 -0.67832087651E+03 -0.79684135011E+02  0.97570886862E+03  0.46999998093E+01 0. -1.
       -5    1    3    3    0  502  0.69679045159E+03  0.67832087651E+03 -0.18258243078E+04  0.20686451213E+04  0.46999998093E+01 0.  1.
</event>
<event>
 5   0  0.1782660E-06  0.3447499E+04  0.7818609E-02  0.8126346E-01
        2   -1    0    0  501    0  0.00000000000E+00  0.00000000000E+00  0.20988138756E+04  0.20988138756E+04  0.25500000920E-02 0.  1.
       -2   -1    0    0    0  501  0.00000000000E+00  0.00000000000E+00 -0.14157099413E+04  0.14157099413E+04  0.25500000920E-02 0. -1.
    10030    2    1    2    0    0  0.00000000000E+00  0.00000000000E+00  0.68310393429E+03  0.35145238169E+04  0.34474986113E+04 0.  0.
        4    1    3    3  502    0  0.31240745514E+03  0.89888511837E+03  0.18067550432E+04  0.20420475687E+04  0.12699999809E+01 0.  1.
       -4    1    3    3    0  502 -0.31240745514E+03 -0.89888511837E+03 -0.11236511089E+04  0.14724762482E+04  0.12699999809E+01 0. -1.
</event>
<event>
 5   0  0.1130707E-06  0.3458967E+04  0.7818609E-02  0.8123584E-01
        1   -1    0    0  501    0  0.00000000000E+00  0.00000000000E+00  0.11647200140E+04  0.11647200140E+04  0.50400001928E-02 0.  1.
       -1   -1    0    0    0  501  0.00000000000E+00  0.00000000000E+00 -0.25680970479E+04  0.25680970479E+04  0.50400001928E-02 0. -1.
    10030    2    1    2    0    0  0.00000000000E+00  0.00000000000E+00 -0.14033770338E+04  0.37328170619E+04  0.34589674931E+04 0.  0.
        3    1    3    3  502    0  0.69224022010E+02  0.16500352832E+03 -0.25580807610E+04  0.25643313592E+04  0.10100000352E+00 0. -1.
       -3    1    3    3    0  502 -0.69224022010E+02 -0.16500352832E+03  0.11547037272E+04  0.11684857027E+04  0.10100000352E+00 0.  1.
</event>
<event>
 5   0  0.3041329E-06  0.3501988E+04  0.7818609E-02  0.8113319E-01
       -2   -1    0    0    0  501  0.00000000000E+00  0.00000000000E+00  0.22463117906E+04  0.22463117906E+04  0.25500000920E-02 0. -1.
        2   -1    0    0  501    0  0.00000000000E+00  0.00000000000E+00 -0.13648954695E+04  0.13648954695E+04  0.25500000920E-02 0.  1.
    10030    2    1    2    0    0  0.00000000000E+00  0.00000000000E+00  0.88141632115E+03  0.36112072601E+04  0.35019884558E+04 0.  0.
        2    1    3    3  502    0  0.11509177660E+04  0.18518790078E+03 -0.90659070845E+03  0.14767575885E+04  0.25500000920E-02 0.  1.
       -2    1    3    3    0  502 -0.11509177660E+04 -0.18518790078E+03  0.17880070296E+04  0.21344496716E+04  0.25500000920E-02 0. -1.
</event>
<event>
 5   0  0.1089337E-06  0.2261490E+04  0.7818609E-02  0.8493262E-01
       -1   -1    0    0    0  501  0.00000000000E+00  0.00000000000E+00  0.69123954396E+03  0.69123954398E+03  0.50400001928E-02 0. -1.
        1   -1    0    0  501    0  0.00000000000E+00  0.00000000000E+00 -0.18496981527E+04  0.18496981527E+04  0.50400001928E-02 0.  1.
    10030    2    1    2    0    0  0.00000000000E+00  0.00000000000E+00 -0.11584586087E+04  0.25409376966E+04  0.22614902233E+04 0.  0.
        2    1    3    3  502    0 -0.62089887064E+03  0.71647071044E+03 -0.12716049779E+04  0.15861352106E+04  0.25500000920E-02 0.  1.
       -2    1    3    3    0  502  0.62089887064E+03 -0.71647071044E+03  0.11314636920E+03  0.95480248604E+03  0.25500000920E-02 0. -1.
</event>
<event>
 5   0  0.1782660E-06  0.2877696E+04  0.7818609E-02  0.8279545E-01
        2   -1    0    0  501    0  0.00000000000E+00  0.00000000000E+00  0.18023292476E+04  0.18023292476E+04  0.25500000920E-02 0.  1.
       -2   -1    0    0    0  501  0.00000000000E+00  0.00000000000E+00 -0.11486707378E+04  0.11486707378E+04  0.25500000920E-02 0. -1.
    10030    2    1    2    0    0  0.00000000000E+00  0.00000000000E+00  0.65365850978E+03  0.29509999853E+04  0.28776955131E+04 0.  0.
        4    1    3    3  502    0 -0.13175167850E+04  0.55015936870E+03  0.50956918809E+03  0.15159776318E+04  0.12699999809E+01 0.  1.
       -4    1    3    3    0  502  0.13175167850E+04 -0.55015936870E+03  0.14408932170E+03  0.14350223536E+04  0.12699999809E+01 0. -1.
</event>
<event>
 5   0  0.1110956E-06  0.3582195E+04  0.7818609E-02  0.8094582E-01
        1   -1    0    0  501    0  0.00000000000E+00  0.00000000000E+00  0.16938519444E+04  0.16938519444E+04  0.50400001928E-02 0.  1.
       -1   -1    0    0    0  501  0.00000000000E+00  0.00000000000E+00 -0.18939255971E+04  0.18939255971E+04  0.50400001928E-02 0. -1.
    10030    2    1    2    0    0  0.00000000000E+00  0.00000000000E+00 -0.20007365268E+03  0.35877775415E+04  0.35821946095E+04 0.  0.
        1    1    3    3  502    0  0.10495410457E+04 -0.12944659230E+04  0.55737868292E+03  0.17572277680E+04  0.50400001928E-02 0.  1.
       -1    1    3    3    0  502 -0.10495410457E+04  0.12944659230E+04 -0.75745233560E+03  0.18305497735E+04  0.50400001928E-02 0. -1.
</event>
<event>
 5   0  0.2565004E-06  0.2433128E+04  0.7818609E-02  0.8427204E-01
       -2   -1    0    0    0  501  0.00000000000E+00  0.00000000000E+00  0.56896534369E+03  0.56896534369E+03  0.25500000920E-02 0.  1.
        2   -1    0    0  501    0  0.00000000000E+00  0.00000000000E+00 -0.26012611741E+04  0.26012611741E+04  0.25500000920E-02 0. -1.
    10030    2    1    2    0    0  0.00000000000E+00  0.00000000000E+00 -0.20322958304E+04  0.31702265178E+04  0.24331275823E+04 0.  0.
        3    1    3    3  502    0  0.11005116651E+04  0.33842949389E+03 -0.50422726952E+03  0.12569429569E+04  0.10100000352E+00 0.  1.
       -3    1    3    3    0  502 -0.11005116651E+04 -0.33842949389E+03 -0.15280685609E+04  0.19132835609E+04  0.10100000352E+00 0. -1.
</event>
<event>
 5   0  0.3007866E-06  0.1731779E+04  0.7818609E-02  0.8743445E-01
        2   -1    0    0  501    0  0.00000000000E+00  0.00000000000E+00  0.68588089867E+03  0.68588089867E+03  0.25500000920E-02 0. -1.
       -2   -1    0    0    0  501  0.00000000000E+00  0.00000000000E+00 -0.10931406082E+04  0.10931406082E+04  0.25500000920E-02 0.  1.
    10030    2    1    2    0    0  0.00000000000E+00  0.00000000000E+00 -0.40725970948E+03  0.17790215068E+04  0.17317785802E+04 0.  0.
        3    1    3    3  502    0 -0.25694942639E+03  0.45922432286E+03 -0.91003278234E+03  0.10512229362E+04  0.10100000352E+00 0.  1.
       -3    1    3    3    0  502  0.25694942639E+03 -0.45922432286E+03  0.50277307286E+03  0.72779857064E+03  0.10100000352E+00 0. -1.
</event>
<event>
 5   0  0.1782660E-06  0.3490980E+04  0.7818609E-02  0.8115931E-01
       -2   -1    0    0    0  501  0.00000000000E+00  0.00000000000E+00  0.18348555806E+04  0.18348555806E+04  0.25500000920E-02 0. -1.
        2   -1    0    0  501    0  0.00000000000E+00  0.00000000000E+00 -0.16604769582E+04  0.16604769583E+04  0.25500000920E-02 0.  1.
    10030    2    1    2    0    0  0.00000000000E+00  0.00000000000E+00  0.17437862233E+03  0.34953325388E+04  0.34909800419E+04 0.  0.
        4    1    3    3  502    0 -0.50017801567E+03  0.16719296049E+04  0.52401937568E+02  0.17459307624E+04  0.12699999809E+01 0. -1.
       -4    1    3    3    0  502  0.50017801567E+03 -0.16719296049E+04  0.12197668477E+03  0.17494017765E+04  0.12699999809E+01 0.  1.
</event>
<event>
 5   0  0.1908726E-06  0.3442231E+04  0.7818609E-02  0.8127619E-01
        2   -1    0    0  501    0  0.00000000000E+00  0.00000000000E+00  0.18476585594E+04  0.18476585594E+04  0.25500000920E-02 0.  1.
       -2   -1    0    0    0  501  0.00000000000E+00  0.00000000000E+00 -0.16032387153E+04  0.16032387153E+04  0.25500000920E-02 0. -1.
    10030    2    1    2    0    0  0.00000000000E+00  0.00000000000E+00  0.24441984411E+03  0.34508972747E+04  0.34422305182E+04 0.  0.
        5    1    3    3  502    0  0.91480419192E+03  0.80377179373E+03 -0.10971170646E+04  0.16390862544E+04  0.46999998093E+01 0. -1.
       -5    1    3    3    0  502 -0.91480419192E+03 -0.80377179373E+03  0.13415369087E+04  0.18118110203E+04  0.46999998093E+01 0.  1.
</event>
<event>
 5   0  0.1125196E-06  0.2074056E+04  0.7818609E-02  0.8572759E-01
       -1   -1    0    0    0  501  0.00000000000E+00  0.00000000000E+00  0.10983785511E+04  0.10983785511E+04  0.50400001928E-02 0.  1.
        1   -1    0    0  501    0  0.00000000000E+00  0.00000000000E+00 -0.97910402098E+03  0.97910402099E+03  0.50400001928E-02 0. -1.
    10030    2    1    2    0    0  0.00000000000E+00  0.00000000000E+00  0.11927453007E+03  0.20774825721E+04  0.20740557909E+04 0.  0.
        4    1    3    3  502    0 -0.78096702117E+02  0.27568197794E+03 -0.93866663506E+03  0.98142565308E+03  0.12699999809E+01 0. -1.
       -4    1    3    3    0  502  0.78096702117E+02 -0.27568197794E+03  0.10579411651E+04  0.10960569190E+04  0.12699999809E+01 0.  1.
</event>
<event>
 5   0  0.1125196E-06  0.3232034E+04  0.7818609E-02  0.8180408E-01
       -1   -1    0    0    0  501  0.00000000000E+00  0.00000000000E+00  0.10762967565E+04  0.10762967566E+04  0.50400001928E-02 0. -1.
        1   -1    0    0  501    0  0.00000000000E+00  0.00000000000E+00 -0.24263852896E+04  0.24263852896E+04  0.50400001928E-02 0.  1.
    10030    2    1    2    0    0  0.00000000000E+00  0.00000000000E+00 -0.13500885331E+04  0.35026820462E+04  0.32320337977E+04 0.  0.
        4    1    3    3  502    0  0.32077154770E+03  0.98471273606E+03  0.66938465388E+03  0.12331386727E+04  0.12699999809E+01 0. -1.
       -4    1    3    3    0  502 -0.32077154770E+03 -0.98471273606E+03 -0.20194731870E+04  0.22695433735E+04  0.12699999809E+01 0.  1.
</event>
<event>
 5   0  0.1782660E-06  0.2421006E+04  0.7818609E-02  0.8431681E-01
       -2   -1    0    0    0  501  0.00000000000E+00  0.00000000000E+00  0.70935068479E+03  0.70935068479E+03  0.25500000920E-02 0.  1.
        2   -1    0    0  501    0  0.00000000000E+00  0.00000000000E+00 -0.20657161951E+04  0.20657161951E+04  0.25500000920E-02 0. -1.
    10030    2    1    2    0    0  0.00000000000E+00  0.00000000000E+00 -0.13563655103E+04  0.27750668799E+04  0.24210057394E+04 0.  0.
        4    1    3    3  502    0 -0.10927414376E+04  0.21528819460E+03 -0.13461249679E+03  0.11218533743E+04  0.12699999809E+01 0.  1.
       -4    1    3    3    0  502  0.10927414376E+04 -0.21528819460E+03 -0.12217530135E+04  0.16532135056E+04  0.12699999809E+01 0. -1.
</event>
<event>
 5   0  0.1130707E-06  0.3556422E+04  0.7818609E-02  0.8100547E-01
        1   -1    0    0  501    0  0.00000000000E+00  0.00000000000E+00  0.29985758171E+04  0.29985758171E+04  0.50400001928E-02 0.  1.
       -1   -1    0    0    0  501  0.00000000000E+00  0.00000000000E+00 -0.10545122359E+04  0.10545122359E+04  0.50400001928E-02 0. -1.
    10030    2    1    2    0    0  0.00000000000E+00  0.00000000000E+00  0.19440635811E+04  0.40530880530E+04  0.35564222975E+04 0.  0.
        3    1    3    3  502    0  0.68459528543E+03  0.98560523424E+03 -0.52345486117E+03  0.13092338922E+04  0.10100000352E+00 0. -1.
       -3    1    3    3    0  502 -0.68459528543E+03 -0.98560523424E+03  0.24675184423E+04  0.27438541608E+04  0.10100000352E+00 0.  1.
</event>
<event>
 5   0  0.1089337E-06  0.3501679E+04  0.7818609E-02  0.8113392E-01
       -1   -1    0    0    0  501  0.00000000000E+00  0.00000000000E+00  0.20786558731E+04  0.20786558731E+04  0.50400001928E-02 0.  1.
        1   -1    0    0  501    0  0.00000000000E+00  0.00000000000E+00 -0.14747217868E+04  0.14747217868E+04  0.50400001928E-02 0. -1.
    10030    2    1    2    0    0  0.00000000000E+00  0.00000000000E+00  0.60393408637E+03  0.35533776599E+04  0.35016790848E+04 0.  0.
        2    1    3    3  502    0 -0.41993156885E+03 -0.21514821292E+03  0.20129227894E+04  0.20674838409E+04  0.25500000920E-02 0.  1.
       -2    1    3    3    0  502  0.41993156885E+03  0.21514821292E+03 -0.14089887031E+04  0.14858938190E+04  0.25500000920E-02 0. -1.
</event>
<event>
 5   0  0.1908726E-06  0.3462482E+04  0.7818609E-02  0.8122739E-01
       -2   -1    0    0    0  501  0.00000000000E+00  0.00000000000E+00  0.15913719225E+04  0.15913719225E+04  0.25500000920E-02 0.  1.
        2   -1    0    0  501    0  0.00000000000E+00  0.00000000000E+00 -0.18834034247E+04  0.18834034247E+04  0.25500000920E-02 0. -1.
    10030    2    1    2    0    0  0.00000000000E+00  0.00000000000E+00 -0.29203150223E+03  0.34747753472E+04  0.34624819588E+04 0.  0.
        5    1    3    3  502    0 -0.10613672385E+04 -0.54311904742E+03 -0.14057392342E+04  0.18432589615E+04  0.46999998093E+01 0. -1.
       -5    1    3    3    0  502  0.10613672385E+04  0.54311904742E+03  0.11137077319E+04  0.16315163857E+04  0.46999998093E+01 0.  1.
</event>
<event>
 5   0  0.3378848E-06  0.2586121E+04  0.7818609E-02  0.8372931E-01
        2   -1    0    0  501    0  0.00000000000E+00  0.00000000000E+00  0.17615426590E+04  0.17615426590E+04  0.25500000920E-02 0.  1.
       -2   -1    0    0    0  501  0.00000000000E+00  0.00000000000E+00 -0.94917138062E+03  0.94917138062E+03  0.25500000920E-02 0. -1.
    10030    2    1    2    0    0  0.00000000000E+00  0.00000000000E+00  0.81237127841E+03  0.27107140397E+04  0.25861213256E+04 0.  0.
        1    1    3    3  502    0  0.11878444595E+04  0.30663263173E+03  0.83454005471E+03  0.14837301418E+04  0.50400001928E-02 0. -1.
       -1    1    3    3    0  502 -0.11878444595E+04 -0.30663263173E+03 -0.22168776296E+02  0.12269838978E+04  0.50400001928E-02 0.  1.
</event>
<event>
 5   0  0.1782660E-06  0.3432397E+04  0.7818609E-02  0.8130001E-01
        2   -1    0    0  501    0  0.00000000000E+00  0.00000000000E+00  0.16375049224E+04  0.16375049225E+04  0.25500000920E-02 0. -1.
       -2   -1    0    0    0  501  0.00000000000E+00  0.00000000000E+00 -0.17986736685E+04  0.17986736685E+04  0.25500000920E-02 0.  1.
    10030    2    1    2    0    0  0.00000000000E+00  0.00000000000E+00 -0.16116874606E+03  0.34361785910E+04  0.34323968221E+04 0.  0.
        4    1    3    3  502    0  0.12164675407E+04  0.11498200885E+04 -0.45975735379E+03  0.17358738291E+04  0.12699999809E+01 0. -1.
       -4    1    3    3    0  502 -0.12164675407E+04 -0.11498200885E+04  0.29858860773E+03  0.17003047618E+04  0.12699999809E+01 0.  1.
</event>
<event>
 5   0  0.3378848E-06  0.3421217E+04  0.7818609E-02  0.8132718E-01
        2   -1    0    0  501    0  0.00000000000E+00  0.00000000000E+00  0.14145263367E+04  0.14145263367E+04  0.25500000920E-02 0. -1.
       -2   -1    0    0    0  501  0.00000000000E+00  0.00000000000E+00 -0.20686656202E+04  0.20686656202E+04  0.25500000920E-02 0.  1.
    10030    2    1    2    0    0  0.00000000000E+00  0.00000000000E+00 -0.65413928349E+03  0.34831919569E+04  0.34212173282E+04 0.  0.
        1    1    3    3  502    0  0.14767691698E+04  0.78030647725E+03 -0.70316160608E+03  0.18122255996E+04  0.50400001928E-02 0.  1.
       -1    1    3    3    0  502 -0.14767691698E+04 -0.78030647725E+03  0.49022322592E+02  0.16709663574E+04  0.50400001928E-02 0. -1.
</event>
<event>
 5   0  0.3677524E-06  0.1794821E+04  0.7818609E-02  0.8709058E-01
       -2   -1    0    0    0  501  0.00000000000E+00  0.00000000000E+00  0.86817811944E+03  0.86817811944E+03  0.25500000920E-02 0.  1.
        2   -1    0    0  501    0  0.00000000000E+00  0.00000000000E+00 -0.92762723098E+03  0.92762723099E+03  0.25500000920E-02 0. -1.
    10030    2    1    2    0    0  0.00000000000E+00  0.00000000000E+00 -0.59449111545E+02  0.17958053504E+04  0.17948210662E+04 0.  0.
        1    1    3    3  502    0 -0.44201359349E+03 -0.28931651290E+03 -0.75556405068E+03  0.92193117757E+03  0.50400001928E-02 0. -1.
       -1    1    3    3    0  502  0.44201359349E+03  0.28931651290E+03  0.69611493914E+03  0.87387417286E+03  0.50400001928E-02 0.  1.
</event>
<event>
 5   0  0.1130707E-06  0.3002879E+04  0.7818609E-02  0.8242909E-01
        1   -1    0    0  501    0  0.00000000000E+00  0.00000000000E+00  0.18764698368E+04  0.18764698368E+04  0.50400001928E-02 0. -1.
       -1   -1    0    0    0  501  0.00000000000E+00  0.00000000000E+00 -0.12013626558E+04  0.12013626558E+04  0.50400001928E-02 0.  1.
    10030    2    1    2    0    0  0.00000000000E+00  0.00000000000E+00  0.67510718098E+03  0.30778324926E+04  0.30028791429E+04 0.  0.
        3    1    3    3  502    0  0.36166511402E+03  0.14238380759E+04  0.19643532621E+02  0.14691842633E+04  0.10100000352E+00 0.  1.
       -3    1    3    3    0  502 -0.36166511402E+03 -0.14238380759E+04  0.65546364836E+03  0.16086482293E+04  0.10100000352E+00 0. -1.
</event>
<event>
 5   0  0.1102175E-06  0.3076112E+04  0.7818609E-02  0.8222325E-01
        1   -1    0    0  501    0  0.00000000000E+00  0.00000000000E+00  0.15450255185E+04  0.15450255185E+04  0.50400001928E-02 0.  1.
       -1   -1    0    0    0  501  0.00000000000E+00  0.00000000000E+00 -0.15311178029E+04  0.15311178029E+04  0.50400001928E-02 0. -1.
    10030    2    1    2    0    0  0.00000000000E+00  0.00000000000E+00  0.13907715562E+02  0.30761433214E+04  0.30761118818E+04 0.  0.
        5    1    3    3  502    0 -0.96689967065E+03 -0.22760395701E+03  0.11812296513E+04  0.15433807416E+04  0.46999998093E+01 0.  1.
       -5    1    3    3    0  502  0.96689967065E+03  0.22760395701E+03 -0.11673219357E+04  0.15327625798E+04  0.46999998093E+01 0. -1.
</event>
<event>
 5   0  0.1908726E-06  0.2805875E+04  0.7818609E-02  0.8301447E-01
       -2   -1    0    0    0  501  0.00000000000E+00  0.00000000000E+00  0.16725924408E+04  0.16725924408E+04  0.25500000920E-02 0. -1.
        2   -1    0    0  501    0  0.00000000000E+00  0.00000000000E+00 -0.11767560560E+04  0.11767560560E+04  0.25500000920E-02 0.  1.
    10030    2    1    2    0    0  0.00000000000E+00  0.00000000000E+00  0.49583638475E+03  0.28493484968E+04  0.28058747541E+04 0.  0.
        5    1    3    3  502    0  0.82675341049E+03  0.19212396643E+01  0.13989195477E+04  0.16249685794E+04  0.46999998093E+01 0. -1.
       -5    1    3    3    0  502 -0.82675341049E+03 -0.19212396643E+01 -0.90308316298E+03  0.12243799174E+04  0.46999998093E+01 0.  1.
</event>
<event>
 5   0  0.1102175E-06  0.3430658E+04  0.7818609E-02  0.8130422E-01
        1   -1    0    0  501    0  0.00000000000E+00  0.00000000000E+00  0.22545522194E+04  0.22545522194E+04  0.50400001928E-02 0. -1.
       -1   -1    0    0    0  501  0.00000000000E+00  0.00000000000E+00 -0.13050726123E+04  0.13050726123E+04  0.50400001928E-02 0.  1.
    10030    2    1    2    0    0  0.00000000000E+00  0.00000000000E+00  0.94947960702E+03  0.35596248317E+04  0.34306584526E+04 0.  0.
        5    1    3    3  502    0  0.55733711119E+03 -0.83786517088E+03  0.19160931768E+04  0.21642730540E+04  0.46999998093E+01 0. -1.
       -5    1    3    3    0  502 -0.55733711119E+03  0.83786517088E+03 -0.96661356982E+03  0.13953517777E+04  0.46999998093E+01 0.  1.
</event>
<event>
 5   0  0.1102175E-06  0.2284986E+04  0.7818609E-02  0.8483865E-01
        1   -1    0    0  501    0  0.00000000000E+00  0.00000000000E+00  0.10971449782E+04  0.10971449782E+04  0.50400001928E-02 0. -1.
       -1   -1    0    0    0  501  0.00000000000E+00  0.00000000000E+00 -0.11897152714E+04  0.11897152715E+04  0.50400001928E-02 0.  1.
    10030    2    1    2    0    0  0.00000000000E+00  0.00000000000E+00 -0.92570293294E+02  0.22868602496E+04  0.22849858954E+04 0.  0.
        5    1    3    3  502    0  0.45404327079E+02  0.37579500062E+03  0.10325529895E+04  0.10997596108E+04  0.46999998093E+01 0. -1.
       -5    1    3    3    0  502 -0.45404327079E+02 -0.37579500062E+03 -0.11251232828E+04  0.11871006389E+04  0.46999998093E+01 0.  1.
</event>
<event>
 5   0  0.1110956E-06  0.2494166E+04  0.7818609E-02  0.8405067E-01
        1   -1    0    0  501    0  0.00000000000E+00  0.00000000000E+00  0.84822300584E+03  0.84822300586E+03  0.50400001928E-02 0.  1.
       -1   -1    0    0    0  501  0.00000000000E+00  0.00000000000E+00 -0.18334994712E+04  0.18334994712E+04  0.50400001928E-02 0. -1.
    10030    2    1    2    0    0  0.00000000000E+00  0.00000000000E+00 -0.98527646539E+03  0.26817224771E+04  0.24941663399E+04 0.  0.
        1    1    3    3  502    0 -0.87643243268E+03 -0.94018317753E+02 -0.14411573311E+04  0.16893512679E+04  0.50400001928E-02 0. -1.
       -1    1    3    3    0  502  0.87643243268E+03  0.94018317753E+02  0.45588086575E+03  0.99237120923E+03  0.50400001928E-02 0.  1.
</event>
<event>
 5   0  0.1125196E-06  0.2759360E+04  0.7818609E-02  0.8315998E-01
       -1   -1    0    0    0  501  0.00000000000E+00  0.00000000000E+00  0.10686496777E+04  0.10686496777E+04  0.50400001928E-02 0. -1.
        1   -1    0    0  501    0  0.00000000000E+00  0.00000000000E+00 -0.17812360529E+04  0.17812360529E+04  0.50400001928E-02 0.  1.
    10030    2    1    2    0    0  0.00000000000E+00  0.00000000000E+00 -0.71258637521E+03  0.28498857307E+04  0.27593603128E+04 0.  0.
        4    1    3    3  502    0 -0.42819061687E+03 -0.10520440571E+04 -0.11651673115E+04  0.16271940201E+04  0.12699999809E+01 0.  1.
       -4    1    3    3    0  502  0.42819061687E+03  0.10520440571E+04  0.45258093627E+03  0.12226917106E+04  0.12699999809E+01 0. -1.
</event>
<event>
 5   0  0.1782660E-06  0.3510603E+04  0.7818609E-02  0.8111282E-01
        2   -1    0    0  501    0  0.00000000000E+00  0.00000000000E+00  0.22619739774E+04  0.22619739774E+04  0.25500000920E-02 0.  1.
       -2   -1    0    0    0  501  0.00000000000E+00  0.00000000000E+00 -0.13621213992E+04  0.13621213992E+04  0.25500000920E-02 0. -1.
    10030    2    1    2    0    0  0.00000000000E+00  0.00000000000E+00  0.89985257826E+03  0.36240953766E+04  0.35106028878E+04 0.  0.
        4    1    3    3  502    0 -0.37487649978E+03  0.12799523698E+04 -0.72813697135E+03  0.15195379301E+04  0.12699999809E+01 0. -1.
       -4    1    3    3    0  502  0.37487649978E+03 -0.12799523698E+04  0.16279895496E+04  0.21045574465E+04  0.12699999809E+01 0.  1.
</event>
<event>
 5   0  0.2330216E-06  0.1776458E+04  0.7818609E-02  0.8718920E-01
       -2   -1    0    0    0  501  0.00000000000E+00  0.00000000000E+00  0.77478963821E+03  0.77478963821E+03  0.25500000920E-02 0.  1.
        2   -1    0    0  501    0  0.00000000000E+00  0.00000000000E+00 -0.10182777723E+04  0.10182777723E+04  0.25500000920E-02 0. -1.
    10030    2    1    2    0    0  0.00000000000E+00  0.00000000000E+00 -0.24348813412E+03  0.17930674105E+04  0.17764583494E+04 0.  0.
        4    1    3    3  502    0  0.48627344544E+03 -0.34922962441E+03 -0.78402371720E+03  0.98646743298E+03  0.12699999809E+01 0. -1.
       -4    1    3    3    0  502 -0.48627344544E+03  0.34922962441E+03  0.54053558308E+03  0.80659997755E+03  0.12699999809E+01 0.  1.
</event>
<event>
 5   0  0.3041329E-06  0.2929262E+04  0.7818609E-02  0.8264224E-01
       -2   -1    0    0    0  501  0.00000000000E+00  0.00000000000E+00  0.16844030758E+04  0.16844030758E+04  0.25500000920E-02 0. -1.
        2   -1    0    0  501    0  0.00000000000E+00  0.00000000000E+00 -0.12735340439E+04  0.12735340439E+04  0.25500000920E-02 0.  1.
    10030    2    1    2    0    0  0.00000000000E+00  0.00000000000E+00  0.41086903184E+03  0.29579371197E+04  0.29292624742E+04 0.  0.
        2    1    3    3  502    0  0.42927495394E+03  0.13846676336E+04 -0.53266690134E+01  0.14496930072E+04  0.25500000920E-02 0.  1.
       -2    1    3    3    0  502 -0.42927495394E+03 -0.13846676336E+04  0.41619570086E+03  0.15082441125E+04  0.25500000920E-02 0. -1.
</event>
<event>
 5   0  0.1125196E-06  0.3518274E+04  0.7818609E-02  0.8109473E-01
       -1   -1    0    0    0  501  0.00000000000E+00  0.00000000000E+00  0.10787278752E+04  0.10787278752E+04  0.50400001928E-02 0.  1.
        1   -1    0    0  501    0  0.00000000000E+00  0.00000000000E+00 -0.28687143401E+04  0.28687143401E+04  0.50400001928E-02 0. -1.
    10030    2    1    2    0    0  0.00000000000E+00  0.00000000000E+00 -0.17899864648E+04  0.39474422153E+04  0.35182735111E+04 0.  0.
        4    1    3    3  502    0  0.74614201818E+03 -0.83756388293E+03 -0.24154017263E+04  0.26631575773E+04  0.12699999809E+01 0. -1.
       -4    1    3    3    0  502 -0.74614201818E+03  0.83756388293E+03  0.62541526144E+03  0.12842846380E+04  0.12699999809E+01 0.  1.
</event>
<event>
 5   0  0.3378848E-06  0.3450491E+04  0.7818609E-02  0.8125624E-01
        2   -1    0    0  501    0  0.00000000000E+00  0.00000000000E+00  0.15762586199E+04  0.15762586199E+04  0.25500000920E-02 0.  1.
       -2   -1    0    0    0  501  0.00000000000E+00  0.00000000000E+00 -0.18883139792E+04  0.18883139792E+04  0.25500000920E-02 0. -1.
    10030    2    1    2    0    0  0.00000000000E+00  0.00000000000E+00 -0.31205535926E+03  0.34645725991E+04  0.34504905082E+04 0.  0.
        1    1    3    3  502    0 -0.85501262026E+03 -0.89272693665E+03  0.10524052898E+04  0.16234422867E+04  0.50400001928E-02 0.  1.
       -1    1    3    3    0  502  0.85501262026E+03  0.89272693665E+03 -0.13644606491E+04  0.18411303124E+04  0.50400001928E-02 0. -1.
</event>
<event>
 5   0  0.2565004E-06  0.3625011E+04  0.7818609E-02  0.8084787E-01
       -2   -1    0    0    0  501  0.00000000000E+00  0.00000000000E+00  0.18104237326E+04  0.18104237326E+04  0.25500000920E-02 0. -1.
        2   -1    0    0  501    0  0.00000000000E+00  0.00000000000E+00 -0.18145895505E+04  0.18145895505E+04  0.25500000920E-02 0.  1.
    10030    2    1    2    0    0  0.00000000000E+00  0.00000000000E+00 -0.41658178485E+01  0.36250132831E+04  0.36250108895E+04 0.  0.
        3    1    3    3  502    0  0.14354895270E+02 -0.66492900622E+02 -0.18133125853E+04  0.18145880830E+04  0.10100000352E+00 0.  1.
       -3    1    3    3    0  502 -0.14354895270E+02  0.66492900622E+02  0.18091467674E+04  0.18104252001E+04  0.10100000352E+00 0. -1.
</event>
<event>
 5   0  0.1782660E-06  0.3287762E+04  0.7818609E-02  0.8166016E-01
        2   -1    0    0  501    0  0.00000000000E+00  0.00000000000E+00  0.14839878221E+04  0.14839878221E+04  0.25500000920E-02 0.  1.
       -2   -1    0    0    0  501  0.00000000000E+00  0.00000000000E+00 -0.18210023642E+04  0.18210023642E+04  0.25500000920E-02 0. -1.
    10030    2    1    2    0    0  0.00000000000E+00  0.00000000000E+00 -0.33701454203E+03  0.33049901863E+04  0.32877623591E+04 0.  0.
        4    1    3    3  502    0  0.10053372438E+04 -0.75625459421E+03  0.89520561775E+03  0.15440267795E+04  0.12699999809E+01 0. -1.
       -4    1    3    3    0  502 -0.10053372438E+04  0.75625459421E+03 -0.12322201598E+04  0.17609634068E+04  0.12699999809E+01 0.  1.
</event>
<event>
 5   0  0.1125196E-06  0.2829774E+04  0.7818609E-02  0.8294084E-01
        1   -1    0    0  501    0  0.00000000000E+00  0.00000000000E+00  0.18155230534E+04  0.18155230534E+04  0.50400001928E-02 0.  1.
       -1   -1    0    0    0  501  0.00000000000E+00  0.00000000000E+00 -0.11026606959E+04  0.11026606959E+04  0.50400001928E-02 0. -1.
    10030    2    1    2    0    0  0.00000000000E+00  0.00000000000E+00  0.71286235749E+03  0.29181837493E+04  0.28297744881E+04 0.  0.
        4    1    3    3  502    0  0.11004813656E+04  0.59570340692E+03  0.10373500085E+04  0.16254286937E+04  0.12699999809E+01 0.  1.
       -4    1    3    3    0  502 -0.11004813656E+04 -0.59570340692E+03 -0.32448765104E+03  0.12927550556E+04  0.12699999809E+01 0. -1.
</event>
<event>
 5   0  0.1102175E-06  0.1775480E+04  0.7818609E-02  0.8719449E-01
        1   -1    0    0  501    0  0.00000000000E+00  0.00000000000E+00  0.97948063263E+03  0.97948063264E+03  0.50400001928E-02 0. -1.
       -1   -1    0    0    0  501  0.00000000000E+00  0.00000000000E+00 -0.80459168616E+03  0.80459168617E+03  0.50400001928E-02 0.  1.
    10030    2    1    2    0    0  0.00000000000E+00  0.00000000000E+00  0.17488894647E+03  0.17840723188E+04  0.17754796240E+04 0.  0.
        5    1    3    3  502    0 -0.63762065151E+03 -0.61219762259E+03  0.16977916896E+03  0.90010726058E+03  0.46999998093E+01 0.  1.
       -5    1    3    3    0  502  0.63762065151E+03  0.61219762259E+03  0.51097775143E+01  0.88396505823E+03  0.46999998093E+01 0. -1.
</event>
<event>
 5   0  0.1141262E-06  0.1869156E+04  0.7818609E-02  0.8670363E-01
        1   -1    0    0  501    0  0.00000000000E+00  0.00000000000E+00  0.13036883528E+04  0.13036883528E+04  0.50400001928E-02 0. -1.
       -1   -1    0    0    0  501  0.00000000000E+00  0.00000000000E+00 -0.66997338014E+03  0.66997338016E+03  0.50400001928E-02 0.  1.
    10030    2    1    2    0    0  0.00000000000E+00  0.00000000000E+00  0.63371497264E+03  0.19736617329E+04  0.18691564861E+04 0.  0.
        2    1    3    3  502    0  0.51886788606E+03 -0.46622248624E+03 -0.33988923233E+03  0.77595874898E+03  0.25500000920E-02 0.  1.
       -2    1    3    3    0  502 -0.51886788606E+03  0.46622248624E+03  0.97360420497E+03  0.11977029840E+04  0.25500000920E-02 0. -1.
</event>
<event>
 5   0  0.1102175E-06  0.2432011E+04  0.7818609E-02  0.8427616E-01
        1   -1    0    0  501    0  0.00000000000E+00  0.00000000000E+00  0.17012510560E+04  0.17012510560E+04  0.50400001928E-02 0.  1.
       -1   -1    0    0    0  501  0.00000000000E+00  0.00000000000E+00 -0.86916560405E+03  0.86916560407E+03  0.50400001928E-02 0. -1.
    10030    2    1    2    0    0  0.00000000000E+00  0.00000000000E+00  0.83208545197E+03  0.25704166601E+04  0.24320106100E+04 0.  0.
        5    1    3    3  502    0 -0.10880295287E+04 -0.25167457331E+03 -0.92482053902E+02  0.11205906329E+04  0.46999998093E+01 0. -1.
       -5    1    3    3    0  502  0.10880295287E+04  0.25167457331E+03  0.92456750588E+03  0.14498260272E+04  0.46999998093E+01 0.  1.
</event>
<event>
 5   0  0.1110956E-06  0.3560067E+04  0.7818609E-02  0.8099700E-01
        1   -1    0    0  501    0  0.00000000000E+00  0.00000000000E+00  0.23912614196E+04  0.23912614196E+04  0.50400001928E-02 0.  1.
       -1   -1    0    0    0  501  0.00000000000E+00  0.00000000000E+00 -0.13250412417E+04  0.13250412417E+04  0.50400001928E-02 0. -1.
    10030    2    1    2    0    0  0.00000000000E+00  0.00000000000E+00  0.10662201780E+04  0.37163026613E+04  0.35600674154E+04 0.  0.
        1    1    3    3  502    0  0.99116232875E+03 -0.10896597417E+04 -0.51012739344E+03  0.15588428632E+04  0.50400001928E-02 0. -1.
       -1    1    3    3    0  502 -0.99116232875E+03  0.10896597417E+04  0.15763475714E+04  0.21574597981E+04  0.50400001928E-02 0.  1.
</event>
<event>
 5   0  0.1782660E-06  0.3213645E+04  0.7818609E-02  0.8185223E-01
       -2   -1    0    0    0  501  0.00000000000E+00  0.00000000000E+00  0.20048101092E+04  0.20048101092E+04  0.25500000920E-02 0.  1.
        2   -1    0    0  501    0  0.00000000000E+00  0.00000000000E+00 -0.12878419668E+04  0.12878419668E+04  0.25500000920E-02 0. -1.
    10030    2    1    2    0    0  0.00000000000E+00  0.00000000000E+00  0.71696814248E+03  0.32926520760E+04  0.32136450296E+04 0.  0.
        4    1    3    3  502    0 -0.97267230088E+03  0.77888621753E+03  0.13978807750E+04  0.18726525088E+04  0.12699999809E+01 0.  1.
       -4    1    3    3    0  502  0.97267230088E+03 -0.77888621753E+03 -0.68091263253E+03  0.14199995672E+04  0.12699999809E+01 0. -1.
</event>
<event>
 5   0  0.2565004E-06  0.3468313E+04  0.7818609E-02  0.8121341E-01
        2   -1    0    0  501    0  0.00000000000E+00  0.00000000000E+00  0.13573413294E+04  0.13573413294E+04  0.25500000920E-02 0.  1.
       -2   -1    0    0    0  501  0.00000000000E+00  0.00000000000E+00 -0.22155808550E+04  0.22155808550E+04  0.25500000920E-02 0. -1.
    10030    2    1    2    0    0  0.00000000000E+00  0.00000000000E+00 -0.85823952561E+03  0.35729221844E+04  0.34683134017E+04 0.  0.
        3    1    3    3  502    0 -0.15699186631E+04  0.55780040416E+03 -0.92479067527E+03  0.19055245217E+04  0.10100000352E+00 0. -1.
       -3    1    3    3    0  502  0.15699186631E+04 -0.55780040416E+03  0.66551149662E+02  0.16673976626E+04  0.10100000352E+00 0.  1.
</event>
<event>
 5   0  0.1102175E-06  0.3366242E+04  0.7818609E-02  0.8146242E-01
        1   -1    0    0  501    0  0.00000000000E+00  0.00000000000E+00  0.29750582087E+04  0.29750582087E+04  0.50400001928E-02 0.  1.
       -1   -1    0    0    0  501  0.00000000000E+00  0.00000000000E+00 -0.95221551067E+03  0.95221551069E+03  0.50400001928E-02 0. -1.
    10030    2    1    2    0    0  0.00000000000E+00  0.00000000000E+00  0.20228426980E+04  0.39272737194E+04  0.33662421609E+04 0.  0.
        5    1    3    3  502    0 -0.13211794579E+04  0.13212867494E+03 -0.19532968880E+03  0.13420688969E+04  0.46999998093E+01 0. -1.
       -5    1    3    3    0  502  0.13211794579E+04 -0.13212867494E+03  0.22181723868E+04  0.25852048225E+04  0.46999998093E+01 0.  1.
</event>
<event>
 5   0  0.3041329E-06  0.3331332E+04  0.7818609E-02  0.8154968E-01
        2   -1    0    0  501    0  0.00000000000E+00  0.00000000000E+00  0.24501160150E+04  0.24501160150E+04  0.25500000920E-02 0. -1.
       -2   -1    0    0    0  501  0.00000000000E+00  0.00000000000E+00 -0.11323724670E+04  0.11323724670E+04  0.25500000920E-02 0.  1.
    10030    2    1    2    0    0  0.00000000000E+00  0.00000000000E+00  0.13177435481E+04  0.35824884820E+04  0.33313324159E+04 0.  0.
        2    1    3    3  502    0 -0.78047500736E+03  0.14170013919E+04  0.10855324582E+04  0.19481824605E+04  0.25500000920E-02 0. -1.
       -2    1    3    3    0  502  0.78047500736E+03 -0.14170013919E+04  0.23221108984E+03  0.16343060215E+04  0.25500000920E-02 0.  1.
</event>
<event>
 5   0  0.3378848E-06  0.1950168E+04  0.7818609E-02  0.8630280E-01
       -2   -1    0    0    0  501  0.00000000000E+00  0.00000000000E+00  0.15303066683E+04  0.15303066683E+04  0.25500000920E-02 0.  1.
        2   -1    0    0  501    0  0.00000000000E+00  0.00000000000E+00 -0.62130581543E+03  0.62130581544E+03  0.25500000920E-02 0. -1.
    10030    2    1    2    0    0  0.00000000000E+00  0.00000000000E+00  0.90900085289E+03  0.21516124838E+04  0.19501676158E+04 0.  0.
        1    1    3    3  502    0  0.90815016333E+03 -0.34827066465E+03  0.53061392977E+03  0.11079622365E+04  0.50400001928E-02 0. -1.
       -1    1    3    3    0  502 -0.90815016333E+03  0.34827066465E+03  0.37838692312E+03  0.10436502473E+04  0.50400001928E-02 0.  1.
</event>
<event>
 5   0  0.3041329E-06  0.3173168E+04  0.7818609E-02  0.8195940E-01
       -2   -1    0    0    0  501  0.00000000000E+00  0.00000000000E+00  0.15989588187E+04  0.15989588187E+04  0.25500000920E-02 0.  1.
        2   -1    0    0  501    0  0.00000000000E+00  0.00000000000E+00 -0.15743046518E+04  0.15743046518E+04  0.25500000920E-02 0. -1.
    10030    2    1    2    0    0  0.00000000000E+00  0.00000000000E+00  0.24654166886E+02  0.31732634706E+04  0.31731676958E+04 0.  0.
        2    1    3    3  502    0  0.20732848883E+03 -0.94187521909E+01  0.15853254458E+04  0.15988528964E+04  0.25500000920E-02 0.  1.
       -2    1    3    3    0  502 -0.20732848883E+03  0.94187521909E+01 -0.15606712789E+04  0.15744105742E+04  0.25500000920E-02 0. -1.
</event>
<event>
 5   0  0.3378848E-06  0.3319117E+04  0.7818609E-02  0.8158048E-01
       -2   -1    0    0    0  501  0.00000000000E+00  0.00000000000E+00  0.15881053128E+04  0.15881053128E+04  0.25500000920E-02 0.  1.
        2   -1    0    0  501    0  0.00000000000E+00  0.00000000000E+00 -0.17342263008E+04  0.17342263008E+04  0.25500000920E-02 0. -1.
    10030    2    1    2    0    0  0.00000000000E+00  0.00000000000E+00 -0.14612098797E+03  0.33223316136E+04  0.33191167511E+04 0.  0.
        1    1    3    3  502    0 -0.52143408981E+03  0.31318069988E+03  0.14725070783E+04  0.15931894917E+04  0.50400001928E-02 0.  1.
       -1    1    3    3    0  502  0.52143408981E+03 -0.31318069988E+03 -0.16186280663E+04  0.17291421219E+04  0.50400001928E-02 0. -1.
</event>
<event>
 5   0  0.3378848E-06  0.3439852E+04  0.7818609E-02  0.8128194E-01
       -2   -1    0    0    0  501  0.00000000000E+00  0.00000000000E+00  0.15252672416E+04  0.15252672416E+04  0.25500000920E-02 0.  1.
        2   -1    0    0  501    0  0.00000000000E+00  0.00000000000E+00 -0.19394278028E+04  0.19394278028E+04  0.25500000920E-02 0. -1.
    10030    2    1    2    0    0  0.00000000000E+00  0.00000000000E+00 -0.41416056127E+03  0.34646950444E+04  0.34398521451E+04 0.  0.
        1    1    3    3  502    0 -0.11956996843E+04 -0.81782359356E+03 -0.11409291725E+04  0.18439773702E+04  0.50400001928E-02 0. -1.
       -1    1    3    3    0  502  0.11956996843E+04  0.81782359356E+03  0.72676861119E+03  0.16207176742E+04  0.50400001928E-02 0.  1.
</event>
<event>
 5   0  0.3041329E-06  0.3257792E+04  0.7818609E-02  0.8173719E-01
       -2   -1    0    0    0  501  0.00000000000E+00  0.00000000000E+00  0.14984311320E+04  0.14984311320E+04  0.25500000920E-02 0. -1.
        2   -1    0    0  501    0  0.00000000000E+00  0.00000000000E+00 -0.17707204940E+04  0.17707204940E+04  0.25500000920E-02 0.  1.
    10030    2    1    2    0    0  0.00000000000E+00  0.00000000000E+00 -0.27228936202E+03  0.32691516260E+04  0.32577923287E+04 0.  0.
        2    1    3    3  502    0 -0.12703963498E+03 -0.51576592374E+03  0.14090781089E+04  0.15058733924E+04  0.25500000920E-02 0. -1.
       -2    1    3    3    0  502  0.12703963498E+03  0.51576592374E+03 -0.16813674709E+04  0.17632782336E+04  0.25500000920E-02 0.  1.
</event>
<event>
 5   0  0.1110956E-06  0.3491631E+04  0.7818609E-02  0.8115776E-01
        1   -1    0    0  501    0  0.00000000000E+00  0.00000000000E+00  0.30698369934E+04  0.30698369934E+04  0.50400001928E-02 0. -1.
       -1   -1    0    0    0  501  0.00000000000E+00  0.00000000000E+00 -0.99284478383E+03  0.99284478384E+03  0.50400001928E-02 0.  1.
    10030    2    1    2    0    0  0.00000000000E+00  0.00000000000E+00  0.20769922096E+04  0.40626817773E+04  0.34916309348E+04 0.  0.
        1    1    3    3  502    0  0.20504541573E+03 -0.17316457590E+04  0.11374387069E+04  0.20819239825E+04  0.50400001928E-02 0. -1.
       -1    1    3    3    0  502 -0.20504541573E+03  0.17316457590E+04  0.93955350267E+03  0.19807577947E+04  0.50400001928E-02 0.  1.
</event>
<event>
 5   0  0.1908726E-06  0.3353382E+04  0.7818609E-02  0.8149444E-01
        2   -1    0    0  501    0  0.00000000000E+00  0.00000000000E+00  0.18441854302E+04  0.18441854302E+04  0.25500000920E-02 0.  1.
       -2   -1    0    0    0  501  0.00000000000E+00  0.00000000000E+00 -0.15244088117E+04  0.15244088117E+04  0.25500000920E-02 0. -1.
    10030    2    1    2    0    0  0.00000000000E+00  0.00000000000E+00  0.31977661853E+03  0.33685942419E+04  0.33533818871E+04 0.  0.
        5    1    3    3  502    0  0.28856043767E+03 -0.67077650904E+03  0.16760603184E+04  0.18282255146E+04  0.46999998093E+01 0.  1.
       -5    1    3    3    0  502 -0.28856043767E+03  0.67077650904E+03 -0.13562836999E+04  0.15403687272E+04  0.46999998093E+01 0. -1.
</event>
<event>
 5   0  0.1102175E-06  0.3773736E+04  0.7818609E-02  0.8051815E-01
        1   -1    0    0  501    0  0.00000000000E+00  0.00000000000E+00  0.16371981598E+04  0.16371981598E+04  0.50400001928E-02 0. -1.
       -1   -1    0    0    0  501  0.00000000000E+00  0.00000000000E+00 -0.21746123142E+04  0.21746123142E+04  0.50400001928E-02 0.  1.
    10030    2    1    2    0    0  0.00000000000E+00  0.00000000000E+00 -0.53741415434E+03  0.38118104740E+04  0.37737362277E+04 0.  0.
        5    1    3    3  502    0 -0.13342400597E+04 -0.41114425805E+03 -0.15507698429E+04  0.20866588924E+04  0.46999998093E+01 0.  1.
       -5    1    3    3    0  502  0.13342400597E+04  0.41114425805E+03  0.10133556886E+04  0.17251515815E+04  0.46999998093E+01 0. -1.
</event>
<event>
 5   0  0.1102175E-06  0.3330918E+04  0.7818609E-02  0.8155073E-01
        1   -1    0    0  501    0  0.00000000000E+00  0.00000000000E+00  0.23703691437E+04  0.23703691438E+04  0.50400001928E-02 0. -1.
       -1   -1    0    0    0  501  0.00000000000E+00  0.00000000000E+00 -0.11701779687E+04  0.11701779688E+04  0.50400001928E-02 0.  1.
    10030    2    1    2    0    0  0.00000000000E+00  0.00000000000E+00  0.12001911750E+04  0.35405471125E+04  0.33309180415E+04 0.  0.
        5    1    3    3  502    0 -0.12168562161E+04 -0.10101140615E+04  0.45062476900E+02  0.15821258435E+04  0.46999998093E+01 0. -1.
       -5    1    3    3    0  502  0.12168562161E+04  0.10101140615E+04  0.11551286981E+04  0.19584212690E+04  0.46999998093E+01 0.  1.
</event>
<event>
 5   0  0.1908726E-06  0.3439871E+04  0.7818609E-02  0.8128190E-01
       -2   -1    0    0    0  501  0.00000000000E+00  0.00000000000E+00  0.18130210593E+04  0.18130210593E+04  0.25500000920E-02 0. -1.
        2   -1    0    0  501    0  0.00000000000E+00  0.00000000000E+00 -0.16316287928E+04  0.16316287928E+04  0.25500000920E-02 0.  1.
    10030    2    1    2    0    0  0.00000000000E+00  0.00000000000E+00  0.18139226647E+03  0.34446498520E+04  0.34398705570E+04 0.  0.
        5    1    3    3  502    0  0.16888418377E+04  0.30606481930E+03 -0.20331019029E+02  0.17164783327E+04  0.46999998093E+01 0. -1.
       -5    1    3    3    0  502 -0.16888418377E+04 -0.30606481930E+03  0.20172328550E+03  0.17281715193E+04  0.46999998093E+01 0.  1.
</event>
<event>
 5   0  0.1125196E-06  0.3537970E+04  0.7818609E-02  0.8104850E-01
       -1   -1    0    0    0  501  0.00000000000E+00  0.00000000000E+00  0.16005751216E+04  0.16005751216E+04  0.50400001928E-02 0. -1.
        1   -1    0    0  501    0  0.00000000000E+00  0.00000000000E+00 -0.19551151702E+04  0.19551151702E+04  0.50400001928E-02 0.  1.
    10030    2    1    2    0    0  0.00000000000E+00  0.00000000000E+00 -0.35454004866E+03  0.35556902918E+04  0.35379704359E+04 0.  0.
        4    1    3    3  502    0 -0.97838380985E+03  0.10856064016E+04  0.82448245668E+03  0.16779597948E+04  0.12699999809E+01 0. -1.
       -4    1    3    3    0  502  0.97838380985E+03 -0.10856064016E+04 -0.11790225053E+04  0.18777304971E+04  0.12699999809E+01 0.  1.
</event>
<event>
 5   0  0.1782660E-06  0.3506171E+04  0.7818609E-02  0.8112329E-01
       -2   -1    0    0    0  501  0.00000000000E+00  0.00000000000E+00  0.17192940228E+04  0.17192940228E+04  0.25500000920E-02 0. -1.
        2   -1    0    0  501    0  0.00000000000E+00  0.00000000000E+00 -0.17875408633E+04  0.17875408633E+04  0.25500000920E-02 0.  1.
    10030    2    1    2    0    0  0.00000000000E+00  0.00000000000E+00 -0.68246840499E+02  0.35068348861E+04  0.35061707441E+04 0.  0.
        4    1    3    3  502    0 -0.78993923243E+02 -0.33278050564E+02  0.17171963289E+04  0.17193348462E+04  0.12699999809E+01 0. -1.
       -4    1    3    3    0  502  0.78993923243E+02  0.33278050564E+02 -0.17854431694E+04  0.17875000399E+04  0.12699999809E+01 0.  1.
</event>
<event>
 5   0  0.1110956E-06  0.3504264E+04  0.7818609E-02  0.8112780E-01
        1   -1    0    0  501    0  0.00000000000E+00  0.00000000000E+00  0.20243756893E+04  0.20243756893E+04  0.50400001928E-02 0.  1.
       -1   -1    0    0    0  501  0.00000000000E+00  0.00000000000E+00 -0.15165001775E+04  0.15165001775E+04  0.50400001928E-02 0. -1.
    10030    2    1    2    0    0  0.00000000000E+00  0.00000000000E+00  0.50787551174E+03  0.35408758668E+04  0.35042637413E+04 0.  0.
        1    1    3    3  502    0 -0.10546918315E+04  0.36471154607E+02  0.16672148660E+04  0.19731473371E+04  0.50400001928E-02 0.  1.
       -1    1    3    3    0  502  0.10546918315E+04 -0.36471154607E+02 -0.11593393542E+04  0.15677285297E+04  0.50400001928E-02 0. -1.
</event>
<event>
 5   0  0.3378848E-06  0.2683917E+04  0.7818609E-02  0.8340242E-01
        2   -1    0    0  501    0  0.00000000000E+00  0.00000000000E+00  0.16550414432E+04  0.16550414432E+04  0.25500000920E-02 0.  1.
       -2   -1    0    0    0  501  0.00000000000E+00  0.00000000000E+00 -0.10881011990E+04  0.10881011990E+04  0.25500000920E-02 0. -1.
    10030    2    1    2    0    0  0.00000000000E+00  0.00000000000E+00  0.56694024413E+03  0.27431426422E+04  0.26839169724E+04 0.  0.
        1    1    3    3  502    0 -0.91314970449E+03  0.95666857891E+03  0.50861922708E+02  0.13234969165E+04  0.50400001928E-02 0.  1.
       -1    1    3    3    0  502  0.91314970449E+03 -0.95666857891E+03  0.51607832142E+03  0.14196457257E+04  0.50400001928E-02 0. -1.
</event>
<event>
 5   0  0.1154098E-06  0.1758001E+04  0.7818609E-02  0.8728958E-01
       -1   -1    0    0    0  501  0.00000000000E+00  0.00000000000E+00  0.42707792094E+03  0.42707792097E+03  0.50400001928E-02 0.  1.
        1   -1    0    0  501    0  0.00000000000E+00  0.00000000000E+00 -0.18091359701E+04  0.18091359701E+04  0.50400001928E-02 0. -1.
    10030    2    1    2    0    0  0.00000000000E+00  0.00000000000E+00 -0.13820580492E+04  0.22362138911E+04  0.17580011705E+04 0.  0.
        2    1    3    3  502    0  0.64671527634E+03  0.13613764571E+03 -0.14282173426E+04  0.15737149948E+04  0.25500000920E-02 0. -1.
       -2    1    3    3    0  502 -0.64671527634E+03 -0.13613764571E+03  0.46159293380E+02  0.66249889631E+03  0.25500000920E-02 0.  1.
</event>
<event>
 5   0  0.1042825E-06  0.3568662E+04  0.7818609E-02  0.8097708E-01
       -3   -1    0    0    0  501  0.00000000000E+00  0.00000000000E+00  0.11396560869E+04  0.11396560914E+04  0.10100000352E+00 0.  1.
        3   -1    0    0  501    0  0.00000000000E+00  0.00000000000E+00 -0.27936825697E+04  0.27936825715E+04  0.10100000352E+00 0. -1.
    10030    2    1    2    0    0  0.00000000000E+00  0.00000000000E+00 -0.16540264828E+04  0.39333386629E+04  0.35686621346E+04 0.  0.
        4    1    3    3  502    0 -0.70939674225E+03  0.11160236525E+04 -0.21473796002E+04  0.25219027125E+04  0.12699999809E+01 0. -1.
       -4    1    3    3    0  502  0.70939674225E+03 -0.11160236525E+04  0.49335311743E+03  0.14114359504E+04  0.12699999809E+01 0.  1.
</event>
<event>
 5   0  0.1782660E-06  0.2026135E+04  0.7818609E-02  0.8594498E-01
       -2   -1    0    0    0  501  0.00000000000E+00  0.00000000000E+00  0.10260910789E+04  0.10260910789E+04  0.25500000920E-02 0.  1.
        2   -1    0    0  501    0  0.00000000000E+00  0.00000000000E+00 -0.10002095159E+04  0.10002095159E+04  0.25500000920E-02 0. -1.
    10030    2    1    2    0    0  0.00000000000E+00  0.00000000000E+00  0.25881563004E+02  0.20263005948E+04  0.20261352978E+04 0.  0.
        4    1    3    3  502    0 -0.97515217424E+03 -0.21200914109E+03  0.18741076646E+03  0.10153787703E+04  0.12699999809E+01 0.  1.
       -4    1    3    3    0  502  0.97515217424E+03  0.21200914109E+03 -0.16152920346E+03  0.10109218245E+04  0.12699999809E+01 0. -1.
</event>
<event>
 5   0  0.1782660E-06  0.3475174E+04  0.7818609E-02  0.8119699E-01
       -2   -1    0    0    0  501  0.00000000000E+00  0.00000000000E+00  0.17499509629E+04  0.17499509629E+04  0.25500000920E-02 0.  1.
        2   -1    0    0  501    0  0.00000000000E+00  0.00000000000E+00 -0.17253099835E+04  0.17253099835E+04  0.25500000920E-02 0. -1.
    10030    2    1    2    0    0  0.00000000000E+00  0.00000000000E+00  0.24640979415E+02  0.34752609465E+04  0.34751735882E+04 0.  0.
        4    1    3    3  502    0  0.16682938534E+04  0.48042161151E+03  0.84412162921E+02  0.17381416318E+04  0.12699999809E+01 0. -1.
       -4    1    3    3    0  502 -0.16682938534E+04 -0.48042161151E+03 -0.59771183506E+02  0.17371193147E+04  0.12699999809E+01 0.  1.
</event>
<event>
 5   0  0.1110956E-06  0.3495374E+04  0.7818609E-02  0.8114887E-01
       -1   -1    0    0    0  501  0.00000000000E+00  0.00000000000E+00  0.13251997500E+04  0.13251997500E+04  0.50400001928E-02 0.  1.
        1   -1    0    0  501    0  0.00000000000E+00  0.00000000000E+00 -0.23048673272E+04  0.23048673272E+04  0.50400001928E-02 0. -1.
    10030    2    1    2    0    0  0.00000000000E+00  0.00000000000E+00 -0.97966757723E+03  0.36300670772E+04  0.34953738602E+04 0.  0.
        1    1    3    3  502    0 -0.15970294886E+04  0.67128970059E+03 -0.72954540924E+03  0.18797259252E+04  0.50400001928E-02 0.  1.
       -1    1    3    3    0  502  0.15970294886E+04 -0.67128970059E+03 -0.25012216799E+03  0.17503411520E+04  0.50400001928E-02 0. -1.
</event>
<event>
 5   0  0.1042825E-06  0.3537881E+04  0.7818609E-02  0.8104871E-01
       -3   -1    0    0    0  501  0.00000000000E+00  0.00000000000E+00  0.13740387183E+04  0.13740387220E+04  0.10100000352E+00 0. -1.
        3   -1    0    0  501    0  0.00000000000E+00  0.00000000000E+00 -0.22773373730E+04  0.22773373753E+04  0.10100000352E+00 0.  1.
    10030    2    1    2    0    0  0.00000000000E+00  0.00000000000E+00 -0.90329865476E+03  0.36513760973E+04  0.35378805723E+04 0.  0.
        4    1    3    3  502    0 -0.10281975625E+04 -0.10295113353E+04 -0.14899364171E+04  0.20825455474E+04  0.12699999809E+01 0.  1.
       -4    1    3    3    0  502  0.10281975625E+04  0.10295113353E+04  0.58663776237E+03  0.15688305499E+04  0.12699999809E+01 0. -1.
</event>
<event>
 5   0  0.1125196E-06  0.3294952E+04  0.7818609E-02  0.8164181E-01
        1   -1    0    0  501    0  0.00000000000E+00  0.00000000000E+00  0.24093464629E+04  0.24093464629E+04  0.50400001928E-02 0.  1.
       -1   -1    0    0    0  501  0.00000000000E+00  0.00000000000E+00 -0.11265199304E+04  0.11265199304E+04  0.50400001928E-02 0. -1.
    10030    2    1    2    0    0  0.00000000000E+00  0.00000000000E+00  0.12828265326E+04  0.35358663933E+04  0.32949517810E+04 0.  0.
        4    1    3    3  502    0 -0.32939156251E+03  0.15207768826E+04  0.12222002820E+04  0.19786450592E+04  0.12699999809E+01 0.  1.
       -4    1    3    3    0  502  0.32939156251E+03 -0.15207768826E+04  0.60626250562E+02  0.15572213341E+04  0.12699999809E+01 0. -1.
</event>
<event>
 5   0  0.1908726E-06  0.3515351E+04  0.7818609E-02  0.8110162E-01
       -2   -1    0    0    0  501  0.00000000000E+00  0.00000000000E+00  0.11953537188E+04  0.11953537188E+04  0.25500000920E-02 0.  1.
        2   -1    0    0  501    0  0.00000000000E+00  0.00000000000E+00 -0.25845267009E+04  0.25845267009E+04  0.25500000920E-02 0. -1.
    10030    2    1    2    0    0  0.00000000000E+00  0.00000000000E+00 -0.13891729821E+04  0.37798804197E+04  0.35153512503E+04 0.  0.
        5    1    3    3  502    0 -0.12086713734E+04 -0.90356528011E+03  0.27438283290E+03  0.15338268264E+04  0.46999998093E+01 0.  1.
       -5    1    3    3    0  502  0.12086713734E+04  0.90356528011E+03 -0.16635558150E+04  0.22460535933E+04  0.46999998093E+01 0. -1.
</event>
<event>
 5   0  0.1782660E-06  0.3497496E+04  0.7818609E-02  0.8114384E-01
        2   -1    0    0  501    0  0.00000000000E+00  0.00000000000E+00  0.16682148691E+04  0.16682148691E+04  0.25500000920E-02 0.  1.
       -2   -1    0    0    0  501  0.00000000000E+00  0.00000000000E+00 -0.18331692132E+04  0.18331692132E+04  0.25500000920E-02 0. -1.
    10030    2    1    2    0    0  0.00000000000E+00  0.00000000000E+00 -0.16495434412E+03  0.35013840824E+04  0.34974963269E+04 0.  0.
        4    1    3    3  502    0  0.15920703582E+04 -0.71542937611E+03 -0.19025978749E+03  0.17557698076E+04  0.12699999809E+01 0. -1.
       -4    1    3    3    0  502 -0.15920703582E+04  0.71542937611E+03  0.25305443370E+02  0.17456142747E+04  0.12699999809E+01 0.  1.
</event>
<event>
 5   0  0.1125196E-06  0.3565686E+04  0.7818609E-02  0.8098397E-01
       -1   -1    0    0    0  501  0.00000000000E+00  0.00000000000E+00  0.24468398119E+04  0.24468398119E+04  0.50400001928E-02 0. -1.
        1   -1    0    0  501    0  0.00000000000E+00  0.00000000000E+00 -0.12990346836E+04  0.12990346836E+04  0.50400001928E-02 0.  1.
    10030    2    1    2    0    0  0.00000000000E+00  0.00000000000E+00  0.11478051283E+04  0.37458744955E+04  0.35656863467E+04 0.  0.
        4    1    3    3  502    0  0.80362046007E+03  0.52185693813E+03 -0.10055316738E+04  0.13889694265E+04  0.12699999809E+01 0.  1.
       -4    1    3    3    0  502 -0.80362046007E+03 -0.52185693813E+03  0.21533368022E+04  0.23569050690E+04  0.12699999809E+01 0. -1.
</event>
<event>
 5   0  0.3041329E-06  0.3499198E+04  0.7818609E-02  0.8113980E-01
        2   -1    0    0  501    0  0.00000000000E+00  0.00000000000E+00  0.22748054532E+04  0.22748054532E+04  0.25500000920E-02 0.  1.
       -2   -1    0    0    0  501  0.00000000000E+00  0.00000000000E+00 -0.13456521468E+04  0.13456521468E+04  0.25500000920E-02 0. -1.
    10030    2    1    2    0    0  0.00000000000E+00  0.00000000000E+00  0.92915330640E+03  0.36204576000E+04  0.34991981034E+04 0.  0.
        2    1    3    3  502    0 -0.33179968097E+03  0.17496346151E+03 -0.13035591954E+04  0.13564548710E+04  0.25500000920E-02 0. -1.
       -2    1    3    3    0  502  0.33179968097E+03 -0.17496346151E+03  0.22327125018E+04  0.22640027290E+04  0.25500000920E-02 0.  1.
</event>
<event>
 5   0  0.1782660E-06  0.3468209E+04  0.7818609E-02  0.8121365E-01
       -2   -1    0    0    0  501  0.00000000000E+00  0.00000000000E+00  0.16135743927E+04  0.16135743927E+04  0.25500000920E-02 0.  1.
        2   -1    0    0  501    0  0.00000000000E+00  0.00000000000E+00 -0.18636382828E+04  0.18636382828E+04  0.25500000920E-02 0. -1.
    10030    2    1    2    0    0  0.00000000000E+00  0.00000000000E+00 -0.25006389003E+03  0.34772126755E+04  0.34682093423E+04 0.  0.
        4    1    3    3  502    0 -0.16146185149E+04 -0.18502906976E+03 -0.73148954698E+03  0.17822197607E+04  0.12699999809E+01 0.  1.
       -4    1    3    3    0  502  0.16146185149E+04  0.18502906976E+03  0.48142565695E+03  0.16949929148E+04  0.12699999809E+01 0. -1.
</event>
<event>
 5   0  0.1110956E-06  0.3807723E+04  0.7818609E-02  0.8044500E-01
        1   -1    0    0  501    0  0.00000000000E+00  0.00000000000E+00  0.17286940264E+04  0.17286940265E+04  0.50400001928E-02 0. -1.
       -1   -1    0    0    0  501  0.00000000000E+00  0.00000000000E+00 -0.20967784318E+04  0.20967784318E+04  0.50400001928E-02 0.  1.
    10030    2    1    2    0    0  0.00000000000E+00  0.00000000000E+00 -0.36808440540E+03  0.38254724583E+04  0.38077228628E+04 0.  0.
        1    1    3    3  502    0 -0.51923605685E+02 -0.11549346165E+04  0.13356617294E+04  0.17665113316E+04  0.50400001928E-02 0. -1.
       -1    1    3    3    0  502  0.51923605685E+02  0.11549346165E+04 -0.17037461348E+04  0.20589611267E+04  0.50400001928E-02 0.  1.
</event>
<event>
 5   0  0.1908726E-06  0.3485557E+04  0.7818609E-02  0.8117221E-01
       -2   -1    0    0    0  501  0.00000000000E+00  0.00000000000E+00  0.14371021914E+04  0.14371021914E+04  0.25500000920E-02 0.  1.
        2   -1    0    0  501    0  0.00000000000E+00  0.00000000000E+00 -0.21134729110E+04  0.21134729110E+04  0.25500000920E-02 0. -1.
    10030    2    1    2    0    0  0.00000000000E+00  0.00000000000E+00 -0.67637071966E+03  0.35505751024E+04  0.34855568002E+04 0.  0.
        5    1    3    3  502    0 -0.96877222269E+03  0.45599699259E+01  0.11375319582E+04  0.14941691533E+04  0.46999998093E+01 0.  1.
       -5    1    3    3    0  502  0.96877222269E+03 -0.45599699259E+01 -0.18139026778E+04  0.20564059491E+04  0.46999998093E+01 0. -1.
</event>
<event>
 5   0  0.3041329E-06  0.2822956E+04  0.7818609E-02  0.8296177E-01
       -2   -1    0    0    0  501  0.00000000000E+00  0.00000000000E+00  0.13530108072E+04  0.13530108072E+04  0.25500000920E-02 0. -1.
        2   -1    0    0  501    0  0.00000000000E+00  0.00000000000E+00 -0.14724712621E+04  0.14724712621E+04  0.25500000920E-02 0.  1.
    10030    2    1    2    0    0  0.00000000000E+00  0.00000000000E+00 -0.11946045487E+03  0.28254820694E+04  0.28229555654E+04 0.  0.
        2    1    3    3  502    0  0.12202862391E+04  0.54359647834E+03 -0.51585059633E+03  0.14320256542E+04  0.25500000920E-02 0.  1.
       -2    1    3    3    0  502 -0.12202862391E+04 -0.54359647834E+03  0.39639014146E+03  0.13934564151E+04  0.25500000920E-02 0. -1.
</event>
<event>
 5   0  0.2565004E-06  0.2586835E+04  0.7818609E-02  0.8372687E-01
       -2   -1    0    0    0  501  0.00000000000E+00  0.00000000000E+00  0.95103441601E+03  0.95103441601E+03  0.25500000920E-02 0.  1.
        2   -1    0    0  501    0  0.00000000000E+00  0.00000000000E+00 -0.17590616952E+04  0.17590616952E+04  0.25500000920E-02 0. -1.
    10030    2    1    2    0    0  0.00000000000E+00  0.00000000000E+00 -0.80802727917E+03  0.27100961112E+04  0.25868345227E+04 0.  0.
        3    1    3    3  502    0 -0.58516997313E+03  0.11527358141E+04 -0.44726580119E+03  0.13679438811E+04  0.10100000352E+00 0.  1.
       -3    1    3    3    0  502  0.58516997313E+03 -0.11527358141E+04 -0.36076147798E+03  0.13421522301E+04  0.10100000352E+00 0. -1.
</event>
<event>
 5   0  0.2565004E-06  0.3474903E+04  0.7818609E-02  0.8119763E-01
       -2   -1    0    0    0  501  0.00000000000E+00  0.00000000000E+00  0.11793391340E+04  0.11793391340E+04  0.25500000920E-02 0. -1.
        2   -1    0    0  501    0  0.00000000000E+00  0.00000000000E+00 -0.25596862903E+04  0.25596862903E+04  0.25500000920E-02 0.  1.
    10030    2    1    2    0    0  0.00000000000E+00  0.00000000000E+00 -0.13803471563E+04  0.37390254243E+04  0.34749032867E+04 0.  0.
        3    1    3    3  502    0 -0.87929000975E+03 -0.13810868948E+04 -0.13159132393E+04  0.21005188872E+04  0.10100000352E+00 0.  1.
       -3    1    3    3    0  502  0.87929000975E+03  0.13810868948E+04 -0.64433916975E+02  0.16385065371E+04  0.10100000352E+00 0. -1.
</event>
<event>
 5   0  0.1908726E-06  0.3356278E+04  0.7818609E-02  0.8148721E-01
        2   -1    0    0  501    0  0.00000000000E+00  0.00000000000E+00  0.16586981347E+04  0.16586981347E+04  0.25500000920E-02 0. -1.
       -2   -1    0    0    0  501  0.00000000000E+00  0.00000000000E+00 -0.16978073048E+04  0.16978073048E+04  0.25500000920E-02 0.  1.
    10030    2    1    2    0    0  0.00000000000E+00  0.00000000000E+00 -0.39109170097E+02  0.33565054395E+04  0.33562775866E+04 0.  0.
        5    1    3    3  502    0 -0.75427079789E+03 -0.50617564407E+03  0.13915654809E+04  0.16618106982E+04  0.46999998093E+01 0. -1.
       -5    1    3    3    0  502  0.75427079789E+03  0.50617564407E+03 -0.14306746510E+04  0.16946947413E+04  0.46999998093E+01 0.  1.
</event>
<event>
 5   0  0.1102175E-06  0.2550441E+04  0.7818609E-02  0.8385233E-01
        1   -1    0    0  501    0  0.00000000000E+00  0.00000000000E+00  0.91456399302E+03  0.91456399304E+03  0.50400001928E-02 0. -1.
       -1   -1    0    0    0  501  0.00000000000E+00  0.00000000000E+00 -0.17781018023E+04  0.17781018023E+04  0.50400001928E-02 0.  1.
    10030    2    1    2    0    0  0.00000000000E+00  0.00000000000E+00 -0.86353780930E+03  0.26926657954E+04  0.25504414397E+04 0.  0.
        5    1    3    3  502    0  0.12409915098E+04 -0.29146312865E+03 -0.39588670339E+03  0.13348254772E+04  0.46999998093E+01 0. -1.
       -5    1    3    3    0  502 -0.12409915098E+04  0.29146312865E+03 -0.46765110591E+03  0.13578403181E+04  0.46999998093E+01 0.  1.
</event>
<event>
 5   0  0.3041329E-06  0.3610468E+04  0.7818609E-02  0.8088098E-01
        2   -1    0    0  501    0  0.00000000000E+00  0.00000000000E+00  0.19648497227E+04  0.19648497227E+04  0.25500000920E-02 0.  1.
       -2   -1    0    0    0  501  0.00000000000E+00  0.00000000000E+00 -0.16585847372E+04  0.16585847372E+04  0.25500000920E-02 0. -1.
    10030    2    1    2    0    0  0.00000000000E+00  0.00000000000E+00  0.30626498552E+03  0.36234344599E+04  0.36104679812E+04 0.  0.
        2    1    3    3  502    0 -0.45590932839E+03 -0.59836646585E+03 -0.14937893670E+04  0.16725138015E+04  0.25500000920E-02 0. -1.
       -2    1    3    3    0  502  0.45590932839E+03  0.59836646585E+03  0.18000543525E+04  0.19509206584E+04  0.25500000920E-02 0.  1.
</event>
<event>
 5   0  0.1908726E-06  0.3622967E+04  0.7818609E-02  0.8085251E-01
       -2   -1    0    0    0  501  0.00000000000E+00  0.00000000000E+00  0.13126745475E+04  0.13126745475E+04  0.25500000920E-02 0.  1.
        2   -1    0    0  501    0  0.00000000000E+00  0.00000000000E+00 -0.24998374110E+04  0.24998374110E+04  0.25500000920E-02 0. -1.
    10030    2    1    2    0    0  0.00000000000E+00  0.00000000000E+00 -0.11871628635E+04  0.38125119584E+04  0.36229672602E+04 0.  0.
        5    1    3    3  502    0  0.55044768970E+03  0.65426848206E+03  0.10869637155E+04  0.13829577414E+04  0.46999998093E+01 0.  1.
       -5    1    3    3    0  502 -0.55044768970E+03 -0.65426848206E+03 -0.22741265790E+04  0.24295542170E+04  0.46999998093E+01 0. -1.
</event>
<event>
 5   0  0.2565004E-06  0.3554655E+04  0.7818609E-02  0.8100958E-01
        2   -1    0    0  501    0  0.00000000000E+00  0.00000000000E+00  0.20507017778E+04  0.20507017778E+04  0.25500000920E-02 0. -1.
       -2   -1    0    0    0  501  0.00000000000E+00  0.00000000000E+00 -0.15403963408E+04  0.15403963408E+04  0.25500000920E-02 0.  1.
    10030    2    1    2    0    0  0.00000000000E+00  0.00000000000E+00  0.51030543696E+03  0.35910981186E+04  0.35546552658E+04 0.  0.
        3    1    3    3  502    0 -0.74603476518E+03 -0.57186426997E+03 -0.12687204393E+04  0.15790022728E+04  0.10100000352E+00 0.  1.
       -3    1    3    3    0  502  0.74603476518E+03  0.57186426997E+03  0.17790258763E+04  0.20120958458E+04  0.10100000352E+00 0. -1.
</event>
<event>
 5   0  0.1276998E-06  0.1883840E+04  0.7818609E-02  0.8662942E-01
        1   -1    0    0  501    0  0.00000000000E+00  0.00000000000E+00  0.16793820113E+04  0.16793820114E+04  0.50400001928E-02 0. -1.
       -1   -1    0    0    0  501  0.00000000000E+00  0.00000000000E+00 -0.52829742488E+03  0.52829742490E+03  0.50400001928E-02 0.  1.
    10030    2    1    2    0    0  0.00000000000E+00  0.00000000000E+00  0.11510845865E+04  0.22076794363E+04  0.18838398998E+04 0.  0.
        2    1    3    3  502    0 -0.33213233499E+03 -0.14207812977E+03 -0.44388961778E+03  0.57230767572E+03  0.25500000920E-02 0.  1.
       -2    1    3    3    0  502  0.33213233499E+03  0.14207812977E+03  0.15949742043E+04  0.16353717605E+04  0.25500000920E-02 0. -1.
</event>
<event>
 5   0  0.1908726E-06  0.2544251E+04  0.7818609E-02  0.8387388E-01
        2   -1    0    0  501    0  0.00000000000E+00  0.00000000000E+00  0.99997938420E+03  0.99997938421E+03  0.25500000920E-02 0.  1.
       -2   -1    0    0    0  501  0.00000000000E+00  0.00000000000E+00 -0.16183361760E+04  0.16183361760E+04  0.25500000920E-02 0. -1.
    10030    2    1    2    0    0  0.00000000000E+00  0.00000000000E+00 -0.61835679178E+03  0.26183155602E+04  0.25442506266E+04 0.  0.
        5    1    3    3  502    0 -0.50890015872E+03  0.11579765298E+04 -0.44874230411E+03  0.13421180129E+04  0.46999998093E+01 0. -1.
       -5    1    3    3    0  502  0.50890015872E+03 -0.11579765298E+04 -0.16961448767E+03  0.12761975472E+04  0.46999998093E+01 0.  1.
</event>
<event>
 5   0  0.1089337E-06  0.2780529E+04  0.7818609E-02  0.8309339E-01
        1   -1    0    0  501    0  0.00000000000E+00  0.00000000000E+00  0.12794189731E+04  0.12794189731E+04  0.50400001928E-02 0.  1.
       -1   -1    0    0    0  501  0.00000000000E+00  0.00000000000E+00 -0.15107132408E+04  0.15107132408E+04  0.50400001928E-02 0. -1.
    10030    2    1    2    0    0  0.00000000000E+00  0.00000000000E+00 -0.23129426771E+03  0.27901322139E+04  0.27805288585E+04 0.  0.
        2    1    3    3  502    0 -0.11756375113E+04  0.44373348307E+03  0.48122841951E+03  0.13455867693E+04  0.25500000920E-02 0.  1.
       -2    1    3    3    0  502  0.11756375113E+04 -0.44373348307E+03 -0.71252268722E+03  0.14445454447E+04  0.25500000920E-02 0. -1.
</event>
<event>
 5   0  0.2565004E-06  0.2146687E+04  0.7818609E-02  0.8540952E-01
       -2   -1    0    0    0  501  0.00000000000E+00  0.00000000000E+00  0.79710352563E+03  0.79710352563E+03  0.25500000920E-02 0. -1.
        2   -1    0    0  501    0  0.00000000000E+00  0.00000000000E+00 -0.14453150946E+04  0.14453150946E+04  0.25500000920E-02 0.  1.
    10030    2    1    2    0    0  0.00000000000E+00  0.00000000000E+00 -0.64821156901E+03  0.22424186203E+04  0.21466865235E+04 0.  0.
        3    1    3    3  502    0 -0.21104982668E+03 -0.10518901283E+04 -0.29024291254E+03  0.11114206359E+04  0.10100000352E+00 0.  1.
       -3    1    3    3    0  502  0.21104982668E+03  0.10518901283E+04 -0.35796865647E+03  0.11309979844E+04  0.10100000352E+00 0. -1.
</event>
<event>
 5   0  0.1110956E-06  0.2793716E+04  0.7818609E-02  0.8305222E-01
       -1   -1    0    0    0  501  0.00000000000E+00  0.00000000000E+00  0.10448633971E+04  0.10448633971E+04  0.50400001928E-02 0.  1.
        1   -1    0    0  501    0  0.00000000000E+00  0.00000000000E+00 -0.18674333466E+04  0.18674333466E+04  0.50400001928E-02 0. -1.
    10030    2    1    2    0    0  0.00000000000E+00  0.00000000000E+00 -0.82256994953E+03  0.29122967437E+04  0.27937163423E+04 0.  0.
        1    1    3    3  502    0  0.99325116084E+03 -0.56279287609E+03 -0.12503913985E+04  0.16931515997E+04  0.50400001928E-02 0. -1.
       -1    1    3    3    0  502 -0.99325116084E+03  0.56279287609E+03  0.42782144901E+03  0.12191451440E+04  0.50400001928E-02 0.  1.
</event>
<event>
 5   0  0.1125196E-06  0.3506741E+04  0.7818609E-02  0.8112194E-01
       -1   -1    0    0    0  501  0.00000000000E+00  0.00000000000E+00  0.12311455550E+04  0.12311455551E+04  0.50400001928E-02 0. -1.
        1   -1    0    0  501    0  0.00000000000E+00  0.00000000000E+00 -0.24971120186E+04  0.24971120187E+04  0.50400001928E-02 0.  1.
    10030    2    1    2    0    0  0.00000000000E+00  0.00000000000E+00 -0.12659664636E+04  0.37282575737E+04  0.35067411437E+04 0.  0.
        4    1    3    3  502    0 -0.10563713367E+04 -0.92277386004E+03 -0.17515230282E+04  0.22439399567E+04  0.12699999809E+01 0.  1.
       -4    1    3    3    0  502  0.10563713367E+04  0.92277386004E+03  0.48555656464E+03  0.14843176170E+04  0.12699999809E+01 0. -1.
</event>
<event>
 5   0  0.1782660E-06  0.2800255E+04  0.7818609E-02  0.8303189E-01
        2   -1    0    0  501    0  0.00000000000E+00  0.00000000000E+00  0.12347545111E+04  0.12347545111E+04  0.25500000920E-02 0. -1.
       -2   -1    0    0    0  501  0.00000000000E+00  0.00000000000E+00 -0.15876497468E+04  0.15876497468E+04  0.25500000920E-02 0.  1.
    10030    2    1    2    0    0  0.00000000000E+00  0.00000000000E+00 -0.35289523568E+03  0.28224042580E+04  0.28002554791E+04 0.  0.
        4    1    3    3  502    0 -0.93253725648E+03  0.20569590532E+03 -0.12084699971E+04  0.15402395550E+04  0.12699999809E+01 0.  1.
       -4    1    3    3    0  502  0.93253725648E+03 -0.20569590532E+03  0.85557476140E+03  0.12821647029E+04  0.12699999809E+01 0. -1.
</event>
<event>
 5   0  0.1125196E-06  0.3489647E+04  0.7818609E-02  0.8116248E-01
       -1   -1    0    0    0  501  0.00000000000E+00  0.00000000000E+00  0.13308094592E+04  0.13308094593E+04  0.50400001928E-02 0.  1.
        1   -1    0    0  501    0  0.00000000000E+00  0.00000000000E+00 -0.22876373983E+04  0.22876373984E+04  0.50400001928E-02 0. -1.
    10030    2    1    2    0    0  0.00000000000E+00  0.00000000000E+00 -0.95682793910E+03  0.36184468576E+04  0.34896472538E+04 0.  0.
        4    1    3    3  502    0  0.52314380128E+03  0.16577512621E+04 -0.63425830501E+03  0.18504334341E+04  0.12699999809E+01 0.  1.
       -4    1    3    3    0  502 -0.52314380128E+03 -0.16577512621E+04 -0.32256963409E+03  0.17680134235E+04  0.12699999809E+01 0. -1.
</event>
<event>
 5   0  0.3378848E-06  0.3413172E+04  0.7818609E-02  0.8134681E-01
        2   -1    0    0  501    0  0.00000000000E+00  0.00000000000E+00  0.16427989611E+04  0.16427989611E+04  0.25500000920E-02 0. -1.
       -2   -1    0    0    0  501  0.00000000000E+00  0.00000000000E+00 -0.17728500902E+04  0.17728500902E+04  0.25500000920E-02 0.  1.
    10030    2    1    2    0    0  0.00000000000E+00  0.00000000000E+00 -0.13005112906E+03  0.34156490513E+04  0.34131722994E+04 0.  0.
        1    1    3    3  502    0 -0.12964111082E+04 -0.65200747083E+03 -0.96380911881E+03  0.17420457862E+04  0.50400001928E-02 0.  1.
       -1    1    3    3    0  502  0.12964111082E+04  0.65200747083E+03  0.83375798974E+03  0.16736032651E+04  0.50400001928E-02 0. -1.
</event>
<event>
 5   0  0.1125196E-06  0.3457779E+04  0.7818609E-02  0.8123869E-01
        1   -1    0    0  501    0  0.00000000000E+00  0.00000000000E+00  0.10942632828E+04  0.10942632828E+04  0.50400001928E-02 0.  1.
       -1   -1    0    0    0  501  0.00000000000E+00  0.00000000000E+00 -0.27315712200E+04  0.27315712200E+04  0.50400001928E-02 0. -1.
    10030    2    1    2    0    0  0.00000000000E+00  0.00000000000E+00 -0.16373079372E+04  0.38258345028E+04  0.34577785298E+04 0.  0.
        4    1    3    3  502    0 -0.53025656651E+03  0.16371054479E+04 -0.10030359752E+04  0.19918255582E+04  0.12699999809E+01 0.  1.
       -4    1    3    3    0  502  0.53025656651E+03 -0.16371054479E+04 -0.63427196203E+03  0.18340089446E+04  0.12699999809E+01 0. -1.
</event>
<event>
 5   0  0.1089337E-06  0.3409085E+04  0.7818609E-02  0.8135680E-01
       -1   -1    0    0    0  501  0.00000000000E+00  0.00000000000E+00  0.24275935761E+04  0.24275935761E+04  0.50400001928E-02 0. -1.
        1   -1    0    0  501    0  0.00000000000E+00  0.00000000000E+00 -0.11968499125E+04  0.11968499125E+04  0.50400001928E-02 0.  1.
    10030    2    1    2    0    0  0.00000000000E+00  0.00000000000E+00  0.12307436636E+04  0.36244434887E+04  0.34090850146E+04 0.  0.
        2    1    3    3  502    0  0.47254912389E+03  0.16258359269E+04  0.40589721765E+03  0.17410909473E+04  0.25500000920E-02 0. -1.
       -2    1    3    3    0  502 -0.47254912389E+03 -0.16258359269E+04  0.82484644594E+03  0.18833525413E+04  0.25500000920E-02 0.  1.
</event>
<event>
 5   0  0.1782660E-06  0.3336103E+04  0.7818609E-02  0.8153769E-01
        2   -1    0    0  501    0  0.00000000000E+00  0.00000000000E+00  0.15515166992E+04  0.15515166992E+04  0.25500000920E-02 0.  1.
       -2   -1    0    0    0  501  0.00000000000E+00  0.00000000000E+00 -0.17933388593E+04  0.17933388593E+04  0.25500000920E-02 0. -1.
    10030    2    1    2    0    0  0.00000000000E+00  0.00000000000E+00 -0.24182216019E+03  0.33448555585E+04  0.33361026288E+04 0.  0.
        4    1    3    3  502    0  0.13290783294E+04  0.44655041075E+03  0.78508418256E+03  0.16069272733E+04  0.12699999809E+01 0. -1.
       -4    1    3    3    0  502 -0.13290783294E+04 -0.44655041075E+03 -0.10269063427E+04  0.17379282852E+04  0.12699999809E+01 0.  1.
</event>
<event>
 5   0  0.1102175E-06  0.1891952E+04  0.7818609E-02  0.8658873E-01
        1   -1    0    0  501    0  0.00000000000E+00  0.00000000000E+00  0.55338106310E+03  0.55338106313E+03  0.50400001928E-02 0. -1.
       -1   -1    0    0    0  501  0.00000000000E+00  0.00000000000E+00 -0.16170971993E+04  0.16170971993E+04  0.50400001928E-02 0.  1.
    10030    2    1    2    0    0  0.00000000000E+00  0.00000000000E+00 -0.10637161362E+04  0.21704782625E+04  0.18919523962E+04 0.  0.
        5    1    3    3  502    0  0.68443773944E+03  0.45581379960E+03 -0.10682691821E+04  0.13481255040E+04  0.46999998093E+01 0.  1.
       -5    1    3    3    0  502 -0.68443773944E+03 -0.45581379960E+03  0.45530459241E+01  0.82235275843E+03  0.46999998093E+01 0. -1.
</event>
<event>
 5   0  0.1125196E-06  0.3681021E+04  0.7818609E-02  0.8072181E-01
       -1   -1    0    0    0  501  0.00000000000E+00  0.00000000000E+00  0.19943180155E+04  0.19943180155E+04  0.50400001928E-02 0. -1.
        1   -1    0    0  501    0  0.00000000000E+00  0.00000000000E+00 -0.16985654994E+04  0.16985654994E+04  0.50400001928E-02 0.  1.
    10030    2    1    2    0    0  0.00000000000E+00  0.00000000000E+00  0.29575251608E+03  0.36928835148E+04  0.36810214755E+04 0.  0.
        4    1    3    3  502    0 -0.89644011514E+03 -0.11065338778E+04  0.13175906817E+04  0.19401208520E+04  0.12699999809E+01 0. -1.
       -4    1    3    3    0  502  0.89644011514E+03  0.11065338778E+04 -0.10218381657E+04  0.17527626629E+04  0.12699999809E+01 0.  1.
</event>
<event>
 5   0  0.1125196E-06  0.1926373E+04  0.7818609E-02  0.8641839E-01
       -1   -1    0    0    0  501  0.00000000000E+00  0.00000000000E+00  0.78324238985E+03  0.78324238987E+03  0.50400001928E-02 0. -1.
        1   -1    0    0  501    0  0.00000000000E+00  0.00000000000E+00 -0.11844709833E+04  0.11844709833E+04  0.50400001928E-02 0.  1.
    10030    2    1    2    0    0  0.00000000000E+00  0.00000000000E+00 -0.40122859349E+03  0.19677133732E+04  0.19263726366E+04 0.  0.
        4    1    3    3  502    0 -0.58926718440E+03  0.97986340225E+01 -0.97879984176E+03  0.11425334004E+04  0.12699999809E+01 0.  1.
       -4    1    3    3    0  502  0.58926718440E+03 -0.97986340225E+01  0.57757124827E+03  0.82517997284E+03  0.12699999809E+01 0. -1.
</event>
<event>
 5   0  0.3378848E-06  0.3614345E+04  0.7818609E-02  0.8087214E-01
        2   -1    0    0  501    0  0.00000000000E+00  0.00000000000E+00  0.17798434975E+04  0.17798434975E+04  0.25500000920E-02 0. -1.
       -2   -1    0    0    0  501  0.00000000000E+00  0.00000000000E+00 -0.18349212755E+04  0.18349212755E+04  0.25500000920E-02 0.  1.
    10030    2    1    2    0    0  0.00000000000E+00  0.00000000000E+00 -0.55077777998E+02  0.36147647730E+04  0.36143451416E+04 0.  0.
        1    1    3    3  502    0  0.13331157947E+04 -0.12063444910E+04  0.15526074292E+03  0.18045970884E+04  0.50400001928E-02 0. -1.
       -1    1    3    3    0  502 -0.13331157947E+04  0.12063444910E+04 -0.21033852092E+03  0.18101676846E+04  0.50400001928E-02 0.  1.
</event>
<event>
 5   0  0.2565004E-06  0.2582474E+04  0.7818609E-02  0.8374179E-01
        2   -1    0    0  501    0  0.00000000000E+00  0.00000000000E+00  0.18507461737E+04  0.18507461737E+04  0.25500000920E-02 0. -1.
       -2   -1    0    0    0  501  0.00000000000E+00  0.00000000000E+00 -0.90087578313E+03  0.90087578313E+03  0.25500000920E-02 0.  1.
    10030    2    1    2    0    0  0.00000000000E+00  0.00000000000E+00  0.94987039053E+03  0.27516219568E+04  0.25824735496E+04 0.  0.
        3    1    3    3  502    0  0.59879366758E+03 -0.39251244394E+03 -0.67000367552E+03  0.98057371492E+03  0.10100000352E+00 0.  1.
       -3    1    3    3    0  502 -0.59879366758E+03  0.39251244394E+03  0.16198740660E+04  0.17710482419E+04  0.10100000352E+00 0. -1.
</event>
<event>
 5   0  0.1102175E-06  0.2810067E+04  0.7818609E-02  0.8300150E-01
        1   -1    0    0  501    0  0.00000000000E+00  0.00000000000E+00  0.20455067455E+04  0.20455067455E+04  0.50400001928E-02 0.  1.
       -1   -1    0    0    0  501  0.00000000000E+00  0.00000000000E+00 -0.96510007772E+03  0.96510007773E+03  0.50400001928E-02 0. -1.
    10030    2    1    2    0    0  0.00000000000E+00  0.00000000000E+00  0.10804066677E+04  0.30106068232E+04  0.28100667032E+04 0.  0.
        5    1    3    3  502    0 -0.53395833823E+03  0.10794893787E+04  0.13155102218E+04  0.17835352700E+04  0.46999998093E+01 0.  1.
       -5    1    3    3    0  502  0.53395833823E+03 -0.10794893787E+04 -0.23510355402E+03  0.12270715532E+04  0.46999998093E+01 0. -1.
</event>
<event>
 5   0  0.3041329E-06  0.3560561E+04  0.7818609E-02  0.8099586E-01
        2   -1    0    0  501    0  0.00000000000E+00  0.00000000000E+00  0.16864381042E+04  0.16864381042E+04  0.25500000920E-02 0. -1.
       -2   -1    0    0    0  501  0.00000000000E+00  0.00000000000E+00 -0.18793443776E+04  0.18793443776E+04  0.25500000920E-02 0.  1.
    10030    2    1    2    0    0  0.00000000000E+00  0.00000000000E+00 -0.19290627346E+03  0.35657824818E+04  0.35605606127E+04 0.  0.
        2    1    3    3  502    0  0.12958496800E+04  0.11582147698E+04 -0.48264821098E+03  0.18037841173E+04  0.25500000920E-02 0. -1.
       -2    1    3    3    0  502 -0.12958496800E+04 -0.11582147698E+04  0.28974193752E+03  0.17619983645E+04  0.25500000920E-02 0.  1.
</event>
<event>
 5   0  0.3041329E-06  0.3480652E+04  0.7818609E-02  0.8118391E-01
        2   -1    0    0  501    0  0.00000000000E+00  0.00000000000E+00  0.20554834684E+04  0.20554834684E+04  0.25500000920E-02 0. -1.
       -2   -1    0    0    0  501  0.00000000000E+00  0.00000000000E+00 -0.14734901543E+04  0.14734901543E+04  0.25500000920E-02 0.  1.
    10030    2    1    2    0    0  0.00000000000E+00  0.00000000000E+00  0.58199331413E+03  0.35289736228E+04  0.34806520384E+04 0.  0.
        2    1    3    3  502    0 -0.17548138152E+03 -0.78182134952E+03 -0.12753445904E+04  0.15061680391E+04  0.25500000920E-02 0.  1.
       -2    1    3    3    0  502  0.17548138152E+03  0.78182134952E+03  0.18573379045E+04  0.20228055837E+04  0.25500000920E-02 0. -1.
</event>
<event>
 5   0  0.3378848E-06  0.3058955E+04  0.7818609E-02  0.8227093E-01
        2   -1    0    0  501    0  0.00000000000E+00  0.00000000000E+00  0.68733130803E+03  0.68733130804E+03  0.25500000920E-02 0. -1.
       -2   -1    0    0    0  501  0.00000000000E+00  0.00000000000E+00 -0.34034562557E+04  0.34034562557E+04  0.25500000920E-02 0.  1.
    10030    2    1    2    0    0  0.00000000000E+00  0.00000000000E+00 -0.27161249477E+04  0.40907875638E+04  0.30589554035E+04 0.  0.
        1    1    3    3  502    0  0.90109088016E+03 -0.58327836645E+03 -0.28151369591E+04  0.30128349648E+04  0.50400001928E-02 0.  1.
       -1    1    3    3    0  502 -0.90109088016E+03  0.58327836645E+03  0.99012011379E+02  0.10779525989E+04  0.50400001928E-02 0. -1.
</event>
<event>
 5   0  0.1908726E-06  0.3363869E+04  0.7818609E-02  0.8146831E-01
       -2   -1    0    0    0  501  0.00000000000E+00  0.00000000000E+00  0.18462278818E+04  0.18462278818E+04  0.25500000920E-02 0.  1.
        2   -1    0    0  501    0  0.00000000000E+00  0.00000000000E+00 -0.15322614973E+04  0.15322614973E+04  0.25500000920E-02 0. -1.
    10030    2    1    2    0    0  0.00000000000E+00  0.00000000000E+00  0.31396638447E+03  0.33784893792E+04  0.33638691405E+04 0.  0.
        5    1    3    3  502    0 -0.10679203274E+04 -0.21659151049E+03 -0.11298019527E+04  0.15696624639E+04  0.46999998093E+01 0. -1.
       -5    1    3    3    0  502  0.10679203274E+04  0.21659151049E+03  0.14437683372E+04  0.18088269153E+04  0.46999998093E+01 0.  1.
</event>
<event>
 5   0  0.1782660E-06  0.3593160E+04  0.7818609E-02  0.8092060E-01
       -2   -1    0    0    0  501  0.00000000000E+00  0.00000000000E+00  0.15163950600E+04  0.15163950600E+04  0.25500000920E-02 0.  1.
        2   -1    0    0  501    0  0.00000000000E+00  0.00000000000E+00 -0.21285351165E+04  0.21285351165E+04  0.25500000920E-02 0. -1.
    10030    2    1    2    0    0  0.00000000000E+00  0.00000000000E+00 -0.61214005646E+03  0.36449301765E+04  0.35931602446E+04 0.  0.
        4    1    3    3  502    0 -0.39614833743E+03  0.12126739051E+04 -0.15892808060E+04  0.20379711967E+04  0.12699999809E+01 0. -1.
       -4    1    3    3    0  502  0.39614833743E+03 -0.12126739051E+04  0.97714074957E+03  0.16069589798E+04  0.12699999809E+01 0.  1.
</event>
<event>
 5   0  0.1125196E-06  0.2188629E+04  0.7818609E-02  0.8523176E-01
       -1   -1    0    0    0  501  0.00000000000E+00  0.00000000000E+00  0.57649870014E+03  0.57649870016E+03  0.50400001928E-02 0.  1.
        1   -1    0    0  501    0  0.00000000000E+00  0.00000000000E+00 -0.20772365485E+04  0.20772365485E+04  0.50400001928E-02 0. -1.
    10030    2    1    2    0    0  0.00000000000E+00  0.00000000000E+00 -0.15007378484E+04  0.26537352487E+04  0.21886289499E+04 0.  0.
        4    1    3    3  502    0 -0.24619317946E+03 -0.47160419559E+03  0.40914918561E+03  0.67113803937E+03  0.12699999809E+01 0.  1.
       -4    1    3    3    0  502  0.24619317946E+03  0.47160419559E+03 -0.19098870340E+04  0.19825972093E+04  0.12699999809E+01 0. -1.
</event>
<event>
 5   0  0.1125196E-06  0.3454390E+04  0.7818609E-02  0.8124685E-01
        1   -1    0    0  501    0  0.00000000000E+00  0.00000000000E+00  0.18695945756E+04  0.18695945756E+04  0.50400001928E-02 0.  1.
       -1   -1    0    0    0  501  0.00000000000E+00  0.00000000000E+00 -0.15956415105E+04  0.15956415105E+04  0.50400001928E-02 0. -1.
    10030    2    1    2    0    0  0.00000000000E+00  0.00000000000E+00  0.27395306519E+03  0.34652360861E+04  0.34543900837E+04 0.  0.
        4    1    3    3  502    0  0.39191818726E+03  0.55246468305E+02 -0.15495365489E+04  0.15992864556E+04  0.12699999809E+01 0. -1.
       -4    1    3    3    0  502 -0.39191818726E+03 -0.55246468305E+02  0.18234896141E+04  0.18659496305E+04  0.12699999809E+01 0.  1.
</event>
<event>
 5   0  0.1908726E-06  0.3368801E+04  0.7818609E-02  0.8145606E-01
       -2   -1    0    0    0  501  0.00000000000E+00  0.00000000000E+00  0.17369490555E+04  0.17369490555E+04  0.25500000920E-02 0.  1.
        2   -1    0    0  501    0  0.00000000000E+00  0.00000000000E+00 -0.16334419846E+04  0.16334419846E+04  0.25500000920E-02 0. -1.
    10030    2    1    2    0    0  0.00000000000E+00  0.00000000000E+00  0.10350707097E+03  0.33703910401E+04  0.33688012778E+04 0.  0.
        5    1    3    3  502    0  0.59504970675E+02  0.11999402835E+04  0.12328977617E+04  0.17214692870E+04  0.46999998093E+01 0.  1.
       -5    1    3    3    0  502 -0.59504970675E+02 -0.11999402835E+04 -0.11293906907E+04  0.16489217531E+04  0.46999998093E+01 0. -1.
</event>
<event>
 5   0  0.1782660E-06  0.3529298E+04  0.7818609E-02  0.8106882E-01
       -2   -1    0    0    0  501  0.00000000000E+00  0.00000000000E+00  0.13399512221E+04  0.13399512221E+04  0.25500000920E-02 0. -1.
        2   -1    0    0  501    0  0.00000000000E+00  0.00000000000E+00 -0.23239548676E+04  0.23239548676E+04  0.25500000920E-02 0.  1.
    10030    2    1    2    0    0  0.00000000000E+00  0.00000000000E+00 -0.98400364550E+03  0.36639060898E+04  0.35292980407E+04 0.  0.
        4    1    3    3  502    0 -0.35327594679E+03  0.66181837621E+03  0.11661576722E+04  0.13866264050E+04  0.12699999809E+01 0. -1.
       -4    1    3    3    0  502  0.35327594679E+03 -0.66181837621E+03 -0.21501613177E+04  0.22772796848E+04  0.12699999809E+01 0.  1.
</event>
<event>
 5   0  0.1125196E-06  0.3460237E+04  0.7818609E-02  0.8123279E-01
       -1   -1    0    0    0  501  0.00000000000E+00  0.00000000000E+00  0.14558474533E+04  0.14558474533E+04  0.50400001928E-02 0. -1.
        1   -1    0    0  501    0  0.00000000000E+00  0.00000000000E+00 -0.20560597296E+04  0.20560597296E+04  0.50400001928E-02 0.  1.
    10030    2    1    2    0    0  0.00000000000E+00  0.00000000000E+00 -0.60021227627E+03  0.35119071830E+04  0.34602365938E+04 0.  0.
        4    1    3    3  502    0 -0.17529189248E+03  0.60990193980E+03  0.13334626325E+04  0.14767639719E+04  0.12699999809E+01 0. -1.
       -4    1    3    3    0  502  0.17529189248E+03 -0.60990193980E+03 -0.19336749087E+04  0.20351432110E+04  0.12699999809E+01 0.  1.
</event>
<event>
 5   0  0.2565004E-06  0.3523856E+04  0.7818609E-02  0.8108160E-01
        2   -1    0    0  501    0  0.00000000000E+00  0.00000000000E+00  0.24938641105E+04  0.24938641105E+04  0.25500000920E-02 0.  1.
       -2   -1    0    0    0  501  0.00000000000E+00  0.00000000000E+00 -0.12448114476E+04  0.12448114476E+04  0.25500000920E-02 0. -1.
    10030    2    1    2    0    0  0.00000000000E+00  0.00000000000E+00  0.12490526630E+04  0.37386755581E+04  0.35238561795E+04 0.  0.
        3    1    3    3  502    0  0.10553068149E+04  0.58418955166E+03 -0.73807231754E+03  0.14141077264E+04  0.10100000352E+00 0. -1.
       -3    1    3    3    0  502 -0.10553068149E+04 -0.58418955166E+03  0.19871249805E+04  0.23245678317E+04  0.10100000352E+00 0.  1.
</event>
<event>
 5   0  0.1125196E-06  0.3219315E+04  0.7818609E-02  0.8183735E-01
       -1   -1    0    0    0  501  0.00000000000E+00  0.00000000000E+00  0.13119141048E+04  0.13119141048E+04  0.50400001928E-02 0. -1.
        1   -1    0    0  501    0  0.00000000000E+00  0.00000000000E+00 -0.19749747992E+04  0.19749747992E+04  0.50400001928E-02 0.  1.
    10030    2    1    2    0    0  0.00000000000E+00  0.00000000000E+00 -0.66306069437E+03  0.32868889040E+04  0.32193150176E+04 0.  0.
        4    1    3    3  502    0  0.27355093700E+03  0.11190515289E+03 -0.19470332168E+04  0.19693381727E+04  0.12699999809E+01 0.  1.
       -4    1    3    3    0  502 -0.27355093700E+03 -0.11190515289E+03  0.12839725224E+04  0.13175507313E+04  0.12699999809E+01 0. -1.
</event>
<event>
 5   0  0.1782660E-06  0.3223092E+04  0.7818609E-02  0.8182745E-01
        2   -1    0    0  501    0  0.00000000000E+00  0.00000000000E+00  0.13574465733E+04  0.13574465733E+04  0.25500000920E-02 0. -1.
       -2   -1    0    0    0  501  0.00000000000E+00  0.00000000000E+00 -0.19132106411E+04  0.19132106411E+04  0.25500000920E-02 0.  1.
    10030    2    1    2    0    0  0.00000000000E+00  0.00000000000E+00 -0.55576406779E+03  0.32706572144E+04  0.32230924459E+04 0.  0.
        4    1    3    3  502    0 -0.14756741795E+04  0.17403802796E+03 -0.91092814668E+03  0.17428985112E+04  0.12699999809E+01 0.  1.
       -4    1    3    3    0  502  0.14756741795E+04 -0.17403802796E+03  0.35516407889E+03  0.15277587031E+04  0.12699999809E+01 0. -1.
</event>
<event>
 5   0  0.1102175E-06  0.3656493E+04  0.7818609E-02  0.8077673E-01
       -1   -1    0    0    0  501  0.00000000000E+00  0.00000000000E+00  0.24260753231E+04  0.24260753231E+04  0.50400001928E-02 0.  1.
        1   -1    0    0  501    0  0.00000000000E+00  0.00000000000E+00 -0.13777333218E+04  0.13777333218E+04  0.50400001928E-02 0. -1.
    10030    2    1    2    0    0  0.00000000000E+00  0.00000000000E+00  0.10483420013E+04  0.38038086450E+04  0.36564927534E+04 0.  0.
        5    1    3    3  502    0 -0.12019787889E+03 -0.36942579271E+03  0.23826346669E+04  0.24141029374E+04  0.46999998093E+01 0.  1.
       -5    1    3    3    0  502  0.12019787889E+03  0.36942579271E+03 -0.13342926656E+04  0.13897057076E+04  0.46999998093E+01 0. -1.
</event>
<event>
 5   0  0.1125196E-06  0.3460352E+04  0.7818609E-02  0.8123251E-01
       -1   -1    0    0    0  501  0.00000000000E+00  0.00000000000E+00  0.13672454395E+04  0.13672454395E+04  0.50400001928E-02 0. -1.
        1   -1    0    0  501    0  0.00000000000E+00  0.00000000000E+00 -0.21894454241E+04  0.21894454241E+04  0.50400001928E-02 0.  1.
    10030    2    1    2    0    0  0.00000000000E+00  0.00000000000E+00 -0.82219998461E+03  0.35566908636E+04  0.34603521619E+04 0.  0.
        4    1    3    3  502    0 -0.61731511482E+03  0.15705263444E+04 -0.80367152017E+03  0.18690961652E+04  0.12699999809E+01 0. -1.
       -4    1    3    3    0  502  0.61731511482E+03 -0.15705263444E+04 -0.18528464443E+02  0.16875946985E+04  0.12699999809E+01 0.  1.
</event>
<event>
 5   0  0.3092926E-06  0.1756779E+04  0.7818609E-02  0.8729628E-01
       -2   -1    0    0    0  501  0.00000000000E+00  0.00000000000E+00  0.49813157796E+03  0.49813157796E+03  0.25500000920E-02 0. -1.
        2   -1    0    0  501    0  0.00000000000E+00  0.00000000000E+00 -0.15489238273E+04  0.15489238273E+04  0.25500000920E-02 0.  1.
    10030    2    1    2    0    0  0.00000000000E+00  0.00000000000E+00 -0.10507922493E+04  0.20470554052E+04  0.17567787228E+04 0.  0.
        3    1    3    3  502    0 -0.80018403414E+03  0.10733589066E+03 -0.12216447939E+03  0.81654127399E+03  0.10100000352E+00 0. -1.
       -3    1    3    3    0  502  0.80018403414E+03 -0.10733589066E+03 -0.92862776993E+03  0.12305141312E+04  0.10100000352E+00 0.  1.
</event>
<event>
 5   0  0.1102175E-06  0.2135267E+04  0.7818609E-02  0.8545865E-01
        1   -1    0    0  501    0  0.00000000000E+00  0.00000000000E+00  0.29140566325E+04  0.29140566325E+04  0.50400001928E-02 0.  1.
       -1   -1    0    0    0  501  0.00000000000E+00  0.00000000000E+00 -0.39115260915E+03  0.39115260918E+03  0.50400001928E-02 0. -1.
    10030    2    1    2    0    0  0.00000000000E+00  0.00000000000E+00  0.25229040233E+04  0.33052092417E+04  0.21352665923E+04 0.  0.
        5    1    3    3  502    0  0.78953724638E+03 -0.24344446479E+03  0.21482340838E+03  0.85370103528E+03  0.46999998093E+01 0. -1.
       -5    1    3    3    0  502 -0.78953724638E+03  0.24344446479E+03  0.23080806149E+04  0.24515082064E+04  0.46999998093E+01 0.  1.
</event>
<event>
 5   0  0.3378848E-06  0.3325537E+04  0.7818609E-02  0.8156428E-01
        2   -1    0    0  501    0  0.00000000000E+00  0.00000000000E+00  0.17795828089E+04  0.17795828089E+04  0.25500000920E-02 0. -1.
       -2   -1    0    0    0  501  0.00000000000E+00  0.00000000000E+00 -0.15536220414E+04  0.15536220414E+04  0.25500000920E-02 0.  1.
    10030    2    1    2    0    0  0.00000000000E+00  0.00000000000E+00  0.22596076746E+03  0.33332048503E+04  0.33255369950E+04 0.  0.
        1    1    3    3  502    0  0.80190320788E+03 -0.49594392437E+02  0.15721154330E+04  0.17655184205E+04  0.50400001928E-02 0. -1.
       -1    1    3    3    0  502 -0.80190320788E+03  0.49594392437E+02 -0.13461546655E+04  0.15676864298E+04  0.50400001928E-02 0.  1.
</event>
<event>
 5   0  0.1130707E-06  0.3340174E+04  0.7818609E-02  0.8152748E-01
        1   -1    0    0  501    0  0.00000000000E+00  0.00000000000E+00  0.24266696107E+04  0.24266696107E+04  0.50400001928E-02 0. -1.
       -1   -1    0    0    0  501  0.00000000000E+00  0.00000000000E+00 -0.11493904143E+04  0.11493904143E+04  0.50400001928E-02 0.  1.
    10030    2    1    2    0    0  0.00000000000E+00  0.00000000000E+00  0.12772791964E+04  0.35760600251E+04  0.33401741208E+04 0.  0.
        3    1    3    3  502    0  0.87514541705E+03 -0.48902415593E+03 -0.79141757925E+03  0.12772493574E+04  0.10100000352E+00 0.  1.
       -3    1    3    3    0  502 -0.87514541705E+03  0.48902415593E+03  0.20686967756E+04  0.22988106677E+04  0.10100000352E+00 0. -1.
</event>
<event>
 5   0  0.1102175E-06  0.3426200E+04  0.7818609E-02  0.8131506E-01
       -1   -1    0    0    0  501  0.00000000000E+00  0.00000000000E+00  0.22008864862E+04  0.22008864862E+04  0.50400001928E-02 0. -1.
        1   -1    0    0  501    0  0.00000000000E+00  0.00000000000E+00 -0.13334223371E+04  0.13334223371E+04  0.50400001928E-02 0.  1.
    10030    2    1    2    0    0  0.00000000000E+00  0.00000000000E+00  0.86746414908E+03  0.35343088233E+04  0.34261997619E+04 0.  0.
        5    1    3    3  502    0  0.15695681339E+04 -0.66634921418E+03  0.60362150516E+03  0.18088522365E+04  0.46999998093E+01 0. -1.
       -5    1    3    3    0  502 -0.15695681339E+04  0.66634921418E+03  0.26384264392E+03  0.17254565868E+04  0.46999998093E+01 0.  1.
</event>
<event>
 5   0  0.2565004E-06  0.3471824E+04  0.7818609E-02  0.8120500E-01
        2   -1    0    0  501    0  0.00000000000E+00  0.00000000000E+00  0.16535624442E+04  0.16535624442E+04  0.25500000920E-02 0. -1.
       -2   -1    0    0    0  501  0.00000000000E+00  0.00000000000E+00 -0.18223621608E+04  0.18223621608E+04  0.25500000920E-02 0.  1.
    10030    2    1    2    0    0  0.00000000000E+00  0.00000000000E+00 -0.16879971667E+03  0.34759246050E+04  0.34718235144E+04 0.  0.
        3    1    3    3  502    0  0.14168893971E+04 -0.92299893470E+03 -0.47714760710E+03  0.17570351295E+04  0.10100000352E+00 0.  1.
       -3    1    3    3    0  502 -0.14168893971E+04  0.92299893470E+03  0.30834789043E+03  0.17188894755E+04  0.10100000352E+00 0. -1.
</event>
<event>
 5   0  0.1089337E-06  0.1936061E+04  0.7818609E-02  0.8637112E-01
        1   -1    0    0  501    0  0.00000000000E+00  0.00000000000E+00  0.14791077884E+04  0.14791077885E+04  0.50400001928E-02 0. -1.
       -1   -1    0    0    0  501  0.00000000000E+00  0.00000000000E+00 -0.63354600547E+03  0.63354600549E+03  0.50400001928E-02 0.  1.
    10030    2    1    2    0    0  0.00000000000E+00  0.00000000000E+00  0.84556178297E+03  0.21126537939E+04  0.19360607749E+04 0.  0.
        2    1    3    3  502    0 -0.61817805715E+03  0.66939434507E+03  0.66086343051E+02  0.91356461419E+03  0.25500000920E-02 0.  1.
       -2    1    3    3    0  502  0.61817805715E+03 -0.66939434507E+03  0.77947543992E+03  0.11990891798E+04  0.25500000920E-02 0. -1.
</event>
<event>
 5   0  0.1089337E-06  0.3569367E+04  0.7818609E-02  0.8097545E-01
        1   -1    0    0  501    0  0.00000000000E+00  0.00000000000E+00  0.23207327731E+04  0.23207327731E+04  0.50400001928E-02 0.  1.
       -1   -1    0    0    0  501  0.00000000000E+00  0.00000000000E+00 -0.13724525958E+04  0.13724525958E+04  0.50400001928E-02 0. -1.
    10030    2    1    2    0    0  0.00000000000E+00  0.00000000000E+00  0.94828017729E+03  0.36931853689E+04  0.35693672933E+04 0.  0.
        2    1    3    3  502    0 -0.12518230574E+04 -0.36236473113E+03 -0.78747076216E+03  0.15226553670E+04  0.25500000920E-02 0. -1.
       -2    1    3    3    0  502  0.12518230574E+04  0.36236473113E+03  0.17357509394E+04  0.21705300019E+04  0.25500000920E-02 0.  1.
</event>
<event>
 5   0  0.1089337E-06  0.2206027E+04  0.7818609E-02  0.8515924E-01
        1   -1    0    0  501    0  0.00000000000E+00  0.00000000000E+00  0.16468127437E+04  0.16468127437E+04  0.50400001928E-02 0.  1.
       -1   -1    0    0    0  501  0.00000000000E+00  0.00000000000E+00 -0.73878395273E+03  0.73878395275E+03  0.50400001928E-02 0. -1.
    10030    2    1    2    0    0  0.00000000000E+00  0.00000000000E+00  0.90802879098E+03  0.23855966965E+04  0.22060270427E+04 0.  0.
        2    1    3    3  502    0 -0.59233653505E+03  0.28605981131E+03 -0.50346465094E+03  0.82835345182E+03  0.25500000920E-02 0. -1.
       -2    1    3    3    0  502  0.59233653505E+03 -0.28605981131E+03  0.14114934419E+04  0.15572432446E+04  0.25500000920E-02 0.  1.
</event>
<event>
 5   0  0.1130707E-06  0.3372746E+04  0.7818609E-02  0.8144628E-01
        1   -1    0    0  501    0  0.00000000000E+00  0.00000000000E+00  0.21654583340E+04  0.21654583340E+04  0.50400001928E-02 0.  1.
       -1   -1    0    0    0  501  0.00000000000E+00  0.00000000000E+00 -0.13132801416E+04  0.13132801416E+04  0.50400001928E-02 0. -1.
    10030    2    1    2    0    0  0.00000000000E+00  0.00000000000E+00  0.85217819239E+03  0.34787384756E+04  0.33727457227E+04 0.  0.
        3    1    3    3  502    0 -0.37215201413E+03  0.12161523642E+03 -0.12657537048E+04  0.13249225785E+04  0.10100000352E+00 0. -1.
       -3    1    3    3    0  502  0.37215201413E+03 -0.12161523642E+03  0.21179318972E+04  0.21538158972E+04  0.10100000352E+00 0.  1.
</event>
<event>
 5   0  0.1110956E-06  0.3551304E+04  0.7818609E-02  0.8101738E-01
        1   -1    0    0  501    0  0.00000000000E+00  0.00000000000E+00  0.22622162896E+04  0.22622162897E+04  0.50400001928E-02 0.  1.
       -1   -1    0    0    0  501  0.00000000000E+00  0.00000000000E+00 -0.13937391984E+04  0.13937391985E+04  0.50400001928E-02 0. -1.
    10030    2    1    2    0    0  0.00000000000E+00  0.00000000000E+00  0.86847709120E+03  0.36559554881E+04  0.35513037146E+04 0.  0.
        1    1    3    3  502    0 -0.61130999959E+03  0.56840702349E+03  0.20476338823E+04  0.22112419532E+04  0.50400001928E-02 0.  1.
       -1    1    3    3    0  502  0.61130999959E+03 -0.56840702349E+03 -0.11791567910E+04  0.14447135349E+04  0.50400001928E-02 0. -1.
</event>
<event>
 5   0  0.1908726E-06  0.3504868E+04  0.7818609E-02  0.8112637E-01
       -2   -1    0    0    0  501  0.00000000000E+00  0.00000000000E+00  0.10919149687E+04  0.10919149687E+04  0.25500000920E-02 0. -1.
        2   -1    0    0  501    0  0.00000000000E+00  0.00000000000E+00 -0.28125134288E+04  0.28125134288E+04  0.25500000920E-02 0.  1.
    10030    2    1    2    0    0  0.00000000000E+00  0.00000000000E+00 -0.17205984601E+04  0.39044283975E+04  0.35048683356E+04 0.  0.
        5    1    3    3  502    0 -0.14437724629E+04  0.72509554524E+03 -0.16164764442E+04  0.22854453962E+04  0.46999998093E+01 0.  1.
       -5    1    3    3    0  502  0.14437724629E+04 -0.72509554524E+03 -0.10412201591E+03  0.16189830013E+04  0.46999998093E+01 0. -1.
</event>
<event>
 5   0  0.1908726E-06  0.3470543E+04  0.7818609E-02  0.8120807E-01
        2   -1    0    0  501    0  0.00000000000E+00  0.00000000000E+00  0.10208895179E+04  0.10208895179E+04  0.25500000920E-02 0.  1.
       -2   -1    0    0    0  501  0.00000000000E+00  0.00000000000E+00 -0.29495527525E+04  0.29495527525E+04  0.25500000920E-02 0. -1.
    10030    2    1    2    0    0  0.00000000000E+00  0.00000000000E+00 -0.19286632347E+04  0.39704422704E+04  0.34705431779E+04 0.  0.
        5    1    3    3  502    0 -0.11675701286E+04  0.67867298004E+03 -0.22109308577E+04  0.25907632787E+04  0.46999998093E+01 0. -1.
       -5    1    3    3    0  502  0.11675701286E+04 -0.67867298004E+03  0.28226762302E+03  0.13796789916E+04  0.46999998093E+01 0.  1.
</event>
<event>
 5   0  0.3041329E-06  0.3469513E+04  0.7818609E-02  0.8121053E-01
       -2   -1    0    0    0  501  0.00000000000E+00  0.00000000000E+00  0.11073505531E+04  0.11073505531E+04  0.25500000920E-02 0.  1.
        2   -1    0    0  501    0  0.00000000000E+00  0.00000000000E+00 -0.27176399388E+04  0.27176399388E+04  0.25500000920E-02 0. -1.
    10030    2    1    2    0    0  0.00000000000E+00  0.00000000000E+00 -0.16102893858E+04  0.38249904919E+04  0.34695129856E+04 0.  0.
        2    1    3    3  502    0  0.12946057024E+04  0.11521647948E+04 -0.88977185949E+03  0.19481225837E+04  0.25500000920E-02 0. -1.
       -2    1    3    3    0  502 -0.12946057024E+04 -0.11521647948E+04 -0.72051752630E+03  0.18768679082E+04  0.25500000920E-02 0.  1.
</event>
<event>
 5   0  0.1110956E-06  0.3225431E+04  0.7818609E-02  0.8182133E-01
       -1   -1    0    0    0  501  0.00000000000E+00  0.00000000000E+00  0.16448267010E+04  0.16448267010E+04  0.50400001928E-02 0. -1.
        1   -1    0    0  501    0  0.00000000000E+00  0.00000000000E+00 -0.15812309663E+04  0.15812309663E+04  0.50400001928E-02 0.  1.
    10030    2    1    2    0    0  0.00000000000E+00  0.00000000000E+00  0.63595734735E+02  0.32260576673E+04  0.32254307705E+04 0.  0.
        1    1    3    3  502    0 -0.11273166376E+04  0.67664081329E+03 -0.90228156405E+03  0.15946151926E+04  0.50400001928E-02 0.  1.
       -1    1    3    3    0  502  0.11273166376E+04 -0.67664081329E+03  0.96587729879E+03  0.16314424746E+04  0.50400001928E-02 0. -1.
</event>
<event>
 5   0  0.1125196E-06  0.3080973E+04  0.7818609E-02  0.8220979E-01
       -1   -1    0    0    0  501  0.00000000000E+00  0.00000000000E+00  0.12240813805E+04  0.12240813805E+04  0.50400001928E-02 0. -1.
        1   -1    0    0  501    0  0.00000000000E+00  0.00000000000E+00 -0.19386777839E+04  0.19386777839E+04  0.50400001928E-02 0.  1.
    10030    2    1    2    0    0  0.00000000000E+00  0.00000000000E+00 -0.71459640346E+03  0.31627591644E+04  0.30809734683E+04 0.  0.
        4    1    3    3  502    0  0.67447653145E+03  0.13474621490E+04 -0.28603346282E+02  0.15071139966E+04  0.12699999809E+01 0. -1.
       -4    1    3    3    0  502 -0.67447653145E+03 -0.13474621490E+04 -0.68599305718E+03  0.16556451678E+04  0.12699999809E+01 0.  1.
</event>
<event>
 5   0  0.3041329E-06  0.2392928E+04  0.7818609E-02  0.8442156E-01
        2   -1    0    0  501    0  0.00000000000E+00  0.00000000000E+00  0.27301902008E+04  0.27301902008E+04  0.25500000920E-02 0.  1.
       -2   -1    0    0    0  501  0.00000000000E+00  0.00000000000E+00 -0.52433216848E+03  0.52433216848E+03  0.25500000920E-02 0. -1.
    10030    2    1    2    0    0  0.00000000000E+00  0.00000000000E+00  0.22058580323E+04  0.32545223693E+04  0.23929283720E+04 0.  0.
        2    1    3    3  502    0 -0.39831551024E+03 -0.11200261130E+04  0.91837751421E+03  0.15021754219E+04  0.25500000920E-02 0. -1.
       -2    1    3    3    0  502  0.39831551024E+03  0.11200261130E+04  0.12874805181E+04  0.17523469474E+04  0.25500000920E-02 0.  1.
</event>
<event>
 5   0  0.1908726E-06  0.3497752E+04  0.7818609E-02  0.8114323E-01
        2   -1    0    0  501    0  0.00000000000E+00  0.00000000000E+00  0.15389166678E+04  0.15389166678E+04  0.25500000920E-02 0. -1.
       -2   -1    0    0    0  501  0.00000000000E+00  0.00000000000E+00 -0.19874803537E+04  0.19874803537E+04  0.25500000920E-02 0.  1.
    10030    2    1    2    0    0  0.00000000000E+00  0.00000000000E+00 -0.44856368593E+03  0.35263970215E+04  0.34977516454E+04 0.  0.
        5    1    3    3  502    0 -0.13567544070E+04  0.70003753309E+03 -0.10843269988E+04  0.18725977142E+04  0.46999998093E+01 0.  1.
       -5    1    3    3    0  502  0.13567544070E+04 -0.70003753309E+03  0.63576331290E+03  0.16537993073E+04  0.46999998093E+01 0. -1.
</event>
<event>
 5   0  0.1110956E-06  0.3472326E+04  0.7818609E-02  0.8120380E-01
       -1   -1    0    0    0  501  0.00000000000E+00  0.00000000000E+00  0.18306653941E+04  0.18306653941E+04  0.50400001928E-02 0. -1.
        1   -1    0    0  501    0  0.00000000000E+00  0.00000000000E+00 -0.16465391674E+04  0.16465391674E+04  0.50400001928E-02 0.  1.
    10030    2    1    2    0    0  0.00000000000E+00  0.00000000000E+00  0.18412622675E+03  0.34772045615E+04  0.34723261793E+04 0.  0.
        1    1    3    3  502    0 -0.91205084987E+03  0.60474624123E+03  0.14418096791E+04  0.18100745620E+04  0.50400001928E-02 0. -1.
       -1    1    3    3    0  502  0.91205084987E+03 -0.60474624123E+03 -0.12576834524E+04  0.16671299996E+04  0.50400001928E-02 0.  1.
</event>
<event>
 5   0  0.1782660E-06  0.3381248E+04  0.7818609E-02  0.8142524E-01
        2   -1    0    0  501    0  0.00000000000E+00  0.00000000000E+00  0.15627068246E+04  0.15627068246E+04  0.25500000920E-02 0. -1.
       -2   -1    0    0    0  501  0.00000000000E+00  0.00000000000E+00 -0.18290117698E+04  0.18290117698E+04  0.25500000920E-02 0.  1.
    10030    2    1    2    0    0  0.00000000000E+00  0.00000000000E+00 -0.26630494521E+03  0.33917185944E+04  0.33812478021E+04 0.  0.
        4    1    3    3  502    0  0.87083728876E+03  0.13760748593E+04  0.32242128442E+03  0.16600893649E+04  0.12699999809E+01 0.  1.
       -4    1    3    3    0  502 -0.87083728876E+03 -0.13760748593E+04 -0.58872622963E+03  0.17316292295E+04  0.12699999809E+01 0. -1.
</event>
<event>
 5   0  0.3041329E-06  0.3513841E+04  0.7818609E-02  0.8110518E-01
       -2   -1    0    0    0  501  0.00000000000E+00  0.00000000000E+00  0.28186669762E+04  0.28186669762E+04  0.25500000920E-02 0.  1.
        2   -1    0    0  501    0  0.00000000000E+00  0.00000000000E+00 -0.10951168145E+04  0.10951168145E+04  0.25500000920E-02 0. -1.
    10030    2    1    2    0    0  0.00000000000E+00  0.00000000000E+00  0.17235501617E+04  0.39137837907E+04  0.35138409754E+04 0.  0.
        2    1    3    3  502    0 -0.65605902963E+03 -0.10566712551E+04  0.22438995895E+04  0.25655511999E+04  0.25500000920E-02 0.  1.
       -2    1    3    3    0  502  0.65605902963E+03  0.10566712551E+04 -0.52034942782E+03  0.13482325908E+04  0.25500000920E-02 0. -1.
</event>
<event>
 5   0  0.1782660E-06  0.3529661E+04  0.7818609E-02  0.8106796E-01
        2   -1    0    0  501    0  0.00000000000E+00  0.00000000000E+00  0.11728143375E+04  0.11728143375E+04  0.25500000920E-02 0.  1.
       -2   -1    0    0    0  501  0.00000000000E+00  0.00000000000E+00 -0.26556861196E+04  0.26556861196E+04  0.25500000920E-02 0. -1.
    10030    2    1    2    0    0  0.00000000000E+00  0.00000000000E+00 -0.14828717821E+04  0.38285004571E+04  0.35296610359E+04 0.  0.
        4    1    3    3  502    0  0.11202295397E+04 -0.12916720364E+04 -0.12158380824E+04  0.20979977900E+04  0.12699999809E+01 0. -1.
       -4    1    3    3    0  502 -0.11202295397E+04  0.12916720364E+04 -0.26703369966E+03  0.17305026671E+04  0.12699999809E+01 0.  1.
</event>
<event>
 5   0  0.2565004E-06  0.3510344E+04  0.7818609E-02  0.8111343E-01
        2   -1    0    0  501    0  0.00000000000E+00  0.00000000000E+00  0.24617897230E+04  0.24617897230E+04  0.25500000920E-02 0. -1.
       -2   -1    0    0    0  501  0.00000000000E+00  0.00000000000E+00 -0.12513779095E+04  0.12513779095E+04  0.25500000920E-02 0.  1.
    10030    2    1    2    0    0  0.00000000000E+00  0.00000000000E+00  0.12104118135E+04  0.37131676324E+04  0.35103443005E+04 0.  0.
        3    1    3    3  502    0  0.12872879684E+03  0.43096318777E+03  0.23997951071E+04  0.24415808278E+04  0.10100000352E+00 0. -1.
       -3    1    3    3    0  502 -0.12872879684E+03 -0.43096318777E+03 -0.11893832936E+04  0.12715868046E+04  0.10100000352E+00 0.  1.
</event>
<event>
 5   0  0.1782660E-06  0.3424220E+04  0.7818609E-02  0.8131988E-01
        2   -1    0    0  501    0  0.00000000000E+00  0.00000000000E+00  0.18151861194E+04  0.18151861194E+04  0.25500000920E-02 0. -1.
       -2   -1    0    0    0  501  0.00000000000E+00  0.00000000000E+00 -0.16148866577E+04  0.16148866577E+04  0.25500000920E-02 0.  1.
    10030    2    1    2    0    0  0.00000000000E+00  0.00000000000E+00  0.20029946172E+03  0.34300727771E+04  0.34242195289E+04 0.  0.
        4    1    3    3  502    0  0.36475434517E+03  0.53558156179E+03 -0.14873067641E+04  0.16223366990E+04  0.12699999809E+01 0.  1.
       -4    1    3    3    0  502 -0.36475434517E+03 -0.53558156179E+03  0.16876062258E+04  0.18077360781E+04  0.12699999809E+01 0. -1.
</event>
<event>
 5   0  0.1782660E-06  0.2133553E+04  0.7818609E-02  0.8546606E-01
       -2   -1    0    0    0  501  0.00000000000E+00  0.00000000000E+00  0.99025764935E+03  0.99025764935E+03  0.25500000920E-02 0.  1.
        2   -1    0    0  501    0  0.00000000000E+00  0.00000000000E+00 -0.11492075603E+04  0.11492075603E+04  0.25500000920E-02 0. -1.
    10030    2    1    2    0    0  0.00000000000E+00  0.00000000000E+00 -0.15894991099E+03  0.21394652097E+04  0.21335525092E+04 0.  0.
        4    1    3    3  502    0  0.62715668865E+03 -0.34655433417E+03 -0.87197174226E+03  0.11286105399E+04  0.12699999809E+01 0. -1.
       -4    1    3    3    0  502 -0.62715668865E+03  0.34655433417E+03  0.71302183126E+03  0.10108546698E+04  0.12699999809E+01 0.  1.
</event>
<event>
 5   0  0.1908726E-06  0.2425089E+04  0.7818609E-02  0.8430170E-01
        2   -1    0    0  501    0  0.00000000000E+00  0.00000000000E+00  0.30734511102E+04  0.30734511102E+04  0.25500000920E-02 0. -1.
       -2   -1    0    0    0  501  0.00000000000E+00  0.00000000000E+00 -0.47837562016E+03  0.47837562017E+03  0.25500000920E-02 0.  1.
    10030    2    1    2    0    0  0.00000000000E+00  0.00000000000E+00  0.25950754901E+04  0.35518267304E+04  0.24250889311E+04 0.  0.
        5    1    3    3  502    0  0.41021831262E+02 -0.43140664000E+03 -0.36107081151E+03  0.56408217539E+03  0.46999998093E+01 0.  1.
       -5    1    3    3    0  502 -0.41021831262E+02  0.43140664000E+03  0.29561463016E+04  0.29877445550E+04  0.46999998093E+01 0. -1.
</event>
<event>
 5   0  0.3041329E-06  0.2329398E+04  0.7818609E-02  0.8466419E-01
       -2   -1    0    0    0  501  0.00000000000E+00  0.00000000000E+00  0.11310370529E+04  0.11310370529E+04  0.25500000920E-02 0.  1.
        2   -1    0    0  501    0  0.00000000000E+00  0.00000000000E+00 -0.11993627447E+04  0.11993627447E+04  0.25500000920E-02 0. -1.
    10030    2    1    2    0    0  0.00000000000E+00  0.00000000000E+00 -0.68325691803E+02  0.23303997976E+04  0.23293979515E+04 0.  0.
        2    1    3    3  502    0 -0.56589965060E+03 -0.99889658119E+03 -0.23042802954E+03  0.11709542567E+04  0.25500000920E-02 0.  1.
       -2    1    3    3    0  502  0.56589965060E+03  0.99889658119E+03  0.16210233774E+03  0.11594455409E+04  0.25500000920E-02 0. -1.
</event>
<event>
 5   0  0.2565004E-06  0.2963049E+04  0.7818609E-02  0.8254362E-01
       -2   -1    0    0    0  501  0.00000000000E+00  0.00000000000E+00  0.13546455388E+04  0.13546455388E+04  0.25500000920E-02 0. -1.
        2   -1    0    0  501    0  0.00000000000E+00  0.00000000000E+00 -0.16202875210E+04  0.16202875210E+04  0.25500000920E-02 0.  1.
    10030    2    1    2    0    0  0.00000000000E+00  0.00000000000E+00 -0.26564198213E+03  0.29749330598E+04  0.29630492820E+04 0.  0.
        3    1    3    3  502    0  0.35774124416E+03  0.66939605610E+03  0.11446204693E+04  0.13733993981E+04  0.10100000352E+00 0. -1.
       -3    1    3    3    0  502 -0.35774124416E+03 -0.66939605610E+03 -0.14102624514E+04  0.16015336618E+04  0.10100000352E+00 0.  1.
</event>
<event>
 5   0  0.2565004E-06  0.2146985E+04  0.7818609E-02  0.8540824E-01
        2   -1    0    0  501    0  0.00000000000E+00  0.00000000000E+00  0.17019563415E+04  0.17019563415E+04  0.25500000920E-02 0. -1.
       -2   -1    0    0    0  501  0.00000000000E+00  0.00000000000E+00 -0.67709481899E+03  0.67709481900E+03  0.25500000920E-02 0.  1.
    10030    2    1    2    0    0  0.00000000000E+00  0.00000000000E+00  0.10248615225E+04  0.23790511605E+04  0.21469846958E+04 0.  0.
        3    1    3    3  502    0  0.34676638385E+03 -0.10153106883E+04  0.55212283020E+03  0.12066243610E+04  0.10100000352E+00 0.  1.
       -3    1    3    3    0  502 -0.34676638385E+03  0.10153106883E+04  0.47273869228E+03  0.11724267995E+04  0.10100000352E+00 0. -1.
</event>
<event>
 5   0  0.1782660E-06  0.2085010E+04  0.7818609E-02  0.8567876E-01
        2   -1    0    0  501    0  0.00000000000E+00  0.00000000000E+00  0.12128066531E+04  0.12128066531E+04  0.25500000920E-02 0.  1.
       -2   -1    0    0    0  501  0.00000000000E+00  0.00000000000E+00 -0.89611670058E+03  0.89611670058E+03  0.25500000920E-02 0. -1.
    10030    2    1    2    0    0  0.00000000000E+00  0.00000000000E+00  0.31668995250E+03  0.21089233537E+04  0.20850096368E+04 0.  0.
        4    1    3    3  502    0 -0.29042440190E+03 -0.10011032347E+04  0.17467523625E+03  0.10569139372E+04  0.12699999809E+01 0.  1.
       -4    1    3    3    0  502  0.29042440190E+03  0.10011032347E+04  0.14201471625E+03  0.10520094164E+04  0.12699999809E+01 0. -1.
</event>
<event>
 5   0  0.1102175E-06  0.1908192E+04  0.7818609E-02  0.8650789E-01
       -1   -1    0    0    0  501  0.00000000000E+00  0.00000000000E+00  0.10385236273E+04  0.10385236273E+04  0.50400001928E-02 0. -1.
        1   -1    0    0  501    0  0.00000000000E+00  0.00000000000E+00 -0.87653188714E+03  0.87653188716E+03  0.50400001928E-02 0.  1.
    10030    2    1    2    0    0  0.00000000000E+00  0.00000000000E+00  0.16199174017E+03  0.19150555145E+04  0.19081918928E+04 0.  0.
        5    1    3    3  502    0  0.40124661908E+03 -0.67727805939E+03  0.62198261695E+03  0.10032890335E+04  0.46999998093E+01 0. -1.
       -5    1    3    3    0  502 -0.40124661908E+03  0.67727805939E+03 -0.45999087677E+03  0.91176648094E+03  0.46999998093E+01 0.  1.
</event>
<event>
 5   0  0.1102175E-06  0.2649422E+04  0.7818609E-02  0.8351605E-01
        1   -1    0    0  501    0  0.00000000000E+00  0.00000000000E+00  0.13614666023E+04  0.13614666023E+04  0.50400001928E-02 0.  1.
       -1   -1    0    0    0  501  0.00000000000E+00  0.00000000000E+00 -0.12889480978E+04  0.12889480978E+04  0.50400001928E-02 0. -1.
    10030    2    1    2    0    0  0.00000000000E+00  0.00000000000E+00  0.72518504511E+02  0.26504147001E+04  0.26494224180E+04 0.  0.
        5    1    3    3  502    0  0.41235434246E+03 -0.42002750611E+03 -0.11509364514E+04  0.12927242609E+04  0.46999998093E+01 0. -1.
       -5    1    3    3    0  502 -0.41235434246E+03  0.42002750611E+03  0.12234549559E+04  0.13576904392E+04  0.46999998093E+01 0.  1.
</event>
<event>
 5   0  0.1089337E-06  0.2613844E+04  0.7818609E-02  0.8363514E-01
        1   -1    0    0  501    0  0.00000000000E+00  0.00000000000E+00  0.80331762402E+03  0.80331762404E+03  0.50400001928E-02 0.  1.
       -1   -1    0    0    0  501  0.00000000000E+00  0.00000000000E+00 -0.21262392075E+04  0.21262392075E+04  0.50400001928E-02 0. -1.
    10030    2    1    2    0    0  0.00000000000E+00  0.00000000000E+00 -0.13229215835E+04  0.29295568315E+04  0.26138442404E+04 0.  0.
        2    1    3    3  502    0 -0.77017186178E+03  0.72528791674E+03 -0.15215038604E+04  0.18531544070E+04  0.25500000920E-02 0. -1.
       -2    1    3    3    0  502  0.77017186178E+03 -0.72528791674E+03  0.19858227695E+03  0.10764024245E+04  0.25500000920E-02 0.  1.
</event>
<event>
 5   0  0.3041329E-06  0.2415716E+04  0.7818609E-02  0.8433643E-01
        2   -1    0    0  501    0  0.00000000000E+00  0.00000000000E+00  0.11905707859E+04  0.11905707859E+04  0.25500000920E-02 0.  1.
       -2   -1    0    0    0  501  0.00000000000E+00  0.00000000000E+00 -0.12253962016E+04  0.12253962016E+04  0.25500000920E-02 0. -1.
    10030    2    1    2    0    0  0.00000000000E+00  0.00000000000E+00 -0.34825415674E+02  0.24159669875E+04  0.24157159757E+04 0.  0.
        2    1    3    3  502    0 -0.63082704192E+03 -0.52034885137E+03 -0.90644558828E+03  0.12207986273E+04  0.25500000920E-02 0. -1.
       -2    1    3    3    0  502  0.63082704192E+03  0.52034885137E+03  0.87162017261E+03  0.11951683602E+04  0.25500000920E-02 0.  1.
</event>
<event>
 5   0  0.1110956E-06  0.3434941E+04  0.7818609E-02  0.8129383E-01
        1   -1    0    0  501    0  0.00000000000E+00  0.00000000000E+00  0.27144041933E+04  0.27144041933E+04  0.50400001928E-02 0. -1.
       -1   -1    0    0    0  501  0.00000000000E+00  0.00000000000E+00 -0.10866862464E+04  0.10866862464E+04  0.50400001928E-02 0.  1.
    10030    2    1    2    0    0  0.00000000000E+00  0.00000000000E+00  0.16277179469E+04  0.38010904397E+04  0.34349414574E+04 0.  0.
        1    1    3    3  502    0  0.57443760421E+03 -0.68815310785E+03 -0.80728344787E+03  0.12063332152E+04  0.50400001928E-02 0.  1.
       -1    1    3    3    0  502 -0.57443760421E+03  0.68815310785E+03  0.24350013948E+04  0.25947572244E+04  0.50400001928E-02 0. -1.
</event>
<event>
 5   0  0.2565004E-06  0.2978634E+04  0.7818609E-02  0.8249859E-01
        2   -1    0    0  501    0  0.00000000000E+00  0.00000000000E+00  0.13105289276E+04  0.13105289276E+04  0.25500000920E-02 0. -1.
       -2   -1    0    0    0  501  0.00000000000E+00  0.00000000000E+00 -0.16924955796E+04  0.16924955796E+04  0.25500000920E-02 0.  1.
    10030    2    1    2    0    0  0.00000000000E+00  0.00000000000E+00 -0.38196665203E+03  0.30030245072E+04  0.29786335235E+04 0.  0.
        3    1    3    3  502    0  0.35110427625E+03 -0.16397554702E+02  0.12681137779E+04  0.13159238795E+04  0.10100000352E+00 0. -1.
       -3    1    3    3    0  502 -0.35110427625E+03  0.16397554702E+02 -0.16500804300E+04  0.16871006277E+04  0.10100000352E+00 0.  1.
</event>
<event>
 5   0  0.1908726E-06  0.3637689E+04  0.7818609E-02  0.8081913E-01
       -2   -1    0    0    0  501  0.00000000000E+00  0.00000000000E+00  0.13878645714E+04  0.13878645714E+04  0.25500000920E-02 0.  1.
        2   -1    0    0  501    0  0.00000000000E+00  0.00000000000E+00 -0.23836581546E+04  0.23836581546E+04  0.25500000920E-02 0. -1.
    10030    2    1    2    0    0  0.00000000000E+00  0.00000000000E+00 -0.99579358316E+03  0.37715227260E+04  0.36376886634E+04 0.  0.
        5    1    3    3  502    0  0.13984902548E+04 -0.42963920004E+03  0.62251297037E+03  0.15899400376E+04  0.46999998093E+01 0.  1.
       -5    1    3    3    0  502 -0.13984902548E+04  0.42963920004E+03 -0.16183065535E+04  0.21815826884E+04  0.46999998093E+01 0. -1.
</event>
<event>
 5   0  0.1782660E-06  0.2107084E+04  0.7818609E-02  0.8558129E-01
        2   -1    0    0  501    0  0.00000000000E+00  0.00000000000E+00  0.12830660541E+04  0.12830660541E+04  0.25500000920E-02 0. -1.
       -2   -1    0    0    0  501  0.00000000000E+00  0.00000000000E+00 -0.86507694370E+03  0.86507694370E+03  0.25500000920E-02 0.  1.
    10030    2    1    2    0    0  0.00000000000E+00  0.00000000000E+00  0.41798911042E+03  0.21481429978E+04  0.21070841091E+04 0.  0.
        4    1    3    3  502    0  0.71744387873E+03  0.17505032701E+03 -0.55703303442E+03  0.92501662171E+03  0.12699999809E+01 0.  1.
       -4    1    3    3    0  502 -0.71744387873E+03 -0.17505032701E+03  0.97502214485E+03  0.12231263761E+04  0.12699999809E+01 0. -1.
</event>
<event>
 5   0  0.1089337E-06  0.3430234E+04  0.7818609E-02  0.8130525E-01
       -1   -1    0    0    0  501  0.00000000000E+00  0.00000000000E+00  0.10916544618E+04  0.10916544618E+04  0.50400001928E-02 0. -1.
        1   -1    0    0  501    0  0.00000000000E+00  0.00000000000E+00 -0.26946501276E+04  0.26946501276E+04  0.50400001928E-02 0.  1.
    10030    2    1    2    0    0  0.00000000000E+00  0.00000000000E+00 -0.16029956658E+04  0.37863045894E+04  0.34302342980E+04 0.  0.
        2    1    3    3  502    0  0.13845022034E+04 -0.58332259466E+03 -0.17147344609E+04  0.22797863655E+04  0.25500000920E-02 0.  1.
       -2    1    3    3    0  502 -0.13845022034E+04  0.58332259466E+03  0.11173879515E+03  0.15065182239E+04  0.25500000920E-02 0. -1.
</event>
<event>
 5   0  0.1782660E-06  0.3634810E+04  0.7818609E-02  0.8082564E-01
        2   -1    0    0  501    0  0.00000000000E+00  0.00000000000E+00  0.21117312608E+04  0.21117312608E+04  0.25500000920E-02 0. -1.
       -2   -1    0    0    0  501  0.00000000000E+00  0.00000000000E+00 -0.15641013139E+04  0.15641013139E+04  0.25500000920E-02 0.  1.
    10030    2    1    2    0    0  0.00000000000E+00  0.00000000000E+00  0.54762994692E+03  0.36758325748E+04  0.36348103883E+04 0.  0.
        4    1    3    3  502    0 -0.32210817033E+03 -0.21657204621E+03 -0.15216954572E+04  0.15704189893E+04  0.12699999809E+01 0.  1.
       -4    1    3    3    0  502  0.32210817033E+03  0.21657204621E+03  0.20693254041E+04  0.21054135854E+04  0.12699999809E+01 0. -1.
</event>
<event>
 5   0  0.1908726E-06  0.3580922E+04  0.7818609E-02  0.8094876E-01
        2   -1    0    0  501    0  0.00000000000E+00  0.00000000000E+00  0.14964916758E+04  0.14964916758E+04  0.25500000920E-02 0.  1.
       -2   -1    0    0    0  501  0.00000000000E+00  0.00000000000E+00 -0.21421773710E+04  0.21421773710E+04  0.25500000920E-02 0. -1.
    10030    2    1    2    0    0  0.00000000000E+00  0.00000000000E+00 -0.64568569520E+03  0.36386690468E+04  0.35809220063E+04 0.  0.
        5    1    3    3  502    0  0.16013369388E+04  0.60184576840E+03 -0.85978671045E+03  0.19146157834E+04  0.46999998093E+01 0.  1.
       -5    1    3    3    0  502 -0.16013369388E+04 -0.60184576840E+03  0.21410101526E+03  0.17240532634E+04  0.46999998093E+01 0. -1.
</event>
<event>
 5   0  0.1130707E-06  0.2318299E+04  0.7818609E-02  0.8470741E-01
        1   -1    0    0  501    0  0.00000000000E+00  0.00000000000E+00  0.11293791705E+04  0.11293791705E+04  0.50400001928E-02 0.  1.
       -1   -1    0    0    0  501  0.00000000000E+00  0.00000000000E+00 -0.11897042160E+04  0.11897042160E+04  0.50400001928E-02 0. -1.
    10030    2    1    2    0    0  0.00000000000E+00  0.00000000000E+00 -0.60325045541E+02  0.23190833865E+04  0.23182986525E+04 0.  0.
        3    1    3    3  502    0  0.64836671218E+03 -0.59955559109E+03 -0.78127009790E+03  0.11790798431E+04  0.10100000352E+00 0. -1.
       -3    1    3    3    0  502 -0.64836671218E+03  0.59955559109E+03  0.72094505235E+03  0.11400035434E+04  0.10100000352E+00 0.  1.
</event>
<event>
 5   0  0.2565004E-06  0.1901009E+04  0.7818609E-02  0.8654354E-01
        2   -1    0    0  501    0  0.00000000000E+00  0.00000000000E+00  0.59284125417E+03  0.59284125417E+03  0.25500000920E-02 0. -1.
       -2   -1    0    0    0  501  0.00000000000E+00  0.00000000000E+00 -0.15239475936E+04  0.15239475936E+04  0.25500000920E-02 0.  1.
    10030    2    1    2    0    0  0.00000000000E+00  0.00000000000E+00 -0.93110633947E+03  0.21167888478E+04  0.19010092085E+04 0.  0.
        3    1    3    3  502    0  0.90914789242E+03  0.16096951551E+03 -0.71701353284E+03  0.11690036320E+04  0.10100000352E+00 0. -1.
       -3    1    3    3    0  502 -0.90914789242E+03 -0.16096951551E+03 -0.21409280663E+03  0.94778521579E+03  0.10100000352E+00 0.  1.
</event>
<event>
 5   0  0.1125196E-06  0.3254943E+04  0.7818609E-02  0.8174456E-01
       -1   -1    0    0    0  501  0.00000000000E+00  0.00000000000E+00  0.95657130319E+03  0.95657130320E+03  0.50400001928E-02 0. -1.
        1   -1    0    0  501    0  0.00000000000E+00  0.00000000000E+00 -0.27689130008E+04  0.27689130008E+04  0.50400001928E-02 0.  1.
    10030    2    1    2    0    0  0.00000000000E+00  0.00000000000E+00 -0.18123416977E+04  0.37254843040E+04  0.32549425295E+04 0.  0.
        4    1    3    3  502    0  0.24012303437E+03 -0.87295310379E+03  0.64172206715E+03  0.11097364630E+04  0.12699999809E+01 0. -1.
       -4    1    3    3    0  502 -0.24012303437E+03  0.87295310379E+03 -0.24540637648E+04  0.26157478410E+04  0.12699999809E+01 0.  1.
</event>
<event>
 5   0  0.2257999E-06  0.1814910E+04  0.7818609E-02  0.8698410E-01
       -2   -1    0    0    0  501  0.00000000000E+00  0.00000000000E+00  0.65867068852E+03  0.65867068853E+03  0.25500000920E-02 0. -1.
        2   -1    0    0  501    0  0.00000000000E+00  0.00000000000E+00 -0.12502070100E+04  0.12502070100E+04  0.25500000920E-02 0.  1.
    10030    2    1    2    0    0  0.00000000000E+00  0.00000000000E+00 -0.59153632149E+03  0.19088776985E+04  0.18149101488E+04 0.  0.
        4    1    3    3  502    0 -0.48761887564E+03  0.31373599179E+03 -0.10299575529E+04  0.11819545736E+04  0.12699999809E+01 0.  1.
       -4    1    3    3    0  502  0.48761887564E+03 -0.31373599179E+03  0.43842123144E+03  0.72692312489E+03  0.12699999809E+01 0. -1.
</event>
<event>
 5   0  0.1908726E-06  0.3481566E+04  0.7818609E-02  0.8118172E-01
       -2   -1    0    0    0  501  0.00000000000E+00  0.00000000000E+00  0.17869742432E+04  0.17869742432E+04  0.25500000920E-02 0. -1.
        2   -1    0    0  501    0  0.00000000000E+00  0.00000000000E+00 -0.16957861722E+04  0.16957861722E+04  0.25500000920E-02 0.  1.
    10030    2    1    2    0    0  0.00000000000E+00  0.00000000000E+00  0.91188070947E+02  0.34827604154E+04  0.34815664358E+04 0.  0.
        5    1    3    3  502    0 -0.10318817842E+04  0.13846296367E+04  0.26549861843E+03  0.17471379034E+04  0.46999998093E+01 0. -1.
       -5    1    3    3    0  502  0.10318817842E+04 -0.13846296367E+04 -0.17431054748E+03  0.17356225120E+04  0.46999998093E+01 0.  1.
</event>
<event>
 5   0  0.3378848E-06  0.3488018E+04  0.7818609E-02  0.8116635E-01
       -2   -1    0    0    0  501  0.00000000000E+00  0.00000000000E+00  0.13859273451E+04  0.13859273451E+04  0.25500000920E-02 0. -1.
        2   -1    0    0  501    0  0.00000000000E+00  0.00000000000E+00 -0.21946084599E+04  0.21946084599E+04  0.25500000920E-02 0.  1.
    10030    2    1    2    0    0  0.00000000000E+00  0.00000000000E+00 -0.80868111487E+03  0.35805358050E+04  0.34880182777E+04 0.  0.
        1    1    3    3  502    0  0.12301567697E+04 -0.10829278939E+04  0.20775500187E+03  0.16520231966E+04  0.50400001928E-02 0. -1.
       -1    1    3    3    0  502 -0.12301567697E+04  0.10829278939E+04 -0.10164361167E+04  0.19285126084E+04  0.50400001928E-02 0.  1.
</event>
<event>
 5   0  0.1042825E-06  0.1922519E+04  0.7818609E-02  0.8643728E-01
        4   -1    0    0  501    0  0.00000000000E+00  0.00000000000E+00  0.16734806438E+04  0.16734811257E+04  0.12699999809E+01 0. -1.
       -4   -1    0    0    0  501  0.00000000000E+00  0.00000000000E+00 -0.55215305854E+03  0.55215451910E+03  0.12699999809E+01 0.  1.
    10030    2    1    2    0    0  0.00000000000E+00  0.00000000000E+00  0.11213275853E+04  0.22256356448E+04  0.19225187828E+04 0.  0.
        2    1    3    3  502    0 -0.21316602537E+03 -0.46888886986E+03  0.15002462950E+04  0.15862015863E+04  0.25500000920E-02 0. -1.
       -2    1    3    3    0  502  0.21316602537E+03  0.46888886986E+03 -0.37891870972E+03  0.63943405855E+03  0.25500000920E-02 0.  1.
</event>
<event>
 5   0  0.1130707E-06  0.3741172E+04  0.7818609E-02  0.8058898E-01
       -1   -1    0    0    0  501  0.00000000000E+00  0.00000000000E+00  0.31296418955E+04  0.31296418955E+04  0.50400001928E-02 0. -1.
        1   -1    0    0  501    0  0.00000000000E+00  0.00000000000E+00 -0.11180488499E+04  0.11180488499E+04  0.50400001928E-02 0.  1.
    10030    2    1    2    0    0  0.00000000000E+00  0.00000000000E+00  0.20115930456E+04  0.42476907454E+04  0.37411722879E+04 0.  0.
        3    1    3    3  502    0 -0.10367487188E+04 -0.13334082045E+04  0.19185452320E+04  0.25560988172E+04  0.10100000352E+00 0. -1.
       -3    1    3    3    0  502  0.10367487188E+04  0.13334082045E+04  0.93047813511E+02  0.16915919282E+04  0.10100000352E+00 0.  1.
</event>
<event>
 5   0  0.1908726E-06  0.3348289E+04  0.7818609E-02  0.8150716E-01
        2   -1    0    0  501    0  0.00000000000E+00  0.00000000000E+00  0.21637152506E+04  0.21637152506E+04  0.25500000920E-02 0. -1.
       -2   -1    0    0    0  501  0.00000000000E+00  0.00000000000E+00 -0.12953461721E+04  0.12953461721E+04  0.25500000920E-02 0.  1.
    10030    2    1    2    0    0  0.00000000000E+00  0.00000000000E+00  0.86836907850E+03  0.34590614226E+04  0.33482892750E+04 0.  0.
        5    1    3    3  502    0  0.70243330744E+03  0.52274567211E+03 -0.10399287591E+04  0.13594666245E+04  0.46999998093E+01 0.  1.
       -5    1    3    3    0  502 -0.70243330744E+03 -0.52274567211E+03  0.19082978376E+04  0.20995947981E+04  0.46999998093E+01 0. -1.
</event>
<event>
 5   0  0.1110956E-06  0.3391119E+04  0.7818609E-02  0.8140089E-01
        1   -1    0    0  501    0  0.00000000000E+00  0.00000000000E+00  0.17912688929E+04  0.17912688929E+04  0.50400001928E-02 0.  1.
       -1   -1    0    0    0  501  0.00000000000E+00  0.00000000000E+00 -0.16049639580E+04  0.16049639580E+04  0.50400001928E-02 0. -1.
    10030    2    1    2    0    0  0.00000000000E+00  0.00000000000E+00  0.18630493495E+03  0.33962328509E+04  0.33911189966E+04 0.  0.
        1    1    3    3  502    0  0.63959201686E+03  0.21558684616E+03 -0.14646243952E+04  0.16126624740E+04  0.50400001928E-02 0. -1.
       -1    1    3    3    0  502 -0.63959201686E+03 -0.21558684616E+03  0.16509293301E+04  0.17835703769E+04  0.50400001928E-02 0.  1.
</event>
<event>
 5   0  0.3041329E-06  0.3367760E+04  0.7818609E-02  0.8145865E-01
       -2   -1    0    0    0  501  0.00000000000E+00  0.00000000000E+00  0.11159754855E+04  0.11159754855E+04  0.25500000920E-02 0.  1.
        2   -1    0    0  501    0  0.00000000000E+00  0.00000000000E+00 -0.25407826323E+04  0.25407826324E+04  0.25500000920E-02 0. -1.
    10030    2    1    2    0    0  0.00000000000E+00  0.00000000000E+00 -0.14248071469E+04  0.36567581178E+04  0.33677595708E+04 0.  0.
        2    1    3    3  502    0  0.71161465654E+03  0.27230711158E+03  0.91809054503E+03  0.11930787197E+04  0.25500000920E-02 0.  1.
       -2    1    3    3    0  502 -0.71161465654E+03 -0.27230711158E+03 -0.23428976919E+04  0.24636793982E+04  0.25500000920E-02 0. -1.
</event>
<event>
 5   0  0.1102175E-06  0.3497890E+04  0.7818609E-02  0.8114290E-01
        1   -1    0    0  501    0  0.00000000000E+00  0.00000000000E+00  0.15644181829E+04  0.15644181829E+04  0.50400001928E-02 0. -1.
       -1   -1    0    0    0  501  0.00000000000E+00  0.00000000000E+00 -0.19552369030E+04  0.19552369030E+04  0.50400001928E-02 0.  1.
    10030    2    1    2    0    0  0.00000000000E+00  0.00000000000E+00 -0.39081872006E+03  0.35196550859E+04  0.34978897426E+04 0.  0.
        5    1    3    3  502    0  0.11100709034E+04  0.20252869358E+03  0.11491352928E+04  0.16105307489E+04  0.46999998093E+01 0. -1.
       -5    1    3    3    0  502 -0.11100709034E+04 -0.20252869358E+03 -0.15399540128E+04  0.19091243369E+04  0.46999998093E+01 0.  1.
</event>
<event>
 5   0  0.1782660E-06  0.1950810E+04  0.7818609E-02  0.8629970E-01
       -2   -1    0    0    0  501  0.00000000000E+00  0.00000000000E+00  0.44198003387E+03  0.44198003388E+03  0.25500000920E-02 0. -1.
        2   -1    0    0  501    0  0.00000000000E+00  0.00000000000E+00 -0.21526187446E+04  0.21526187446E+04  0.25500000920E-02 0.  1.
    10030    2    1    2    0    0  0.00000000000E+00  0.00000000000E+00 -0.17106387107E+04  0.25945987785E+04  0.19508095813E+04 0.  0.
        4    1    3    3  502    0  0.83849545496E+03  0.41584243155E+03 -0.12205602588E+04  0.15381054951E+04  0.12699999809E+01 0.  1.
       -4    1    3    3    0  502 -0.83849545496E+03 -0.41584243155E+03 -0.49007845196E+03  0.10564932834E+04  0.12699999809E+01 0. -1.
</event>
<event>
 5   0  0.2565004E-06  0.2806746E+04  0.7818609E-02  0.8301177E-01
        2   -1    0    0  501    0  0.00000000000E+00  0.00000000000E+00  0.27362418895E+04  0.27362418895E+04  0.25500000920E-02 0.  1.
       -2   -1    0    0    0  501  0.00000000000E+00  0.00000000000E+00 -0.71976685212E+03  0.71976685212E+03  0.25500000920E-02 0. -1.
    10030    2    1    2    0    0  0.00000000000E+00  0.00000000000E+00  0.20164750374E+04  0.34560087417E+04  0.28067463095E+04 0.  0.
        3    1    3    3  502    0  0.66148778836E+03 -0.70969153350E+03  0.22568175714E+04  0.24565125132E+04  0.10100000352E+00 0.  1.
       -3    1    3    3    0  502 -0.66148778836E+03  0.70969153350E+03 -0.24034253395E+03  0.99949622846E+03  0.10100000352E+00 0. -1.
</event>
<event>
 5   0  0.2565004E-06  0.3493497E+04  0.7818609E-02  0.8115333E-01
        2   -1    0    0  501    0  0.00000000000E+00  0.00000000000E+00  0.21093014703E+04  0.21093014703E+04  0.25500000920E-02 0. -1.
       -2   -1    0    0    0  501  0.00000000000E+00  0.00000000000E+00 -0.14465121014E+04  0.14465121014E+04  0.25500000920E-02 0.  1.
    10030    2    1    2    0    0  0.00000000000E+00  0.00000000000E+00  0.66278936895E+03  0.35558135717E+04  0.34934968741E+04 0.  0.
        3    1    3    3  502    0 -0.19116947403E+03 -0.16933871170E+04 -0.58882646806E+02  0.17051606587E+04  0.10100000352E+00 0. -1.
       -3    1    3    3    0  502  0.19116947403E+03  0.16933871170E+04  0.72167201576E+03  0.18506529130E+04  0.10100000352E+00 0.  1.
</event>
<event>
 5   0  0.1908726E-06  0.3581995E+04  0.7818609E-02  0.8094628E-01
       -2   -1    0    0    0  501  0.00000000000E+00  0.00000000000E+00  0.12055782636E+04  0.12055782636E+04  0.25500000920E-02 0. -1.
        2   -1    0    0  501    0  0.00000000000E+00  0.00000000000E+00 -0.26606920935E+04  0.26606920935E+04  0.25500000920E-02 0.  1.
    10030    2    1    2    0    0  0.00000000000E+00  0.00000000000E+00 -0.14551138299E+04  0.38662703571E+04  0.35819952842E+04 0.  0.
        5    1    3    3  502    0 -0.14678952168E+02  0.35529954133E+03  0.11670842073E+04  0.12200659296E+04  0.46999998093E+01 0. -1.
       -5    1    3    3    0  502  0.14678952168E+02 -0.35529954133E+03 -0.26221980372E+04  0.26462044274E+04  0.46999998093E+01 0.  1.
</event>
<event>
 5   0  0.1089337E-06  0.3092916E+04  0.7818609E-02  0.8217685E-01
       -1   -1    0    0    0  501  0.00000000000E+00  0.00000000000E+00  0.12630028562E+04  0.12630028562E+04  0.50400001928E-02 0. -1.
        1   -1    0    0  501    0  0.00000000000E+00  0.00000000000E+00 -0.18935289064E+04  0.18935289064E+04  0.50400001928E-02 0.  1.
    10030    2    1    2    0    0  0.00000000000E+00  0.00000000000E+00 -0.63052605021E+03  0.31565317627E+04  0.30929160462E+04 0.  0.
        2    1    3    3  502    0  0.10922719862E+04  0.10831519192E+04 -0.15307214725E+03  0.15458677997E+04  0.25500000920E-02 0.  1.
       -2    1    3    3    0  502 -0.10922719862E+04 -0.10831519192E+04 -0.47745390296E+03  0.16106639629E+04  0.25500000920E-02 0. -1.
</event>
<event>
 5   0  0.3378848E-06  0.3190903E+04  0.7818609E-02  0.8191224E-01
        2   -1    0    0  501    0  0.00000000000E+00  0.00000000000E+00  0.90613334188E+03  0.90613334188E+03  0.25500000920E-02 0. -1.
       -2   -1    0    0    0  501  0.00000000000E+00  0.00000000000E+00 -0.28091515629E+04  0.28091515629E+04  0.25500000920E-02 0.  1.
    10030    2    1    2    0    0  0.00000000000E+00  0.00000000000E+00 -0.19030182210E+04  0.37152849048E+04  0.31909032537E+04 0.  0.
        1    1    3    3  502    0 -0.92956664453E+03 -0.10798596150E+04 -0.17873007158E+04  0.22857460016E+04  0.50400001928E-02 0.  1.
       -1    1    3    3    0  502  0.92956664453E+03  0.10798596150E+04 -0.11571750520E+03  0.14295389032E+04  0.50400001928E-02 0. -1.
</event>
<event>
 5   0  0.1782660E-06  0.3249805E+04  0.7818609E-02  0.8175786E-01
       -2   -1    0    0    0  501  0.00000000000E+00  0.00000000000E+00  0.16329663745E+04  0.16329663746E+04  0.25500000920E-02 0. -1.
        2   -1    0    0  501    0  0.00000000000E+00  0.00000000000E+00 -0.16168786905E+04  0.16168786905E+04  0.25500000920E-02 0.  1.
    10030    2    1    2    0    0  0.00000000000E+00  0.00000000000E+00  0.16087684079E+02  0.32498450650E+04  0.32498052454E+04 0.  0.
        4    1    3    3  502    0  0.31617953101E+03  0.84312396506E+03  0.13606429095E+04  0.16316182937E+04  0.12699999809E+01 0. -1.
       -4    1    3    3    0  502 -0.31617953101E+03 -0.84312396506E+03 -0.13445552254E+04  0.16182267713E+04  0.12699999809E+01 0.  1.
</event>
<event>
 5   0  0.1130707E-06  0.3444616E+04  0.7818609E-02  0.8127042E-01
        1   -1    0    0  501    0  0.00000000000E+00  0.00000000000E+00  0.20213580195E+04  0.20213580195E+04  0.50400001928E-02 0.  1.
       -1   -1    0    0    0  501  0.00000000000E+00  0.00000000000E+00 -0.14675012925E+04  0.14675012925E+04  0.50400001928E-02 0. -1.
    10030    2    1    2    0    0  0.00000000000E+00  0.00000000000E+00  0.55385672704E+03  0.34888593120E+04  0.34446163828E+04 0.  0.
        3    1    3    3  502    0 -0.72998638071E+03 -0.13578706033E+04 -0.50082299516E+03  0.16209615584E+04  0.10100000352E+00 0. -1.
       -3    1    3    3    0  502  0.72998638071E+03  0.13578706033E+04  0.10546797222E+04  0.18678977536E+04  0.10100000352E+00 0.  1.
</event>
<event>
 5   0  0.2565004E-06  0.3516333E+04  0.7818609E-02  0.8109930E-01
        2   -1    0    0  501    0  0.00000000000E+00  0.00000000000E+00  0.17304944831E+04  0.17304944831E+04  0.25500000920E-02 0.  1.
       -2   -1    0    0    0  501  0.00000000000E+00  0.00000000000E+00 -0.17862814968E+04  0.17862814968E+04  0.25500000920E-02 0. -1.
    10030    2    1    2    0    0  0.00000000000E+00  0.00000000000E+00 -0.55787013754E+02  0.35167759799E+04  0.35163334742E+04 0.  0.
        3    1    3    3  502    0 -0.14255000485E+04  0.32289300491E+02  0.10008550497E+04  0.17420688356E+04  0.10100000352E+00 0.  1.
       -3    1    3    3    0  502  0.14255000485E+04 -0.32289300491E+02 -0.10566420635E+04  0.17747071443E+04  0.10100000352E+00 0. -1.
</event>
<event>
 5   0  0.1110956E-06  0.3401886E+04  0.7818609E-02  0.8137444E-01
       -1   -1    0    0    0  501  0.00000000000E+00  0.00000000000E+00  0.12006712713E+04  0.12006712713E+04  0.50400001928E-02 0. -1.
        1   -1    0    0  501    0  0.00000000000E+00  0.00000000000E+00 -0.24096576172E+04  0.24096576172E+04  0.50400001928E-02 0.  1.
    10030    2    1    2    0    0  0.00000000000E+00  0.00000000000E+00 -0.12089863459E+04  0.36103288885E+04  0.34018857562E+04 0.  0.
        1    1    3    3  502    0 -0.80231130466E+03  0.13676143718E+04 -0.12579599436E+04  0.20239900492E+04  0.50400001928E-02 0.  1.
       -1    1    3    3    0  502  0.80231130466E+03 -0.13676143718E+04  0.48973597698E+02  0.15863388393E+04  0.50400001928E-02 0. -1.
</event>
<event>
 5   0  0.1130707E-06  0.1768697E+04  0.7818609E-02  0.8723125E-01
        1   -1    0    0  501    0  0.00000000000E+00  0.00000000000E+00  0.10615695635E+04  0.10615695635E+04  0.50400001928E-02 0.  1.
       -1   -1    0    0    0  501  0.00000000000E+00  0.00000000000E+00 -0.73671333788E+03  0.73671333789E+03  0.50400001928E-02 0. -1.
    10030    2    1    2    0    0  0.00000000000E+00  0.00000000000E+00  0.32485622560E+03  0.17982829014E+04  0.17686972115E+04 0.  0.
        3    1    3    3  502    0  0.89657164512E+02  0.83078616452E+03  0.45680254123E+03  0.95231960506E+03  0.10100000352E+00 0.  1.
       -3    1    3    3    0  502 -0.89657164512E+02 -0.83078616452E+03 -0.13194631563E+03  0.84596329632E+03  0.10100000352E+00 0. -1.
</event>
<event>
 5   0  0.3041329E-06  0.3540390E+04  0.7818609E-02  0.8104284E-01
        2   -1    0    0  501    0  0.00000000000E+00  0.00000000000E+00  0.24391898400E+04  0.24391898400E+04  0.25500000920E-02 0.  1.
       -2   -1    0    0    0  501  0.00000000000E+00  0.00000000000E+00 -0.12846849455E+04  0.12846849455E+04  0.25500000920E-02 0. -1.
    10030    2    1    2    0    0  0.00000000000E+00  0.00000000000E+00  0.11545048945E+04  0.37238747855E+04  0.35403900727E+04 0.  0.
        2    1    3    3  502    0  0.11159156487E+04 -0.65047834251E+03  0.18504403621E+04  0.22566611050E+04  0.25500000920E-02 0.  1.
       -2    1    3    3    0  502 -0.11159156487E+04  0.65047834251E+03 -0.69593546759E+03  0.14672136805E+04  0.25500000920E-02 0. -1.
</event>
<event>
 5   0  0.1089337E-06  0.3383020E+04  0.7818609E-02  0.8142086E-01
       -1   -1    0    0    0  501  0.00000000000E+00  0.00000000000E+00  0.12032308402E+04  0.12032308402E+04  0.50400001928E-02 0. -1.
        1   -1    0    0  501    0  0.00000000000E+00  0.00000000000E+00 -0.23779359661E+04  0.23779359661E+04  0.50400001928E-02 0.  1.
    10030    2    1    2    0    0  0.00000000000E+00  0.00000000000E+00 -0.11747051259E+04  0.35811668064E+04  0.33830198879E+04 0.  0.
        2    1    3    3  502    0  0.49324611330E+03  0.16176710905E+04 -0.55297906170E+03  0.17793081037E+04  0.25500000920E-02 0. -1.
       -2    1    3    3    0  502 -0.49324611330E+03 -0.16176710905E+04 -0.62172606417E+03  0.18018587026E+04  0.25500000920E-02 0.  1.
</event>
<event>
 5   0  0.3378848E-06  0.2717622E+04  0.7818609E-02  0.8329310E-01
        2   -1    0    0  501    0  0.00000000000E+00  0.00000000000E+00  0.17582782229E+04  0.17582782229E+04  0.25500000920E-02 0.  1.
       -2   -1    0    0    0  501  0.00000000000E+00  0.00000000000E+00 -0.10500999309E+04  0.10500999309E+04  0.25500000920E-02 0. -1.
    10030    2    1    2    0    0  0.00000000000E+00  0.00000000000E+00  0.70817829201E+03  0.28083781539E+04  0.27176223729E+04 0.  0.
        1    1    3    3  502    0  0.59548393802E+03  0.38921684054E+03 -0.84227600668E+03  0.11025061183E+04  0.50400001928E-02 0. -1.
       -1    1    3    3    0  502 -0.59548393802E+03 -0.38921684054E+03  0.15504542987E+04  0.17058720356E+04  0.50400001928E-02 0.  1.
</event>
<event>
 5   0  0.3041329E-06  0.1930837E+04  0.7818609E-02  0.8639657E-01
        2   -1    0    0  501    0  0.00000000000E+00  0.00000000000E+00  0.79996277780E+03  0.79996277780E+03  0.25500000920E-02 0. -1.
       -2   -1    0    0    0  501  0.00000000000E+00  0.00000000000E+00 -0.11650951035E+04  0.11650951035E+04  0.25500000920E-02 0.  1.
    10030    2    1    2    0    0  0.00000000000E+00  0.00000000000E+00 -0.36513232569E+03  0.19650578813E+04  0.19308368294E+04 0.  0.
        2    1    3    3  502    0  0.36697421677E+03 -0.87838180840E+03 -0.19070110773E+02  0.95214932980E+03  0.25500000920E-02 0. -1.
       -2    1    3    3    0  502 -0.36697421677E+03  0.87838180840E+03 -0.34606221492E+03  0.10129085515E+04  0.25500000920E-02 0.  1.
</event>
<event>
 5   0  0.1125196E-06  0.1831549E+04  0.7818609E-02  0.8689700E-01
        1   -1    0    0  501    0  0.00000000000E+00  0.00000000000E+00  0.11404365680E+04  0.11404365680E+04  0.50400001928E-02 0.  1.
       -1   -1    0    0    0  501  0.00000000000E+00  0.00000000000E+00 -0.73536991449E+03  0.73536991450E+03  0.50400001928E-02 0. -1.
    10030    2    1    2    0    0  0.00000000000E+00  0.00000000000E+00  0.40506665353E+03  0.18758064825E+04  0.18315487889E+04 0.  0.
        4    1    3    3  502    0  0.25004289073E+03 -0.20753756863E+03 -0.67433765732E+03  0.74854938286E+03  0.12699999809E+01 0. -1.
       -4    1    3    3    0  502 -0.25004289073E+03  0.20753756863E+03  0.10794043108E+04  0.11272570997E+04  0.12699999809E+01 0.  1.
</event>
<event>
 5   0  0.2565004E-06  0.3616012E+04  0.7818609E-02  0.8086834E-01
       -2   -1    0    0    0  501  0.00000000000E+00  0.00000000000E+00  0.13920460840E+04  0.13920460840E+04  0.25500000920E-02 0.  1.
        2   -1    0    0  501    0  0.00000000000E+00  0.00000000000E+00 -0.23482600533E+04  0.23482600533E+04  0.25500000920E-02 0. -1.
    10030    2    1    2    0    0  0.00000000000E+00  0.00000000000E+00 -0.95621396936E+03  0.37403061373E+04  0.36160122850E+04 0.  0.
        3    1    3    3  502    0 -0.40334707067E+03 -0.17623440025E+04 -0.45900721381E+03  0.18652701882E+04  0.10100000352E+00 0.  1.
       -3    1    3    3    0  502  0.40334707067E+03  0.17623440025E+04 -0.49720675555E+03  0.18750359491E+04  0.10100000352E+00 0. -1.
</event>
<event>
 5   0  0.3041329E-06  0.3451605E+04  0.7818609E-02  0.8125356E-01
       -2   -1    0    0    0  501  0.00000000000E+00  0.00000000000E+00  0.24665740983E+04  0.24665740983E+04  0.25500000920E-02 0.  1.
        2   -1    0    0  501    0  0.00000000000E+00  0.00000000000E+00 -0.12075022956E+04  0.12075022957E+04  0.25500000920E-02 0. -1.
    10030    2    1    2    0    0  0.00000000000E+00  0.00000000000E+00  0.12590718027E+04  0.36740763940E+04  0.34516047782E+04 0.  0.
        2    1    3    3  502    0 -0.10021565959E+04 -0.64709923735E+03 -0.69797959295E+03  0.13821109861E+04  0.25500000920E-02 0. -1.
       -2    1    3    3    0  502  0.10021565959E+04  0.64709923735E+03  0.19570513956E+04  0.22919654079E+04  0.25500000920E-02 0.  1.
</event>
<event>
 5   0  0.2565004E-06  0.3489052E+04  0.7818609E-02  0.8116389E-01
        2   -1    0    0  501    0  0.00000000000E+00  0.00000000000E+00  0.23538136584E+04  0.23538136584E+04  0.25500000920E-02 0.  1.
       -2   -1    0    0    0  501  0.00000000000E+00  0.00000000000E+00 -0.12929535416E+04  0.12929535416E+04  0.25500000920E-02 0. -1.
    10030    2    1    2    0    0  0.00000000000E+00  0.00000000000E+00  0.10608601169E+04  0.36467672000E+04  0.34890524248E+04 0.  0.
        3    1    3    3  502    0  0.98427859644E+03  0.43068659031E+03  0.19669951416E+04  0.22412865037E+04  0.10100000352E+00 0.  1.
       -3    1    3    3    0  502 -0.98427859644E+03 -0.43068659031E+03 -0.90613502469E+03  0.14054806963E+04  0.10100000352E+00 0. -1.
</event>
<event>
 5   0  0.1089337E-06  0.3420354E+04  0.7818609E-02  0.8132929E-01
        1   -1    0    0  501    0  0.00000000000E+00  0.00000000000E+00  0.11548842310E+04  0.11548842310E+04  0.50400001928E-02 0.  1.
       -1   -1    0    0    0  501  0.00000000000E+00  0.00000000000E+00 -0.25324660746E+04  0.25324660746E+04  0.50400001928E-02 0. -1.
    10030    2    1    2    0    0  0.00000000000E+00  0.00000000000E+00 -0.13775818435E+04  0.36873503056E+04  0.34203538619E+04 0.  0.
        2    1    3    3  502    0 -0.11062858138E+03  0.14907065258E+04 -0.15844647241E+04  0.21782959145E+04  0.25500000920E-02 0. -1.
       -2    1    3    3    0  502  0.11062858138E+03 -0.14907065258E+04  0.20688288059E+03  0.15090543911E+04  0.25500000920E-02 0.  1.
</event>
<event>
 5   0  0.1782660E-06  0.3522419E+04  0.7818609E-02  0.8108497E-01
       -2   -1    0    0    0  501  0.00000000000E+00  0.00000000000E+00  0.12404647581E+04  0.12404647581E+04  0.25500000920E-02 0.  1.
        2   -1    0    0  501    0  0.00000000000E+00  0.00000000000E+00 -0.25005621843E+04  0.25005621843E+04  0.25500000920E-02 0. -1.
    10030    2    1    2    0    0  0.00000000000E+00  0.00000000000E+00 -0.12600974262E+04  0.37410269424E+04  0.35224192057E+04 0.  0.
        4    1    3    3  502    0  0.89863933657E+03  0.66663767930E+03 -0.20745696064E+04  0.23570742706E+04  0.12699999809E+01 0. -1.
       -4    1    3    3    0  502 -0.89863933657E+03 -0.66663767930E+03  0.81447218017E+03  0.13839526718E+04  0.12699999809E+01 0.  1.
</event>
<event>
 5   0  0.2565004E-06  0.3513973E+04  0.7818609E-02  0.8110486E-01
       -2   -1    0    0    0  501  0.00000000000E+00  0.00000000000E+00  0.14420520718E+04  0.14420520718E+04  0.25500000920E-02 0.  1.
        2   -1    0    0  501    0  0.00000000000E+00  0.00000000000E+00 -0.21407007243E+04  0.21407007243E+04  0.25500000920E-02 0. -1.
    10030    2    1    2    0    0  0.00000000000E+00  0.00000000000E+00 -0.69864865250E+03  0.35827527961E+04  0.35139732011E+04 0.  0.
        3    1    3    3  502    0  0.83049420750E+03  0.15451399527E+04 -0.24826923354E+03  0.17716703205E+04  0.10100000352E+00 0.  1.
       -3    1    3    3    0  502 -0.83049420750E+03 -0.15451399527E+04 -0.45037941896E+03  0.18110824756E+04  0.10100000352E+00 0. -1.
</event>
<event>
 5   0  0.2565004E-06  0.1981818E+04  0.7818609E-02  0.8615169E-01
       -2   -1    0    0    0  501  0.00000000000E+00  0.00000000000E+00  0.10451506005E+04  0.10451506005E+04  0.25500000920E-02 0.  1.
        2   -1    0    0  501    0  0.00000000000E+00  0.00000000000E+00 -0.93948291627E+03  0.93948291627E+03  0.25500000920E-02 0. -1.
    10030    2    1    2    0    0  0.00000000000E+00  0.00000000000E+00  0.10566768420E+03  0.19846335167E+04  0.19818184923E+04 0.  0.
        3    1    3    3  502    0  0.25922342871E+03  0.50271970157E+03 -0.76194168107E+03  0.94893573011E+03  0.10100000352E+00 0. -1.
       -3    1    3    3    0  502 -0.25922342871E+03 -0.50271970157E+03  0.86760936526E+03  0.10356977866E+04  0.10100000352E+00 0.  1.
</event>
<event>
 5   0  0.2565004E-06  0.3452290E+04  0.7818609E-02  0.8125191E-01
        2   -1    0    0  501    0  0.00000000000E+00  0.00000000000E+00  0.24670305457E+04  0.24670305457E+04  0.25500000920E-02 0.  1.
       -2   -1    0    0    0  501  0.00000000000E+00  0.00000000000E+00 -0.12077584555E+04  0.12077584555E+04  0.25500000920E-02 0. -1.
    10030    2    1    2    0    0  0.00000000000E+00  0.00000000000E+00  0.12592720902E+04  0.36747890012E+04  0.34522902552E+04 0.  0.
        3    1    3    3  502    0  0.11820541363E+04 -0.11775909890E+04  0.11004122420E+04  0.19987194979E+04  0.10100000352E+00 0.  1.
       -3    1    3    3    0  502 -0.11820541363E+04  0.11775909890E+04  0.15885984818E+03  0.16760695033E+04  0.10100000352E+00 0. -1.
</event>
<event>
 5   0  0.1125196E-06  0.3237185E+04  0.7818609E-02  0.8179065E-01
       -1   -1    0    0    0  501  0.00000000000E+00  0.00000000000E+00  0.19615947008E+04  0.19615947008E+04  0.50400001928E-02 0. -1.
        1   -1    0    0  501    0  0.00000000000E+00  0.00000000000E+00 -0.13355673457E+04  0.13355673457E+04  0.50400001928E-02 0.  1.
    10030    2    1    2    0    0  0.00000000000E+00  0.00000000000E+00  0.62602735514E+03  0.32971620465E+04  0.32371850907E+04 0.  0.
        4    1    3    3  502    0  0.64573423972E+03  0.42333762547E+03  0.17619215013E+04  0.19236830413E+04  0.12699999809E+01 0. -1.
       -4    1    3    3    0  502 -0.64573423972E+03 -0.42333762547E+03 -0.11358941462E+04  0.13734790052E+04  0.12699999809E+01 0.  1.
</event>
<event>
 5   0  0.1110956E-06  0.2566214E+04  0.7818609E-02  0.8379769E-01
        1   -1    0    0  501    0  0.00000000000E+00  0.00000000000E+00  0.99126686919E+03  0.99126686921E+03  0.50400001928E-02 0.  1.
       -1   -1    0    0    0  501  0.00000000000E+00  0.00000000000E+00 -0.16608680058E+04  0.16608680058E+04  0.50400001928E-02 0. -1.
    10030    2    1    2    0    0  0.00000000000E+00  0.00000000000E+00 -0.66960113664E+03  0.26521348750E+04  0.25662138869E+04 0.  0.
        1    1    3    3  502    0  0.11904839350E+04  0.37266213911E+03 -0.24352670084E+02  0.12476867083E+04  0.50400001928E-02 0.  1.
       -1    1    3    3    0  502 -0.11904839350E+04 -0.37266213911E+03 -0.64524846656E+03  0.14044481668E+04  0.50400001928E-02 0. -1.
</event>
<event>
 5   0  0.1782660E-06  0.3569522E+04  0.7818609E-02  0.8097509E-01
       -2   -1    0    0    0  501  0.00000000000E+00  0.00000000000E+00  0.29032479023E+04  0.29032479023E+04  0.25500000920E-02 0. -1.
        2   -1    0    0  501    0  0.00000000000E+00  0.00000000000E+00 -0.10971755247E+04  0.10971755247E+04  0.25500000920E-02 0.  1.
    10030    2    1    2    0    0  0.00000000000E+00  0.00000000000E+00  0.18060723776E+04  0.40004234270E+04  0.35695223997E+04 0.  0.
        4    1    3    3  502    0 -0.90709172605E+03 -0.95147974716E+03 -0.44985124597E+03  0.13894232131E+04  0.12699999809E+01 0.  1.
       -4    1    3    3    0  502  0.90709172605E+03  0.95147974716E+03  0.22559236236E+04  0.26110002139E+04  0.12699999809E+01 0. -1.
</event>
<event>
 5   0  0.1110956E-06  0.3538827E+04  0.7818609E-02  0.8104650E-01
        1   -1    0    0  501    0  0.00000000000E+00  0.00000000000E+00  0.16920048517E+04  0.16920048517E+04  0.50400001928E-02 0.  1.
       -1   -1    0    0    0  501  0.00000000000E+00  0.00000000000E+00 -0.18503633188E+04  0.18503633188E+04  0.50400001928E-02 0. -1.
    10030    2    1    2    0    0  0.00000000000E+00  0.00000000000E+00 -0.15835846713E+03  0.35423681704E+04  0.35388267619E+04 0.  0.
        1    1    3    3  502    0  0.40862614364E+03  0.16698653767E+04 -0.49840380187E+03  0.17899251524E+04  0.50400001928E-02 0. -1.
       -1    1    3    3    0  502 -0.40862614364E+03 -0.16698653767E+04  0.34004533474E+03  0.17524430180E+04  0.50400001928E-02 0.  1.
</event>
<event>
 5   0  0.1130707E-06  0.2226125E+04  0.7818609E-02  0.8507633E-01
       -1   -1    0    0    0  501  0.00000000000E+00  0.00000000000E+00  0.12568071016E+04  0.12568071016E+04  0.50400001928E-02 0.  1.
        1   -1    0    0  501    0  0.00000000000E+00  0.00000000000E+00 -0.98575796124E+03  0.98575796126E+03  0.50400001928E-02 0. -1.
    10030    2    1    2    0    0  0.00000000000E+00  0.00000000000E+00  0.27104914037E+03  0.22425650629E+04  0.22261245304E+04 0.  0.
        3    1    3    3  502    0 -0.19030415580E+02  0.10687237014E+04  0.44826065410E+03  0.11590815894E+04  0.10100000352E+00 0. -1.
       -3    1    3    3    0  502  0.19030415580E+02 -0.10687237014E+04 -0.17721151374E+03  0.10834834735E+04  0.10100000352E+00 0.  1.
</event>
<event>
 5   0  0.1110956E-06  0.3390541E+04  0.7818609E-02  0.8140232E-01
        1   -1    0    0  501    0  0.00000000000E+00  0.00000000000E+00  0.26808187742E+04  0.26808187742E+04  0.50400001928E-02 0. -1.
       -1   -1    0    0    0  501  0.00000000000E+00  0.00000000000E+00 -0.10720390901E+04  0.10720390901E+04  0.50400001928E-02 0.  1.
    10030    2    1    2    0    0  0.00000000000E+00  0.00000000000E+00  0.16087796841E+04  0.37528578643E+04  0.33905412662E+04 0.  0.
        1    1    3    3  502    0  0.67848217157E+03  0.56074416499E+03  0.24080669624E+04  0.25638951950E+04  0.50400001928E-02 0. -1.
       -1    1    3    3    0  502 -0.67848217157E+03 -0.56074416499E+03 -0.79928727831E+03  0.11889626693E+04  0.50400001928E-02 0.  1.
</event>
<event>
 5   0  0.1102175E-06  0.1815972E+04  0.7818609E-02  0.8697852E-01
       -1   -1    0    0    0  501  0.00000000000E+00  0.00000000000E+00  0.56021845160E+03  0.56021845162E+03  0.50400001928E-02 0.  1.
        1   -1    0    0  501    0  0.00000000000E+00  0.00000000000E+00 -0.14716372984E+04  0.14716372984E+04  0.50400001928E-02 0. -1.
    10030    2    1    2    0    0  0.00000000000E+00  0.00000000000E+00 -0.91141884682E+03  0.20318557501E+04  0.18159717714E+04 0.  0.
        5    1    3    3  502    0 -0.19469132053E+02 -0.45570983934E+03 -0.13341310843E+04  0.14099568592E+04  0.46999998093E+01 0. -1.
       -5    1    3    3    0  502  0.19469132053E+02  0.45570983934E+03  0.42271223744E+03  0.62189889086E+03  0.46999998093E+01 0.  1.
</event>
<event>
 5   0  0.1496620E-06  0.1826808E+04  0.7818609E-02  0.8692172E-01
        1   -1    0    0  501    0  0.00000000000E+00  0.00000000000E+00  0.11268248598E+04  0.11268248598E+04  0.50400001928E-02 0. -1.
       -1   -1    0    0    0  501  0.00000000000E+00  0.00000000000E+00 -0.74040545368E+03  0.74040545370E+03  0.50400001928E-02 0.  1.
    10030    2    1    2    0    0  0.00000000000E+00  0.00000000000E+00  0.38641940609E+03  0.18672303135E+04  0.18268084427E+04 0.  0.
        3    1    3    3  502    0 -0.30514390744E+03 -0.44316738145E+03  0.94764549569E+03  0.10897440653E+04  0.10100000352E+00 0. -1.
       -3    1    3    3    0  502  0.30514390744E+03  0.44316738145E+03 -0.56122608960E+03  0.77748624816E+03  0.10100000352E+00 0.  1.
</event>
<event>
 5   0  0.1125196E-06  0.1866973E+04  0.7818609E-02  0.8671473E-01
       -1   -1    0    0    0  501  0.00000000000E+00  0.00000000000E+00  0.61784212675E+03  0.61784212678E+03  0.50400001928E-02 0. -1.
        1   -1    0    0  501    0  0.00000000000E+00  0.00000000000E+00 -0.14103880102E+04  0.14103880102E+04  0.50400001928E-02 0.  1.
    10030    2    1    2    0    0  0.00000000000E+00  0.00000000000E+00 -0.79254588347E+03  0.20282301370E+04  0.18669730880E+04 0.  0.
        4    1    3    3  502    0  0.29659364100E+03 -0.37341561114E+03  0.47552980427E+03  0.67345171629E+03  0.12699999809E+01 0. -1.
       -4    1    3    3    0  502 -0.29659364100E+03  0.37341561114E+03 -0.12680756877E+04  0.13547784207E+04  0.12699999809E+01 0.  1.
</event>
<event>
 5   0  0.3378848E-06  0.2472000E+04  0.7818609E-02  0.8413029E-01
        2   -1    0    0  501    0  0.00000000000E+00  0.00000000000E+00  0.14110716091E+04  0.14110716091E+04  0.25500000920E-02 0.  1.
       -2   -1    0    0    0  501  0.00000000000E+00  0.00000000000E+00 -0.10826490997E+04  0.10826490997E+04  0.25500000920E-02 0. -1.
    10030    2    1    2    0    0  0.00000000000E+00  0.00000000000E+00  0.32842250946E+03  0.24937207088E+04  0.24719995204E+04 0.  0.
        1    1    3    3  502    0 -0.83656476179E+03  0.55869096155E+03 -0.56023485828E+03  0.11514509489E+04  0.50400001928E-02 0.  1.
       -1    1    3    3    0  502  0.83656476179E+03 -0.55869096155E+03  0.88865736774E+03  0.13422697599E+04  0.50400001928E-02 0. -1.
</event>
<event>
 5   0  0.1908726E-06  0.1931437E+04  0.7818609E-02  0.8639365E-01
        2   -1    0    0  501    0  0.00000000000E+00  0.00000000000E+00  0.23394603222E+04  0.23394603222E+04  0.25500000920E-02 0.  1.
       -2   -1    0    0    0  501  0.00000000000E+00  0.00000000000E+00 -0.39864408308E+03  0.39864408309E+03  0.25500000920E-02 0. -1.
    10030    2    1    2    0    0  0.00000000000E+00  0.00000000000E+00  0.19408162392E+04  0.27381044053E+04  0.19314367865E+04 0.  0.
        5    1    3    3  502    0  0.15246954446E+03 -0.94726444754E+03  0.81489859409E+03  0.12588243341E+04  0.46999998093E+01 0.  1.
       -5    1    3    3    0  502 -0.15246954446E+03  0.94726444754E+03  0.11259176451E+04  0.14792800712E+04  0.46999998093E+01 0. -1.
</event>
<event>
 5   0  0.1110956E-06  0.3604929E+04  0.7818609E-02  0.8089364E-01
       -1   -1    0    0    0  501  0.00000000000E+00  0.00000000000E+00  0.24397889177E+04  0.24397889177E+04  0.50400001928E-02 0.  1.
        1   -1    0    0  501    0  0.00000000000E+00  0.00000000000E+00 -0.13316224349E+04  0.13316224349E+04  0.50400001928E-02 0. -1.
    10030    2    1    2    0    0  0.00000000000E+00  0.00000000000E+00  0.11081664828E+04  0.37714113526E+04  0.36049286590E+04 0.  0.
        1    1    3    3  502    0 -0.15189110423E+04  0.17253811036E+03 -0.44501643111E+03  0.15921368590E+04  0.50400001928E-02 0. -1.
       -1    1    3    3    0  502  0.15189110423E+04 -0.17253811036E+03  0.15531829139E+04  0.21792744935E+04  0.50400001928E-02 0.  1.
</event>
<event>
 5   0  0.1102175E-06  0.3528466E+04  0.7818609E-02  0.8107077E-01
       -1   -1    0    0    0  501  0.00000000000E+00  0.00000000000E+00  0.33640491522E+04  0.33640491522E+04  0.50400001928E-02 0. -1.
        1   -1    0    0  501    0  0.00000000000E+00  0.00000000000E+00 -0.92522966328E+03  0.92522966329E+03  0.50400001928E-02 0.  1.
    10030    2    1    2    0    0  0.00000000000E+00  0.00000000000E+00  0.24388194889E+04  0.42892788155E+04  0.35284659921E+04 0.  0.
        5    1    3    3  502    0  0.47354313298E+03  0.68678013211E+03  0.31091384599E+04  0.32191107625E+04  0.46999998093E+01 0. -1.
       -5    1    3    3    0  502 -0.47354313298E+03 -0.68678013211E+03 -0.67031897100E+03  0.10701680529E+04  0.46999998093E+01 0.  1.
</event>
<event>
 5   0  0.1102175E-06  0.2489777E+04  0.7818609E-02  0.8406637E-01
        1   -1    0    0  501    0  0.00000000000E+00  0.00000000000E+00  0.15852452221E+04  0.15852452222E+04  0.50400001928E-02 0. -1.
       -1   -1    0    0    0  501  0.00000000000E+00  0.00000000000E+00 -0.97760717516E+03  0.97760717517E+03  0.50400001928E-02 0.  1.
    10030    2    1    2    0    0  0.00000000000E+00  0.00000000000E+00  0.60763804699E+03  0.25628523973E+04  0.24897767800E+04 0.  0.
        5    1    3    3  502    0  0.69096097432E+02  0.89304682313E+03  0.11937267794E+04  0.14924183773E+04  0.46999998093E+01 0. -1.
       -5    1    3    3    0  502 -0.69096097432E+02 -0.89304682313E+03 -0.58608873242E+03  0.10704340200E+04  0.46999998093E+01 0.  1.
</event>
<event>
 5   0  0.1908726E-06  0.3313717E+04  0.7818609E-02  0.8159414E-01
        2   -1    0    0  501    0  0.00000000000E+00  0.00000000000E+00  0.26487761732E+04  0.26487761732E+04  0.25500000920E-02 0. -1.
       -2   -1    0    0    0  501  0.00000000000E+00  0.00000000000E+00 -0.10363954608E+04  0.10363954608E+04  0.25500000920E-02 0.  1.
    10030    2    1    2    0    0  0.00000000000E+00  0.00000000000E+00  0.16123807124E+04  0.36851716340E+04  0.33137167064E+04 0.  0.
        5    1    3    3  502    0  0.39502958740E+03 -0.89417979467E+03  0.22938872592E+04  0.24935008979E+04  0.46999998093E+01 0. -1.
       -5    1    3    3    0  502 -0.39502958740E+03  0.89417979467E+03 -0.68150654672E+03  0.11916707361E+04  0.46999998093E+01 0.  1.
</event>
<event>
 5   0  0.1125196E-06  0.3482403E+04  0.7818609E-02  0.8117973E-01
        1   -1    0    0  501    0  0.00000000000E+00  0.00000000000E+00  0.19057762572E+04  0.19057762572E+04  0.50400001928E-02 0. -1.
       -1   -1    0    0    0  501  0.00000000000E+00  0.00000000000E+00 -0.15908389713E+04  0.15908389713E+04  0.50400001928E-02 0.  1.
    10030    2    1    2    0    0  0.00000000000E+00  0.00000000000E+00  0.31493728592E+03  0.34966152285E+04  0.34824032739E+04 0.  0.
        4    1    3    3  502    0 -0.69186078099E+03  0.15964093159E+04  0.22547602073E+03  0.17544329834E+04  0.12699999809E+01 0.  1.
       -4    1    3    3    0  502  0.69186078099E+03 -0.15964093159E+04  0.89461265195E+02  0.17421822451E+04  0.12699999809E+01 0. -1.
</event>
<event>
 5   0  0.2565004E-06  0.3381701E+04  0.7818609E-02  0.8142412E-01
        2   -1    0    0  501    0  0.00000000000E+00  0.00000000000E+00  0.21192223330E+04  0.21192223330E+04  0.25500000920E-02 0. -1.
       -2   -1    0    0    0  501  0.00000000000E+00  0.00000000000E+00 -0.13490685689E+04  0.13490685689E+04  0.25500000920E-02 0.  1.
    10030    2    1    2    0    0  0.00000000000E+00  0.00000000000E+00  0.77015376406E+03  0.34682909019E+04  0.33817014889E+04 0.  0.
        3    1    3    3  502    0  0.86591437345E+03 -0.14116940143E+03  0.18675075322E+04  0.20633276267E+04  0.10100000352E+00 0. -1.
       -3    1    3    3    0  502 -0.86591437345E+03  0.14116940143E+03 -0.10973537681E+04  0.14049632752E+04  0.10100000352E+00 0.  1.
</event>
<event>
 5   0  0.1782660E-06  0.3547558E+04  0.7818609E-02  0.8102611E-01
       -2   -1    0    0    0  501  0.00000000000E+00  0.00000000000E+00  0.15691666899E+04  0.15691666899E+04  0.25500000920E-02 0. -1.
        2   -1    0    0  501    0  0.00000000000E+00  0.00000000000E+00 -0.20050712809E+04  0.20050712809E+04  0.25500000920E-02 0.  1.
    10030    2    1    2    0    0  0.00000000000E+00  0.00000000000E+00 -0.43590459093E+03  0.35742379708E+04  0.35475575062E+04 0.  0.
        4    1    3    3  502    0 -0.65877067528E+03  0.65167104081E+03 -0.17418205932E+04  0.19729659246E+04  0.12699999809E+01 0.  1.
       -4    1    3    3    0  502  0.65877067528E+03 -0.65167104081E+03  0.13059160023E+04  0.16012720462E+04  0.12699999809E+01 0. -1.
</event>
<event>
 5   0  0.1089337E-06  0.3455595E+04  0.7818609E-02  0.8124395E-01
       -1   -1    0    0    0  501  0.00000000000E+00  0.00000000000E+00  0.15014205523E+04  0.15014205523E+04  0.50400001928E-02 0.  1.
        1   -1    0    0  501    0  0.00000000000E+00  0.00000000000E+00 -0.19883065405E+04  0.19883065405E+04  0.50400001928E-02 0. -1.
    10030    2    1    2    0    0  0.00000000000E+00  0.00000000000E+00 -0.48688598820E+03  0.34897270929E+04  0.34555950598E+04 0.  0.
        2    1    3    3  502    0  0.42609308784E+03 -0.13645595850E+04 -0.12234435409E+04  0.18815930161E+04  0.25500000920E-02 0. -1.
       -2    1    3    3    0  502 -0.42609308784E+03  0.13645595850E+04  0.73655755267E+03  0.16081340768E+04  0.25500000920E-02 0.  1.
</event>
<event>
 5   0  0.3041329E-06  0.3510644E+04  0.7818609E-02  0.8111272E-01
       -2   -1    0    0    0  501  0.00000000000E+00  0.00000000000E+00  0.17934096835E+04  0.17934096835E+04  0.25500000920E-02 0. -1.
        2   -1    0    0  501    0  0.00000000000E+00  0.00000000000E+00 -0.17180430031E+04  0.17180430031E+04  0.25500000920E-02 0.  1.
    10030    2    1    2    0    0  0.00000000000E+00  0.00000000000E+00  0.75366680480E+02  0.35114526866E+04  0.35106437919E+04 0.  0.
        2    1    3    3  502    0  0.72726433357E+03  0.68615695154E+03  0.14807320120E+04  0.17866986496E+04  0.25500000920E-02 0. -1.
       -2    1    3    3    0  502 -0.72726433357E+03 -0.68615695154E+03 -0.14053653315E+04  0.17247540370E+04  0.25500000920E-02 0.  1.
</event>
<event>
 5   0  0.2565004E-06  0.3540997E+04  0.7818609E-02  0.8104142E-01
       -2   -1    0    0    0  501  0.00000000000E+00  0.00000000000E+00  0.14274519572E+04  0.14274519572E+04  0.25500000920E-02 0. -1.
        2   -1    0    0  501    0  0.00000000000E+00  0.00000000000E+00 -0.21959864235E+04  0.21959864235E+04  0.25500000920E-02 0.  1.
    10030    2    1    2    0    0  0.00000000000E+00  0.00000000000E+00 -0.76853446631E+03  0.36234383807E+04  0.35409971015E+04 0.  0.
        3    1    3    3  502    0 -0.15462921424E+04  0.83388203503E+03 -0.60912507492E+03  0.18594117363E+04  0.10100000352E+00 0. -1.
       -3    1    3    3    0  502  0.15462921424E+04 -0.83388203503E+03 -0.15940939139E+03  0.17640266444E+04  0.10100000352E+00 0.  1.
</event>
<event>
 5   0  0.1908726E-06  0.1967568E+04  0.7818609E-02  0.8621936E-01
        2   -1    0    0  501    0  0.00000000000E+00  0.00000000000E+00  0.10721286406E+04  0.10721286406E+04  0.25500000920E-02 0. -1.
       -2   -1    0    0    0  501  0.00000000000E+00  0.00000000000E+00 -0.90271876570E+03  0.90271876571E+03  0.25500000920E-02 0.  1.
    10030    2    1    2    0    0  0.00000000000E+00  0.00000000000E+00  0.16940987488E+03  0.19748474063E+04  0.19675676793E+04 0.  0.
        5    1    3    3  502    0 -0.43138917894E+02  0.96489751966E+03  0.27226624058E+03  0.10035134207E+04  0.46999998093E+01 0. -1.
       -5    1    3    3    0  502  0.43138917894E+02 -0.96489751966E+03 -0.10285636570E+03  0.97133398563E+03  0.46999998093E+01 0.  1.
</event>
<event>
 5   0  0.3041329E-06  0.3438053E+04  0.7818609E-02  0.8128630E-01
       -2   -1    0    0    0  501  0.00000000000E+00  0.00000000000E+00  0.15980562883E+04  0.15980562883E+04  0.25500000920E-02 0. -1.
        2   -1    0    0  501    0  0.00000000000E+00  0.00000000000E+00 -0.18491538160E+04  0.18491538160E+04  0.25500000920E-02 0.  1.
    10030    2    1    2    0    0  0.00000000000E+00  0.00000000000E+00 -0.25109752769E+03  0.34472101042E+04  0.34380528696E+04 0.  0.
        2    1    3    3  502    0 -0.46064758122E+03  0.11725644460E+04 -0.12982571928E+04  0.18090260675E+04  0.25500000920E-02 0.  1.
       -2    1    3    3    0  502  0.46064758122E+03 -0.11725644460E+04  0.10471596652E+04  0.16381840368E+04  0.25500000920E-02 0. -1.
</event>
<event>
 5   0  0.3378848E-06  0.3328499E+04  0.7818609E-02  0.8155681E-01
       -2   -1    0    0    0  501  0.00000000000E+00  0.00000000000E+00  0.16381945872E+04  0.16381945872E+04  0.25500000920E-02 0. -1.
        2   -1    0    0  501    0  0.00000000000E+00  0.00000000000E+00 -0.16907190349E+04  0.16907190349E+04  0.25500000920E-02 0.  1.
    10030    2    1    2    0    0  0.00000000000E+00  0.00000000000E+00 -0.52524447706E+02  0.33289136222E+04  0.33284992243E+04 0.  0.
        1    1    3    3  502    0 -0.22778309313E+02  0.41430940182E+03  0.15856318393E+04  0.16390239357E+04  0.50400001928E-02 0. -1.
       -1    1    3    3    0  502  0.22778309313E+02 -0.41430940182E+03 -0.16381562870E+04  0.16898896865E+04  0.50400001928E-02 0.  1.
</event>
<event>
 5   0  0.1130707E-06  0.2063141E+04  0.7818609E-02  0.8577656E-01
       -1   -1    0    0    0  501  0.00000000000E+00  0.00000000000E+00  0.10388787276E+04  0.10388787277E+04  0.50400001928E-02 0.  1.
        1   -1    0    0  501    0  0.00000000000E+00  0.00000000000E+00 -0.10243132891E+04  0.10243132891E+04  0.50400001928E-02 0. -1.
    10030    2    1    2    0    0  0.00000000000E+00  0.00000000000E+00  0.14565438555E+02  0.20631920168E+04  0.20631406026E+04 0.  0.
        3    1    3    3  502    0 -0.16415147630E+03 -0.65889963082E+03 -0.76929496651E+03  0.10261136323E+04  0.10100000352E+00 0. -1.
       -3    1    3    3    0  502  0.16415147630E+03  0.65889963082E+03  0.78386040507E+03  0.10370783845E+04  0.10100000352E+00 0.  1.
</event>
<event>
 5   0  0.1110956E-06  0.2421275E+04  0.7818609E-02  0.8431581E-01
        1   -1    0    0  501    0  0.00000000000E+00  0.00000000000E+00  0.16886215708E+04  0.16886215708E+04  0.50400001928E-02 0.  1.
       -1   -1    0    0    0  501  0.00000000000E+00  0.00000000000E+00 -0.86795214084E+03  0.86795214086E+03  0.50400001928E-02 0. -1.
    10030    2    1    2    0    0  0.00000000000E+00  0.00000000000E+00  0.82066942996E+03  0.25565737117E+04  0.24212746292E+04 0.  0.
        1    1    3    3  502    0  0.24775350614E+03  0.11379668338E+03  0.16557850438E+04  0.16780809266E+04  0.50400001928E-02 0.  1.
       -1    1    3    3    0  502 -0.24775350614E+03 -0.11379668338E+03 -0.83511561382E+03  0.87849278507E+03  0.50400001928E-02 0. -1.
</event>
<event>
 5   0  0.1782660E-06  0.3472638E+04  0.7818609E-02  0.8120305E-01
       -2   -1    0    0    0  501  0.00000000000E+00  0.00000000000E+00  0.14945454550E+04  0.14945454550E+04  0.25500000920E-02 0.  1.
        2   -1    0    0  501    0  0.00000000000E+00  0.00000000000E+00 -0.20172040723E+04  0.20172040723E+04  0.25500000920E-02 0. -1.
    10030    2    1    2    0    0  0.00000000000E+00  0.00000000000E+00 -0.52265861731E+03  0.35117495273E+04  0.34726377169E+04 0.  0.
        4    1    3    3  502    0  0.42993503903E+02 -0.66381130161E+02 -0.20153811753E+04  0.20169327680E+04  0.12699999809E+01 0. -1.
       -4    1    3    3    0  502 -0.42993503903E+02  0.66381130161E+02  0.14927225580E+04  0.14948167593E+04  0.12699999809E+01 0.  1.
</event>
<event>
 5   0  0.1908726E-06  0.3497153E+04  0.7818609E-02  0.8114465E-01
        2   -1    0    0  501    0  0.00000000000E+00  0.00000000000E+00  0.13067320935E+04  0.13067320935E+04  0.25500000920E-02 0. -1.
       -2   -1    0    0    0  501  0.00000000000E+00  0.00000000000E+00 -0.23398209046E+04  0.23398209046E+04  0.25500000920E-02 0.  1.
    10030    2    1    2    0    0  0.00000000000E+00  0.00000000000E+00 -0.10330888111E+04  0.36465529981E+04  0.34971525955E+04 0.  0.
        5    1    3    3  502    0  0.13644146820E+04 -0.79933354078E+03  0.26161823473E+03  0.16028186811E+04  0.46999998093E+01 0.  1.
       -5    1    3    3    0  502 -0.13644146820E+04  0.79933354078E+03 -0.12947070458E+04  0.20437343170E+04  0.46999998093E+01 0. -1.
</event>
<event>
 5   0  0.1908726E-06  0.1739299E+04  0.7818609E-02  0.8739263E-01
       -2   -1    0    0    0  501  0.00000000000E+00  0.00000000000E+00  0.85743799468E+03  0.85743799468E+03  0.25500000920E-02 0. -1.
        2   -1    0    0  501    0  0.00000000000E+00  0.00000000000E+00 -0.88203441360E+03  0.88203441360E+03  0.25500000920E-02 0.  1.
    10030    2    1    2    0    0  0.00000000000E+00  0.00000000000E+00 -0.24596418924E+02  0.17394724083E+04  0.17392985009E+04 0.  0.
        5    1    3    3  502    0  0.49519366855E+02 -0.48156751386E+03  0.71020622936E+03  0.85951987546E+03  0.46999998093E+01 0. -1.
       -5    1    3    3    0  502 -0.49519366855E+02  0.48156751386E+03 -0.73480264828E+03  0.87995253282E+03  0.46999998093E+01 0.  1.
</event>
<event>
 5   0  0.1782660E-06  0.2142469E+04  0.7818609E-02  0.8542763E-01
        2   -1    0    0  501    0  0.00000000000E+00  0.00000000000E+00  0.17296940344E+04  0.17296940344E+04  0.25500000920E-02 0.  1.
       -2   -1    0    0    0  501  0.00000000000E+00  0.00000000000E+00 -0.66343704477E+03  0.66343704477E+03  0.25500000920E-02 0. -1.
    10030    2    1    2    0    0  0.00000000000E+00  0.00000000000E+00  0.10662569897E+04  0.23931310792E+04  0.21424687616E+04 0.  0.
        4    1    3    3  502    0 -0.39027544414E+03  0.81107870029E+03 -0.11567070754E+03  0.90749374975E+03  0.12699999809E+01 0. -1.
       -4    1    3    3    0  502  0.39027544414E+03 -0.81107870029E+03  0.11819276972E+04  0.14856373295E+04  0.12699999809E+01 0.  1.
</event>
<event>
 5   0  0.3041329E-06  0.3982862E+04  0.7818609E-02  0.8008013E-01
       -2   -1    0    0    0  501  0.00000000000E+00  0.00000000000E+00  0.18372226303E+04  0.18372226303E+04  0.25500000920E-02 0. -1.
        2   -1    0    0  501    0  0.00000000000E+00  0.00000000000E+00 -0.21585830418E+04  0.21585830418E+04  0.25500000920E-02 0.  1.
    10030    2    1    2    0    0  0.00000000000E+00  0.00000000000E+00 -0.32136041149E+03  0.39958056721E+04  0.39828620934E+04 0.  0.
        2    1    3    3  502    0 -0.17208599414E+04  0.13135340679E+03 -0.11574809521E+04  0.20780699724E+04  0.25500000920E-02 0.  1.
       -2    1    3    3    0  502  0.17208599414E+04 -0.13135340679E+03  0.83612054065E+03  0.19177356997E+04  0.25500000920E-02 0. -1.
</event>
<event>
 5   0  0.2565004E-06  0.2940225E+04  0.7818609E-02  0.8261009E-01
        2   -1    0    0  501    0  0.00000000000E+00  0.00000000000E+00  0.17508651581E+04  0.17508651581E+04  0.25500000920E-02 0. -1.
       -2   -1    0    0    0  501  0.00000000000E+00  0.00000000000E+00 -0.12343783844E+04  0.12343783844E+04  0.25500000920E-02 0.  1.
    10030    2    1    2    0    0  0.00000000000E+00  0.00000000000E+00  0.51648677375E+03  0.29852435425E+04  0.29402245528E+04 0.  0.
        3    1    3    3  502    0 -0.69864415555E+03 -0.47868256877E+03 -0.96181685747E+03  0.12815351479E+04  0.10100000352E+00 0.  1.
       -3    1    3    3    0  502  0.69864415555E+03  0.47868256877E+03  0.14783036312E+04  0.17037083947E+04  0.10100000352E+00 0. -1.
</event>
<event>
 5   0  0.1908726E-06  0.3330980E+04  0.7818609E-02  0.8155057E-01
       -2   -1    0    0    0  501  0.00000000000E+00  0.00000000000E+00  0.11403484500E+04  0.11403484500E+04  0.25500000920E-02 0. -1.
        2   -1    0    0  501    0  0.00000000000E+00  0.00000000000E+00 -0.24324648870E+04  0.24324648870E+04  0.25500000920E-02 0.  1.
    10030    2    1    2    0    0  0.00000000000E+00  0.00000000000E+00 -0.12921164369E+04  0.35728133370E+04  0.33309803744E+04 0.  0.
        5    1    3    3  502    0  0.17951258941E+03  0.15745485778E+04 -0.11955059164E+04  0.19851157347E+04  0.46999998093E+01 0.  1.
       -5    1    3    3    0  502 -0.17951258941E+03 -0.15745485778E+04 -0.96610520477E+02  0.15876976023E+04  0.46999998093E+01 0. -1.
</event>
<event>
 5   0  0.1782660E-06  0.3526342E+04  0.7818609E-02  0.8107576E-01
        2   -1    0    0  501    0  0.00000000000E+00  0.00000000000E+00  0.19781845047E+04  0.19781845047E+04  0.25500000920E-02 0.  1.
       -2   -1    0    0    0  501  0.00000000000E+00  0.00000000000E+00 -0.15715274781E+04  0.15715274781E+04  0.25500000920E-02 0. -1.
    10030    2    1    2    0    0  0.00000000000E+00  0.00000000000E+00  0.40665702656E+03  0.35497119828E+04  0.35263416204E+04 0.  0.
        4    1    3    3  502    0 -0.59317796030E+03 -0.15224826405E+04  0.87025709882E+03  0.18512597100E+04  0.12699999809E+01 0. -1.
       -4    1    3    3    0  502  0.59317796030E+03  0.15224826405E+04 -0.46360007225E+03  0.16984522728E+04  0.12699999809E+01 0.  1.
</event>
<event>
 5   0  0.3378848E-06  0.2340135E+04  0.7818609E-02  0.8462262E-01
       -2   -1    0    0    0  501  0.00000000000E+00  0.00000000000E+00  0.84623795440E+03  0.84623795441E+03  0.25500000920E-02 0. -1.
        2   -1    0    0  501    0  0.00000000000E+00  0.00000000000E+00 -0.16178170939E+04  0.16178170939E+04  0.25500000920E-02 0.  1.
    10030    2    1    2    0    0  0.00000000000E+00  0.00000000000E+00 -0.77157913949E+03  0.24640550483E+04  0.23401352338E+04 0.  0.
        1    1    3    3  502    0 -0.17905250809E+03 -0.10939587310E+04  0.85452259435E+01  0.11085479361E+04  0.50400001928E-02 0. -1.
       -1    1    3    3    0  502  0.17905250809E+03  0.10939587310E+04 -0.78012436543E+03  0.13555071122E+04  0.50400001928E-02 0.  1.
</event>
<event>
 5   0  0.1110956E-06  0.3516142E+04  0.7818609E-02  0.8109975E-01
        1   -1    0    0  501    0  0.00000000000E+00  0.00000000000E+00  0.20911080166E+04  0.20911080166E+04  0.50400001928E-02 0. -1.
       -1   -1    0    0    0  501  0.00000000000E+00  0.00000000000E+00 -0.14780748359E+04  0.14780748359E+04  0.50400001928E-02 0.  1.
    10030    2    1    2    0    0  0.00000000000E+00  0.00000000000E+00  0.61303318070E+03  0.35691828525E+04  0.35161422830E+04 0.  0.
        1    1    3    3  502    0  0.38435437823E+03 -0.14212125015E+04 -0.66883201940E+03  0.16170681905E+04  0.50400001928E-02 0. -1.
       -1    1    3    3    0  502 -0.38435437823E+03  0.14212125015E+04  0.12818652001E+04  0.19521146620E+04  0.50400001928E-02 0.  1.
</event>
<event>
 5   0  0.3378848E-06  0.3443503E+04  0.7818609E-02  0.8127311E-01
       -2   -1    0    0    0  501  0.00000000000E+00  0.00000000000E+00  0.11132232632E+04  0.11132232632E+04  0.25500000920E-02 0. -1.
        2   -1    0    0  501    0  0.00000000000E+00  0.00000000000E+00 -0.26629228363E+04  0.26629228363E+04  0.25500000920E-02 0.  1.
    10030    2    1    2    0    0  0.00000000000E+00  0.00000000000E+00 -0.15496995731E+04  0.37761460996E+04  0.34435026642E+04 0.  0.
        1    1    3    3  502    0  0.10261995315E+03 -0.60515833539E+03 -0.25388704398E+04  0.26120127442E+04  0.50400001928E-02 0.  1.
       -1    1    3    3    0  502 -0.10261995315E+03  0.60515833539E+03  0.98917086667E+03  0.11641333554E+04  0.50400001928E-02 0. -1.
</event>
<event>
 5   0  0.1908726E-06  0.2445560E+04  0.7818609E-02  0.8422641E-01
        2   -1    0    0  501    0  0.00000000000E+00  0.00000000000E+00  0.19561174019E+04  0.19561174019E+04  0.25500000920E-02 0.  1.
       -2   -1    0    0    0  501  0.00000000000E+00  0.00000000000E+00 -0.76436665917E+03  0.76436665917E+03  0.25500000920E-02 0. -1.
    10030    2    1    2    0    0  0.00000000000E+00  0.00000000000E+00  0.11917507427E+04  0.27204840610E+04  0.24455599959E+04 0.  0.
        5    1    3    3  502    0  0.93982840755E+03  0.17949712420E+03 -0.25107720444E+03  0.98922116123E+03  0.46999998093E+01 0.  1.
       -5    1    3    3    0  502 -0.93982840755E+03 -0.17949712420E+03  0.14428279471E+04  0.17312628998E+04  0.46999998093E+01 0. -1.
</event>
<event>
 5   0  0.1102175E-06  0.2904729E+04  0.7818609E-02  0.8271472E-01
       -1   -1    0    0    0  501  0.00000000000E+00  0.00000000000E+00  0.78575263933E+03  0.78575263935E+03  0.50400001928E-02 0.  1.
        1   -1    0    0  501    0  0.00000000000E+00  0.00000000000E+00 -0.26845131441E+04  0.26845131441E+04  0.50400001928E-02 0. -1.
    10030    2    1    2    0    0  0.00000000000E+00  0.00000000000E+00 -0.18987605048E+04  0.34702657835E+04  0.29047294458E+04 0.  0.
        5    1    3    3  502    0 -0.55037976179E+03  0.12149580423E+04 -0.26276805171E+03  0.13594521197E+04  0.46999998093E+01 0.  1.
       -5    1    3    3    0  502  0.55037976179E+03 -0.12149580423E+04 -0.16359924531E+04  0.21108136638E+04  0.46999998093E+01 0. -1.
</event>
<event>
 5   0  0.1089337E-06  0.2151151E+04  0.7818609E-02  0.8539040E-01
       -1   -1    0    0    0  501  0.00000000000E+00  0.00000000000E+00  0.10578434553E+04  0.10578434554E+04  0.50400001928E-02 0.  1.
        1   -1    0    0  501    0  0.00000000000E+00  0.00000000000E+00 -0.10936045635E+04  0.10936045635E+04  0.50400001928E-02 0. -1.
    10030    2    1    2    0    0  0.00000000000E+00  0.00000000000E+00 -0.35761108134E+02  0.21514480189E+04  0.21511507899E+04 0.  0.
        2    1    3    3  502    0  0.69873363009E+03  0.79373415430E+03 -0.21442701121E+03  0.10789909808E+04  0.25500000920E-02 0.  1.
       -2    1    3    3    0  502 -0.69873363009E+03 -0.79373415430E+03  0.17866590307E+03  0.10724570380E+04  0.25500000920E-02 0. -1.
</event>
<event>
 5   0  0.1782660E-06  0.3668759E+04  0.7818609E-02  0.8074921E-01
        2   -1    0    0  501    0  0.00000000000E+00  0.00000000000E+00  0.19374298514E+04  0.19374298514E+04  0.25500000920E-02 0.  1.
       -2   -1    0    0    0  501  0.00000000000E+00  0.00000000000E+00 -0.17368107745E+04  0.17368107745E+04  0.25500000920E-02 0. -1.
    10030    2    1    2    0    0  0.00000000000E+00  0.00000000000E+00  0.20061907685E+03  0.36742406259E+04  0.36687594856E+04 0.  0.
        4    1    3    3  502    0 -0.13789588197E+04  0.48522725706E+03 -0.10094861402E+04  0.17765237960E+04  0.12699999809E+01 0. -1.
       -4    1    3    3    0  502  0.13789588197E+04 -0.48522725706E+03  0.12101052170E+04  0.18977168299E+04  0.12699999809E+01 0.  1.
</event>
<event>
 5   0  0.1782660E-06  0.3438618E+04  0.7818609E-02  0.8128493E-01
        2   -1    0    0  501    0  0.00000000000E+00  0.00000000000E+00  0.16793981995E+04  0.16793981995E+04  0.25500000920E-02 0.  1.
       -2   -1    0    0    0  501  0.00000000000E+00  0.00000000000E+00 -0.17601679535E+04  0.17601679535E+04  0.25500000920E-02 0. -1.
    10030    2    1    2    0    0  0.00000000000E+00  0.00000000000E+00 -0.80769754040E+02  0.34395661530E+04  0.34386176826E+04 0.  0.
        4    1    3    3  502    0  0.90001920063E+03  0.38935371316E+02  0.14244202062E+04  0.16853857307E+04  0.12699999809E+01 0.  1.
       -4    1    3    3    0  502 -0.90001920063E+03 -0.38935371316E+02 -0.15051899602E+04  0.17541804223E+04  0.12699999809E+01 0. -1.
</event>
<event>
 5   0  0.1782660E-06  0.3488018E+04  0.7818609E-02  0.8116635E-01
        2   -1    0    0  501    0  0.00000000000E+00  0.00000000000E+00  0.22801784565E+04  0.22801784565E+04  0.25500000920E-02 0.  1.
       -2   -1    0    0    0  501  0.00000000000E+00  0.00000000000E+00 -0.13339161091E+04  0.13339161091E+04  0.25500000920E-02 0. -1.
    10030    2    1    2    0    0  0.00000000000E+00  0.00000000000E+00  0.94626234741E+03  0.36140945657E+04  0.34880176461E+04 0.  0.
        4    1    3    3  502    0  0.15297797833E+04  0.46514229684E+03  0.11947094977E+04  0.19959749344E+04  0.12699999809E+01 0. -1.
       -4    1    3    3    0  502 -0.15297797833E+04 -0.46514229684E+03 -0.24844715028E+03  0.16181196313E+04  0.12699999809E+01 0.  1.
</event>
<event>
 5   0  0.1130707E-06  0.3543904E+04  0.7818609E-02  0.8103463E-01
        1   -1    0    0  501    0  0.00000000000E+00  0.00000000000E+00  0.26538036538E+04  0.26538036538E+04  0.50400001928E-02 0.  1.
       -1   -1    0    0    0  501  0.00000000000E+00  0.00000000000E+00 -0.11831370469E+04  0.11831370469E+04  0.50400001928E-02 0. -1.
    10030    2    1    2    0    0  0.00000000000E+00  0.00000000000E+00  0.14706666070E+04  0.38369407007E+04  0.35439037335E+04 0.  0.
        3    1    3    3  502    0  0.31050784447E+03 -0.11045770310E+03  0.26203286382E+04  0.26409729662E+04  0.10100000352E+00 0.  1.
       -3    1    3    3    0  502 -0.31050784447E+03  0.11045770310E+03 -0.11496620313E+04  0.11959677345E+04  0.10100000352E+00 0. -1.
</event>
<event>
 5   0  0.1125196E-06  0.3491190E+04  0.7818609E-02  0.8115881E-01
       -1   -1    0    0    0  501  0.00000000000E+00  0.00000000000E+00  0.11057469330E+04  0.11057469330E+04  0.50400001928E-02 0.  1.
        1   -1    0    0  501    0  0.00000000000E+00  0.00000000000E+00 -0.27556958392E+04  0.27556958392E+04  0.50400001928E-02 0. -1.
    10030    2    1    2    0    0  0.00000000000E+00  0.00000000000E+00 -0.16499489062E+04  0.38614427722E+04  0.34911901825E+04 0.  0.
        4    1    3    3  502    0  0.49061875228E+03  0.17226804724E+03  0.10180960530E+04  0.11431991192E+04  0.12699999809E+01 0.  1.
       -4    1    3    3    0  502 -0.49061875228E+03 -0.17226804724E+03 -0.26680449591E+04  0.27182436530E+04  0.12699999809E+01 0. -1.
</event>
<event>
 5   0  0.1130707E-06  0.3469834E+04  0.7818609E-02  0.8120976E-01
        1   -1    0    0  501    0  0.00000000000E+00  0.00000000000E+00  0.20346825485E+04  0.20346825485E+04  0.50400001928E-02 0.  1.
       -1   -1    0    0    0  501  0.00000000000E+00  0.00000000000E+00 -0.14793150203E+04  0.14793150203E+04  0.50400001928E-02 0. -1.
    10030    2    1    2    0    0  0.00000000000E+00  0.00000000000E+00  0.55536752816E+03  0.35139975688E+04  0.34698336880E+04 0.  0.
        3    1    3    3  502    0 -0.10933259772E+04  0.43657783518E+03  0.15682562634E+04  0.19609665006E+04  0.10100000352E+00 0.  1.
       -3    1    3    3    0  502  0.10933259772E+04 -0.43657783518E+03 -0.10128887353E+04  0.15530310682E+04  0.10100000352E+00 0. -1.
</event>
<event>
 5   0  0.2565004E-06  0.3345506E+04  0.7818609E-02  0.8151412E-01
       -2   -1    0    0    0  501  0.00000000000E+00  0.00000000000E+00  0.18106390570E+04  0.18106390570E+04  0.25500000920E-02 0. -1.
        2   -1    0    0  501    0  0.00000000000E+00  0.00000000000E+00 -0.15453674277E+04  0.15453674277E+04  0.25500000920E-02 0.  1.
    10030    2    1    2    0    0  0.00000000000E+00  0.00000000000E+00  0.26527162926E+03  0.33560064847E+04  0.33455060137E+04 0.  0.
        3    1    3    3  502    0 -0.67921147900E+03 -0.14827883313E+03 -0.13935821657E+04  0.15573651172E+04  0.10100000352E+00 0.  1.
       -3    1    3    3    0  502  0.67921147900E+03  0.14827883313E+03  0.16588537949E+04  0.17986413675E+04  0.10100000352E+00 0. -1.
</event>
<event>
 5   0  0.1042825E-06  0.3415752E+04  0.7818609E-02  0.8134051E-01
        3   -1    0    0  501    0  0.00000000000E+00  0.00000000000E+00  0.14486949139E+04  0.14486949175E+04  0.10100000352E+00 0. -1.
       -3   -1    0    0    0  501  0.00000000000E+00  0.00000000000E+00 -0.20134264072E+04  0.20134264097E+04  0.10100000352E+00 0.  1.
    10030    2    1    2    0    0  0.00000000000E+00  0.00000000000E+00 -0.56473149325E+03  0.34621213272E+04  0.34157521024E+04 0.  0.
        1    1    3    3  502    0  0.25913526167E+03 -0.15648527873E+04 -0.92414793192E+03  0.18357463686E+04  0.50400001928E-02 0.  1.
       -1    1    3    3    0  502 -0.25913526167E+03  0.15648527873E+04  0.35941643868E+03  0.16263749586E+04  0.50400001928E-02 0. -1.
</event>
<event>
 5   0  0.1102175E-06  0.3495726E+04  0.7818609E-02  0.8114804E-01
        1   -1    0    0  501    0  0.00000000000E+00  0.00000000000E+00  0.32484928213E+04  0.32484928213E+04  0.50400001928E-02 0. -1.
       -1   -1    0    0    0  501  0.00000000000E+00  0.00000000000E+00 -0.94044383875E+03  0.94044383876E+03  0.50400001928E-02 0.  1.
    10030    2    1    2    0    0  0.00000000000E+00  0.00000000000E+00  0.23080489825E+04  0.41889366600E+04  0.34957259956E+04 0.  0.
        5    1    3    3  502    0 -0.86004039656E+03 -0.91890800461E+03 -0.29930511037E+03  0.12937028421E+04  0.46999998093E+01 0.  1.
       -5    1    3    3    0  502  0.86004039656E+03  0.91890800461E+03  0.26073540929E+04  0.28952338179E+04  0.46999998093E+01 0. -1.
</event>
<event>
 5   0  0.1102175E-06  0.3550905E+04  0.7818609E-02  0.8101831E-01
        1   -1    0    0  501    0  0.00000000000E+00  0.00000000000E+00  0.20009331468E+04  0.20009331468E+04  0.50400001928E-02 0.  1.
       -1   -1    0    0    0  501  0.00000000000E+00  0.00000000000E+00 -0.15753806173E+04  0.15753806173E+04  0.50400001928E-02 0. -1.
    10030    2    1    2    0    0  0.00000000000E+00  0.00000000000E+00  0.42555252952E+03  0.35763137641E+04  0.35509048402E+04 0.  0.
        5    1    3    3  502    0 -0.59791005653E+03  0.77563674892E+03  0.17042851253E+04  0.19656344219E+04  0.46999998093E+01 0.  1.
       -5    1    3    3    0  502  0.59791005653E+03 -0.77563674892E+03 -0.12787325958E+04  0.16106793423E+04  0.46999998093E+01 0. -1.
</event>
<event>
 5   0  0.1130707E-06  0.3284355E+04  0.7818609E-02  0.8166888E-01
        1   -1    0    0  501    0  0.00000000000E+00  0.00000000000E+00  0.18815240861E+04  0.18815240861E+04  0.50400001928E-02 0.  1.
       -1   -1    0    0    0  501  0.00000000000E+00  0.00000000000E+00 -0.14332781103E+04  0.14332781103E+04  0.50400001928E-02 0. -1.
    10030    2    1    2    0    0  0.00000000000E+00  0.00000000000E+00  0.44824597587E+03  0.33148021964E+04  0.32843552101E+04 0.  0.
        3    1    3    3  502    0 -0.10374682751E+04 -0.54479745158E+03 -0.93702159770E+03  0.15003846740E+04  0.10100000352E+00 0. -1.
       -3    1    3    3    0  502  0.10374682751E+04  0.54479745158E+03  0.13852675736E+04  0.18144175224E+04  0.10100000352E+00 0.  1.
</event>
<event>
 5   0  0.3378848E-06  0.2874393E+04  0.7818609E-02  0.8280537E-01
        2   -1    0    0  501    0  0.00000000000E+00  0.00000000000E+00  0.12153921818E+04  0.12153921818E+04  0.25500000920E-02 0. -1.
       -2   -1    0    0    0  501  0.00000000000E+00  0.00000000000E+00 -0.16994792864E+04  0.16994792864E+04  0.25500000920E-02 0.  1.
    10030    2    1    2    0    0  0.00000000000E+00  0.00000000000E+00 -0.48408710456E+03  0.29148714682E+04  0.28743930405E+04 0.  0.
        1    1    3    3  502    0 -0.74233052547E+03  0.25681775939E+03  0.97845167164E+03  0.12547420629E+04  0.50400001928E-02 0. -1.
       -1    1    3    3    0  502  0.74233052547E+03 -0.25681775939E+03 -0.14625387762E+04  0.16601294054E+04  0.50400001928E-02 0.  1.
</event>
<event>
 5   0  0.1908726E-06  0.3079644E+04  0.7818609E-02  0.8221347E-01
       -2   -1    0    0    0  501  0.00000000000E+00  0.00000000000E+00  0.20675850596E+04  0.20675850596E+04  0.25500000920E-02 0. -1.
        2   -1    0    0  501    0  0.00000000000E+00  0.00000000000E+00 -0.11467738334E+04  0.11467738334E+04  0.25500000920E-02 0.  1.
    10030    2    1    2    0    0  0.00000000000E+00  0.00000000000E+00  0.92081122613E+03  0.32143588930E+04  0.30796444241E+04 0.  0.
        5    1    3    3  502    0 -0.14200578480E+04 -0.53463592766E+03  0.18697172791E+03  0.15288493659E+04  0.46999998093E+01 0.  1.
       -5    1    3    3    0  502  0.14200578480E+04  0.53463592766E+03  0.73383949822E+03  0.16855095271E+04  0.46999998093E+01 0. -1.
</event>
<event>
 5   0  0.1102175E-06  0.3372086E+04  0.7818609E-02  0.8144792E-01
        1   -1    0    0  501    0  0.00000000000E+00  0.00000000000E+00  0.19910327499E+04  0.19910327499E+04  0.50400001928E-02 0. -1.
       -1   -1    0    0    0  501  0.00000000000E+00  0.00000000000E+00 -0.14277717645E+04  0.14277717645E+04  0.50400001928E-02 0.  1.
    10030    2    1    2    0    0  0.00000000000E+00  0.00000000000E+00  0.56326098540E+03  0.34188045143E+04  0.33720856112E+04 0.  0.
        5    1    3    3  502    0 -0.98661244450E+03  0.15693300779E+03 -0.10953789624E+04  0.14825347368E+04  0.46999998093E+01 0.  1.
       -5    1    3    3    0  502  0.98661244450E+03 -0.15693300779E+03  0.16586399478E+04  0.19362697775E+04  0.46999998093E+01 0. -1.
</event>
<event>
 5   0  0.1089337E-06  0.2051140E+04  0.7818609E-02  0.8583077E-01
        1   -1    0    0  501    0  0.00000000000E+00  0.00000000000E+00  0.12617395070E+04  0.12617395070E+04  0.50400001928E-02 0.  1.
       -1   -1    0    0    0  501  0.00000000000E+00  0.00000000000E+00 -0.83360655736E+03  0.83360655738E+03  0.50400001928E-02 0. -1.
    10030    2    1    2    0    0  0.00000000000E+00  0.00000000000E+00  0.42813294961E+03  0.20953460644E+04  0.20511404893E+04 0.  0.
        2    1    3    3  502    0 -0.82461703209E+03  0.47639133627E+03 -0.17473075189E+03  0.96823178555E+03  0.25500000920E-02 0. -1.
       -2    1    3    3    0  502  0.82461703209E+03 -0.47639133627E+03  0.60286370150E+03  0.11271142788E+04  0.25500000920E-02 0.  1.
</event>
<event>
 5   0  0.1908726E-06  0.3476615E+04  0.7818609E-02  0.8119354E-01
       -2   -1    0    0    0  501  0.00000000000E+00  0.00000000000E+00  0.13449313155E+04  0.13449313155E+04  0.25500000920E-02 0. -1.
        2   -1    0    0  501    0  0.00000000000E+00  0.00000000000E+00 -0.22467413432E+04  0.22467413432E+04  0.25500000920E-02 0.  1.
    10030    2    1    2    0    0  0.00000000000E+00  0.00000000000E+00 -0.90181002773E+03  0.35916726586E+04  0.34766148997E+04 0.  0.
        5    1    3    3  502    0  0.16286671264E+04 -0.59484259455E+03 -0.57867665843E+03  0.18279176912E+04  0.46999998093E+01 0. -1.
       -5    1    3    3    0  502 -0.16286671264E+04  0.59484259455E+03 -0.32313336930E+03  0.17637549674E+04  0.46999998093E+01 0.  1.
</event>
<event>
 5   0  0.2565004E-06  0.3168067E+04  0.7818609E-02  0.8197302E-01
       -2   -1    0    0    0  501  0.00000000000E+00  0.00000000000E+00  0.10974278428E+04  0.10974278428E+04  0.25500000920E-02 0.  1.
        2   -1    0    0  501    0  0.00000000000E+00  0.00000000000E+00 -0.22864030709E+04  0.22864030709E+04  0.25500000920E-02 0. -1.
    10030    2    1    2    0    0  0.00000000000E+00  0.00000000000E+00 -0.11889752280E+04  0.33838309137E+04  0.31680671646E+04 0.  0.
        3    1    3    3  502    0 -0.71644817705E+03  0.77313784792E+03 -0.18574396233E+04  0.21356783668E+04  0.10100000352E+00 0. -1.
       -3    1    3    3    0  502  0.71644817705E+03 -0.77313784792E+03  0.66846439526E+03  0.12481525469E+04  0.10100000352E+00 0.  1.
</event>
<event>
 5   0  0.1908726E-06  0.3138531E+04  0.7818609E-02  0.8205242E-01
       -2   -1    0    0    0  501  0.00000000000E+00  0.00000000000E+00  0.14659827928E+04  0.14659827928E+04  0.25500000920E-02 0.  1.
        2   -1    0    0  501    0  0.00000000000E+00  0.00000000000E+00 -0.16798252524E+04  0.16798252524E+04  0.25500000920E-02 0. -1.
    10030    2    1    2    0    0  0.00000000000E+00  0.00000000000E+00 -0.21384245952E+03  0.31458080452E+04  0.31385314496E+04 0.  0.
        5    1    3    3  502    0  0.81709430002E+03 -0.34670538158E+03 -0.14040332971E+04  0.16610777544E+04  0.46999998093E+01 0. -1.
       -5    1    3    3    0  502 -0.81709430002E+03  0.34670538158E+03  0.11901908376E+04  0.14847302908E+04  0.46999998093E+01 0.  1.
</event>
<event>
 5   0  0.3041329E-06  0.3463372E+04  0.7818609E-02  0.8122526E-01
       -2   -1    0    0    0  501  0.00000000000E+00  0.00000000000E+00  0.21971550007E+04  0.21971550008E+04  0.25500000920E-02 0.  1.
        2   -1    0    0  501    0  0.00000000000E+00  0.00000000000E+00 -0.13648268246E+04  0.13648268246E+04  0.25500000920E-02 0. -1.
    10030    2    1    2    0    0  0.00000000000E+00  0.00000000000E+00  0.83232817612E+03  0.35619818254E+04  0.34633718154E+04 0.  0.
        2    1    3    3  502    0 -0.43140979623E+03  0.23980934275E+03 -0.12909490339E+04  0.13820898456E+04  0.25500000920E-02 0. -1.
       -2    1    3    3    0  502  0.43140979623E+03 -0.23980934275E+03  0.21232772100E+04  0.21798919798E+04  0.25500000920E-02 0.  1.
</event>
<event>
 5   0  0.1125196E-06  0.3533458E+04  0.7818609E-02  0.8105906E-01
       -1   -1    0    0    0  501  0.00000000000E+00  0.00000000000E+00  0.25808622578E+04  0.25808622578E+04  0.50400001928E-02 0.  1.
        1   -1    0    0  501    0  0.00000000000E+00  0.00000000000E+00 -0.12094142502E+04  0.12094142502E+04  0.50400001928E-02 0. -1.
    10030    2    1    2    0    0  0.00000000000E+00  0.00000000000E+00  0.13714480077E+04  0.37902765080E+04  0.35334581318E+04 0.  0.
        4    1    3    3  502    0 -0.13572117776E+04  0.17803996367E+03 -0.51242273315E+03  0.14616089450E+04  0.12699999809E+01 0. -1.
       -4    1    3    3    0  502  0.13572117776E+04 -0.17803996367E+03  0.18838707408E+04  0.23286675630E+04  0.12699999809E+01 0.  1.
</event>
<event>
 5   0  0.1089337E-06  0.3486561E+04  0.7818609E-02  0.8116982E-01
       -1   -1    0    0    0  501  0.00000000000E+00  0.00000000000E+00  0.21050217540E+04  0.21050217540E+04  0.50400001928E-02 0.  1.
        1   -1    0    0  501    0  0.00000000000E+00  0.00000000000E+00 -0.14437029567E+04  0.14437029567E+04  0.50400001928E-02 0. -1.
    10030    2    1    2    0    0  0.00000000000E+00  0.00000000000E+00  0.66131879725E+03  0.35487247107E+04  0.34865605574E+04 0.  0.
        2    1    3    3  502    0  0.15530979284E+04 -0.41836935530E+03  0.10148650797E+04  0.19018667731E+04  0.25500000920E-02 0.  1.
       -2    1    3    3    0  502 -0.15530979284E+04  0.41836935530E+03 -0.35354628244E+03  0.16468579376E+04  0.25500000920E-02 0. -1.
</event>
<event>
 5   0  0.1782660E-06  0.2210255E+04  0.7818609E-02  0.8514172E-01
        2   -1    0    0  501    0  0.00000000000E+00  0.00000000000E+00  0.98274228647E+03  0.98274228647E+03  0.25500000920E-02 0. -1.
       -2   -1    0    0    0  501  0.00000000000E+00  0.00000000000E+00 -0.12427541517E+04  0.12427541517E+04  0.25500000920E-02 0.  1.
    10030    2    1    2    0    0  0.00000000000E+00  0.00000000000E+00 -0.26001186523E+03  0.22254964382E+04  0.22102552401E+04 0.  0.
        4    1    3    3  502    0 -0.79030524747E+03 -0.32898169423E+03 -0.83374901353E+03  0.11949687736E+04  0.12699999809E+01 0.  1.
       -4    1    3    3    0  502  0.79030524747E+03  0.32898169423E+03  0.57373714829E+03  0.10305276646E+04  0.12699999809E+01 0. -1.
</event>
<event>
 5   0  0.2565004E-06  0.3421140E+04  0.7818609E-02  0.8132737E-01
        2   -1    0    0  501    0  0.00000000000E+00  0.00000000000E+00  0.19503473454E+04  0.19503473454E+04  0.25500000920E-02 0. -1.
       -2   -1    0    0    0  501  0.00000000000E+00  0.00000000000E+00 -0.15002706974E+04  0.15002706974E+04  0.25500000920E-02 0.  1.
    10030    2    1    2    0    0  0.00000000000E+00  0.00000000000E+00  0.45007664796E+03  0.34506180428E+04  0.34211395599E+04 0.  0.
        3    1    3    3  502    0 -0.57625906539E+03  0.38042909632E+01  0.18494935050E+04  0.19371926126E+04  0.10100000352E+00 0. -1.
       -3    1    3    3    0  502  0.57625906539E+03 -0.38042909632E+01 -0.13994168570E+04  0.15134254303E+04  0.10100000352E+00 0.  1.
</event>
<event>
 5   0  0.1908726E-06  0.3464823E+04  0.7818609E-02  0.8122177E-01
       -2   -1    0    0    0  501  0.00000000000E+00  0.00000000000E+00  0.12515826402E+04  0.12515826402E+04  0.25500000920E-02 0. -1.
        2   -1    0    0  501    0  0.00000000000E+00  0.00000000000E+00 -0.23979631947E+04  0.23979631947E+04  0.25500000920E-02 0.  1.
    10030    2    1    2    0    0  0.00000000000E+00  0.00000000000E+00 -0.11463805544E+04  0.36495458349E+04  0.34648227120E+04 0.  0.
        5    1    3    3  502    0  0.17276976968E+04  0.12159243358E+03 -0.61402524716E+03  0.18375998328E+04  0.46999998093E+01 0. -1.
       -5    1    3    3    0  502 -0.17276976968E+04 -0.12159243358E+03 -0.53235530728E+03  0.18119460021E+04  0.46999998093E+01 0.  1.
</event>
<event>
 5   0  0.1908726E-06  0.3520318E+04  0.7818609E-02  0.8108992E-01
       -2   -1    0    0    0  501  0.00000000000E+00  0.00000000000E+00  0.22566441025E+04  0.22566441025E+04  0.25500000920E-02 0. -1.
        2   -1    0    0  501    0  0.00000000000E+00  0.00000000000E+00 -0.13729061555E+04  0.13729061555E+04  0.25500000920E-02 0.  1.
    10030    2    1    2    0    0  0.00000000000E+00  0.00000000000E+00  0.88373794698E+03  0.36295502580E+04  0.35203184965E+04 0.  0.
        5    1    3    3  502    0 -0.91757363472E+03  0.14905188743E+04  0.63351448427E+03  0.18614377726E+04  0.46999998093E+01 0. -1.
       -5    1    3    3    0  502  0.91757363472E+03 -0.14905188743E+04  0.25022346271E+03  0.17681124854E+04  0.46999998093E+01 0.  1.
</event>
<event>
 5   0  0.1089337E-06  0.2976720E+04  0.7818609E-02  0.8250410E-01
       -1   -1    0    0    0  501  0.00000000000E+00  0.00000000000E+00  0.92234879283E+03  0.92234879284E+03  0.50400001928E-02 0. -1.
        1   -1    0    0  501    0  0.00000000000E+00  0.00000000000E+00 -0.24017108220E+04  0.24017108220E+04  0.50400001928E-02 0.  1.
    10030    2    1    2    0    0  0.00000000000E+00  0.00000000000E+00 -0.14793620291E+04  0.33240596148E+04  0.29767197231E+04 0.  0.
        2    1    3    3  502    0 -0.25203535271E+03 -0.52286256650E+03 -0.22701138063E+04  0.23431439938E+04  0.25500000920E-02 0.  1.
       -2    1    3    3    0  502  0.25203535271E+03  0.52286256650E+03  0.79075177712E+03  0.98091562098E+03  0.25500000920E-02 0. -1.
</event>
<event>
 5   0  0.1130707E-06  0.1920055E+04  0.7818609E-02  0.8644938E-01
        1   -1    0    0  501    0  0.00000000000E+00  0.00000000000E+00  0.66703428316E+03  0.66703428318E+03  0.50400001928E-02 0.  1.
       -1   -1    0    0    0  501  0.00000000000E+00  0.00000000000E+00 -0.13817169548E+04  0.13817169548E+04  0.50400001928E-02 0. -1.
    10030    2    1    2    0    0  0.00000000000E+00  0.00000000000E+00 -0.71468267160E+03  0.20487512379E+04  0.19200547685E+04 0.  0.
        3    1    3    3  502    0  0.27682980896E+03 -0.34666879005E+03 -0.12657813619E+04  0.13412741925E+04  0.10100000352E+00 0. -1.
       -3    1    3    3    0  502 -0.27682980896E+03  0.34666879005E+03  0.55109869032E+03  0.70747704542E+03  0.10100000352E+00 0.  1.
</event>
<event>
 5   0  0.1125196E-06  0.3213767E+04  0.7818609E-02  0.8185191E-01
       -1   -1    0    0    0  501  0.00000000000E+00  0.00000000000E+00  0.23584361694E+04  0.23584361694E+04  0.50400001928E-02 0.  1.
        1   -1    0    0  501    0  0.00000000000E+00  0.00000000000E+00 -0.10948247164E+04  0.10948247164E+04  0.50400001928E-02 0. -1.
    10030    2    1    2    0    0  0.00000000000E+00  0.00000000000E+00  0.12636114530E+04  0.34532608858E+04  0.32137667684E+04 0.  0.
        4    1    3    3  502    0  0.70707760549E+03  0.11743258000E+04 -0.26917432150E+03  0.13969453293E+04  0.12699999809E+01 0. -1.
       -4    1    3    3    0  502 -0.70707760549E+03 -0.11743258000E+04  0.15327857745E+04  0.20563155566E+04  0.12699999809E+01 0.  1.
</event>
<event>
 5   0  0.1782660E-06  0.2795717E+04  0.7818609E-02  0.8304599E-01
       -2   -1    0    0    0  501  0.00000000000E+00  0.00000000000E+00  0.78598450378E+03  0.78598450379E+03  0.25500000920E-02 0. -1.
        2   -1    0    0  501    0  0.00000000000E+00  0.00000000000E+00 -0.24860642138E+04  0.24860642138E+04  0.25500000920E-02 0.  1.
    10030    2    1    2    0    0  0.00000000000E+00  0.00000000000E+00 -0.17000797100E+04  0.32720487176E+04  0.27957166863E+04 0.  0.
        4    1    3    3  502    0  0.12430334576E+04 -0.12217449517E+03 -0.11544851373E+03  0.12543479407E+04  0.12699999809E+01 0. -1.
       -4    1    3    3    0  502 -0.12430334576E+04  0.12217449517E+03 -0.15846311963E+04  0.20177007769E+04  0.12699999809E+01 0.  1.
</event>
<event>
 5   0  0.1110956E-06  0.3443279E+04  0.7818609E-02  0.8127365E-01
        1   -1    0    0  501    0  0.00000000000E+00  0.00000000000E+00  0.21280749657E+04  0.21280749657E+04  0.50400001928E-02 0.  1.
       -1   -1    0    0    0  501  0.00000000000E+00  0.00000000000E+00 -0.13928277709E+04  0.13928277710E+04  0.50400001928E-02 0. -1.
    10030    2    1    2    0    0  0.00000000000E+00  0.00000000000E+00  0.73524719479E+03  0.35209027367E+04  0.34432786184E+04 0.  0.
        1    1    3    3  502    0  0.15745183582E+04 -0.28047875428E+03 -0.28413511350E+03  0.16243488402E+04  0.50400001928E-02 0. -1.
       -1    1    3    3    0  502 -0.15745183582E+04  0.28047875428E+03  0.10193823083E+04  0.18965538965E+04  0.50400001928E-02 0.  1.
</event>
<event>
 5   0  0.1089337E-06  0.2966165E+04  0.7818609E-02  0.8253459E-01
       -1   -1    0    0    0  501  0.00000000000E+00  0.00000000000E+00  0.13776467124E+04  0.13776467124E+04  0.50400001928E-02 0. -1.
        1   -1    0    0  501    0  0.00000000000E+00  0.00000000000E+00 -0.15965880115E+04  0.15965880115E+04  0.50400001928E-02 0.  1.
    10030    2    1    2    0    0  0.00000000000E+00  0.00000000000E+00 -0.21894129908E+03  0.29742347239E+04  0.29661653529E+04 0.  0.
        2    1    3    3  502    0 -0.78347177755E+03 -0.93659937490E+03  0.73453639808E+03  0.14249877668E+04  0.25500000920E-02 0. -1.
       -2    1    3    3    0  502  0.78347177755E+03  0.93659937490E+03 -0.95347769716E+03  0.15492469572E+04  0.25500000920E-02 0.  1.
</event>
<event>
 5   0  0.1125196E-06  0.3568664E+04  0.7818609E-02  0.8097708E-01
       -1   -1    0    0    0  501  0.00000000000E+00  0.00000000000E+00  0.16551270432E+04  0.16551270433E+04  0.50400001928E-02 0. -1.
        1   -1    0    0  501    0  0.00000000000E+00  0.00000000000E+00 -0.19236230330E+04  0.19236230330E+04  0.50400001928E-02 0.  1.
    10030    2    1    2    0    0  0.00000000000E+00  0.00000000000E+00 -0.26849598971E+03  0.35787500762E+04  0.35686638973E+04 0.  0.
        4    1    3    3  502    0 -0.69180854271E+03 -0.11289276100E+04 -0.13337734381E+04  0.18793695234E+04  0.12699999809E+01 0.  1.
       -4    1    3    3    0  502  0.69180854271E+03  0.11289276100E+04  0.10652774484E+04  0.16993805528E+04  0.12699999809E+01 0. -1.
</event>
<event>
 5   0  0.1908726E-06  0.3284760E+04  0.7818609E-02  0.8166784E-01
        2   -1    0    0  501    0  0.00000000000E+00  0.00000000000E+00  0.20849128139E+04  0.20849128139E+04  0.25500000920E-02 0.  1.
       -2   -1    0    0    0  501  0.00000000000E+00  0.00000000000E+00 -0.12937766421E+04  0.12937766421E+04  0.25500000920E-02 0. -1.
    10030    2    1    2    0    0  0.00000000000E+00  0.00000000000E+00  0.79113617181E+03  0.33786894559E+04  0.32847596560E+04 0.  0.
        5    1    3    3  502    0  0.13605339041E+04 -0.79785938287E+03 -0.75521204580E+02  0.15790369348E+04  0.46999998093E+01 0.  1.
       -5    1    3    3    0  502 -0.13605339041E+04  0.79785938287E+03  0.86665737639E+03  0.17996525212E+04  0.46999998093E+01 0. -1.
</event>
<event>
 5   0  0.1110956E-06  0.2247482E+04  0.7818609E-02  0.8498921E-01
        1   -1    0    0  501    0  0.00000000000E+00  0.00000000000E+00  0.14113541839E+04  0.14113541839E+04  0.50400001928E-02 0.  1.
       -1   -1    0    0    0  501  0.00000000000E+00  0.00000000000E+00 -0.89473885316E+03  0.89473885318E+03  0.50400001928E-02 0. -1.
    10030    2    1    2    0    0  0.00000000000E+00  0.00000000000E+00  0.51661533074E+03  0.23060930371E+04  0.22474816341E+04 0.  0.
        1    1    3    3  502    0 -0.11150611805E+04 -0.19530779385E+02  0.39993082378E+03  0.11847732068E+04  0.50400001928E-02 0. -1.
       -1    1    3    3    0  502  0.11150611805E+04  0.19530779385E+02  0.11668450696E+03  0.11213198303E+04  0.50400001928E-02 0.  1.
</event>
<event>
 5   0  0.1782660E-06  0.2873534E+04  0.7818609E-02  0.8280796E-01
        2   -1    0    0  501    0  0.00000000000E+00  0.00000000000E+00  0.17631489866E+04  0.17631489866E+04  0.25500000920E-02 0.  1.
       -2   -1    0    0    0  501  0.00000000000E+00  0.00000000000E+00 -0.11708023111E+04  0.11708023111E+04  0.25500000920E-02 0. -1.
    10030    2    1    2    0    0  0.00000000000E+00  0.00000000000E+00  0.59234667555E+03  0.29339512977E+04  0.28735336492E+04 0.  0.
        4    1    3    3  502    0  0.10239253245E+04 -0.86147543034E+03 -0.23802339771E+03  0.13591246219E+04  0.12699999809E+01 0. -1.
       -4    1    3    3    0  502 -0.10239253245E+04  0.86147543034E+03  0.83037007326E+03  0.15748266758E+04  0.12699999809E+01 0.  1.
</event>
<event>
 5   0  0.2565004E-06  0.3548690E+04  0.7818609E-02  0.8102347E-01
        2   -1    0    0  501    0  0.00000000000E+00  0.00000000000E+00  0.22790246925E+04  0.22790246925E+04  0.25500000920E-02 0. -1.
       -2   -1    0    0    0  501  0.00000000000E+00  0.00000000000E+00 -0.13814246043E+04  0.13814246043E+04  0.25500000920E-02 0.  1.
    10030    2    1    2    0    0  0.00000000000E+00  0.00000000000E+00  0.89760008812E+03  0.36604492968E+04  0.35486903410E+04 0.  0.
        3    1    3    3  502    0 -0.13178553512E+04 -0.99632675498E+03 -0.21880072599E+03  0.16665183759E+04  0.10100000352E+00 0. -1.
       -3    1    3    3    0  502  0.13178553512E+04  0.99632675498E+03  0.11164008141E+04  0.19939309209E+04  0.10100000352E+00 0.  1.
</event>
<event>
 5   0  0.1125196E-06  0.3285939E+04  0.7818609E-02  0.8166482E-01
       -1   -1    0    0    0  501  0.00000000000E+00  0.00000000000E+00  0.10522277005E+04  0.10522277005E+04  0.50400001928E-02 0.  1.
        1   -1    0    0  501    0  0.00000000000E+00  0.00000000000E+00 -0.25653653977E+04  0.25653653977E+04  0.50400001928E-02 0. -1.
    10030    2    1    2    0    0  0.00000000000E+00  0.00000000000E+00 -0.15131376972E+04  0.36175930982E+04  0.32859388511E+04 0.  0.
        4    1    3    3  502    0 -0.95088282769E+03 -0.19910584031E+03 -0.22152616062E+04  0.24189268043E+04  0.12699999809E+01 0. -1.
       -4    1    3    3    0  502  0.95088282769E+03  0.19910584031E+03  0.70212390902E+03  0.11986662939E+04  0.12699999809E+01 0.  1.
</event>
<event>
 5   0  0.1908726E-06  0.2751765E+04  0.7818609E-02  0.8318402E-01
       -2   -1    0    0    0  501  0.00000000000E+00  0.00000000000E+00  0.14107165037E+04  0.14107165037E+04  0.25500000920E-02 0.  1.
        2   -1    0    0  501    0  0.00000000000E+00  0.00000000000E+00 -0.13419088711E+04  0.13419088711E+04  0.25500000920E-02 0. -1.
    10030    2    1    2    0    0  0.00000000000E+00  0.00000000000E+00  0.68807632667E+02  0.27526253748E+04  0.27517652450E+04 0.  0.
        5    1    3    3  502    0  0.11936084416E+04  0.48165896135E+03 -0.45189054003E+03  0.13641567421E+04  0.46999998093E+01 0. -1.
       -5    1    3    3    0  502 -0.11936084416E+04 -0.48165896135E+03  0.52069817269E+03  0.13884686327E+04  0.46999998093E+01 0.  1.
</event>
<event>
 5   0  0.1908726E-06  0.2945356E+04  0.7818609E-02  0.8259509E-01
       -2   -1    0    0    0  501  0.00000000000E+00  0.00000000000E+00  0.96493649967E+03  0.96493649967E+03  0.25500000920E-02 0.  1.
        2   -1    0    0  501    0  0.00000000000E+00  0.00000000000E+00 -0.22475891775E+04  0.22475891775E+04  0.25500000920E-02 0. -1.
    10030    2    1    2    0    0  0.00000000000E+00  0.00000000000E+00 -0.12826526778E+04  0.32125256771E+04  0.29453562322E+04 0.  0.
        5    1    3    3  502    0 -0.14127448099E+03  0.82334434143E+03  0.68149440375E+03  0.10781053269E+04  0.46999998093E+01 0.  1.
       -5    1    3    3    0  502  0.14127448099E+03 -0.82334434143E+03 -0.19641470816E+04  0.21344203502E+04  0.46999998093E+01 0. -1.
</event>
<event>
 5   0  0.1908726E-06  0.3301128E+04  0.7818609E-02  0.8162608E-01
       -2   -1    0    0    0  501  0.00000000000E+00  0.00000000000E+00  0.14640323355E+04  0.14640323355E+04  0.25500000920E-02 0. -1.
        2   -1    0    0  501    0  0.00000000000E+00  0.00000000000E+00 -0.18608612708E+04  0.18608612708E+04  0.25500000920E-02 0.  1.
    10030    2    1    2    0    0  0.00000000000E+00  0.00000000000E+00 -0.39682893529E+03  0.33248936063E+04  0.33011277299E+04 0.  0.
        5    1    3    3  502    0 -0.10679969676E+04 -0.75178874428E+03 -0.12149052232E+04  0.17837658563E+04  0.46999998093E+01 0.  1.
       -5    1    3    3    0  502  0.10679969676E+04  0.75178874428E+03  0.81807628790E+03  0.15411277500E+04  0.46999998093E+01 0. -1.
</event>
<event>
 5   0  0.1089337E-06  0.3224166E+04  0.7818609E-02  0.8182464E-01
        1   -1    0    0  501    0  0.00000000000E+00  0.00000000000E+00  0.11989020836E+04  0.11989020837E+04  0.50400001928E-02 0.  1.
       -1   -1    0    0    0  501  0.00000000000E+00  0.00000000000E+00 -0.21676589828E+04  0.21676589828E+04  0.50400001928E-02 0. -1.
    10030    2    1    2    0    0  0.00000000000E+00  0.00000000000E+00 -0.96875689917E+03  0.33665610665E+04  0.32241655486E+04 0.  0.
        2    1    3    3  502    0 -0.16009125777E+03 -0.65170144298E+03 -0.20148790210E+04  0.21236952349E+04  0.25500000920E-02 0. -1.
       -2    1    3    3    0  502  0.16009125777E+03  0.65170144298E+03  0.10461221218E+04  0.12428658316E+04  0.25500000920E-02 0.  1.
</event>
<event>
 5   0  0.1110956E-06  0.1874074E+04  0.7818609E-02  0.8667870E-01
       -1   -1    0    0    0  501  0.00000000000E+00  0.00000000000E+00  0.75831635371E+03  0.75831635373E+03  0.50400001928E-02 0. -1.
        1   -1    0    0  501    0  0.00000000000E+00  0.00000000000E+00 -0.11578787972E+04  0.11578787972E+04  0.50400001928E-02 0.  1.
    10030    2    1    2    0    0  0.00000000000E+00  0.00000000000E+00 -0.39956244352E+03  0.19161951510E+04  0.18740740941E+04 0.  0.
        1    1    3    3  502    0  0.53844293224E+03 -0.74297916680E+03 -0.39405050517E+03  0.99860634597E+03  0.50400001928E-02 0. -1.
       -1    1    3    3    0  502 -0.53844293224E+03  0.74297916680E+03 -0.55119383516E+01  0.91758880500E+03  0.50400001928E-02 0.  1.
</event>
<event>
 5   0  0.2565004E-06  0.3407539E+04  0.7818609E-02  0.8136059E-01
       -2   -1    0    0    0  501  0.00000000000E+00  0.00000000000E+00  0.12180967875E+04  0.12180967875E+04  0.25500000920E-02 0.  1.
        2   -1    0    0  501    0  0.00000000000E+00  0.00000000000E+00 -0.23830867098E+04  0.23830867098E+04  0.25500000920E-02 0. -1.
    10030    2    1    2    0    0  0.00000000000E+00  0.00000000000E+00 -0.11649899223E+04  0.36011834973E+04  0.34075388570E+04 0.  0.
        3    1    3    3  502    0 -0.89601384837E+03  0.10962849906E+04  0.41906867245E+03  0.14765839494E+04  0.10100000352E+00 0.  1.
       -3    1    3    3    0  502  0.89601384837E+03 -0.10962849906E+04 -0.15840585948E+04  0.21245995479E+04  0.10100000352E+00 0. -1.
</event>
<event>
 5   0  0.1782660E-06  0.4068779E+04  0.7818609E-02  0.7990814E-01
       -2   -1    0    0    0  501  0.00000000000E+00  0.00000000000E+00  0.23860814329E+04  0.23860814329E+04  0.25500000920E-02 0.  1.
        2   -1    0    0  501    0  0.00000000000E+00  0.00000000000E+00 -0.17345347184E+04  0.17345347184E+04  0.25500000920E-02 0. -1.
    10030    2    1    2    0    0  0.00000000000E+00  0.00000000000E+00  0.65154671449E+03  0.41206161512E+04  0.40687792204E+04 0.  0.
        4    1    3    3  502    0 -0.15860301829E+04  0.88782920203E+03  0.12512023560E+04  0.22066357610E+04  0.12699999809E+01 0.  1.
       -4    1    3    3    0  502  0.15860301829E+04 -0.88782920203E+03 -0.59965564147E+03  0.19139803903E+04  0.12699999809E+01 0. -1.
</event>
<event>
 5   0  0.1102175E-06  0.1784567E+04  0.7818609E-02  0.8714550E-01
       -1   -1    0    0    0  501  0.00000000000E+00  0.00000000000E+00  0.86745975873E+03  0.86745975875E+03  0.50400001928E-02 0. -1.
        1   -1    0    0  501    0  0.00000000000E+00  0.00000000000E+00 -0.91781712905E+03  0.91781712906E+03  0.50400001928E-02 0.  1.
    10030    2    1    2    0    0  0.00000000000E+00  0.00000000000E+00 -0.50357370317E+02  0.17852768878E+04  0.17845665304E+04 0.  0.
        5    1    3    3  502    0 -0.42062837191E+03  0.74419355372E+02  0.75851100061E+03  0.87053288034E+03  0.46999998093E+01 0. -1.
       -5    1    3    3    0  502  0.42062837191E+03 -0.74419355372E+02 -0.80886837093E+03  0.91474400747E+03  0.46999998093E+01 0.  1.
</event>
<event>
 5   0  0.1130707E-06  0.3568466E+04  0.7818609E-02  0.8097753E-01
       -1   -1    0    0    0  501  0.00000000000E+00  0.00000000000E+00  0.18078722173E+04  0.18078722173E+04  0.50400001928E-02 0. -1.
        1   -1    0    0  501    0  0.00000000000E+00  0.00000000000E+00 -0.17609031842E+04  0.17609031843E+04  0.50400001928E-02 0.  1.
    10030    2    1    2    0    0  0.00000000000E+00  0.00000000000E+00  0.46969033035E+02  0.35687754015E+04  0.35684663059E+04 0.  0.
        3    1    3    3  502    0  0.44952909639E+03  0.33658785036E+03  0.17171837316E+04  0.18066786565E+04  0.10100000352E+00 0. -1.
       -3    1    3    3    0  502 -0.44952909639E+03 -0.33658785036E+03 -0.16702146986E+04  0.17620967451E+04  0.10100000352E+00 0.  1.
</event>
<event>
 5   0  0.1130707E-06  0.3321757E+04  0.7818609E-02  0.8157381E-01
        1   -1    0    0  501    0  0.00000000000E+00  0.00000000000E+00  0.21017766605E+04  0.21017766605E+04  0.50400001928E-02 0.  1.
       -1   -1    0    0    0  501  0.00000000000E+00  0.00000000000E+00 -0.13124689817E+04  0.13124689817E+04  0.50400001928E-02 0. -1.
    10030    2    1    2    0    0  0.00000000000E+00  0.00000000000E+00  0.78930767872E+03  0.34142456422E+04  0.33217565675E+04 0.  0.
        3    1    3    3  502    0 -0.36844940239E+03  0.16067276359E+04  0.60325289654E+03  0.17553468960E+04  0.10100000352E+00 0.  1.
       -3    1    3    3    0  502  0.36844940239E+03 -0.16067276359E+04  0.18605478218E+03  0.16588987462E+04  0.10100000352E+00 0. -1.
</event>
<event>
 5   0  0.3378848E-06  0.1752767E+04  0.7818609E-02  0.8731829E-01
        2   -1    0    0  501    0  0.00000000000E+00  0.00000000000E+00  0.13629894188E+04  0.13629894188E+04  0.25500000920E-02 0. -1.
       -2   -1    0    0    0  501  0.00000000000E+00  0.00000000000E+00 -0.56350229539E+03  0.56350229539E+03  0.25500000920E-02 0.  1.
    10030    2    1    2    0    0  0.00000000000E+00  0.00000000000E+00  0.79948712336E+03  0.19264917141E+04  0.17527665744E+04 0.  0.
        1    1    3    3  502    0 -0.35031254259E+03  0.79332022463E+03  0.26083784266E+03  0.90560048393E+03  0.50400001928E-02 0.  1.
       -1    1    3    3    0  502  0.35031254259E+03 -0.79332022463E+03  0.53864928070E+03  0.10208912302E+04  0.50400001928E-02 0. -1.
</event>
<event>
 5   0  0.1782660E-06  0.3968958E+04  0.7818609E-02  0.8010838E-01
        2   -1    0    0  501    0  0.00000000000E+00  0.00000000000E+00  0.17516330913E+04  0.17516330913E+04  0.25500000920E-02 0. -1.
       -2   -1    0    0    0  501  0.00000000000E+00  0.00000000000E+00 -0.22482777302E+04  0.22482777302E+04  0.25500000920E-02 0.  1.
    10030    2    1    2    0    0  0.00000000000E+00  0.00000000000E+00 -0.49664463891E+03  0.39999108216E+04  0.39689583877E+04 0.  0.
        4    1    3    3  502    0 -0.14575075082E+02 -0.11181349658E+04  0.14038890214E+04  0.17948103610E+04  0.12699999809E+01 0. -1.
       -4    1    3    3    0  502  0.14575075082E+02  0.11181349658E+04 -0.19005336603E+04  0.22051004606E+04  0.12699999809E+01 0.  1.
</event>
<event>
 5   0  0.1782660E-06  0.3481733E+04  0.7818609E-02  0.8118133E-01
        2   -1    0    0  501    0  0.00000000000E+00  0.00000000000E+00  0.15087722355E+04  0.15087722355E+04  0.25500000920E-02 0.  1.
       -2   -1    0    0    0  501  0.00000000000E+00  0.00000000000E+00 -0.20086633041E+04  0.20086633041E+04  0.25500000920E-02 0. -1.
    10030    2    1    2    0    0  0.00000000000E+00  0.00000000000E+00 -0.49989106854E+03  0.35174355396E+04  0.34817325709E+04 0.  0.
        4    1    3    3  502    0  0.58803392365E+03  0.85038580664E+01 -0.19052705462E+04  0.19939693273E+04  0.12699999809E+01 0. -1.
       -4    1    3    3    0  502 -0.58803392365E+03 -0.85038580664E+01  0.14053794777E+04  0.15234662123E+04  0.12699999809E+01 0.  1.
</event>
<event>
 5   0  0.1089337E-06  0.3473468E+04  0.7818609E-02  0.8120107E-01
        1   -1    0    0  501    0  0.00000000000E+00  0.00000000000E+00  0.16657251908E+04  0.16657251908E+04  0.50400001928E-02 0. -1.
       -1   -1    0    0    0  501  0.00000000000E+00  0.00000000000E+00 -0.18107699091E+04  0.18107699091E+04  0.50400001928E-02 0.  1.
    10030    2    1    2    0    0  0.00000000000E+00  0.00000000000E+00 -0.14504471824E+03  0.34764950999E+04  0.34734680378E+04 0.  0.
        2    1    3    3  502    0 -0.21854142555E+03 -0.14341483332E+04  0.88314129134E+03  0.16983757938E+04  0.25500000920E-02 0. -1.
       -2    1    3    3    0  502  0.21854142555E+03  0.14341483332E+04 -0.10281860096E+04  0.17781193061E+04  0.25500000920E-02 0.  1.
</event>
<event>
 5   0  0.1110956E-06  0.3749380E+04  0.7818609E-02  0.8057106E-01
       -1   -1    0    0    0  501  0.00000000000E+00  0.00000000000E+00  0.12770103763E+04  0.12770103763E+04  0.50400001928E-02 0. -1.
        1   -1    0    0  501    0  0.00000000000E+00  0.00000000000E+00 -0.27521017344E+04  0.27521017344E+04  0.50400001928E-02 0.  1.
    10030    2    1    2    0    0  0.00000000000E+00  0.00000000000E+00 -0.14750913580E+04  0.40291121107E+04  0.37493799335E+04 0.  0.
        1    1    3    3  502    0 -0.64835890921E+03  0.83823896274E+03 -0.23993520897E+04  0.26229571640E+04  0.50400001928E-02 0.  1.
       -1    1    3    3    0  502  0.64835890921E+03 -0.83823896274E+03  0.92426073171E+03  0.14061549467E+04  0.50400001928E-02 0. -1.
</event>
<event>
 5   0  0.1125196E-06  0.3448307E+04  0.7818609E-02  0.8126151E-01
        1   -1    0    0  501    0  0.00000000000E+00  0.00000000000E+00  0.18660614898E+04  0.18660614898E+04  0.50400001928E-02 0.  1.
       -1   -1    0    0    0  501  0.00000000000E+00  0.00000000000E+00 -0.15930375237E+04  0.15930375237E+04  0.50400001928E-02 0. -1.
    10030    2    1    2    0    0  0.00000000000E+00  0.00000000000E+00  0.27302396613E+03  0.34590990136E+04  0.34483073963E+04 0.  0.
        4    1    3    3  502    0  0.47682537447E+03  0.16245557199E+04 -0.19033070838E+03  0.17037520701E+04  0.12699999809E+01 0. -1.
       -4    1    3    3    0  502 -0.47682537447E+03 -0.16245557199E+04  0.46335467451E+03  0.17553469435E+04  0.12699999809E+01 0.  1.
</event>
<event>
 5   0  0.1782660E-06  0.3447660E+04  0.7818609E-02  0.8126307E-01
        2   -1    0    0  501    0  0.00000000000E+00  0.00000000000E+00  0.14713259128E+04  0.14713259128E+04  0.25500000920E-02 0. -1.
       -2   -1    0    0    0  501  0.00000000000E+00  0.00000000000E+00 -0.20196681156E+04  0.20196681156E+04  0.25500000920E-02 0.  1.
    10030    2    1    2    0    0  0.00000000000E+00  0.00000000000E+00 -0.54834220279E+03  0.34909940284E+04  0.34476600957E+04 0.  0.
        4    1    3    3  502    0 -0.13942604682E+04 -0.91990440873E+03 -0.70543763181E+03  0.18132375023E+04  0.12699999809E+01 0.  1.
       -4    1    3    3    0  502  0.13942604682E+04  0.91990440873E+03  0.15709542903E+03  0.16777565262E+04  0.12699999809E+01 0. -1.
</event>
<event>
 5   0  0.1089337E-06  0.3354741E+04  0.7818609E-02  0.8149105E-01
        1   -1    0    0  501    0  0.00000000000E+00  0.00000000000E+00  0.26119273879E+04  0.26119273879E+04  0.50400001928E-02 0.  1.
       -1   -1    0    0    0  501  0.00000000000E+00  0.00000000000E+00 -0.10772010831E+04  0.10772010831E+04  0.50400001928E-02 0. -1.
    10030    2    1    2    0    0  0.00000000000E+00  0.00000000000E+00  0.15347263048E+04  0.36891284711E+04  0.33547405333E+04 0.  0.
        2    1    3    3  502    0 -0.41903296554E+03  0.14046735481E+04  0.16640374417E+04  0.22175926159E+04  0.25500000920E-02 0.  1.
       -2    1    3    3    0  502  0.41903296554E+03 -0.14046735481E+04 -0.12931113694E+03  0.14715358551E+04  0.25500000920E-02 0. -1.
</event>
<event>
 5   0  0.1130707E-06  0.3488552E+04  0.7818609E-02  0.8116508E-01
       -1   -1    0    0    0  501  0.00000000000E+00  0.00000000000E+00  0.13916926511E+04  0.13916926511E+04  0.50400001928E-02 0.  1.
        1   -1    0    0  501    0  0.00000000000E+00  0.00000000000E+00 -0.21861861054E+04  0.21861861054E+04  0.50400001928E-02 0. -1.
    10030    2    1    2    0    0  0.00000000000E+00  0.00000000000E+00 -0.79449345431E+03  0.35778787566E+04  0.34885522137E+04 0.  0.
        3    1    3    3  502    0 -0.10233092267E+04  0.96195022622E+03 -0.14581360340E+04  0.20245174030E+04  0.10100000352E+00 0. -1.
       -3    1    3    3    0  502  0.10233092267E+04 -0.96195022622E+03  0.66364257965E+03  0.15533613536E+04  0.10100000352E+00 0.  1.
</event>
<event>
 5   0  0.3378848E-06  0.2530770E+04  0.7818609E-02  0.8392105E-01
        2   -1    0    0  501    0  0.00000000000E+00  0.00000000000E+00  0.13240974662E+04  0.13240974662E+04  0.25500000920E-02 0.  1.
       -2   -1    0    0    0  501  0.00000000000E+00  0.00000000000E+00 -0.12092757236E+04  0.12092757236E+04  0.25500000920E-02 0. -1.
    10030    2    1    2    0    0  0.00000000000E+00  0.00000000000E+00  0.11482174255E+03  0.25333731898E+04  0.25307697814E+04 0.  0.
        1    1    3    3  502    0  0.77987820437E+03  0.26158731029E+03 -0.90511921203E+03  0.12230612097E+04  0.50400001928E-02 0. -1.
       -1    1    3    3    0  502 -0.77987820437E+03 -0.26158731029E+03  0.10199409546E+04  0.13103119802E+04  0.50400001928E-02 0.  1.
</event>
<event>
 5   0  0.1110956E-06  0.1927358E+04  0.7818609E-02  0.8641357E-01
       -1   -1    0    0    0  501  0.00000000000E+00  0.00000000000E+00  0.34486202044E+03  0.34486202047E+03  0.50400001928E-02 0. -1.
        1   -1    0    0  501    0  0.00000000000E+00  0.00000000000E+00 -0.26928962379E+04  0.26928962379E+04  0.50400001928E-02 0.  1.
    10030    2    1    2    0    0  0.00000000000E+00  0.00000000000E+00 -0.23480342175E+04  0.30377582584E+04  0.19273584384E+04 0.  0.
        1    1    3    3  502    0  0.82938088014E+03  0.19021997195E+01 -0.19474456627E+04  0.21167004682E+04  0.50400001928E-02 0.  1.
       -1    1    3    3    0  502 -0.82938088014E+03 -0.19021997195E+01 -0.40058855479E+03  0.92105779024E+03  0.50400001928E-02 0. -1.
</event>
<event>
 5   0  0.3378848E-06  0.3391973E+04  0.7818609E-02  0.8139879E-01
       -2   -1    0    0    0  501  0.00000000000E+00  0.00000000000E+00  0.18467253593E+04  0.18467253593E+04  0.25500000920E-02 0. -1.
        2   -1    0    0  501    0  0.00000000000E+00  0.00000000000E+00 -0.15575517782E+04  0.15575517782E+04  0.25500000920E-02 0.  1.
    10030    2    1    2    0    0  0.00000000000E+00  0.00000000000E+00  0.28917358107E+03  0.34042771376E+04  0.33919730938E+04 0.  0.
        1    1    3    3  502    0  0.11745156691E+04  0.77619801255E+03  0.10937445315E+04  0.17827640090E+04  0.50400001928E-02 0. -1.
       -1    1    3    3    0  502 -0.11745156691E+04 -0.77619801255E+03 -0.80457095047E+03  0.16215131285E+04  0.50400001928E-02 0.  1.
</event>
<event>
 5   0  0.1782660E-06  0.3386989E+04  0.7818609E-02  0.8141107E-01
        2   -1    0    0  501    0  0.00000000000E+00  0.00000000000E+00  0.14686709134E+04  0.14686709134E+04  0.25500000920E-02 0.  1.
       -2   -1    0    0    0  501  0.00000000000E+00  0.00000000000E+00 -0.19527343825E+04  0.19527343825E+04  0.25500000920E-02 0. -1.
    10030    2    1    2    0    0  0.00000000000E+00  0.00000000000E+00 -0.48406346917E+03  0.34214052959E+04  0.33869893352E+04 0.  0.
        4    1    3    3  502    0  0.14661573835E+04  0.81859711701E+03 -0.46381645216E+03  0.17420809474E+04  0.12699999809E+01 0. -1.
       -4    1    3    3    0  502 -0.14661573835E+04 -0.81859711701E+03 -0.20247017006E+02  0.16793243485E+04  0.12699999809E+01 0.  1.
</event>
<event>
 5   0  0.1110956E-06  0.3492264E+04  0.7818609E-02  0.8115626E-01
       -1   -1    0    0    0  501  0.00000000000E+00  0.00000000000E+00  0.17924466768E+04  0.17924466768E+04  0.50400001928E-02 0. -1.
        1   -1    0    0  501    0  0.00000000000E+00  0.00000000000E+00 -0.17010139858E+04  0.17010139858E+04  0.50400001928E-02 0.  1.
    10030    2    1    2    0    0  0.00000000000E+00  0.00000000000E+00  0.91432690947E+02  0.34934606626E+04  0.34922639454E+04 0.  0.
        1    1    3    3  502    0 -0.12153046551E+04  0.12261893166E+04  0.30747607534E+03  0.17535812447E+04  0.50400001928E-02 0. -1.
       -1    1    3    3    0  502  0.12153046551E+04 -0.12261893166E+04 -0.21604338439E+03  0.17398794179E+04  0.50400001928E-02 0.  1.
</event>
<event>
 5   0  0.1908726E-06  0.1848545E+04  0.7818609E-02  0.8680901E-01
       -2   -1    0    0    0  501  0.00000000000E+00  0.00000000000E+00  0.12734477572E+04  0.12734477572E+04  0.25500000920E-02 0.  1.
        2   -1    0    0  501    0  0.00000000000E+00  0.00000000000E+00 -0.67083999558E+03  0.67083999559E+03  0.25500000920E-02 0. -1.
    10030    2    1    2    0    0  0.00000000000E+00  0.00000000000E+00  0.60260776166E+03  0.19442877528E+04  0.18485450363E+04 0.  0.
        5    1    3    3  502    0 -0.90034387386E+03 -0.19651801182E+03  0.37581941008E+03  0.99523903619E+03  0.46999998093E+01 0.  1.
       -5    1    3    3    0  502  0.90034387386E+03  0.19651801182E+03  0.22678835158E+03  0.94904871665E+03  0.46999998093E+01 0. -1.
</event>
<event>
 5   0  0.3041329E-06  0.3494131E+04  0.7818609E-02  0.8115182E-01
        2   -1    0    0  501    0  0.00000000000E+00  0.00000000000E+00  0.20243950308E+04  0.20243950308E+04  0.25500000920E-02 0. -1.
       -2   -1    0    0    0  501  0.00000000000E+00  0.00000000000E+00 -0.15077280247E+04  0.15077280247E+04  0.25500000920E-02 0.  1.
    10030    2    1    2    0    0  0.00000000000E+00  0.00000000000E+00  0.51666700615E+03  0.35321230555E+04  0.34941305763E+04 0.  0.
        2    1    3    3  502    0 -0.16972060313E+04 -0.16288391256E+03  0.64352480599E+03  0.18224060079E+04  0.25500000920E-02 0. -1.
       -2    1    3    3    0  502  0.16972060313E+04  0.16288391256E+03 -0.12685779984E+03  0.17097170476E+04  0.25500000920E-02 0.  1.
</event>
<event>
 5   0  0.3041329E-06  0.1946642E+04  0.7818609E-02  0.8631982E-01
        2   -1    0    0  501    0  0.00000000000E+00  0.00000000000E+00  0.10904590886E+04  0.10904590886E+04  0.25500000920E-02 0. -1.
       -2   -1    0    0    0  501  0.00000000000E+00  0.00000000000E+00 -0.86876565884E+03  0.86876565884E+03  0.25500000920E-02 0.  1.
    10030    2    1    2    0    0  0.00000000000E+00  0.00000000000E+00  0.22169342978E+03  0.19592247475E+04  0.19466416296E+04 0.  0.
        2    1    3    3  502    0 -0.86411555099E+02 -0.58911870310E+03 -0.66408195353E+03  0.89192636703E+03  0.25500000920E-02 0.  1.
       -2    1    3    3    0  502  0.86411555099E+02  0.58911870310E+03  0.88577538331E+03  0.10672983804E+04  0.25500000920E-02 0. -1.
</event>
<event>
 5   0  0.1125196E-06  0.2285503E+04  0.7818609E-02  0.8483659E-01
        1   -1    0    0  501    0  0.00000000000E+00  0.00000000000E+00  0.23191876661E+04  0.23191876661E+04  0.50400001928E-02 0.  1.
       -1   -1    0    0    0  501  0.00000000000E+00  0.00000000000E+00 -0.56307711275E+03  0.56307711277E+03  0.50400001928E-02 0. -1.
    10030    2    1    2    0    0  0.00000000000E+00  0.00000000000E+00  0.17561105534E+04  0.28822647789E+04  0.22855034413E+04 0.  0.
        4    1    3    3  502    0 -0.11176462149E+04  0.23460640484E+03  0.93015373686E+03  0.14728750164E+04  0.12699999809E+01 0. -1.
       -4    1    3    3    0  502  0.11176462149E+04 -0.23460640484E+03  0.82595681650E+03  0.14093897625E+04  0.12699999809E+01 0.  1.
</event>
<event>
 5   0  0.1908726E-06  0.2540631E+04  0.7818609E-02  0.8388652E-01
       -2   -1    0    0    0  501  0.00000000000E+00  0.00000000000E+00  0.12523874230E+04  0.12523874230E+04  0.25500000920E-02 0.  1.
        2   -1    0    0  501    0  0.00000000000E+00  0.00000000000E+00 -0.12885006618E+04  0.12885006618E+04  0.25500000920E-02 0. -1.
    10030    2    1    2    0    0  0.00000000000E+00  0.00000000000E+00 -0.36113238794E+02  0.25408880847E+04  0.25406314359E+04 0.  0.
        5    1    3    3  502    0 -0.74567880176E+02 -0.10719144046E+04  0.65959508813E+03  0.12608126863E+04  0.46999998093E+01 0. -1.
       -5    1    3    3    0  502  0.74567880176E+02  0.10719144046E+04 -0.69570832692E+03  0.12800753985E+04  0.46999998093E+01 0.  1.
</event>
<event>
 5   0  0.1782660E-06  0.3347969E+04  0.7818609E-02  0.8150796E-01
        2   -1    0    0  501    0  0.00000000000E+00  0.00000000000E+00  0.15491974227E+04  0.15491974227E+04  0.25500000920E-02 0. -1.
       -2   -1    0    0    0  501  0.00000000000E+00  0.00000000000E+00 -0.18088230003E+04  0.18088230003E+04  0.25500000920E-02 0.  1.
    10030    2    1    2    0    0  0.00000000000E+00  0.00000000000E+00 -0.25962557758E+03  0.33580204230E+04  0.33479688948E+04 0.  0.
        4    1    3    3  502    0  0.16430530378E+04 -0.26533512155E+03  0.50159209104E+02  0.16650956642E+04  0.12699999809E+01 0. -1.
       -4    1    3    3    0  502 -0.16430530378E+04  0.26533512155E+03 -0.30978478668E+03  0.16929247588E+04  0.12699999809E+01 0.  1.
</event>
<event>
 5   0  0.1042825E-06  0.2526366E+04  0.7818609E-02  0.8393652E-01
       -4   -1    0    0    0  501  0.00000000000E+00  0.00000000000E+00  0.21466635041E+04  0.21466638798E+04  0.12699999809E+01 0.  1.
        4   -1    0    0  501    0  0.00000000000E+00  0.00000000000E+00 -0.74330667499E+03  0.74330775994E+03  0.12699999809E+01 0. -1.
    10030    2    1    2    0    0  0.00000000000E+00  0.00000000000E+00  0.14033568291E+04  0.28899716397E+04  0.25263661034E+04 0.  0.
        3    1    3    3  502    0  0.17637968230E+03 -0.11623375760E+04  0.17312474319E+03  0.11883226076E+04  0.10100000352E+00 0. -1.
       -3    1    3    3    0  502 -0.17637968230E+03  0.11623375760E+04  0.12302320859E+04  0.17016490321E+04  0.10100000352E+00 0.  1.
</event>
<event>
 5   0  0.1782660E-06  0.3462732E+04  0.7818609E-02  0.8122679E-01
       -2   -1    0    0    0  501  0.00000000000E+00  0.00000000000E+00  0.13741832700E+04  0.13741832700E+04  0.25500000920E-02 0.  1.
        2   -1    0    0  501    0  0.00000000000E+00  0.00000000000E+00 -0.21813887018E+04  0.21813887018E+04  0.25500000920E-02 0. -1.
    10030    2    1    2    0    0  0.00000000000E+00  0.00000000000E+00 -0.80720543171E+03  0.35555719718E+04  0.34627317883E+04 0.  0.
        4    1    3    3  502    0 -0.14932103884E+04 -0.69124669962E+03  0.14947311563E+03  0.16522236801E+04  0.12699999809E+01 0.  1.
       -4    1    3    3    0  502  0.14932103884E+04  0.69124669962E+03 -0.95667854734E+03  0.19033482917E+04  0.12699999809E+01 0. -1.
</event>
<event>
 5   0  0.1089337E-06  0.3275412E+04  0.7818609E-02  0.8169180E-01
       -1   -1    0    0    0  501  0.00000000000E+00  0.00000000000E+00  0.16404525847E+04  0.16404525847E+04  0.50400001928E-02 0.  1.
        1   -1    0    0  501    0  0.00000000000E+00  0.00000000000E+00 -0.16349640916E+04  0.16349640916E+04  0.50400001928E-02 0. -1.
    10030    2    1    2    0    0  0.00000000000E+00  0.00000000000E+00  0.54884931122E+01  0.32754166763E+04  0.32754120779E+04 0.  0.
        2    1    3    3  502    0  0.15402413030E+04 -0.38702034138E+03 -0.39719762802E+03  0.16370381705E+04  0.25500000920E-02 0. -1.
       -2    1    3    3    0  502 -0.15402413030E+04  0.38702034138E+03  0.40268612113E+03  0.16383785058E+04  0.25500000920E-02 0.  1.
</event>
<event>
 5   0  0.1782660E-06  0.3383603E+04  0.7818609E-02  0.8141942E-01
        2   -1    0    0  501    0  0.00000000000E+00  0.00000000000E+00  0.24753885713E+04  0.24753885713E+04  0.25500000920E-02 0.  1.
       -2   -1    0    0    0  501  0.00000000000E+00  0.00000000000E+00 -0.11562597435E+04  0.11562597436E+04  0.25500000920E-02 0. -1.
    10030    2    1    2    0    0  0.00000000000E+00  0.00000000000E+00  0.13191288277E+04  0.36316483148E+04  0.33836029049E+04 0.  0.
        4    1    3    3  502    0  0.12466019791E+04  0.63685489934E+03 -0.36012903022E+03  0.14454394448E+04  0.12699999809E+01 0. -1.
       -4    1    3    3    0  502 -0.12466019791E+04 -0.63685489934E+03  0.16792578579E+04  0.21862088700E+04  0.12699999809E+01 0.  1.
</event>
<event>
 5   0  0.1130707E-06  0.2230377E+04  0.7818609E-02  0.8505890E-01
       -1   -1    0    0    0  501  0.00000000000E+00  0.00000000000E+00  0.93624203127E+03  0.93624203129E+03  0.50400001928E-02 0.  1.
        1   -1    0    0  501    0  0.00000000000E+00  0.00000000000E+00 -0.13283378459E+04  0.13283378459E+04  0.50400001928E-02 0. -1.
    10030    2    1    2    0    0  0.00000000000E+00  0.00000000000E+00 -0.39209581465E+03  0.22645798772E+04  0.22303772982E+04 0.  0.
        3    1    3    3  502    0 -0.91290380919E+03 -0.36241745259E+03 -0.73226195616E+03  0.12251315674E+04  0.10100000352E+00 0.  1.
       -3    1    3    3    0  502  0.91290380919E+03  0.36241745259E+03  0.34016614151E+03  0.10394483098E+04  0.10100000352E+00 0. -1.
</event>
<event>
 5   0  0.3378848E-06  0.3447053E+04  0.7818609E-02  0.8126454E-01
       -2   -1    0    0    0  501  0.00000000000E+00  0.00000000000E+00  0.19602946811E+04  0.19602946811E+04  0.25500000920E-02 0.  1.
        2   -1    0    0  501    0  0.00000000000E+00  0.00000000000E+00 -0.15153553306E+04  0.15153553306E+04  0.25500000920E-02 0. -1.
    10030    2    1    2    0    0  0.00000000000E+00  0.00000000000E+00  0.44493935043E+03  0.34756500117E+04  0.34470526509E+04 0.  0.
        1    1    3    3  502    0  0.45765039667E+02 -0.13411479560E+04 -0.86806252429E+03  0.15982192668E+04  0.50400001928E-02 0. -1.
       -1    1    3    3    0  502 -0.45765039667E+02  0.13411479560E+04  0.13130018747E+04  0.18774307449E+04  0.50400001928E-02 0.  1.
</event>
<event>
 5   0  0.3041329E-06  0.1861028E+04  0.7818609E-02  0.8674502E-01
        2   -1    0    0  501    0  0.00000000000E+00  0.00000000000E+00  0.13578216625E+04  0.13578216625E+04  0.25500000920E-02 0. -1.
       -2   -1    0    0    0  501  0.00000000000E+00  0.00000000000E+00 -0.63768025972E+03  0.63768025972E+03  0.25500000920E-02 0.  1.
    10030    2    1    2    0    0  0.00000000000E+00  0.00000000000E+00  0.72014140279E+03  0.19955019222E+04  0.18610277488E+04 0.  0.
        2    1    3    3  502    0 -0.81564455338E+03  0.15202572841E+03 -0.91639175998E+02  0.83473684365E+03  0.25500000920E-02 0.  1.
       -2    1    3    3    0  502  0.81564455338E+03 -0.15202572841E+03  0.81178057879E+03  0.11607650786E+04  0.25500000920E-02 0. -1.
</event>
<event>
 5   0  0.1782660E-06  0.3519434E+04  0.7818609E-02  0.8109200E-01
       -2   -1    0    0    0  501  0.00000000000E+00  0.00000000000E+00  0.13124088814E+04  0.13124088814E+04  0.25500000920E-02 0. -1.
        2   -1    0    0  501    0  0.00000000000E+00  0.00000000000E+00 -0.23594810891E+04  0.23594810891E+04  0.25500000920E-02 0.  1.
    10030    2    1    2    0    0  0.00000000000E+00  0.00000000000E+00 -0.10470722077E+04  0.36718899704E+04  0.35194340094E+04 0.  0.
        4    1    3    3  502    0  0.21016805142E+03 -0.17888855807E+01  0.12992662611E+04  0.13161566169E+04  0.12699999809E+01 0. -1.
       -4    1    3    3    0  502 -0.21016805142E+03  0.17888855807E+01 -0.23463384688E+04  0.23557333536E+04  0.12699999809E+01 0.  1.
</event>
<event>
 5   0  0.1908726E-06  0.3445048E+04  0.7818609E-02  0.8126938E-01
        2   -1    0    0  501    0  0.00000000000E+00  0.00000000000E+00  0.21473064790E+04  0.21473064790E+04  0.25500000920E-02 0.  1.
       -2   -1    0    0    0  501  0.00000000000E+00  0.00000000000E+00 -0.13817724132E+04  0.13817724132E+04  0.25500000920E-02 0. -1.
    10030    2    1    2    0    0  0.00000000000E+00  0.00000000000E+00  0.76553406577E+03  0.35290788922E+04  0.34450479563E+04 0.  0.
        5    1    3    3  502    0  0.10463079236E+04  0.11761569065E+04 -0.33354689346E+03  0.16091553560E+04  0.46999998093E+01 0.  1.
       -5    1    3    3    0  502 -0.10463079236E+04 -0.11761569065E+04  0.10990809592E+04  0.19199235361E+04  0.46999998093E+01 0. -1.
</event>
<event>
 5   0  0.3041329E-06  0.2062481E+04  0.7818609E-02  0.8577953E-01
        2   -1    0    0  501    0  0.00000000000E+00  0.00000000000E+00  0.18419459835E+04  0.18419459835E+04  0.25500000920E-02 0.  1.
       -2   -1    0    0    0  501  0.00000000000E+00  0.00000000000E+00 -0.57735515870E+03  0.57735515871E+03  0.25500000920E-02 0. -1.
    10030    2    1    2    0    0  0.00000000000E+00  0.00000000000E+00  0.12645908248E+04  0.24193011422E+04  0.20624810454E+04 0.  0.
        2    1    3    3  502    0 -0.83675197316E+03 -0.50469451822E+03  0.24576108343E+03  0.10076055436E+04  0.25500000920E-02 0.  1.
       -2    1    3    3    0  502  0.83675197316E+03  0.50469451822E+03  0.10188297414E+04  0.14116955987E+04  0.25500000920E-02 0. -1.
</event>
<event>
 5   0  0.1110956E-06  0.3463078E+04  0.7818609E-02  0.8122596E-01
       -1   -1    0    0    0  501  0.00000000000E+00  0.00000000000E+00  0.15385316171E+04  0.15385316171E+04  0.50400001928E-02 0. -1.
        1   -1    0    0  501    0  0.00000000000E+00  0.00000000000E+00 -0.19487584994E+04  0.19487584994E+04  0.50400001928E-02 0.  1.
    10030    2    1    2    0    0  0.00000000000E+00  0.00000000000E+00 -0.41022688233E+03  0.34872901165E+04  0.34630775709E+04 0.  0.
        1    1    3    3  502    0  0.76406700868E+00  0.15832586374E+04 -0.91109865147E+03  0.18266935292E+04  0.50400001928E-02 0.  1.
       -1    1    3    3    0  502 -0.76406700868E+00 -0.15832586374E+04  0.50087176915E+03  0.16605965874E+04  0.50400001928E-02 0. -1.
</event>
<event>
 5   0  0.1908726E-06  0.3698274E+04  0.7818609E-02  0.8068344E-01
       -2   -1    0    0    0  501  0.00000000000E+00  0.00000000000E+00  0.19977280610E+04  0.19977280610E+04  0.25500000920E-02 0.  1.
        2   -1    0    0  501    0  0.00000000000E+00  0.00000000000E+00 -0.17115983944E+04  0.17115983944E+04  0.25500000920E-02 0. -1.
    10030    2    1    2    0    0  0.00000000000E+00  0.00000000000E+00  0.28612966656E+03  0.37093264554E+04  0.36982742687E+04 0.  0.
        5    1    3    3  502    0  0.90334040810E+03 -0.77876719612E+03  0.15603637815E+04  0.19639906973E+04  0.46999998093E+01 0.  1.
       -5    1    3    3    0  502 -0.90334040810E+03  0.77876719612E+03 -0.12742341149E+04  0.17453357580E+04  0.46999998093E+01 0. -1.
</event>
<event>
 5   0  0.1102175E-06  0.2275664E+04  0.7818609E-02  0.8487579E-01
       -1   -1    0    0    0  501  0.00000000000E+00  0.00000000000E+00  0.99455876678E+03  0.99455876679E+03  0.50400001928E-02 0.  1.
        1   -1    0    0  501    0  0.00000000000E+00  0.00000000000E+00 -0.13017448524E+04  0.13017448524E+04  0.50400001928E-02 0. -1.
    10030    2    1    2    0    0  0.00000000000E+00  0.00000000000E+00 -0.30718608564E+03  0.22963036192E+04  0.22756640834E+04 0.  0.
        5    1    3    3  502    0 -0.66862775299E+03 -0.98228581059E+02 -0.10772792082E+04  0.12717171496E+04  0.46999998093E+01 0. -1.
       -5    1    3    3    0  502  0.66862775299E+03  0.98228581059E+02  0.77009312258E+03  0.10245864696E+04  0.46999998093E+01 0.  1.
</event>
<event>
 5   0  0.1908726E-06  0.3454581E+04  0.7818609E-02  0.8124639E-01
        2   -1    0    0  501    0  0.00000000000E+00  0.00000000000E+00  0.21229262330E+04  0.21229262330E+04  0.25500000920E-02 0. -1.
       -2   -1    0    0    0  501  0.00000000000E+00  0.00000000000E+00 -0.14053866781E+04  0.14053866781E+04  0.25500000920E-02 0.  1.
    10030    2    1    2    0    0  0.00000000000E+00  0.00000000000E+00  0.71753955487E+03  0.35283129111E+04  0.34545808698E+04 0.  0.
        5    1    3    3  502    0  0.80649144085E+03 -0.63687021401E+03  0.17767378423E+04  0.20525232189E+04  0.46999998093E+01 0. -1.
       -5    1    3    3    0  502 -0.80649144085E+03  0.63687021401E+03 -0.10591982875E+04  0.14757896923E+04  0.46999998093E+01 0.  1.
</event>
<event>
 5   0  0.1130707E-06  0.3490819E+04  0.7818609E-02  0.8115969E-01
        1   -1    0    0  501    0  0.00000000000E+00  0.00000000000E+00  0.97524903894E+03  0.97524903896E+03  0.50400001928E-02 0. -1.
       -1   -1    0    0    0  501  0.00000000000E+00  0.00000000000E+00 -0.31237714187E+04  0.31237714187E+04  0.50400001928E-02 0.  1.
    10030    2    1    2    0    0  0.00000000000E+00  0.00000000000E+00 -0.21485223797E+04  0.40990204576E+04  0.34908194304E+04 0.  0.
        3    1    3    3  502    0 -0.47355945392E+03 -0.27206678093E+03 -0.30208534230E+04  0.30698264288E+04  0.10100000352E+00 0.  1.
       -3    1    3    3    0  502  0.47355945392E+03  0.27206678093E+03  0.87233104327E+03  0.10291940288E+04  0.10100000352E+00 0. -1.
</event>
<event>
 5   0  0.3378848E-06  0.3554640E+04  0.7818609E-02  0.8100962E-01
       -2   -1    0    0    0  501  0.00000000000E+00  0.00000000000E+00  0.17093812420E+04  0.17093812420E+04  0.25500000920E-02 0. -1.
        2   -1    0    0  501    0  0.00000000000E+00  0.00000000000E+00 -0.18479588890E+04  0.18479588890E+04  0.25500000920E-02 0.  1.
    10030    2    1    2    0    0  0.00000000000E+00  0.00000000000E+00 -0.13857764699E+03  0.35573401309E+04  0.35546399315E+04 0.  0.
        1    1    3    3  502    0  0.33847674254E+03  0.16053282477E+04 -0.75334369652E+03  0.18053177042E+04  0.50400001928E-02 0.  1.
       -1    1    3    3    0  502 -0.33847674254E+03 -0.16053282477E+04  0.61476604953E+03  0.17520224267E+04  0.50400001928E-02 0. -1.
</event>
<event>
 5   0  0.1782660E-06  0.3620171E+04  0.7818609E-02  0.8085887E-01
       -2   -1    0    0    0  501  0.00000000000E+00  0.00000000000E+00  0.25353826748E+04  0.25353826748E+04  0.25500000920E-02 0.  1.
        2   -1    0    0  501    0  0.00000000000E+00  0.00000000000E+00 -0.12922744105E+04  0.12922744105E+04  0.25500000920E-02 0. -1.
    10030    2    1    2    0    0  0.00000000000E+00  0.00000000000E+00  0.12431082643E+04  0.38276570852E+04  0.36201713503E+04 0.  0.
        4    1    3    3  502    0  0.12306625855E+04 -0.11094875765E+04 -0.14884641148E+03  0.16636255434E+04  0.12699999809E+01 0. -1.
       -4    1    3    3    0  502 -0.12306625855E+04  0.11094875765E+04  0.13919546758E+04  0.21640315418E+04  0.12699999809E+01 0.  1.
</event>
<event>
 5   0  0.2565004E-06  0.3488311E+04  0.7818609E-02  0.8116566E-01
        2   -1    0    0  501    0  0.00000000000E+00  0.00000000000E+00  0.12696390319E+04  0.12696390319E+04  0.25500000920E-02 0. -1.
       -2   -1    0    0    0  501  0.00000000000E+00  0.00000000000E+00 -0.23960180597E+04  0.23960180597E+04  0.25500000920E-02 0.  1.
    10030    2    1    2    0    0  0.00000000000E+00  0.00000000000E+00 -0.11263790278E+04  0.36656570916E+04  0.34883107944E+04 0.  0.
        3    1    3    3  502    0 -0.40982835608E+03  0.15520131952E+04  0.15367590139E+03  0.16125509395E+04  0.10100000352E+00 0. -1.
       -3    1    3    3    0  502  0.40982835608E+03 -0.15520131952E+04 -0.12800549292E+04  0.20531061521E+04  0.10100000352E+00 0.  1.
</event>
<event>
 5   0  0.1908726E-06  0.3477599E+04  0.7818609E-02  0.8119119E-01
       -2   -1    0    0    0  501  0.00000000000E+00  0.00000000000E+00  0.21719535161E+04  0.21719535161E+04  0.25500000920E-02 0.  1.
        2   -1    0    0  501    0  0.00000000000E+00  0.00000000000E+00 -0.13920292945E+04  0.13920292945E+04  0.25500000920E-02 0. -1.
    10030    2    1    2    0    0  0.00000000000E+00  0.00000000000E+00  0.77992422152E+03  0.35639828106E+04  0.34775985512E+04 0.  0.
        5    1    3    3  502    0  0.94641806515E+03  0.14550319400E+04  0.49535500657E+03  0.18050550609E+04  0.46999998093E+01 0. -1.
       -5    1    3    3    0  502 -0.94641806515E+03 -0.14550319400E+04  0.28456921496E+03  0.17589277497E+04  0.46999998093E+01 0.  1.
</event>
<event>
 5   0  0.1908726E-06  0.2813266E+04  0.7818609E-02  0.8299162E-01
        2   -1    0    0  501    0  0.00000000000E+00  0.00000000000E+00  0.11715372200E+04  0.11715372200E+04  0.25500000920E-02 0.  1.
       -2   -1    0    0    0  501  0.00000000000E+00  0.00000000000E+00 -0.16889056803E+04  0.16889056803E+04  0.25500000920E-02 0. -1.
    10030    2    1    2    0    0  0.00000000000E+00  0.00000000000E+00 -0.51736846035E+03  0.28604429003E+04  0.28132656224E+04 0.  0.
        5    1    3    3  502    0  0.11027858544E+04 -0.65299083972E+03 -0.84811257759E+03  0.15368313869E+04  0.46999998093E+01 0. -1.
       -5    1    3    3    0  502 -0.11027858544E+04  0.65299083972E+03  0.33074411723E+03  0.13236115134E+04  0.46999998093E+01 0.  1.
</event>
<event>
 5   0  0.1130707E-06  0.2202047E+04  0.7818609E-02  0.8517577E-01
       -1   -1    0    0    0  501  0.00000000000E+00  0.00000000000E+00  0.10987848985E+04  0.10987848985E+04  0.50400001928E-02 0. -1.
        1   -1    0    0  501    0  0.00000000000E+00  0.00000000000E+00 -0.11032665897E+04  0.11032665897E+04  0.50400001928E-02 0.  1.
    10030    2    1    2    0    0  0.00000000000E+00  0.00000000000E+00 -0.44816912110E+01  0.22020514882E+04  0.22020469275E+04 0.  0.
        3    1    3    3  502    0  0.88617130696E+03  0.27783641090E+03  0.58916548666E+03  0.10998220935E+04  0.10100000352E+00 0. -1.
       -3    1    3    3    0  502 -0.88617130696E+03 -0.27783641090E+03 -0.59364717787E+03  0.11022293947E+04  0.10100000352E+00 0.  1.
</event>
<event>
 5   0  0.1130707E-06  0.3483695E+04  0.7818609E-02  0.8117665E-01
       -1   -1    0    0    0  501  0.00000000000E+00  0.00000000000E+00  0.15334337307E+04  0.15334337307E+04  0.50400001928E-02 0. -1.
        1   -1    0    0  501    0  0.00000000000E+00  0.00000000000E+00 -0.19785873623E+04  0.19785873623E+04  0.50400001928E-02 0.  1.
    10030    2    1    2    0    0  0.00000000000E+00  0.00000000000E+00 -0.44515363153E+03  0.35120210930E+04  0.34836949353E+04 0.  0.
        3    1    3    3  502    0  0.85724814697E+03  0.13559834281E+04  0.46151803863E+03  0.16693005580E+04  0.10100000352E+00 0. -1.
       -3    1    3    3    0  502 -0.85724814697E+03 -0.13559834281E+04 -0.90667167016E+03  0.18427205351E+04  0.10100000352E+00 0.  1.
</event>
<event>
 5   0  0.1089337E-06  0.3422303E+04  0.7818609E-02  0.8132454E-01
       -1   -1    0    0    0  501  0.00000000000E+00  0.00000000000E+00  0.11988733357E+04  0.11988733357E+04  0.50400001928E-02 0.  1.
        1   -1    0    0  501    0  0.00000000000E+00  0.00000000000E+00 -0.24423264072E+04  0.24423264072E+04  0.50400001928E-02 0. -1.
    10030    2    1    2    0    0  0.00000000000E+00  0.00000000000E+00 -0.12434530715E+04  0.36411997429E+04  0.34223033218E+04 0.  0.
        2    1    3    3  502    0 -0.12907000221E+04 -0.56447104814E+03  0.41174450983E+03  0.14676742325E+04  0.25500000920E-02 0.  1.
       -2    1    3    3    0  502  0.12907000221E+04  0.56447104814E+03 -0.16551975813E+04  0.21735255104E+04  0.25500000920E-02 0. -1.
</event>
<event>
 5   0  0.1125196E-06  0.2417430E+04  0.7818609E-02  0.8433007E-01
        1   -1    0    0  501    0  0.00000000000E+00  0.00000000000E+00  0.15955147008E+04  0.15955147009E+04  0.50400001928E-02 0.  1.
       -1   -1    0    0    0  501  0.00000000000E+00  0.00000000000E+00 -0.91568662162E+03  0.91568662163E+03  0.50400001928E-02 0. -1.
    10030    2    1    2    0    0  0.00000000000E+00  0.00000000000E+00  0.67982807922E+03  0.25112013225E+04  0.24174295987E+04 0.  0.
        4    1    3    3  502    0  0.11312778541E+03 -0.79619605945E+03 -0.59745425071E+03  0.10018379387E+04  0.12699999809E+01 0. -1.
       -4    1    3    3    0  502 -0.11312778541E+03  0.79619605945E+03  0.12772823299E+04  0.15093633837E+04  0.12699999809E+01 0.  1.
</event>
<event>
 5   0  0.1782660E-06  0.2924553E+04  0.7818609E-02  0.8265610E-01
       -2   -1    0    0    0  501  0.00000000000E+00  0.00000000000E+00  0.96228206040E+03  0.96228206040E+03  0.25500000920E-02 0.  1.
        2   -1    0    0  501    0  0.00000000000E+00  0.00000000000E+00 -0.22220635489E+04  0.22220635489E+04  0.25500000920E-02 0. -1.
    10030    2    1    2    0    0  0.00000000000E+00  0.00000000000E+00 -0.12597814885E+04  0.31843456093E+04  0.29245525402E+04 0.  0.
        4    1    3    3  502    0 -0.13204167145E+04  0.36554252845E+03 -0.11862918961E+04  0.18122945996E+04  0.12699999809E+01 0. -1.
       -4    1    3    3    0  502  0.13204167145E+04 -0.36554252845E+03 -0.73489592422E+02  0.13720510097E+04  0.12699999809E+01 0.  1.
</event>
<event>
 5   0  0.2565004E-06  0.3491890E+04  0.7818609E-02  0.8115715E-01
       -2   -1    0    0    0  501  0.00000000000E+00  0.00000000000E+00  0.20351100180E+04  0.20351100180E+04  0.25500000920E-02 0.  1.
        2   -1    0    0  501    0  0.00000000000E+00  0.00000000000E+00 -0.14978672333E+04  0.14978672333E+04  0.25500000920E-02 0. -1.
    10030    2    1    2    0    0  0.00000000000E+00  0.00000000000E+00  0.53724278471E+03  0.35329772514E+04  0.34918903833E+04 0.  0.
        3    1    3    3  502    0 -0.84019310967E+03 -0.51555551116E+02 -0.12789982743E+04  0.15311495787E+04  0.10100000352E+00 0. -1.
       -3    1    3    3    0  502  0.84019310967E+03  0.51555551116E+02  0.18162410590E+04  0.20018276727E+04  0.10100000352E+00 0.  1.
</event>
<event>
 5   0  0.1110956E-06  0.2445270E+04  0.7818609E-02  0.8422747E-01
        1   -1    0    0  501    0  0.00000000000E+00  0.00000000000E+00  0.15008943467E+04  0.15008943467E+04  0.50400001928E-02 0. -1.
       -1   -1    0    0    0  501  0.00000000000E+00  0.00000000000E+00 -0.99596408552E+03  0.99596408553E+03  0.50400001928E-02 0.  1.
    10030    2    1    2    0    0  0.00000000000E+00  0.00000000000E+00  0.50493026119E+03  0.24968584322E+04  0.24452704272E+04 0.  0.
        1    1    3    3  502    0 -0.16213972831E+02 -0.83628722177E+03  0.11630167458E+04  0.14325666342E+04  0.50400001928E-02 0. -1.
       -1    1    3    3    0  502  0.16213972831E+02  0.83628722177E+03 -0.65808648462E+03  0.10642917981E+04  0.50400001928E-02 0.  1.
</event>
<event>
 5   0  0.1102175E-06  0.3353552E+04  0.7818609E-02  0.8149401E-01
        1   -1    0    0  501    0  0.00000000000E+00  0.00000000000E+00  0.30891535877E+04  0.30891535877E+04  0.50400001928E-02 0.  1.
       -1   -1    0    0    0  501  0.00000000000E+00  0.00000000000E+00 -0.91014482004E+03  0.91014482006E+03  0.50400001928E-02 0. -1.
    10030    2    1    2    0    0  0.00000000000E+00  0.00000000000E+00  0.21790087677E+04  0.39992984078E+04  0.33535516315E+04 0.  0.
        5    1    3    3  502    0  0.34560187275E+03 -0.12535115534E+04  0.23520508325E+04  0.26875448047E+04  0.46999998093E+01 0.  1.
       -5    1    3    3    0  502 -0.34560187275E+03  0.12535115534E+04 -0.17304206476E+03  0.13117536031E+04  0.46999998093E+01 0. -1.
</event>
<event>
 5   0  0.1782660E-06  0.1837191E+04  0.7818609E-02  0.8686768E-01
        2   -1    0    0  501    0  0.00000000000E+00  0.00000000000E+00  0.81306685034E+03  0.81306685034E+03  0.25500000920E-02 0.  1.
       -2   -1    0    0    0  501  0.00000000000E+00  0.00000000000E+00 -0.10378208230E+04  0.10378208230E+04  0.25500000920E-02 0. -1.
    10030    2    1    2    0    0  0.00000000000E+00  0.00000000000E+00 -0.22475397268E+03  0.18508876734E+04  0.18371910165E+04 0.  0.
        4    1    3    3  502    0  0.55435275564E+03 -0.36965369771E+03  0.52468631491E+03  0.84808500510E+03  0.12699999809E+01 0.  1.
       -4    1    3    3    0  502 -0.55435275564E+03  0.36965369771E+03 -0.74944028760E+03  0.10028026683E+04  0.12699999809E+01 0. -1.
</event>
<event>
 5   0  0.1102175E-06  0.3520721E+04  0.7818609E-02  0.8108897E-01
       -1   -1    0    0    0  501  0.00000000000E+00  0.00000000000E+00  0.12589503433E+04  0.12589503434E+04  0.50400001928E-02 0. -1.
        1   -1    0    0  501    0  0.00000000000E+00  0.00000000000E+00 -0.24614705775E+04  0.24614705775E+04  0.50400001928E-02 0.  1.
    10030    2    1    2    0    0  0.00000000000E+00  0.00000000000E+00 -0.12025202342E+04  0.37204209208E+04  0.35207210788E+04 0.  0.
        5    1    3    3  502    0  0.95733731852E+03 -0.11634781642E+04 -0.15632079419E+04  0.21711327319E+04  0.46999998093E+01 0. -1.
       -5    1    3    3    0  502 -0.95733731852E+03  0.11634781642E+04  0.36068770772E+03  0.15492881890E+04  0.46999998093E+01 0.  1.
</event>
<event>
 5   0  0.3041329E-06  0.2106332E+04  0.7818609E-02  0.8558459E-01
       -2   -1    0    0    0  501  0.00000000000E+00  0.00000000000E+00  0.15888207209E+04  0.15888207209E+04  0.25500000920E-02 0.  1.
        2   -1    0    0  501    0  0.00000000000E+00  0.00000000000E+00 -0.69810187892E+03  0.69810187892E+03  0.25500000920E-02 0. -1.
    10030    2    1    2    0    0  0.00000000000E+00  0.00000000000E+00  0.89071884197E+03  0.22869225998E+04  0.21063321016E+04 0.  0.
        2    1    3    3  502    0 -0.49800607134E+02 -0.33841154979E+03  0.15268298691E+04  0.15646763009E+04  0.25500000920E-02 0.  1.
       -2    1    3    3    0  502  0.49800607134E+02  0.33841154979E+03 -0.63611102710E+03  0.72224629892E+03  0.25500000920E-02 0. -1.
</event>
<event>
 5   0  0.3041329E-06  0.3536444E+04  0.7818609E-02  0.8105207E-01
        2   -1    0    0  501    0  0.00000000000E+00  0.00000000000E+00  0.25632774727E+04  0.25632774727E+04  0.25500000920E-02 0.  1.
       -2   -1    0    0    0  501  0.00000000000E+00  0.00000000000E+00 -0.12197703135E+04  0.12197703135E+04  0.25500000920E-02 0. -1.
    10030    2    1    2    0    0  0.00000000000E+00  0.00000000000E+00  0.13435071592E+04  0.37830477863E+04  0.35364444102E+04 0.  0.
        2    1    3    3  502    0  0.69047075418E+03 -0.14258406561E+04  0.15119109989E+04  0.21898964148E+04  0.25500000920E-02 0.  1.
       -2    1    3    3    0  502 -0.69047075418E+03  0.14258406561E+04 -0.16840383974E+03  0.15931513714E+04  0.25500000920E-02 0. -1.
</event>
<event>
 5   0  0.1042825E-06  0.3553779E+04  0.7818609E-02  0.8101162E-01
       -4   -1    0    0    0  501  0.00000000000E+00  0.00000000000E+00  0.13035757684E+04  0.13035763870E+04  0.12699999809E+01 0.  1.
        4   -1    0    0  501    0  0.00000000000E+00  0.00000000000E+00 -0.24220562411E+04  0.24220565741E+04  0.12699999809E+01 0. -1.
    10030    2    1    2    0    0  0.00000000000E+00  0.00000000000E+00 -0.11184804728E+04  0.37256329611E+04  0.35537786077E+04 0.  0.
        3    1    3    3  502    0  0.54635395890E+02 -0.12672280546E+04  0.74531660349E+03  0.14711725998E+04  0.10100000352E+00 0.  1.
       -3    1    3    3    0  502 -0.54635395890E+02  0.12672280546E+04 -0.18637970762E+04  0.22544603613E+04  0.10100000352E+00 0. -1.
</event>
<event>
 5   0  0.1089337E-06  0.3059191E+04  0.7818609E-02  0.8227028E-01
        1   -1    0    0  501    0  0.00000000000E+00  0.00000000000E+00  0.18291339486E+04  0.18291339486E+04  0.50400001928E-02 0. -1.
       -1   -1    0    0    0  501  0.00000000000E+00  0.00000000000E+00 -0.12791095137E+04  0.12791095137E+04  0.50400001928E-02 0.  1.
    10030    2    1    2    0    0  0.00000000000E+00  0.00000000000E+00  0.55002443492E+03  0.31082434623E+04  0.30591911581E+04 0.  0.
        2    1    3    3  502    0 -0.67204028592E+03  0.83954426841E+03  0.13801988983E+04  0.17496918938E+04  0.25500000920E-02 0. -1.
       -2    1    3    3    0  502  0.67204028592E+03 -0.83954426841E+03 -0.83017446334E+03  0.13585515684E+04  0.25500000920E-02 0.  1.
</event>
<event>
 5   0  0.2565004E-06  0.2676906E+04  0.7818609E-02  0.8342537E-01
       -2   -1    0    0    0  501  0.00000000000E+00  0.00000000000E+00  0.17603731250E+04  0.17603731250E+04  0.25500000920E-02 0.  1.
        2   -1    0    0  501    0  0.00000000000E+00  0.00000000000E+00 -0.10176572342E+04  0.10176572343E+04  0.25500000920E-02 0. -1.
    10030    2    1    2    0    0  0.00000000000E+00  0.00000000000E+00  0.74271589075E+03  0.27780303592E+04  0.26769060093E+04 0.  0.
        3    1    3    3  502    0  0.34411879718E+03  0.12883582693E+04  0.25225456165E+03  0.13571724838E+04  0.10100000352E+00 0. -1.
       -3    1    3    3    0  502 -0.34411879718E+03 -0.12883582693E+04  0.49046132910E+03  0.14208578755E+04  0.10100000352E+00 0.  1.
</event>
<event>
 5   0  0.1110956E-06  0.3513941E+04  0.7818609E-02  0.8110494E-01
        1   -1    0    0  501    0  0.00000000000E+00  0.00000000000E+00  0.15161614617E+04  0.15161614617E+04  0.50400001928E-02 0.  1.
       -1   -1    0    0    0  501  0.00000000000E+00  0.00000000000E+00 -0.20360263917E+04  0.20360263917E+04  0.50400001928E-02 0. -1.
    10030    2    1    2    0    0  0.00000000000E+00  0.00000000000E+00 -0.51986493004E+03  0.35521878534E+04  0.35139406655E+04 0.  0.
        1    1    3    3  502    0  0.62484039961E+03  0.16320180773E+04 -0.76195440309E+02  0.17492038974E+04  0.50400001928E-02 0.  1.
       -1    1    3    3    0  502 -0.62484039961E+03 -0.16320180773E+04 -0.44366948973E+03  0.18029839560E+04  0.50400001928E-02 0. -1.
</event>
<event>
 5   0  0.3041329E-06  0.3335723E+04  0.7818609E-02  0.8153865E-01
        2   -1    0    0  501    0  0.00000000000E+00  0.00000000000E+00  0.12600837108E+04  0.12600837108E+04  0.25500000920E-02 0. -1.
       -2   -1    0    0    0  501  0.00000000000E+00  0.00000000000E+00 -0.22076008610E+04  0.22076008610E+04  0.25500000920E-02 0.  1.
    10030    2    1    2    0    0  0.00000000000E+00  0.00000000000E+00 -0.94751715012E+03  0.34676845718E+04  0.33357229411E+04 0.  0.
        2    1    3    3  502    0 -0.10860634986E+04 -0.36800428175E+03  0.78526883477E+03  0.13898230885E+04  0.25500000920E-02 0. -1.
       -2    1    3    3    0  502  0.10860634986E+04  0.36800428175E+03 -0.17327859849E+04  0.20778614833E+04  0.25500000920E-02 0.  1.
</event>
<event>
 5   0  0.1782660E-06  0.3456289E+04  0.7818609E-02  0.8124228E-01
       -2   -1    0    0    0  501  0.00000000000E+00  0.00000000000E+00  0.16429005656E+04  0.16429005656E+04  0.25500000920E-02 0. -1.
        2   -1    0    0  501    0  0.00000000000E+00  0.00000000000E+00 -0.18178113894E+04  0.18178113894E+04  0.25500000920E-02 0.  1.
    10030    2    1    2    0    0  0.00000000000E+00  0.00000000000E+00 -0.17491082377E+03  0.34607119550E+04  0.34562889693E+04 0.  0.
        4    1    3    3  502    0 -0.18575732697E+01 -0.60913337421E+02 -0.18167346823E+04  0.18177569706E+04  0.12699999809E+01 0.  1.
       -4    1    3    3    0  502  0.18575732697E+01  0.60913337421E+02  0.16418238586E+04  0.16429549844E+04  0.12699999809E+01 0. -1.
</event>
<event>
 5   0  0.1089337E-06  0.2414634E+04  0.7818609E-02  0.8434045E-01
       -1   -1    0    0    0  501  0.00000000000E+00  0.00000000000E+00  0.11639617847E+04  0.11639617847E+04  0.50400001928E-02 0. -1.
        1   -1    0    0  501    0  0.00000000000E+00  0.00000000000E+00 -0.12522869422E+04  0.12522869422E+04  0.50400001928E-02 0.  1.
    10030    2    1    2    0    0  0.00000000000E+00  0.00000000000E+00 -0.88325157494E+02  0.24162487270E+04  0.24146338391E+04 0.  0.
        2    1    3    3  502    0 -0.88185210359E+03  0.82356783028E+03 -0.85263648226E+02  0.12096267992E+04  0.25500000920E-02 0.  1.
       -2    1    3    3    0  502  0.88185210359E+03 -0.82356783028E+03 -0.30615092673E+01  0.12066219277E+04  0.25500000920E-02 0. -1.
</event>
<event>
 5   0  0.2565004E-06  0.3349331E+04  0.7818609E-02  0.8150455E-01
       -2   -1    0    0    0  501  0.00000000000E+00  0.00000000000E+00  0.11823347331E+04  0.11823347331E+04  0.25500000920E-02 0. -1.
        2   -1    0    0  501    0  0.00000000000E+00  0.00000000000E+00 -0.23720050943E+04  0.23720050943E+04  0.25500000920E-02 0.  1.
    10030    2    1    2    0    0  0.00000000000E+00  0.00000000000E+00 -0.11896703612E+04  0.35543398274E+04  0.33493306854E+04 0.  0.
        3    1    3    3  502    0  0.77275136011E+02 -0.16121165572E+04 -0.10689625965E+04  0.19358647379E+04  0.10100000352E+00 0.  1.
       -3    1    3    3    0  502 -0.77275136011E+02  0.16121165572E+04 -0.12070776473E+03  0.16184750895E+04  0.10100000352E+00 0. -1.
</event>
<event>
 5   0  0.2565004E-06  0.3511223E+04  0.7818609E-02  0.8111135E-01
       -2   -1    0    0    0  501  0.00000000000E+00  0.00000000000E+00  0.16090386354E+04  0.16090386354E+04  0.25500000920E-02 0.  1.
        2   -1    0    0  501    0  0.00000000000E+00  0.00000000000E+00 -0.19155361971E+04  0.19155361971E+04  0.25500000920E-02 0. -1.
    10030    2    1    2    0    0  0.00000000000E+00  0.00000000000E+00 -0.30649756175E+03  0.35245748325E+04  0.35112230055E+04 0.  0.
        3    1    3    3  502    0 -0.54863782033E+03 -0.10713900274E+04  0.11296139802E+04  0.16507294761E+04  0.10100000352E+00 0.  1.
       -3    1    3    3    0  502  0.54863782033E+03  0.10713900274E+04 -0.14361115419E+04  0.18738453564E+04  0.10100000352E+00 0. -1.
</event>
<event>
 5   0  0.1782660E-06  0.3500453E+04  0.7818609E-02  0.8113683E-01
       -2   -1    0    0    0  501  0.00000000000E+00  0.00000000000E+00  0.15078266051E+04  0.15078266051E+04  0.25500000920E-02 0.  1.
        2   -1    0    0  501    0  0.00000000000E+00  0.00000000000E+00 -0.20315950459E+04  0.20315950459E+04  0.25500000920E-02 0. -1.
    10030    2    1    2    0    0  0.00000000000E+00  0.00000000000E+00 -0.52376844077E+03  0.35394216510E+04  0.35004531484E+04 0.  0.
        4    1    3    3  502    0  0.21121825384E+03 -0.14897331890E+04 -0.11659142550E+04  0.19034904224E+04  0.12699999809E+01 0. -1.
       -4    1    3    3    0  502 -0.21121825384E+03  0.14897331890E+04  0.64214581425E+03  0.16359312286E+04  0.12699999809E+01 0.  1.
</event>
<event>
 5   0  0.1908726E-06  0.3510153E+04  0.7818609E-02  0.8111388E-01
       -2   -1    0    0    0  501  0.00000000000E+00  0.00000000000E+00  0.10658893256E+04  0.10658893256E+04  0.25500000920E-02 0.  1.
        2   -1    0    0  501    0  0.00000000000E+00  0.00000000000E+00 -0.28898804150E+04  0.28898804150E+04  0.25500000920E-02 0. -1.
    10030    2    1    2    0    0  0.00000000000E+00  0.00000000000E+00 -0.18239910894E+04  0.39557697406E+04  0.35101525246E+04 0.  0.
        5    1    3    3  502    0 -0.88776773613E+03  0.72949112019E+03 -0.24070571830E+04  0.26672523727E+04  0.46999998093E+01 0. -1.
       -5    1    3    3    0  502  0.88776773613E+03 -0.72949112019E+03  0.58306609357E+03  0.12885173678E+04  0.46999998093E+01 0.  1.
</event>
<event>
 5   0  0.2565004E-06  0.3378806E+04  0.7818609E-02  0.8143128E-01
       -2   -1    0    0    0  501  0.00000000000E+00  0.00000000000E+00  0.13092602185E+04  0.13092602185E+04  0.25500000920E-02 0.  1.
        2   -1    0    0  501    0  0.00000000000E+00  0.00000000000E+00 -0.21799202747E+04  0.21799202747E+04  0.25500000920E-02 0. -1.
    10030    2    1    2    0    0  0.00000000000E+00  0.00000000000E+00 -0.87066005623E+03  0.34891804932E+04  0.33788062360E+04 0.  0.
        3    1    3    3  502    0 -0.62275917834E+03  0.14686402945E+04 -0.10096909862E+04  0.18879113345E+04  0.10100000352E+00 0.  1.
       -3    1    3    3    0  502  0.62275917834E+03 -0.14686402945E+04  0.13903093001E+03  0.16012691587E+04  0.10100000352E+00 0. -1.
</event>
<event>
 5   0  0.1110956E-06  0.3476665E+04  0.7818609E-02  0.8119342E-01
        1   -1    0    0  501    0  0.00000000000E+00  0.00000000000E+00  0.22699571215E+04  0.22699571215E+04  0.50400001928E-02 0. -1.
       -1   -1    0    0    0  501  0.00000000000E+00  0.00000000000E+00 -0.13312147817E+04  0.13312147817E+04  0.50400001928E-02 0.  1.
    10030    2    1    2    0    0  0.00000000000E+00  0.00000000000E+00  0.93874233975E+03  0.36011719032E+04  0.34766653414E+04 0.  0.
        1    1    3    3  502    0 -0.16599565132E+03 -0.31142375606E+03  0.22324624084E+04  0.22601831158E+04  0.50400001928E-02 0. -1.
       -1    1    3    3    0  502  0.16599565132E+03  0.31142375606E+03 -0.12937200686E+04  0.13409887874E+04  0.50400001928E-02 0.  1.
</event>
<event>
 5   0  0.1782660E-06  0.3492542E+04  0.7818609E-02  0.8115560E-01
       -2   -1    0    0    0  501  0.00000000000E+00  0.00000000000E+00  0.13956439343E+04  0.13956439343E+04  0.25500000920E-02 0. -1.
        2   -1    0    0  501    0  0.00000000000E+00  0.00000000000E+00 -0.21849853795E+04  0.21849853795E+04  0.25500000920E-02 0.  1.
    10030    2    1    2    0    0  0.00000000000E+00  0.00000000000E+00 -0.78934144520E+03  0.35806293137E+04  0.34925415338E+04 0.  0.
        4    1    3    3  502    0  0.74811125864E+03 -0.30867176614E+03 -0.19811201251E+04  0.21400437560E+04  0.12699999809E+01 0.  1.
       -4    1    3    3    0  502 -0.74811125864E+03  0.30867176614E+03  0.11917786799E+04  0.14405855578E+04  0.12699999809E+01 0. -1.
</event>
<event>
 5   0  0.1102175E-06  0.3517012E+04  0.7818609E-02  0.8109770E-01
        1   -1    0    0  501    0  0.00000000000E+00  0.00000000000E+00  0.14638493262E+04  0.14638493262E+04  0.50400001928E-02 0.  1.
       -1   -1    0    0    0  501  0.00000000000E+00  0.00000000000E+00 -0.21124742941E+04  0.21124742941E+04  0.50400001928E-02 0. -1.
    10030    2    1    2    0    0  0.00000000000E+00  0.00000000000E+00 -0.64862496787E+03  0.35763236203E+04  0.35170124095E+04 0.  0.
        5    1    3    3  502    0  0.12323735999E+04  0.12173329772E+04 -0.16423038933E+02  0.17323210076E+04  0.46999998093E+01 0. -1.
       -5    1    3    3    0  502 -0.12323735999E+04 -0.12173329772E+04 -0.63220192893E+03  0.18440026128E+04  0.46999998093E+01 0.  1.
</event>
<event>
 5   0  0.1125196E-06  0.3448200E+04  0.7818609E-02  0.8126177E-01
        1   -1    0    0  501    0  0.00000000000E+00  0.00000000000E+00  0.18331496629E+04  0.18331496629E+04  0.50400001928E-02 0. -1.
       -1   -1    0    0    0  501  0.00000000000E+00  0.00000000000E+00 -0.16215374189E+04  0.16215374189E+04  0.50400001928E-02 0.  1.
    10030    2    1    2    0    0  0.00000000000E+00  0.00000000000E+00  0.21161224401E+03  0.34546870818E+04  0.34481999785E+04 0.  0.
        4    1    3    3  502    0 -0.12449305833E+04 -0.82532857168E+03  0.96852991608E+03  0.17801885349E+04  0.12699999809E+01 0. -1.
       -4    1    3    3    0  502  0.12449305833E+04  0.82532857168E+03 -0.75691767207E+03  0.16744985469E+04  0.12699999809E+01 0.  1.
</event>
<event>
 5   0  0.2565004E-06  0.3402792E+04  0.7818609E-02  0.8137221E-01
        2   -1    0    0  501    0  0.00000000000E+00  0.00000000000E+00  0.18285452435E+04  0.18285452435E+04  0.25500000920E-02 0. -1.
       -2   -1    0    0    0  501  0.00000000000E+00  0.00000000000E+00 -0.15830885501E+04  0.15830885502E+04  0.25500000920E-02 0.  1.
    10030    2    1    2    0    0  0.00000000000E+00  0.00000000000E+00  0.24545669338E+03  0.34116337937E+04  0.34027924053E+04 0.  0.
        3    1    3    3  502    0  0.16573649194E+04 -0.22719282690E+03 -0.18835831983E+03  0.16834351557E+04  0.10100000352E+00 0.  1.
       -3    1    3    3    0  502 -0.16573649194E+04  0.22719282690E+03  0.43381501320E+03  0.17281986380E+04  0.10100000352E+00 0. -1.
</event>
<event>
 5   0  0.1110956E-06  0.1843877E+04  0.7818609E-02  0.8683308E-01
       -1   -1    0    0    0  501  0.00000000000E+00  0.00000000000E+00  0.82734478006E+03  0.82734478007E+03  0.50400001928E-02 0.  1.
        1   -1    0    0  501    0  0.00000000000E+00  0.00000000000E+00 -0.10273473254E+04  0.10273473255E+04  0.50400001928E-02 0. -1.
    10030    2    1    2    0    0  0.00000000000E+00  0.00000000000E+00 -0.20000254539E+03  0.18546921055E+04  0.18438768365E+04 0.  0.
        1    1    3    3  502    0 -0.70610846661E+03 -0.50779822132E+02 -0.69406061168E+03  0.99140702523E+03  0.50400001928E-02 0. -1.
       -1    1    3    3    0  502  0.70610846661E+03  0.50779822132E+02  0.49405806630E+03  0.86328508030E+03  0.50400001928E-02 0.  1.
</event>
<event>
 5   0  0.1110956E-06  0.3440973E+04  0.7818609E-02  0.8127923E-01
        1   -1    0    0  501    0  0.00000000000E+00  0.00000000000E+00  0.16764944534E+04  0.16764944534E+04  0.50400001928E-02 0.  1.
       -1   -1    0    0    0  501  0.00000000000E+00  0.00000000000E+00 -0.17656330825E+04  0.17656330825E+04  0.50400001928E-02 0. -1.
    10030    2    1    2    0    0  0.00000000000E+00  0.00000000000E+00 -0.89138629160E+02  0.34421275359E+04  0.34409731586E+04 0.  0.
        1    1    3    3  502    0 -0.59748562018E+03 -0.13674312534E+04 -0.90113735744E+03  0.17432457761E+04  0.50400001928E-02 0.  1.
       -1    1    3    3    0  502  0.59748562018E+03  0.13674312534E+04  0.81199872829E+03  0.16988817598E+04  0.50400001928E-02 0. -1.
</event>
<event>
 5   0  0.2565004E-06  0.3414683E+04  0.7818609E-02  0.8134312E-01
       -2   -1    0    0    0  501  0.00000000000E+00  0.00000000000E+00  0.17035644363E+04  0.17035644363E+04  0.25500000920E-02 0.  1.
        2   -1    0    0  501    0  0.00000000000E+00  0.00000000000E+00 -0.17111265570E+04  0.17111265570E+04  0.25500000920E-02 0. -1.
    10030    2    1    2    0    0  0.00000000000E+00  0.00000000000E+00 -0.75621206371E+01  0.34146909933E+04  0.34146826198E+04 0.  0.
        3    1    3    3  502    0  0.13887873941E+03  0.10238785603E+04  0.13554131084E+04  0.17043354468E+04  0.10100000352E+00 0.  1.
       -3    1    3    3    0  502 -0.13887873941E+03 -0.10238785603E+04 -0.13629752290E+04  0.17103555466E+04  0.10100000352E+00 0. -1.
</event>
<event>
 5   0  0.1089337E-06  0.3434667E+04  0.7818609E-02  0.8129450E-01
        1   -1    0    0  501    0  0.00000000000E+00  0.00000000000E+00  0.30975275121E+04  0.30975275121E+04  0.50400001928E-02 0.  1.
       -1   -1    0    0    0  501  0.00000000000E+00  0.00000000000E+00 -0.95212544771E+03  0.95212544773E+03  0.50400001928E-02 0. -1.
    10030    2    1    2    0    0  0.00000000000E+00  0.00000000000E+00  0.21454020644E+04  0.40496529598E+04  0.34346672440E+04 0.  0.
        2    1    3    3  502    0 -0.39602274436E+03 -0.12018042322E+04 -0.29625321354E+03  0.12995897019E+04  0.25500000920E-02 0. -1.
       -2    1    3    3    0  502  0.39602274436E+03  0.12018042322E+04  0.24416552779E+04  0.27500632579E+04  0.25500000920E-02 0.  1.
</event>
<event>
 5   0  0.1089337E-06  0.3808206E+04  0.7818609E-02  0.8044396E-01
        1   -1    0    0  501    0  0.00000000000E+00  0.00000000000E+00  0.25981291375E+04  0.25981291375E+04  0.50400001928E-02 0.  1.
       -1   -1    0    0    0  501  0.00000000000E+00  0.00000000000E+00 -0.13954687357E+04  0.13954687357E+04  0.50400001928E-02 0. -1.
    10030    2    1    2    0    0  0.00000000000E+00  0.00000000000E+00  0.12026604018E+04  0.39935978732E+04  0.38082058677E+04 0.  0.
        2    1    3    3  502    0  0.14187420685E+04  0.25698802560E+03  0.19055537054E+04  0.23895620574E+04  0.25500000920E-02 0.  1.
       -2    1    3    3    0  502 -0.14187420685E+04 -0.25698802560E+03 -0.70289330355E+03  0.16040358158E+04  0.25500000920E-02 0. -1.
</event>
<event>
 5   0  0.1110956E-06  0.3370488E+04  0.7818609E-02  0.8145188E-01
        1   -1    0    0  501    0  0.00000000000E+00  0.00000000000E+00  0.13992347910E+04  0.13992347910E+04  0.50400001928E-02 0.  1.
       -1   -1    0    0    0  501  0.00000000000E+00  0.00000000000E+00 -0.20297149716E+04  0.20297149716E+04  0.50400001928E-02 0. -1.
    10030    2    1    2    0    0  0.00000000000E+00  0.00000000000E+00 -0.63048018057E+03  0.34289497627E+04  0.33704882757E+04 0.  0.
        1    1    3    3  502    0 -0.11197464374E+04 -0.10342689780E+04  0.41590723299E+03  0.15800389962E+04  0.50400001928E-02 0.  1.
       -1    1    3    3    0  502  0.11197464374E+04  0.10342689780E+04 -0.10463874136E+04  0.18489107665E+04  0.50400001928E-02 0. -1.
</event>
<event>
 5   0  0.1908726E-06  0.2831054E+04  0.7818609E-02  0.8293692E-01
       -2   -1    0    0    0  501  0.00000000000E+00  0.00000000000E+00  0.12794909489E+04  0.12794909489E+04  0.25500000920E-02 0. -1.
        2   -1    0    0  501    0  0.00000000000E+00  0.00000000000E+00 -0.15660260029E+04  0.15660260029E+04  0.25500000920E-02 0.  1.
    10030    2    1    2    0    0  0.00000000000E+00  0.00000000000E+00 -0.28653505392E+03  0.28455169518E+04  0.28310535823E+04 0.  0.
        5    1    3    3  502    0 -0.45389671588E+03 -0.10835914850E+04  0.65038747876E+03  0.13428397885E+04  0.46999998093E+01 0. -1.
       -5    1    3    3    0  502  0.45389671588E+03  0.10835914850E+04 -0.93692253268E+03  0.15026771633E+04  0.46999998093E+01 0.  1.
</event>
<event>
 5   0  0.1908726E-06  0.1979150E+04  0.7818609E-02  0.8616431E-01
        2   -1    0    0  501    0  0.00000000000E+00  0.00000000000E+00  0.13346404191E+04  0.13346404191E+04  0.25500000920E-02 0.  1.
       -2   -1    0    0    0  501  0.00000000000E+00  0.00000000000E+00 -0.73372473593E+03  0.73372473594E+03  0.25500000920E-02 0. -1.
    10030    2    1    2    0    0  0.00000000000E+00  0.00000000000E+00  0.60091568318E+03  0.20683651551E+04  0.19791500086E+04 0.  0.
        5    1    3    3  502    0  0.16819820156E+03  0.26847672820E+03 -0.67928000308E+03  0.74954239452E+03  0.46999998093E+01 0. -1.
       -5    1    3    3    0  502 -0.16819820156E+03 -0.26847672820E+03  0.12801956863E+04  0.13188227605E+04  0.46999998093E+01 0.  1.
</event>
<event>
 5   0  0.1089337E-06  0.3520157E+04  0.7818609E-02  0.8109029E-01
       -1   -1    0    0    0  501  0.00000000000E+00  0.00000000000E+00  0.15726446763E+04  0.15726446763E+04  0.50400001928E-02 0. -1.
        1   -1    0    0  501    0  0.00000000000E+00  0.00000000000E+00 -0.19698517671E+04  0.19698517671E+04  0.50400001928E-02 0.  1.
    10030    2    1    2    0    0  0.00000000000E+00  0.00000000000E+00 -0.39720709078E+03  0.35424964434E+04  0.35201573230E+04 0.  0.
        2    1    3    3  502    0  0.98612045745E+03  0.13502949428E+04  0.35456365976E+03  0.17092236185E+04  0.25500000920E-02 0. -1.
       -2    1    3    3    0  502 -0.98612045745E+03 -0.13502949428E+04 -0.75177075054E+03  0.18332728249E+04  0.25500000920E-02 0.  1.
</event>
<event>
 5   0  0.1125196E-06  0.3464853E+04  0.7818609E-02  0.8122170E-01
        1   -1    0    0  501    0  0.00000000000E+00  0.00000000000E+00  0.22060352036E+04  0.22060352036E+04  0.50400001928E-02 0. -1.
       -1   -1    0    0    0  501  0.00000000000E+00  0.00000000000E+00 -0.13604955626E+04  0.13604955626E+04  0.50400001928E-02 0.  1.
    10030    2    1    2    0    0  0.00000000000E+00  0.00000000000E+00  0.84553964098E+03  0.35665307662E+04  0.34648527273E+04 0.  0.
        4    1    3    3  502    0 -0.30683077540E+03  0.15888912392E+04 -0.21391098585E+03  0.16323235027E+04  0.12699999809E+01 0.  1.
       -4    1    3    3    0  502  0.30683077540E+03 -0.15888912392E+04  0.10594506268E+04  0.19342072635E+04  0.12699999809E+01 0. -1.
</event>
<event>
 5   0  0.3041329E-06  0.1850975E+04  0.7818609E-02  0.8679652E-01
        2   -1    0    0  501    0  0.00000000000E+00  0.00000000000E+00  0.94979223294E+03  0.94979223294E+03  0.25500000920E-02 0. -1.
       -2   -1    0    0    0  501  0.00000000000E+00  0.00000000000E+00 -0.90180484440E+03  0.90180484440E+03  0.25500000920E-02 0.  1.
    10030    2    1    2    0    0  0.00000000000E+00  0.00000000000E+00  0.47987388537E+02  0.18515970773E+04  0.18509751342E+04 0.  0.
        2    1    3    3  502    0 -0.73990222085E+03  0.74772455490E+02 -0.52708252453E+03  0.91151643111E+03  0.25500000920E-02 0.  1.
       -2    1    3    3    0  502  0.73990222085E+03 -0.74772455490E+02  0.57506991306E+03  0.94008064624E+03  0.25500000920E-02 0. -1.
</event>
<event>
 5   0  0.1125196E-06  0.2247564E+04  0.7818609E-02  0.8498888E-01
       -1   -1    0    0    0  501  0.00000000000E+00  0.00000000000E+00  0.12044367975E+04  0.12044367975E+04  0.50400001928E-02 0.  1.
        1   -1    0    0  501    0  0.00000000000E+00  0.00000000000E+00 -0.10485283523E+04  0.10485283524E+04  0.50400001928E-02 0. -1.
    10030    2    1    2    0    0  0.00000000000E+00  0.00000000000E+00  0.15590844516E+03  0.22529651499E+04  0.22475641311E+04 0.  0.
        4    1    3    3  502    0  0.23583789844E+03 -0.24683361697E+03 -0.99529049077E+03  0.10522124893E+04  0.12699999809E+01 0. -1.
       -4    1    3    3    0  502 -0.23583789844E+03  0.24683361697E+03  0.11511989359E+04  0.12007526605E+04  0.12699999809E+01 0.  1.
</event>
<event>
 5   0  0.1102175E-06  0.3452132E+04  0.7818609E-02  0.8125229E-01
        1   -1    0    0  501    0  0.00000000000E+00  0.00000000000E+00  0.16969665851E+04  0.16969665851E+04  0.50400001928E-02 0. -1.
       -1   -1    0    0    0  501  0.00000000000E+00  0.00000000000E+00 -0.17556646923E+04  0.17556646923E+04  0.50400001928E-02 0.  1.
    10030    2    1    2    0    0  0.00000000000E+00  0.00000000000E+00 -0.58698107228E+02  0.34526312774E+04  0.34521322787E+04 0.  0.
        5    1    3    3  502    0 -0.34720719031E+03 -0.16477369331E+03 -0.17123219237E+04  0.17549278229E+04  0.46999998093E+01 0.  1.
       -5    1    3    3    0  502  0.34720719031E+03  0.16477369331E+03  0.16536238165E+04  0.16977034545E+04  0.46999998093E+01 0. -1.
</event>
<event>
 5   0  0.1089337E-06  0.3637165E+04  0.7818609E-02  0.8082031E-01
       -1   -1    0    0    0  501  0.00000000000E+00  0.00000000000E+00  0.12738927216E+04  0.12738927216E+04  0.50400001928E-02 0.  1.
        1   -1    0    0  501    0  0.00000000000E+00  0.00000000000E+00 -0.25961699321E+04  0.25961699321E+04  0.50400001928E-02 0. -1.
    10030    2    1    2    0    0  0.00000000000E+00  0.00000000000E+00 -0.13222772105E+04  0.38700626537E+04  0.36371648192E+04 0.  0.
        2    1    3    3  502    0  0.96957664593E+03  0.13024250816E+04 -0.15326405863E+04  0.22327958107E+04  0.25500000920E-02 0. -1.
       -2    1    3    3    0  502 -0.96957664593E+03 -0.13024250816E+04  0.21036337580E+03  0.16372668430E+04  0.25500000920E-02 0.  1.
</event>
<event>
 5   0  0.1102175E-06  0.3466706E+04  0.7818609E-02  0.8121726E-01
        1   -1    0    0  501    0  0.00000000000E+00  0.00000000000E+00  0.25570556949E+04  0.25570556949E+04  0.50400001928E-02 0.  1.
       -1   -1    0    0    0  501  0.00000000000E+00  0.00000000000E+00 -0.11749887886E+04  0.11749887886E+04  0.50400001928E-02 0. -1.
    10030    2    1    2    0    0  0.00000000000E+00  0.00000000000E+00  0.13820669063E+04  0.37320444836E+04  0.34667055101E+04 0.  0.
        5    1    3    3  502    0 -0.15620944314E+04  0.39077077733E+03  0.32730012063E+00  0.16102369423E+04  0.46999998093E+01 0. -1.
       -5    1    3    3    0  502  0.15620944314E+04 -0.39077077733E+03  0.13817396062E+04  0.21218075413E+04  0.46999998093E+01 0.  1.
</event>
<event>
 5   0  0.1102175E-06  0.2510768E+04  0.7818609E-02  0.8399160E-01
       -1   -1    0    0    0  501  0.00000000000E+00  0.00000000000E+00  0.15554299382E+04  0.15554299383E+04  0.50400001928E-02 0.  1.
        1   -1    0    0  501    0  0.00000000000E+00  0.00000000000E+00 -0.10132173569E+04  0.10132173569E+04  0.50400001928E-02 0. -1.
    10030    2    1    2    0    0  0.00000000000E+00  0.00000000000E+00  0.54221258138E+03  0.25686472951E+04  0.25107677000E+04 0.  0.
        5    1    3    3  502    0 -0.18653950983E+03 -0.10423768246E+04  0.96090480143E+03  0.14299323623E+04  0.46999998093E+01 0.  1.
       -5    1    3    3    0  502  0.18653950983E+03  0.10423768246E+04 -0.41869222005E+03  0.11387149329E+04  0.46999998093E+01 0. -1.
</event>
<event>
 5   0  0.2565004E-06  0.3237509E+04  0.7818609E-02  0.8178981E-01
        2   -1    0    0  501    0  0.00000000000E+00  0.00000000000E+00  0.10879166380E+04  0.10879166380E+04  0.25500000920E-02 0.  1.
       -2   -1    0    0    0  501  0.00000000000E+00  0.00000000000E+00 -0.24086095109E+04  0.24086095109E+04  0.25500000920E-02 0. -1.
    10030    2    1    2    0    0  0.00000000000E+00  0.00000000000E+00 -0.13206928729E+04  0.34965261489E+04  0.32375091421E+04 0.  0.
        3    1    3    3  502    0 -0.78132608038E+03  0.11298738426E+04  0.26448161729E+03  0.13989409852E+04  0.10100000352E+00 0.  1.
       -3    1    3    3    0  502  0.78132608038E+03 -0.11298738426E+04 -0.15851744902E+04  0.20975851636E+04  0.10100000352E+00 0. -1.
</event>
<event>
 5   0  0.1102175E-06  0.2636174E+04  0.7818609E-02  0.8356017E-01
        1   -1    0    0  501    0  0.00000000000E+00  0.00000000000E+00  0.22135062496E+04  0.22135062496E+04  0.50400001928E-02 0. -1.
       -1   -1    0    0    0  501  0.00000000000E+00  0.00000000000E+00 -0.78488720886E+03  0.78488720887E+03  0.50400001928E-02 0.  1.
    10030    2    1    2    0    0  0.00000000000E+00  0.00000000000E+00  0.14286190408E+04  0.29983934585E+04  0.26361735467E+04 0.  0.
        5    1    3    3  502    0 -0.22099277301E+03 -0.12574203268E+04  0.10870361435E+04  0.16767866147E+04  0.46999998093E+01 0.  1.
       -5    1    3    3    0  502  0.22099277301E+03  0.12574203268E+04  0.34158289725E+03  0.13216068438E+04  0.46999998093E+01 0. -1.
</event>
<event>
 5   0  0.1908726E-06  0.3395346E+04  0.7818609E-02  0.8139049E-01
        2   -1    0    0  501    0  0.00000000000E+00  0.00000000000E+00  0.31651158864E+04  0.31651158864E+04  0.25500000920E-02 0. -1.
       -2   -1    0    0    0  501  0.00000000000E+00  0.00000000000E+00 -0.91058086113E+03  0.91058086113E+03  0.25500000920E-02 0.  1.
    10030    2    1    2    0    0  0.00000000000E+00  0.00000000000E+00  0.22545350253E+04  0.40756967476E+04  0.33953461970E+04 0.  0.
        5    1    3    3  502    0 -0.40888330821E+03 -0.30496535654E+03 -0.81641088121E+03  0.96267244969E+03  0.46999998093E+01 0.  1.
       -5    1    3    3    0  502  0.40888330821E+03  0.30496535654E+03  0.30709459065E+04  0.31130242979E+04  0.46999998093E+01 0. -1.
</event>
<event>
 5   0  0.1110956E-06  0.3386488E+04  0.7818609E-02  0.8141231E-01
        1   -1    0    0  501    0  0.00000000000E+00  0.00000000000E+00  0.28409732988E+04  0.28409732988E+04  0.50400001928E-02 0.  1.
       -1   -1    0    0    0  501  0.00000000000E+00  0.00000000000E+00 -0.10091876686E+04  0.10091876686E+04  0.50400001928E-02 0. -1.
    10030    2    1    2    0    0  0.00000000000E+00  0.00000000000E+00  0.18317856302E+04  0.38501609674E+04  0.33864879861E+04 0.  0.
        1    1    3    3  502    0  0.15138415000E+04  0.14752686377E+03  0.69980377728E+02  0.15226219215E+04  0.50400001928E-02 0. -1.
       -1    1    3    3    0  502 -0.15138415000E+04 -0.14752686377E+03  0.17618052525E+04  0.23275390459E+04  0.50400001928E-02 0.  1.
</event>
<event>
 5   0  0.1908726E-06  0.2376749E+04  0.7818609E-02  0.8448260E-01
       -2   -1    0    0    0  501  0.00000000000E+00  0.00000000000E+00  0.12331293410E+04  0.12331293410E+04  0.25500000920E-02 0.  1.
        2   -1    0    0  501    0  0.00000000000E+00  0.00000000000E+00 -0.11452439448E+04  0.11452439448E+04  0.25500000920E-02 0. -1.
    10030    2    1    2    0    0  0.00000000000E+00  0.00000000000E+00  0.87885396159E+02  0.23783732858E+04  0.23767489653E+04 0.  0.
        5    1    3    3  502    0  0.18077987734E+03 -0.28272424400E+03  0.11847206829E+04  0.12313405494E+04  0.46999998093E+01 0.  1.
       -5    1    3    3    0  502 -0.18077987734E+03  0.28272424400E+03 -0.10968352867E+04  0.11470327364E+04  0.46999998093E+01 0. -1.
</event>
<event>
 5   0  0.1908726E-06  0.1752532E+04  0.7818609E-02  0.8731958E-01
        2   -1    0    0  501    0  0.00000000000E+00  0.00000000000E+00  0.11970560377E+04  0.11970560377E+04  0.25500000920E-02 0. -1.
       -2   -1    0    0    0  501  0.00000000000E+00  0.00000000000E+00 -0.64144175694E+03  0.64144175694E+03  0.25500000920E-02 0.  1.
    10030    2    1    2    0    0  0.00000000000E+00  0.00000000000E+00  0.55561428074E+03  0.18384977946E+04  0.17525315723E+04 0.  0.
        5    1    3    3  502    0 -0.42065248859E+03  0.74328878355E+03  0.72254643879E+02  0.85712866914E+03  0.46999998093E+01 0.  1.
       -5    1    3    3    0  502  0.42065248859E+03 -0.74328878355E+03  0.48335963686E+03  0.98136912548E+03  0.46999998093E+01 0. -1.
</event>
<event>
 5   0  0.1782660E-06  0.3445867E+04  0.7818609E-02  0.8126740E-01
        2   -1    0    0  501    0  0.00000000000E+00  0.00000000000E+00  0.17954972138E+04  0.17954972138E+04  0.25500000920E-02 0. -1.
       -2   -1    0    0    0  501  0.00000000000E+00  0.00000000000E+00 -0.16533027408E+04  0.16533027408E+04  0.25500000920E-02 0.  1.
    10030    2    1    2    0    0  0.00000000000E+00  0.00000000000E+00  0.14219447300E+03  0.34487999547E+04  0.34458673595E+04 0.  0.
        4    1    3    3  502    0 -0.87721923259E+02 -0.10632492557E+04  0.14251361624E+04  0.17802271793E+04  0.12699999809E+01 0. -1.
       -4    1    3    3    0  502  0.87721923259E+02  0.10632492557E+04 -0.12829416894E+04  0.16685727754E+04  0.12699999809E+01 0.  1.
</event>
<event>
 5   0  0.1130707E-06  0.3318730E+04  0.7818609E-02  0.8158146E-01
       -1   -1    0    0    0  501  0.00000000000E+00  0.00000000000E+00  0.16232848723E+04  0.16232848723E+04  0.50400001928E-02 0. -1.
        1   -1    0    0  501    0  0.00000000000E+00  0.00000000000E+00 -0.16962474475E+04  0.16962474475E+04  0.50400001928E-02 0.  1.
    10030    2    1    2    0    0  0.00000000000E+00  0.00000000000E+00 -0.72962575199E+02  0.33195323197E+04  0.33187303723E+04 0.  0.
        3    1    3    3  502    0 -0.93325188375E+03  0.13239107286E+04 -0.39683784746E+03  0.16676867162E+04  0.10100000352E+00 0.  1.
       -3    1    3    3    0  502  0.93325188375E+03 -0.13239107286E+04  0.32387527226E+03  0.16518456036E+04  0.10100000352E+00 0. -1.
</event>
<event>
 5   0  0.1125196E-06  0.3342246E+04  0.7818609E-02  0.8152228E-01
        1   -1    0    0  501    0  0.00000000000E+00  0.00000000000E+00  0.17563554021E+04  0.17563554021E+04  0.50400001928E-02 0. -1.
       -1   -1    0    0    0  501  0.00000000000E+00  0.00000000000E+00 -0.15900272052E+04  0.15900272052E+04  0.50400001928E-02 0.  1.
    10030    2    1    2    0    0  0.00000000000E+00  0.00000000000E+00  0.16632819694E+03  0.33463826073E+04  0.33422464729E+04 0.  0.
        4    1    3    3  502    0 -0.31799719250E+03 -0.14145067780E+04  0.91527599093E+03  0.17145504926E+04  0.12699999809E+01 0. -1.
       -4    1    3    3    0  502  0.31799719250E+03  0.14145067780E+04 -0.74894779398E+03  0.16318321146E+04  0.12699999809E+01 0.  1.
</event>
<event>
 5   0  0.3041329E-06  0.3507106E+04  0.7818609E-02  0.8112108E-01
        2   -1    0    0  501    0  0.00000000000E+00  0.00000000000E+00  0.28997088459E+04  0.28997088459E+04  0.25500000920E-02 0. -1.
       -2   -1    0    0    0  501  0.00000000000E+00  0.00000000000E+00 -0.10604331107E+04  0.10604331107E+04  0.25500000920E-02 0.  1.
    10030    2    1    2    0    0  0.00000000000E+00  0.00000000000E+00  0.18392757352E+04  0.39601419565E+04  0.35071055139E+04 0.  0.
        2    1    3    3  502    0 -0.11223202375E+04 -0.73660371774E+03 -0.35426143195E+03  0.13884123720E+04  0.25500000920E-02 0.  1.
       -2    1    3    3    0  502  0.11223202375E+04  0.73660371774E+03  0.21935371671E+04  0.25717295846E+04  0.25500000920E-02 0. -1.
</event>
<event>
 5   0  0.2565004E-06  0.3359706E+04  0.7818609E-02  0.8147867E-01
       -2   -1    0    0    0  501  0.00000000000E+00  0.00000000000E+00  0.11023402540E+04  0.11023402540E+04  0.25500000920E-02 0. -1.
        2   -1    0    0  501    0  0.00000000000E+00  0.00000000000E+00 -0.25599232298E+04  0.25599232298E+04  0.25500000920E-02 0.  1.
    10030    2    1    2    0    0  0.00000000000E+00  0.00000000000E+00 -0.14575829758E+04  0.36622634838E+04  0.33597061915E+04 0.  0.
        3    1    3    3  502    0 -0.50944104370E+02 -0.17997382669E+03  0.10909537000E+04  0.11068721090E+04  0.10100000352E+00 0. -1.
       -3    1    3    3    0  502  0.50944104370E+02  0.17997382669E+03 -0.25485366758E+04  0.25553913748E+04  0.10100000352E+00 0.  1.
</event>
<event>
 5   0  0.2565004E-06  0.3485529E+04  0.7818609E-02  0.8117228E-01
       -2   -1    0    0    0  501  0.00000000000E+00  0.00000000000E+00  0.13581223514E+04  0.13581223514E+04  0.25500000920E-02 0.  1.
        2   -1    0    0  501    0  0.00000000000E+00  0.00000000000E+00 -0.22363436995E+04  0.22363436996E+04  0.25500000920E-02 0. -1.
    10030    2    1    2    0    0  0.00000000000E+00  0.00000000000E+00 -0.87822134813E+03  0.35944660510E+04  0.34855291500E+04 0.  0.
        3    1    3    3  502    0 -0.35573352221E+02  0.13989626071E+04 -0.15102587791E+04  0.20589423085E+04  0.10100000352E+00 0. -1.
       -3    1    3    3    0  502  0.35573352221E+02 -0.13989626071E+04  0.63203743099E+03  0.15355237425E+04  0.10100000352E+00 0.  1.
</event>
<event>
 5   0  0.1908726E-06  0.2092351E+04  0.7818609E-02  0.8564620E-01
        2   -1    0    0  501    0  0.00000000000E+00  0.00000000000E+00  0.84979393894E+03  0.84979393895E+03  0.25500000920E-02 0.  1.
       -2   -1    0    0    0  501  0.00000000000E+00  0.00000000000E+00 -0.12879397549E+04  0.12879397549E+04  0.25500000920E-02 0. -1.
    10030    2    1    2    0    0  0.00000000000E+00  0.00000000000E+00 -0.43814581594E+03  0.21377336938E+04  0.20923512109E+04 0.  0.
        5    1    3    3  502    0  0.15522703733E+03  0.62156076579E+03 -0.10640715007E+04  0.12420561450E+04  0.46999998093E+01 0. -1.
       -5    1    3    3    0  502 -0.15522703733E+03 -0.62156076579E+03  0.62592568476E+03  0.89567754885E+03  0.46999998093E+01 0.  1.
</event>
<event>
 5   0  0.3378848E-06  0.3448946E+04  0.7818609E-02  0.8125997E-01
       -2   -1    0    0    0  501  0.00000000000E+00  0.00000000000E+00  0.11568677740E+04  0.11568677740E+04  0.25500000920E-02 0. -1.
        2   -1    0    0  501    0  0.00000000000E+00  0.00000000000E+00 -0.25705682092E+04  0.25705682092E+04  0.25500000920E-02 0.  1.
    10030    2    1    2    0    0  0.00000000000E+00  0.00000000000E+00 -0.14137004352E+04  0.37274359833E+04  0.34489462287E+04 0.  0.
        1    1    3    3  502    0  0.26993467165E+03 -0.41230061344E+03  0.10791467773E+04  0.11863449287E+04  0.50400001928E-02 0. -1.
       -1    1    3    3    0  502 -0.26993467165E+03  0.41230061344E+03 -0.24928472125E+04  0.25410910546E+04  0.50400001928E-02 0.  1.
</event>
<event>
 5   0  0.1110956E-06  0.3452653E+04  0.7818609E-02  0.8125103E-01
       -1   -1    0    0    0  501  0.00000000000E+00  0.00000000000E+00  0.13604338418E+04  0.13604338418E+04  0.50400001928E-02 0.  1.
        1   -1    0    0  501    0  0.00000000000E+00  0.00000000000E+00 -0.21906269346E+04  0.21906269346E+04  0.50400001928E-02 0. -1.
    10030    2    1    2    0    0  0.00000000000E+00  0.00000000000E+00 -0.83019309281E+03  0.35510607765E+04  0.34526529028E+04 0.  0.
        1    1    3    3  502    0 -0.12691133424E+04  0.57118391610E+03 -0.14656314107E+04  0.20211321515E+04  0.50400001928E-02 0. -1.
       -1    1    3    3    0  502  0.12691133424E+04 -0.57118391610E+03  0.63543831784E+03  0.15299286250E+04  0.50400001928E-02 0.  1.
</event>
<event>
 5   0  0.1210467E-06  0.1799681E+04  0.7818609E-02  0.8706469E-01
        1   -1    0    0  501    0  0.00000000000E+00  0.00000000000E+00  0.15764658044E+04  0.15764658044E+04  0.50400001928E-02 0. -1.
       -1   -1    0    0    0  501  0.00000000000E+00  0.00000000000E+00 -0.51362548605E+03  0.51362548607E+03  0.50400001928E-02 0.  1.
    10030    2    1    2    0    0  0.00000000000E+00  0.00000000000E+00  0.10628403184E+04  0.20900912905E+04  0.17996810996E+04 0.  0.
        1    1    3    3  502    0  0.38852206234E+03  0.26432602013E+03  0.14226480566E+04  0.14982473530E+04  0.50400001928E-02 0. -1.
       -1    1    3    3    0  502 -0.38852206234E+03 -0.26432602013E+03 -0.35980773821E+03  0.59184393750E+03  0.50400001928E-02 0.  1.
</event>
<event>
 5   0  0.1130707E-06  0.3285846E+04  0.7818609E-02  0.8166506E-01
        1   -1    0    0  501    0  0.00000000000E+00  0.00000000000E+00  0.19868329025E+04  0.19868329025E+04  0.50400001928E-02 0. -1.
       -1   -1    0    0    0  501  0.00000000000E+00  0.00000000000E+00 -0.13585419647E+04  0.13585419647E+04  0.50400001928E-02 0.  1.
    10030    2    1    2    0    0  0.00000000000E+00  0.00000000000E+00  0.62829093782E+03  0.33453748672E+04  0.32858459336E+04 0.  0.
        3    1    3    3  502    0 -0.28945172078E+02 -0.92616302484E+03  0.16954039375E+04  0.19320999697E+04  0.10100000352E+00 0. -1.
       -3    1    3    3    0  502  0.28945172078E+02  0.92616302484E+03 -0.10671129997E+04  0.14132748975E+04  0.10100000352E+00 0.  1.
</event>
<event>
 5   0  0.1089337E-06  0.3519537E+04  0.7818609E-02  0.8109175E-01
       -1   -1    0    0    0  501  0.00000000000E+00  0.00000000000E+00  0.14548533071E+04  0.14548533071E+04  0.50400001928E-02 0.  1.
        1   -1    0    0  501    0  0.00000000000E+00  0.00000000000E+00 -0.21285897097E+04  0.21285897097E+04  0.50400001928E-02 0. -1.
    10030    2    1    2    0    0  0.00000000000E+00  0.00000000000E+00 -0.67373640256E+03  0.35834430168E+04  0.35195373438E+04 0.  0.
        2    1    3    3  502    0 -0.26870268767E+03  0.11002981424E+04  0.10344082701E+04  0.15339027368E+04  0.25500000920E-02 0.  1.
       -2    1    3    3    0  502  0.26870268767E+03 -0.11002981424E+04 -0.17081446727E+04  0.20495402800E+04  0.25500000920E-02 0. -1.
</event>
<event>
 5   0  0.1782660E-06  0.3524253E+04  0.7818609E-02  0.8108066E-01
        2   -1    0    0  501    0  0.00000000000E+00  0.00000000000E+00  0.27041967758E+04  0.27041967758E+04  0.25500000920E-02 0.  1.
       -2   -1    0    0    0  501  0.00000000000E+00  0.00000000000E+00 -0.11482487918E+04  0.11482487918E+04  0.25500000920E-02 0. -1.
    10030    2    1    2    0    0  0.00000000000E+00  0.00000000000E+00  0.15559479839E+04  0.38524455676E+04  0.35242534986E+04 0.  0.
        4    1    3    3  502    0  0.15514702315E+03  0.27996364830E+03 -0.11162045808E+04  0.11611909930E+04  0.12699999809E+01 0. -1.
       -4    1    3    3    0  502 -0.15514702315E+03 -0.27996364830E+03  0.26721525647E+04  0.26912545746E+04  0.12699999809E+01 0.  1.
</event>
<event>
 5   0  0.1089337E-06  0.3610470E+04  0.7818609E-02  0.8088098E-01
       -1   -1    0    0    0  501  0.00000000000E+00  0.00000000000E+00  0.27708261199E+04  0.27708261199E+04  0.50400001928E-02 0. -1.
        1   -1    0    0  501    0  0.00000000000E+00  0.00000000000E+00 -0.11761375555E+04  0.11761375555E+04  0.50400001928E-02 0.  1.
    10030    2    1    2    0    0  0.00000000000E+00  0.00000000000E+00  0.15946885645E+04  0.39469636754E+04  0.36104695868E+04 0.  0.
        2    1    3    3  502    0 -0.14347120053E+03  0.11049966740E+04 -0.75533430491E+03  0.13461543549E+04  0.25500000920E-02 0.  1.
       -2    1    3    3    0  502  0.14347120053E+03 -0.11049966740E+04  0.23500228694E+04  0.26008093205E+04  0.25500000920E-02 0. -1.
</event>
<event>
 5   0  0.2565004E-06  0.3466659E+04  0.7818609E-02  0.8121737E-01
        2   -1    0    0  501    0  0.00000000000E+00  0.00000000000E+00  0.15473615946E+04  0.15473615946E+04  0.25500000920E-02 0. -1.
       -2   -1    0    0    0  501  0.00000000000E+00  0.00000000000E+00 -0.19416474658E+04  0.19416474658E+04  0.25500000920E-02 0.  1.
    10030    2    1    2    0    0  0.00000000000E+00  0.00000000000E+00 -0.39428587117E+03  0.34890090605E+04  0.34666587481E+04 0.  0.
        3    1    3    3  502    0 -0.49655066969E+03 -0.12017122787E+04 -0.13507245295E+04  0.18748684576E+04  0.10100000352E+00 0.  1.
       -3    1    3    3    0  502  0.49655066969E+03  0.12017122787E+04  0.95643865837E+03  0.16141406029E+04  0.10100000352E+00 0. -1.
</event>
<event>
 5   0  0.1110956E-06  0.3582214E+04  0.7818609E-02  0.8094578E-01
        1   -1    0    0  501    0  0.00000000000E+00  0.00000000000E+00  0.25052821526E+04  0.25052821526E+04  0.50400001928E-02 0.  1.
       -1   -1    0    0    0  501  0.00000000000E+00  0.00000000000E+00 -0.12805204951E+04  0.12805204951E+04  0.50400001928E-02 0. -1.
    10030    2    1    2    0    0  0.00000000000E+00  0.00000000000E+00  0.12247616575E+04  0.37858026476E+04  0.35822144784E+04 0.  0.
        1    1    3    3  502    0  0.15896695676E+03 -0.50738735313E+03 -0.11951907535E+04  0.13081258949E+04  0.50400001928E-02 0. -1.
       -1    1    3    3    0  502 -0.15896695676E+03  0.50738735313E+03  0.24199524111E+04  0.24776767528E+04  0.50400001928E-02 0.  1.
</event>
<event>
 5   0  0.3041329E-06  0.3546102E+04  0.7818609E-02  0.8102950E-01
       -2   -1    0    0    0  501  0.00000000000E+00  0.00000000000E+00  0.20733627917E+04  0.20733627917E+04  0.25500000920E-02 0.  1.
        2   -1    0    0  501    0  0.00000000000E+00  0.00000000000E+00 -0.15162371899E+04  0.15162371899E+04  0.25500000920E-02 0. -1.
    10030    2    1    2    0    0  0.00000000000E+00  0.00000000000E+00  0.55712560179E+03  0.35895999816E+04  0.35461019573E+04 0.  0.
        2    1    3    3  502    0  0.69094663525E+03 -0.15891400827E+04  0.65858266296E+03  0.18537811573E+04  0.25500000920E-02 0.  1.
       -2    1    3    3    0  502 -0.69094663525E+03  0.15891400827E+04 -0.10145706117E+03  0.17358188242E+04  0.25500000920E-02 0. -1.
</event>
<event>
 5   0  0.1782660E-06  0.2857676E+04  0.7818609E-02  0.8285583E-01
       -2   -1    0    0    0  501  0.00000000000E+00  0.00000000000E+00  0.91718294538E+03  0.91718294539E+03  0.25500000920E-02 0.  1.
        2   -1    0    0  501    0  0.00000000000E+00  0.00000000000E+00 -0.22259221725E+04  0.22259221725E+04  0.25500000920E-02 0. -1.
    10030    2    1    2    0    0  0.00000000000E+00  0.00000000000E+00 -0.13087392271E+04  0.31431051178E+04  0.28576758769E+04 0.  0.
        4    1    3    3  502    0 -0.12517151846E+04 -0.67080160020E+03 -0.48112324373E+03  0.14994155124E+04  0.12699999809E+01 0.  1.
       -4    1    3    3    0  502  0.12517151846E+04  0.67080160020E+03 -0.82761598334E+03  0.16436896054E+04  0.12699999809E+01 0. -1.
</event>
<event>
 5   0  0.3041329E-06  0.1850990E+04  0.7818609E-02  0.8679644E-01
        2   -1    0    0  501    0  0.00000000000E+00  0.00000000000E+00  0.12728789371E+04  0.12728789371E+04  0.25500000920E-02 0. -1.
       -2   -1    0    0    0  501  0.00000000000E+00  0.00000000000E+00 -0.67291596279E+03  0.67291596280E+03  0.25500000920E-02 0.  1.
    10030    2    1    2    0    0  0.00000000000E+00  0.00000000000E+00  0.59996297430E+03  0.19457948999E+04  0.18509895251E+04 0.  0.
        2    1    3    3  502    0 -0.53258386343E+03 -0.32246401087E+03 -0.41986310769E+03  0.75094183469E+03  0.25500000920E-02 0.  1.
       -2    1    3    3    0  502  0.53258386343E+03  0.32246401087E+03  0.10198260820E+04  0.11948530652E+04  0.25500000920E-02 0. -1.
</event>
<event>
 5   0  0.1089337E-06  0.3520433E+04  0.7818609E-02  0.8108965E-01
       -1   -1    0    0    0  501  0.00000000000E+00  0.00000000000E+00  0.13851655078E+04  0.13851655078E+04  0.50400001928E-02 0.  1.
        1   -1    0    0  501    0  0.00000000000E+00  0.00000000000E+00 -0.22368169095E+04  0.22368169095E+04  0.50400001928E-02 0. -1.
    10030    2    1    2    0    0  0.00000000000E+00  0.00000000000E+00 -0.85165140166E+03  0.36219824173E+04  0.35204327179E+04 0.  0.
        2    1    3    3  502    0 -0.95928205788E+03 -0.11639224482E+04 -0.13594283505E+04  0.20305129825E+04  0.25500000920E-02 0. -1.
       -2    1    3    3    0  502  0.95928205788E+03  0.11639224482E+04  0.50777694886E+03  0.15914694348E+04  0.25500000920E-02 0.  1.
</event>
<event>
 5   0  0.1102175E-06  0.2319166E+04  0.7818609E-02  0.8470403E-01
        1   -1    0    0  501    0  0.00000000000E+00  0.00000000000E+00  0.15342782972E+04  0.15342782973E+04  0.50400001928E-02 0. -1.
       -1   -1    0    0    0  501  0.00000000000E+00  0.00000000000E+00 -0.87639391687E+03  0.87639391689E+03  0.50400001928E-02 0.  1.
    10030    2    1    2    0    0  0.00000000000E+00  0.00000000000E+00  0.65788438038E+03  0.24106722141E+04  0.23191655107E+04 0.  0.
        5    1    3    3  502    0 -0.97183616994E+03 -0.41140435610E+03  0.82841277016E+03  0.13416441008E+04  0.46999998093E+01 0. -1.
       -5    1    3    3    0  502  0.97183616994E+03  0.41140435610E+03 -0.17052838979E+03  0.10690281134E+04  0.46999998093E+01 0.  1.
</event>
<event>
 5   0  0.2565004E-06  0.2696918E+04  0.7818609E-02  0.8336006E-01
        2   -1    0    0  501    0  0.00000000000E+00  0.00000000000E+00  0.12513565641E+04  0.12513565641E+04  0.25500000920E-02 0. -1.
       -2   -1    0    0    0  501  0.00000000000E+00  0.00000000000E+00 -0.14530966626E+04  0.14530966626E+04  0.25500000920E-02 0.  1.
    10030    2    1    2    0    0  0.00000000000E+00  0.00000000000E+00 -0.20174009845E+03  0.27044532267E+04  0.26969182761E+04 0.  0.
        3    1    3    3  502    0 -0.29882198633E+03 -0.67177063825E+03  0.10326737755E+04  0.12676693207E+04  0.10100000352E+00 0.  1.
       -3    1    3    3    0  502  0.29882198633E+03  0.67177063825E+03 -0.12344138739E+04  0.14367839059E+04  0.10100000352E+00 0. -1.
</event>
<event>
 5   0  0.1908726E-06  0.3532120E+04  0.7818609E-02  0.8106220E-01
       -2   -1    0    0    0  501  0.00000000000E+00  0.00000000000E+00  0.10473503602E+04  0.10473503602E+04  0.25500000920E-02 0. -1.
        2   -1    0    0  501    0  0.00000000000E+00  0.00000000000E+00 -0.29779611045E+04  0.29779611045E+04  0.25500000920E-02 0.  1.
    10030    2    1    2    0    0  0.00000000000E+00  0.00000000000E+00 -0.19306107443E+04  0.40253114647E+04  0.35321204031E+04 0.  0.
        5    1    3    3  502    0  0.15832588960E+04 -0.55988287838E+03 -0.15882246052E+04  0.23114188405E+04  0.46999998093E+01 0.  1.
       -5    1    3    3    0  502 -0.15832588960E+04  0.55988287838E+03 -0.34238613902E+03  0.17138926243E+04  0.46999998093E+01 0. -1.
</event>
<event>
 5   0  0.1089337E-06  0.3705302E+04  0.7818609E-02  0.8066788E-01
       -1   -1    0    0    0  501  0.00000000000E+00  0.00000000000E+00  0.14349902371E+04  0.14349902371E+04  0.50400001928E-02 0. -1.
        1   -1    0    0  501    0  0.00000000000E+00  0.00000000000E+00 -0.23918736013E+04  0.23918736013E+04  0.50400001928E-02 0.  1.
    10030    2    1    2    0    0  0.00000000000E+00  0.00000000000E+00 -0.95688336416E+03  0.38268638384E+04  0.37053017509E+04 0.  0.
        2    1    3    3  502    0  0.53716891159E+03  0.17630679456E+04 -0.67264314714E+03  0.19619907807E+04  0.25500000920E-02 0.  1.
       -2    1    3    3    0  502 -0.53716891159E+03 -0.17630679456E+04 -0.28424021702E+03  0.18648730577E+04  0.25500000920E-02 0. -1.
</event>
<event>
 5   0  0.1110956E-06  0.3803338E+04  0.7818609E-02  0.8045439E-01
        1   -1    0    0  501    0  0.00000000000E+00  0.00000000000E+00  0.30968797041E+04  0.30968797041E+04  0.50400001928E-02 0.  1.
       -1   -1    0    0    0  501  0.00000000000E+00  0.00000000000E+00 -0.11677383704E+04  0.11677383704E+04  0.50400001928E-02 0. -1.
    10030    2    1    2    0    0  0.00000000000E+00  0.00000000000E+00  0.19291413338E+04  0.42646180745E+04  0.38033381437E+04 0.  0.
        1    1    3    3  502    0 -0.17439893773E+04 -0.21011579117E+03  0.14772728876E+03  0.17628020154E+04  0.50400001928E-02 0. -1.
       -1    1    3    3    0  502  0.17439893773E+04  0.21011579117E+03  0.17814140450E+04  0.25018160591E+04  0.50400001928E-02 0.  1.
</event>
<event>
 5   0  0.1102175E-06  0.3527578E+04  0.7818609E-02  0.8107285E-01
        1   -1    0    0  501    0  0.00000000000E+00  0.00000000000E+00  0.18504906560E+04  0.18504906560E+04  0.50400001928E-02 0.  1.
       -1   -1    0    0    0  501  0.00000000000E+00  0.00000000000E+00 -0.16811497520E+04  0.16811497520E+04  0.50400001928E-02 0. -1.
    10030    2    1    2    0    0  0.00000000000E+00  0.00000000000E+00  0.16934090396E+03  0.35316404080E+04  0.35275781536E+04 0.  0.
        5    1    3    3  502    0 -0.88455816151E+03 -0.31942280749E+03  0.15785200226E+04  0.18374497606E+04  0.46999998093E+01 0.  1.
       -5    1    3    3    0  502  0.88455816151E+03  0.31942280749E+03 -0.14091791187E+04  0.16941906473E+04  0.46999998093E+01 0. -1.
</event>
<event>
 5   0  0.1908726E-06  0.2695210E+04  0.7818609E-02  0.8336561E-01
       -2   -1    0    0    0  501  0.00000000000E+00  0.00000000000E+00  0.10900346150E+04  0.10900346150E+04  0.25500000920E-02 0.  1.
        2   -1    0    0  501    0  0.00000000000E+00  0.00000000000E+00 -0.16660384015E+04  0.16660384015E+04  0.25500000920E-02 0. -1.
    10030    2    1    2    0    0  0.00000000000E+00  0.00000000000E+00 -0.57600378658E+03  0.27560730165E+04  0.26952102163E+04 0.  0.
        5    1    3    3  502    0  0.30572076019E+03 -0.93951690902E+03  0.64913186719E+03  0.11821808138E+04  0.46999998093E+01 0.  1.
       -5    1    3    3    0  502 -0.30572076019E+03  0.93951690902E+03 -0.12251356538E+04  0.15738922027E+04  0.46999998093E+01 0. -1.
</event>
<event>
 5   0  0.1782660E-06  0.3422129E+04  0.7818609E-02  0.8132496E-01
        2   -1    0    0  501    0  0.00000000000E+00  0.00000000000E+00  0.14461249347E+04  0.14461249347E+04  0.25500000920E-02 0. -1.
       -2   -1    0    0    0  501  0.00000000000E+00  0.00000000000E+00 -0.20245423066E+04  0.20245423066E+04  0.25500000920E-02 0.  1.
    10030    2    1    2    0    0  0.00000000000E+00  0.00000000000E+00 -0.57841737194E+03  0.34706672412E+04  0.34221286421E+04 0.  0.
        4    1    3    3  502    0  0.10660507671E+04  0.11437811979E+04 -0.99407720973E+03  0.18528061902E+04  0.12699999809E+01 0. -1.
       -4    1    3    3    0  502 -0.10660507671E+04 -0.11437811979E+04  0.41565983778E+03  0.16178610510E+04  0.12699999809E+01 0.  1.
</event>
<event>
 5   0  0.1089337E-06  0.2470108E+04  0.7818609E-02  0.8413713E-01
        1   -1    0    0  501    0  0.00000000000E+00  0.00000000000E+00  0.12428544721E+04  0.12428544721E+04  0.50400001928E-02 0.  1.
       -1   -1    0    0    0  501  0.00000000000E+00  0.00000000000E+00 -0.12273024577E+04  0.12273024577E+04  0.50400001928E-02 0. -1.
    10030    2    1    2    0    0  0.00000000000E+00  0.00000000000E+00  0.15552014382E+02  0.24701569298E+04  0.24701079718E+04 0.  0.
        2    1    3    3  502    0  0.16652439393E+03 -0.96182454971E+03  0.76444251570E+03  0.12398424085E+04  0.25500000920E-02 0.  1.
       -2    1    3    3    0  502 -0.16652439393E+03  0.96182454971E+03 -0.74889050131E+03  0.12303145212E+04  0.25500000920E-02 0. -1.
</event>
<event>
 5   0  0.3378848E-06  0.3445422E+04  0.7818609E-02  0.8126847E-01
        2   -1    0    0  501    0  0.00000000000E+00  0.00000000000E+00  0.23253241332E+04  0.23253241332E+04  0.25500000920E-02 0. -1.
       -2   -1    0    0    0  501  0.00000000000E+00  0.00000000000E+00 -0.12762666407E+04  0.12762666407E+04  0.25500000920E-02 0.  1.
    10030    2    1    2    0    0  0.00000000000E+00  0.00000000000E+00  0.10490574926E+04  0.36015907739E+04  0.34454222499E+04 0.  0.
        1    1    3    3  502    0 -0.39393521039E+01  0.17177939992E+04  0.66042872491E+03  0.18403798095E+04  0.50400001928E-02 0.  1.
       -1    1    3    3    0  502  0.39393521039E+01 -0.17177939992E+04  0.38862876765E+03  0.17612109645E+04  0.50400001928E-02 0. -1.
</event>
<event>
 5   0  0.3378848E-06  0.2521349E+04  0.7818609E-02  0.8395419E-01
        2   -1    0    0  501    0  0.00000000000E+00  0.00000000000E+00  0.20733603423E+04  0.20733603423E+04  0.25500000920E-02 0.  1.
       -2   -1    0    0    0  501  0.00000000000E+00  0.00000000000E+00 -0.76653374011E+03  0.76653374011E+03  0.25500000920E-02 0. -1.
    10030    2    1    2    0    0  0.00000000000E+00  0.00000000000E+00  0.13068266022E+04  0.28398940824E+04  0.25213493671E+04 0.  0.
        1    1    3    3  502    0 -0.38596467327E+02 -0.53109562303E+03  0.19404735235E+04  0.20122101639E+04  0.50400001928E-02 0.  1.
       -1    1    3    3    0  502  0.38596467327E+02  0.53109562303E+03 -0.63364692132E+03  0.82768391854E+03  0.50400001928E-02 0. -1.
</event>
<event>
 5   0  0.1782660E-06  0.2057050E+04  0.7818609E-02  0.8580403E-01
        2   -1    0    0  501    0  0.00000000000E+00  0.00000000000E+00  0.22837745843E+04  0.22837745843E+04  0.25500000920E-02 0. -1.
       -2   -1    0    0    0  501  0.00000000000E+00  0.00000000000E+00 -0.46320856151E+03  0.46320856151E+03  0.25500000920E-02 0.  1.
    10030    2    1    2    0    0  0.00000000000E+00  0.00000000000E+00  0.18205660227E+04  0.27469831458E+04  0.20570502570E+04 0.  0.
        4    1    3    3  502    0 -0.41626600839E+03 -0.30411491439E+03  0.20987875386E+04  0.21611742216E+04  0.12699999809E+01 0. -1.
       -4    1    3    3    0  502  0.41626600839E+03  0.30411491439E+03 -0.27822151585E+03  0.58580892420E+03  0.12699999809E+01 0.  1.
</event>
<event>
 5   0  0.2565004E-06  0.3450199E+04  0.7818609E-02  0.8125695E-01
        2   -1    0    0  501    0  0.00000000000E+00  0.00000000000E+00  0.21131552730E+04  0.21131552730E+04  0.25500000920E-02 0. -1.
       -2   -1    0    0    0  501  0.00000000000E+00  0.00000000000E+00 -0.14083052984E+04  0.14083052984E+04  0.25500000920E-02 0.  1.
    10030    2    1    2    0    0  0.00000000000E+00  0.00000000000E+00  0.70484997456E+03  0.35214605714E+04  0.34501987000E+04 0.  0.
        3    1    3    3  502    0 -0.82711123300E+03  0.14373092045E+04 -0.13278538412E+03  0.16636113457E+04  0.10100000352E+00 0.  1.
       -3    1    3    3    0  502  0.82711123300E+03 -0.14373092045E+04  0.83763535867E+03  0.18578492257E+04  0.10100000352E+00 0. -1.
</event>
<event>
 5   0  0.1110956E-06  0.3382144E+04  0.7818609E-02  0.8142303E-01
       -1   -1    0    0    0  501  0.00000000000E+00  0.00000000000E+00  0.20933064880E+04  0.20933064880E+04  0.50400001928E-02 0. -1.
        1   -1    0    0  501    0  0.00000000000E+00  0.00000000000E+00 -0.13661281157E+04  0.13661281157E+04  0.50400001928E-02 0.  1.
    10030    2    1    2    0    0  0.00000000000E+00  0.00000000000E+00  0.72717837235E+03  0.34594346037E+04  0.33821442004E+04 0.  0.
        1    1    3    3  502    0 -0.48377042939E+03 -0.29628282917E+03 -0.12658978140E+04  0.13871966763E+04  0.50400001928E-02 0.  1.
       -1    1    3    3    0  502  0.48377042939E+03  0.29628282917E+03  0.19930761864E+04  0.20722379274E+04  0.50400001928E-02 0. -1.
</event>
<event>
 5   0  0.3378848E-06  0.2676545E+04  0.7818609E-02  0.8342656E-01
        2   -1    0    0  501    0  0.00000000000E+00  0.00000000000E+00  0.26676488557E+04  0.26676488557E+04  0.25500000920E-02 0. -1.
       -2   -1    0    0    0  501  0.00000000000E+00  0.00000000000E+00 -0.67136781719E+03  0.67136781720E+03  0.25500000920E-02 0.  1.
    10030    2    1    2    0    0  0.00000000000E+00  0.00000000000E+00  0.19962810385E+04  0.33390166729E+04  0.26765452279E+04 0.  0.
        1    1    3    3  502    0 -0.77458230754E+03  0.50573924298E+03  0.22045694495E+04  0.23907899093E+04  0.50400001928E-02 0. -1.
       -1    1    3    3    0  502  0.77458230754E+03 -0.50573924298E+03 -0.20828841092E+03  0.94822676359E+03  0.50400001928E-02 0.  1.
</event>
<event>
 5   0  0.1908726E-06  0.3465959E+04  0.7818609E-02  0.8121905E-01
        2   -1    0    0  501    0  0.00000000000E+00  0.00000000000E+00  0.20842727925E+04  0.20842727925E+04  0.25500000920E-02 0. -1.
       -2   -1    0    0    0  501  0.00000000000E+00  0.00000000000E+00 -0.14408948848E+04  0.14408948848E+04  0.25500000920E-02 0.  1.
    10030    2    1    2    0    0  0.00000000000E+00  0.00000000000E+00  0.64337790770E+03  0.35251676772E+04  0.34659590333E+04 0.  0.
        5    1    3    3  502    0 -0.12696684558E+04 -0.21785084385E+03 -0.85728472377E+03  0.15474095016E+04  0.46999998093E+01 0.  1.
       -5    1    3    3    0  502  0.12696684558E+04  0.21785084385E+03  0.15006626315E+04  0.19777581757E+04  0.46999998093E+01 0. -1.
</event>
<event>
 5   0  0.1089337E-06  0.3559226E+04  0.7818609E-02  0.8099896E-01
       -1   -1    0    0    0  501  0.00000000000E+00  0.00000000000E+00  0.21307642164E+04  0.21307642164E+04  0.50400001928E-02 0.  1.
        1   -1    0    0  501    0  0.00000000000E+00  0.00000000000E+00 -0.14863315392E+04  0.14863315392E+04  0.50400001928E-02 0. -1.
    10030    2    1    2    0    0  0.00000000000E+00  0.00000000000E+00  0.64443267723E+03  0.36170957556E+04  0.35592257907E+04 0.  0.
        2    1    3    3  502    0 -0.15628019840E+04  0.58076023746E+03 -0.31030972267E+03  0.16958551291E+04  0.25500000920E-02 0. -1.
       -2    1    3    3    0  502  0.15628019840E+04 -0.58076023746E+03  0.95474239990E+03  0.19212406265E+04  0.25500000920E-02 0.  1.
</event>
<event>
 5   0  0.1125196E-06  0.3495807E+04  0.7818609E-02  0.8114784E-01
        1   -1    0    0  501    0  0.00000000000E+00  0.00000000000E+00  0.23390869985E+04  0.23390869985E+04  0.50400001928E-02 0.  1.
       -1   -1    0    0    0  501  0.00000000000E+00  0.00000000000E+00 -0.13061363621E+04  0.13061363621E+04  0.50400001928E-02 0. -1.
    10030    2    1    2    0    0  0.00000000000E+00  0.00000000000E+00  0.10329506364E+04  0.36452233607E+04  0.34958069643E+04 0.  0.
        4    1    3    3  502    0  0.16291766476E+04 -0.56506056808E+03  0.81444222155E+03  0.19070468636E+04  0.12699999809E+01 0. -1.
       -4    1    3    3    0  502 -0.16291766476E+04  0.56506056808E+03  0.21850841483E+03  0.17381764971E+04  0.12699999809E+01 0.  1.
</event>
<event>
 5   0  0.1125196E-06  0.3608752E+04  0.7818609E-02  0.8088490E-01
        1   -1    0    0  501    0  0.00000000000E+00  0.00000000000E+00  0.25013428123E+04  0.25013428123E+04  0.50400001928E-02 0.  1.
       -1   -1    0    0    0  501  0.00000000000E+00  0.00000000000E+00 -0.13016097992E+04  0.13016097992E+04  0.50400001928E-02 0. -1.
    10030    2    1    2    0    0  0.00000000000E+00  0.00000000000E+00  0.11997330131E+04  0.38029526115E+04  0.36087517596E+04 0.  0.
        4    1    3    3  502    0 -0.48084646294E+03  0.81461906153E+03  0.22190929631E+04  0.24123002981E+04  0.12699999809E+01 0.  1.
       -4    1    3    3    0  502  0.48084646294E+03 -0.81461906153E+03 -0.10193599500E+04  0.13906523134E+04  0.12699999809E+01 0. -1.
</event>
<event>
 5   0  0.3041329E-06  0.3517138E+04  0.7818609E-02  0.8109741E-01
        2   -1    0    0  501    0  0.00000000000E+00  0.00000000000E+00  0.16847799078E+04  0.16847799078E+04  0.25500000920E-02 0. -1.
       -2   -1    0    0    0  501  0.00000000000E+00  0.00000000000E+00 -0.18355895464E+04  0.18355895464E+04  0.25500000920E-02 0.  1.
    10030    2    1    2    0    0  0.00000000000E+00  0.00000000000E+00 -0.15080963856E+03  0.35203694542E+04  0.35171376924E+04 0.  0.
        2    1    3    3  502    0 -0.13647168732E+02  0.13001851310E+04 -0.12605099825E+04  0.18109536261E+04  0.25500000920E-02 0.  1.
       -2    1    3    3    0  502  0.13647168732E+02 -0.13001851310E+04  0.11097003439E+04  0.17094158281E+04  0.25500000920E-02 0. -1.
</event>
<event>
 5   0  0.1110956E-06  0.2130460E+04  0.7818609E-02  0.8547943E-01
       -1   -1    0    0    0  501  0.00000000000E+00  0.00000000000E+00  0.10210892888E+04  0.10210892888E+04  0.50400001928E-02 0.  1.
        1   -1    0    0  501    0  0.00000000000E+00  0.00000000000E+00 -0.11112784494E+04  0.11112784494E+04  0.50400001928E-02 0. -1.
    10030    2    1    2    0    0  0.00000000000E+00  0.00000000000E+00 -0.90189160544E+02  0.21323677382E+04  0.21304595951E+04 0.  0.
        1    1    3    3  502    0 -0.27707046848E+03 -0.53766761652E+03  0.83253739541E+03  0.10290641502E+04  0.50400001928E-02 0.  1.
       -1    1    3    3    0  502  0.27707046848E+03  0.53766761652E+03 -0.92272655596E+03  0.11033035881E+04  0.50400001928E-02 0. -1.
</event>
<event>
 5   0  0.2565004E-06  0.2585444E+04  0.7818609E-02  0.8373163E-01
       -2   -1    0    0    0  501  0.00000000000E+00  0.00000000000E+00  0.20611306033E+04  0.20611306033E+04  0.25500000920E-02 0. -1.
        2   -1    0    0  501    0  0.00000000000E+00  0.00000000000E+00 -0.81078300178E+03  0.81078300178E+03  0.25500000920E-02 0.  1.
    10030    2    1    2    0    0  0.00000000000E+00  0.00000000000E+00  0.12503476015E+04  0.28719136051E+04  0.25854436042E+04 0.  0.
        3    1    3    3  502    0  0.53307403824E+03 -0.11161097405E+04  0.10426647624E+04  0.16177202169E+04  0.10100000352E+00 0. -1.
       -3    1    3    3    0  502 -0.53307403824E+03  0.11161097405E+04  0.20768283912E+03  0.12541933882E+04  0.10100000352E+00 0.  1.
</event>
<event>
 5   0  0.1908726E-06  0.2436290E+04  0.7818609E-02  0.8426041E-01
        2   -1    0    0  501    0  0.00000000000E+00  0.00000000000E+00  0.10726569961E+04  0.10726569961E+04  0.25500000920E-02 0.  1.
       -2   -1    0    0    0  501  0.00000000000E+00  0.00000000000E+00 -0.13833661044E+04  0.13833661044E+04  0.25500000920E-02 0. -1.
    10030    2    1    2    0    0  0.00000000000E+00  0.00000000000E+00 -0.31070910825E+03  0.24560231005E+04  0.24362900731E+04 0.  0.
        5    1    3    3  502    0  0.12373120800E+03 -0.70222850840E+03  0.84027892390E+03  0.11020549214E+04  0.46999998093E+01 0.  1.
       -5    1    3    3    0  502 -0.12373120800E+03  0.70222850840E+03 -0.11509880321E+04  0.13539681791E+04  0.46999998093E+01 0. -1.
</event>
<event>
 5   0  0.1908726E-06  0.3511222E+04  0.7818609E-02  0.8111136E-01
       -2   -1    0    0    0  501  0.00000000000E+00  0.00000000000E+00  0.16392553531E+04  0.16392553531E+04  0.25500000920E-02 0.  1.
        2   -1    0    0  501    0  0.00000000000E+00  0.00000000000E+00 -0.18802252384E+04  0.18802252384E+04  0.25500000920E-02 0. -1.
    10030    2    1    2    0    0  0.00000000000E+00  0.00000000000E+00 -0.24096988524E+03  0.35194805915E+04  0.35112216034E+04 0.  0.
        5    1    3    3  502    0 -0.13745614369E+04 -0.49453548300E+03  0.85554191863E+03  0.16929142188E+04  0.46999998093E+01 0.  1.
       -5    1    3    3    0  502  0.13745614369E+04  0.49453548300E+03 -0.10965118039E+04  0.18265663727E+04  0.46999998093E+01 0. -1.
</event>
<event>
 5   0  0.1089337E-06  0.3494566E+04  0.7818609E-02  0.8115079E-01
        1   -1    0    0  501    0  0.00000000000E+00  0.00000000000E+00  0.20685107854E+04  0.20685107854E+04  0.50400001928E-02 0.  1.
       -1   -1    0    0    0  501  0.00000000000E+00  0.00000000000E+00 -0.14759397027E+04  0.14759397027E+04  0.50400001928E-02 0. -1.
    10030    2    1    2    0    0  0.00000000000E+00  0.00000000000E+00  0.59257108274E+03  0.35444504881E+04  0.34945656060E+04 0.  0.
        2    1    3    3  502    0  0.12861264723E+04  0.79338511657E+03 -0.59339953917E+03  0.16234852198E+04  0.25500000920E-02 0. -1.
       -2    1    3    3    0  502 -0.12861264723E+04 -0.79338511657E+03  0.11859706219E+04  0.19209652683E+04  0.25500000920E-02 0.  1.
</event>
<event>
 5   0  0.1908726E-06  0.2295752E+04  0.7818609E-02  0.8479598E-01
       -2   -1    0    0    0  501  0.00000000000E+00  0.00000000000E+00  0.12780449947E+04  0.12780449947E+04  0.25500000920E-02 0. -1.
        2   -1    0    0  501    0  0.00000000000E+00  0.00000000000E+00 -0.10309648487E+04  0.10309648487E+04  0.25500000920E-02 0.  1.
    10030    2    1    2    0    0  0.00000000000E+00  0.00000000000E+00  0.24708014599E+03  0.23090098435E+04  0.22957521335E+04 0.  0.
        5    1    3    3  502    0  0.87119224840E+03  0.26141440621E+03  0.82778645671E+03  0.12298641931E+04  0.46999998093E+01 0. -1.
       -5    1    3    3    0  502 -0.87119224840E+03 -0.26141440621E+03 -0.58070631073E+03  0.10791456504E+04  0.46999998093E+01 0.  1.
</event>
<event>
 5   0  0.1782660E-06  0.2370282E+04  0.7818609E-02  0.8450714E-01
       -2   -1    0    0    0  501  0.00000000000E+00  0.00000000000E+00  0.89815342833E+03  0.89815342833E+03  0.25500000920E-02 0.  1.
        2   -1    0    0  501    0  0.00000000000E+00  0.00000000000E+00 -0.15638298909E+04  0.15638298909E+04  0.25500000920E-02 0. -1.
    10030    2    1    2    0    0  0.00000000000E+00  0.00000000000E+00 -0.66567646258E+03  0.24619833192E+04  0.23702819898E+04 0.  0.
        4    1    3    3  502    0  0.10663199720E+04  0.68648959580E+01 -0.87002385100E+03  0.13762370885E+04  0.12699999809E+01 0. -1.
       -4    1    3    3    0  502 -0.10663199720E+04 -0.68648959580E+01  0.20434738842E+03  0.10857462308E+04  0.12699999809E+01 0.  1.
</event>
<event>
 5   0  0.1102175E-06  0.2832807E+04  0.7818609E-02  0.8293155E-01
        1   -1    0    0  501    0  0.00000000000E+00  0.00000000000E+00  0.13584849159E+04  0.13584849159E+04  0.50400001928E-02 0.  1.
       -1   -1    0    0    0  501  0.00000000000E+00  0.00000000000E+00 -0.14767910523E+04  0.14767910523E+04  0.50400001928E-02 0. -1.
    10030    2    1    2    0    0  0.00000000000E+00  0.00000000000E+00 -0.11830613640E+03  0.28352759681E+04  0.28328066425E+04 0.  0.
        5    1    3    3  502    0  0.93572337786E+03 -0.13698789021E+02 -0.11232874454E+04  0.14620405848E+04  0.46999998093E+01 0. -1.
       -5    1    3    3    0  502 -0.93572337786E+03  0.13698789021E+02  0.10049813090E+04  0.13732353833E+04  0.46999998093E+01 0.  1.
</event>
<event>
 5   0  0.1102175E-06  0.3603226E+04  0.7818609E-02  0.8089753E-01
        1   -1    0    0  501    0  0.00000000000E+00  0.00000000000E+00  0.31415493509E+04  0.31415493509E+04  0.50400001928E-02 0.  1.
       -1   -1    0    0    0  501  0.00000000000E+00  0.00000000000E+00 -0.10331872613E+04  0.10331872613E+04  0.50400001928E-02 0. -1.
    10030    2    1    2    0    0  0.00000000000E+00  0.00000000000E+00  0.21083620896E+04  0.41747366122E+04  0.36032256495E+04 0.  0.
        5    1    3    3  502    0  0.13625330035E+04 -0.55383399472E+03 -0.15130805457E+03  0.14785616310E+04  0.46999998093E+01 0. -1.
       -5    1    3    3    0  502 -0.13625330035E+04  0.55383399472E+03  0.22596701441E+04  0.26961749813E+04  0.46999998093E+01 0.  1.
</event>
<event>
 5   0  0.1782660E-06  0.3026177E+04  0.7818609E-02  0.8236295E-01
       -2   -1    0    0    0  501  0.00000000000E+00  0.00000000000E+00  0.17288306337E+04  0.17288306337E+04  0.25500000920E-02 0. -1.
        2   -1    0    0  501    0  0.00000000000E+00  0.00000000000E+00 -0.13242690261E+04  0.13242690261E+04  0.25500000920E-02 0.  1.
    10030    2    1    2    0    0  0.00000000000E+00  0.00000000000E+00  0.40456160754E+03  0.30530996598E+04  0.30261770336E+04 0.  0.
        4    1    3    3  502    0  0.53076660734E+03 -0.94418132359E+03 -0.86364299075E+03  0.13853058838E+04  0.12699999809E+01 0.  1.
       -4    1    3    3    0  502 -0.53076660734E+03  0.94418132359E+03  0.12682045983E+04  0.16677937760E+04  0.12699999809E+01 0. -1.
</event>
<event>
 5   0  0.1130707E-06  0.3512941E+04  0.7818609E-02  0.8110730E-01
        1   -1    0    0  501    0  0.00000000000E+00  0.00000000000E+00  0.21329156954E+04  0.21329156954E+04  0.50400001928E-02 0. -1.
       -1   -1    0    0    0  501  0.00000000000E+00  0.00000000000E+00 -0.14464652551E+04  0.14464652551E+04  0.50400001928E-02 0.  1.
    10030    2    1    2    0    0  0.00000000000E+00  0.00000000000E+00  0.68645044030E+03  0.35793809506E+04  0.35129409022E+04 0.  0.
        3    1    3    3  502    0 -0.16576050456E+04  0.10380491788E+03  0.92566431327E+03  0.19013901176E+04  0.10100000352E+00 0.  1.
       -3    1    3    3    0  502  0.16576050456E+04 -0.10380491788E+03 -0.23921387297E+03  0.16779908330E+04  0.10100000352E+00 0. -1.
</event>
<event>
 5   0  0.1908726E-06  0.3336722E+04  0.7818609E-02  0.8153614E-01
        2   -1    0    0  501    0  0.00000000000E+00  0.00000000000E+00  0.24232534254E+04  0.24232534254E+04  0.25500000920E-02 0.  1.
       -2   -1    0    0    0  501  0.00000000000E+00  0.00000000000E+00 -0.11486327722E+04  0.11486327722E+04  0.25500000920E-02 0. -1.
    10030    2    1    2    0    0  0.00000000000E+00  0.00000000000E+00  0.12746206533E+04  0.35718861976E+04  0.33367219241E+04 0.  0.
        5    1    3    3  502    0  0.15733653408E+04  0.37182322317E+03  0.10782577303E+04  0.19432943235E+04  0.46999998093E+01 0.  1.
       -5    1    3    3    0  502 -0.15733653408E+04 -0.37182322317E+03  0.19636292298E+03  0.16285918741E+04  0.46999998093E+01 0. -1.
</event>
<event>
 5   0  0.2565004E-06  0.3590474E+04  0.7818609E-02  0.8092677E-01
       -2   -1    0    0    0  501  0.00000000000E+00  0.00000000000E+00  0.17800386511E+04  0.17800386511E+04  0.25500000920E-02 0.  1.
        2   -1    0    0  501    0  0.00000000000E+00  0.00000000000E+00 -0.18105653419E+04  0.18105653419E+04  0.25500000920E-02 0. -1.
    10030    2    1    2    0    0  0.00000000000E+00  0.00000000000E+00 -0.30526690778E+02  0.35906039930E+04  0.35904742243E+04 0.  0.
        3    1    3    3  502    0  0.88296762032E+03 -0.38037224869E+02  0.15474183682E+04  0.17820163483E+04  0.10100000352E+00 0.  1.
       -3    1    3    3    0  502 -0.88296762032E+03  0.38037224869E+02 -0.15779450590E+04  0.18085876447E+04  0.10100000352E+00 0. -1.
</event>
<event>
 5   0  0.1110956E-06  0.1933188E+04  0.7818609E-02  0.8638511E-01
       -1   -1    0    0    0  501  0.00000000000E+00  0.00000000000E+00  0.14350695190E+04  0.14350695190E+04  0.50400001928E-02 0.  1.
        1   -1    0    0  501    0  0.00000000000E+00  0.00000000000E+00 -0.65105124856E+03  0.65105124858E+03  0.50400001928E-02 0. -1.
    10030    2    1    2    0    0  0.00000000000E+00  0.00000000000E+00  0.78401827041E+03  0.20861207676E+04  0.19331878358E+04 0.  0.
        1    1    3    3  502    0 -0.70394775445E+02 -0.71681609805E+03  0.10876145558E+04  0.13044869355E+04  0.50400001928E-02 0.  1.
       -1    1    3    3    0  502  0.70394775445E+02  0.71681609805E+03 -0.30359628544E+03  0.78163383204E+03  0.50400001928E-02 0. -1.
</event>
<event>
 5   0  0.1908726E-06  0.1790003E+04  0.7818609E-02  0.8711634E-01
        2   -1    0    0  501    0  0.00000000000E+00  0.00000000000E+00  0.16095280005E+04  0.16095280005E+04  0.25500000920E-02 0. -1.
       -2   -1    0    0    0  501  0.00000000000E+00  0.00000000000E+00 -0.49767861000E+03  0.49767861001E+03  0.25500000920E-02 0.  1.
    10030    2    1    2    0    0  0.00000000000E+00  0.00000000000E+00  0.11118493905E+04  0.21072066105E+04  0.17900029699E+04 0.  0.
        5    1    3    3  502    0 -0.48365263905E+03 -0.70768064960E+03  0.85898166431E+03  0.12135087007E+04  0.46999998093E+01 0. -1.
       -5    1    3    3    0  502  0.48365263905E+03  0.70768064960E+03  0.25286772623E+03  0.89369790984E+03  0.46999998093E+01 0.  1.
</event>
<event>
 5   0  0.2565004E-06  0.3455960E+04  0.7818609E-02  0.8124307E-01
        2   -1    0    0  501    0  0.00000000000E+00  0.00000000000E+00  0.12515144829E+04  0.12515144829E+04  0.25500000920E-02 0. -1.
       -2   -1    0    0    0  501  0.00000000000E+00  0.00000000000E+00 -0.23858417906E+04  0.23858417906E+04  0.25500000920E-02 0.  1.
    10030    2    1    2    0    0  0.00000000000E+00  0.00000000000E+00 -0.11343273077E+04  0.36373562734E+04  0.34559603902E+04 0.  0.
        3    1    3    3  502    0  0.11218257460E+03 -0.61589197838E+03 -0.22622925009E+04  0.23473123415E+04  0.10100000352E+00 0.  1.
       -3    1    3    3    0  502 -0.11218257460E+03  0.61589197838E+03  0.11279651931E+04  0.12900439319E+04  0.10100000352E+00 0. -1.
</event>
<event>
 5   0  0.1782660E-06  0.2371205E+04  0.7818609E-02  0.8450363E-01
        2   -1    0    0  501    0  0.00000000000E+00  0.00000000000E+00  0.83672489363E+03  0.83672489364E+03  0.25500000920E-02 0. -1.
       -2   -1    0    0    0  501  0.00000000000E+00  0.00000000000E+00 -0.16799463395E+04  0.16799463396E+04  0.25500000920E-02 0.  1.
    10030    2    1    2    0    0  0.00000000000E+00  0.00000000000E+00 -0.84322144592E+03  0.25166712332E+04  0.23712046915E+04 0.  0.
        4    1    3    3  502    0  0.96700608299E+03  0.63128138354E+03 -0.70646798079E+03  0.13537782575E+04  0.12699999809E+01 0.  1.
       -4    1    3    3    0  502 -0.96700608299E+03 -0.63128138354E+03 -0.13675346513E+03  0.11628929757E+04  0.12699999809E+01 0. -1.
</event>
<event>
 5   0  0.1908726E-06  0.2667868E+04  0.7818609E-02  0.8345507E-01
        2   -1    0    0  501    0  0.00000000000E+00  0.00000000000E+00  0.13880681716E+04  0.13880681716E+04  0.25500000920E-02 0.  1.
       -2   -1    0    0    0  501  0.00000000000E+00  0.00000000000E+00 -0.12819105898E+04  0.12819105898E+04  0.25500000920E-02 0. -1.
    10030    2    1    2    0    0  0.00000000000E+00  0.00000000000E+00  0.10615758178E+03  0.26699787615E+04  0.26678675294E+04 0.  0.
        5    1    3    3  502    0 -0.61482634540E+03  0.10514226392E+04 -0.49127829555E+03  0.13133459007E+04  0.46999998093E+01 0. -1.
       -5    1    3    3    0  502  0.61482634540E+03 -0.10514226392E+04  0.59743587733E+03  0.13566328607E+04  0.46999998093E+01 0.  1.
</event>
<event>
 5   0  0.1102175E-06  0.1852422E+04  0.7818609E-02  0.8678908E-01
       -1   -1    0    0    0  501  0.00000000000E+00  0.00000000000E+00  0.32818310251E+04  0.32818310251E+04  0.50400001928E-02 0. -1.
        1   -1    0    0  501    0  0.00000000000E+00  0.00000000000E+00 -0.26139880902E+03  0.26139880907E+03  0.50400001928E-02 0.  1.
    10030    2    1    2    0    0  0.00000000000E+00  0.00000000000E+00  0.30204322161E+04  0.35432298342E+04  0.18524218974E+04 0.  0.
        5    1    3    3  502    0 -0.45468282240E+03 -0.59205785959E+03  0.46155220782E+03  0.87767961617E+03  0.46999998093E+01 0.  1.
       -5    1    3    3    0  502  0.45468282240E+03  0.59205785959E+03  0.25588800082E+04  0.26655502180E+04  0.46999998093E+01 0. -1.
</event>
<event>
 5   0  0.1042825E-06  0.1768079E+04  0.7818609E-02  0.8723461E-01
        3   -1    0    0  501    0  0.00000000000E+00  0.00000000000E+00  0.93387472425E+03  0.93387472971E+03  0.10100000352E+00 0. -1.
       -3   -1    0    0    0  501  0.00000000000E+00  0.00000000000E+00 -0.83686401159E+03  0.83686401769E+03  0.10100000352E+00 0.  1.
    10030    2    1    2    0    0  0.00000000000E+00  0.00000000000E+00  0.97010712654E+02  0.17707387474E+04  0.17680793628E+04 0.  0.
        2    1    3    3  502    0  0.61701601445E+03 -0.28343676386E+03 -0.51845654629E+03  0.85430811280E+03  0.25500000920E-02 0.  1.
       -2    1    3    3    0  502 -0.61701601445E+03  0.28343676386E+03  0.61546725895E+03  0.91643063460E+03  0.25500000920E-02 0. -1.
</event>
<event>
 5   0  0.1130707E-06  0.3051633E+04  0.7818609E-02  0.8229138E-01
       -1   -1    0    0    0  501  0.00000000000E+00  0.00000000000E+00  0.19385736166E+04  0.19385736166E+04  0.50400001928E-02 0.  1.
        1   -1    0    0  501    0  0.00000000000E+00  0.00000000000E+00 -0.12009431705E+04  0.12009431705E+04  0.50400001928E-02 0. -1.
    10030    2    1    2    0    0  0.00000000000E+00  0.00000000000E+00  0.73763044606E+03  0.31395167871E+04  0.30516334940E+04 0.  0.
        3    1    3    3  502    0 -0.39089107484E+03  0.14381490591E+04  0.32210586346E+02  0.14906730294E+04  0.10100000352E+00 0. -1.
       -3    1    3    3    0  502  0.39089107484E+03 -0.14381490591E+04  0.70541985972E+03  0.16488437577E+04  0.10100000352E+00 0.  1.
</event>
<event>
 5   0  0.1110956E-06  0.2121154E+04  0.7818609E-02  0.8551982E-01
        1   -1    0    0  501    0  0.00000000000E+00  0.00000000000E+00  0.11453936649E+04  0.11453936649E+04  0.50400001928E-02 0. -1.
       -1   -1    0    0    0  501  0.00000000000E+00  0.00000000000E+00 -0.98204118541E+03  0.98204118543E+03  0.50400001928E-02 0.  1.
    10030    2    1    2    0    0  0.00000000000E+00  0.00000000000E+00  0.16335247949E+03  0.21274348503E+04  0.21211541693E+04 0.  0.
        1    1    3    3  502    0 -0.56006321021E+03 -0.20300084341E+03  0.96173869551E+03  0.11312919430E+04  0.50400001928E-02 0. -1.
       -1    1    3    3    0  502  0.56006321021E+03  0.20300084341E+03 -0.79838621602E+03  0.99614290733E+03  0.50400001928E-02 0.  1.
</event>
<event>
 5   0  0.1125196E-06  0.3464386E+04  0.7818609E-02  0.8122282E-01
        1   -1    0    0  501    0  0.00000000000E+00  0.00000000000E+00  0.21270601920E+04  0.21270601920E+04  0.50400001928E-02 0. -1.
       -1   -1    0    0    0  501  0.00000000000E+00  0.00000000000E+00 -0.14106287762E+04  0.14106287762E+04  0.50400001928E-02 0.  1.
    10030    2    1    2    0    0  0.00000000000E+00  0.00000000000E+00  0.71643141576E+03  0.35376889682E+04  0.34643858420E+04 0.  0.
        4    1    3    3  502    0  0.10017210756E+04 -0.28288885059E+03  0.17720765159E+04  0.20551710406E+04  0.12699999809E+01 0. -1.
       -4    1    3    3    0  502 -0.10017210756E+04  0.28288885059E+03 -0.10556451002E+04  0.14825179275E+04  0.12699999809E+01 0.  1.
</event>
<event>
 5   0  0.1130707E-06  0.3941992E+04  0.7818609E-02  0.8016352E-01
       -1   -1    0    0    0  501  0.00000000000E+00  0.00000000000E+00  0.15275904311E+04  0.15275904311E+04  0.50400001928E-02 0. -1.
        1   -1    0    0  501    0  0.00000000000E+00  0.00000000000E+00 -0.25431069762E+04  0.25431069762E+04  0.50400001928E-02 0.  1.
    10030    2    1    2    0    0  0.00000000000E+00  0.00000000000E+00 -0.10155165451E+04  0.40706974072E+04  0.39419923298E+04 0.  0.
        3    1    3    3  502    0  0.17279715559E+04  0.12254513680E+03  0.46310982235E+03  0.17931463204E+04  0.10100000352E+00 0. -1.
       -3    1    3    3    0  502 -0.17279715559E+04 -0.12254513680E+03 -0.14786263675E+04  0.22775510869E+04  0.10100000352E+00 0.  1.
</event>
<event>
 5   0  0.1908726E-06  0.3219431E+04  0.7818609E-02  0.8183704E-01
        2   -1    0    0  501    0  0.00000000000E+00  0.00000000000E+00  0.20069833268E+04  0.20069833268E+04  0.25500000920E-02 0.  1.
       -2   -1    0    0    0  501  0.00000000000E+00  0.00000000000E+00 -0.12910841162E+04  0.12910841162E+04  0.25500000920E-02 0. -1.
    10030    2    1    2    0    0  0.00000000000E+00  0.00000000000E+00  0.71589921059E+03  0.32980674430E+04  0.32194311887E+04 0.  0.
        5    1    3    3  502    0 -0.38661525934E+03  0.10566426830E+04 -0.82134041014E+03  0.13930496321E+04  0.46999998093E+01 0. -1.
       -5    1    3    3    0  502  0.38661525934E+03 -0.10566426830E+04  0.15372396207E+04  0.19050178109E+04  0.46999998093E+01 0.  1.
</event>
<event>
 5   0  0.1110956E-06  0.3461454E+04  0.7818609E-02  0.8122986E-01
       -1   -1    0    0    0  501  0.00000000000E+00  0.00000000000E+00  0.93851778219E+03  0.93851778220E+03  0.50400001928E-02 0.  1.
        1   -1    0    0  501    0  0.00000000000E+00  0.00000000000E+00 -0.31916447813E+04  0.31916447813E+04  0.50400001928E-02 0. -1.
    10030    2    1    2    0    0  0.00000000000E+00  0.00000000000E+00 -0.22531269991E+04  0.41301625635E+04  0.34614536725E+04 0.  0.
        1    1    3    3  502    0  0.10447809894E+04  0.30468232375E+03 -0.27322836434E+04  0.29410495647E+04  0.50400001928E-02 0. -1.
       -1    1    3    3    0  502 -0.10447809894E+04 -0.30468232375E+03  0.47915664424E+03  0.11891129988E+04  0.50400001928E-02 0.  1.
</event>
<event>
 5   0  0.1782660E-06  0.3426494E+04  0.7818609E-02  0.8131434E-01
        2   -1    0    0  501    0  0.00000000000E+00  0.00000000000E+00  0.18209390426E+04  0.18209390426E+04  0.25500000920E-02 0.  1.
       -2   -1    0    0    0  501  0.00000000000E+00  0.00000000000E+00 -0.16119239447E+04  0.16119239447E+04  0.25500000920E-02 0. -1.
    10030    2    1    2    0    0  0.00000000000E+00  0.00000000000E+00  0.20901509785E+03  0.34328629873E+04  0.34264939776E+04 0.  0.
        4    1    3    3  502    0  0.15377541105E+04  0.69518677088E+03  0.40042291310E+03  0.17344487519E+04  0.12699999809E+01 0. -1.
       -4    1    3    3    0  502 -0.15377541105E+04 -0.69518677088E+03 -0.19140781525E+03  0.16984142355E+04  0.12699999809E+01 0.  1.
</event>
<event>
 5   0  0.1110956E-06  0.2066417E+04  0.7818609E-02  0.8576183E-01
       -1   -1    0    0    0  501  0.00000000000E+00  0.00000000000E+00  0.56310736898E+03  0.56310736900E+03  0.50400001928E-02 0.  1.
        1   -1    0    0  501    0  0.00000000000E+00  0.00000000000E+00 -0.18957663194E+04  0.18957663195E+04  0.50400001928E-02 0. -1.
    10030    2    1    2    0    0  0.00000000000E+00  0.00000000000E+00 -0.13326589505E+04  0.24588736885E+04  0.20664171741E+04 0.  0.
        1    1    3    3  502    0 -0.34841032341E+03 -0.51548986924E+03  0.31519358025E+03  0.69747154194E+03  0.50400001928E-02 0.  1.
       -1    1    3    3    0  502  0.34841032341E+03  0.51548986924E+03 -0.16478525307E+04  0.17614021465E+04  0.50400001928E-02 0. -1.
</event>
<event>
 5   0  0.2565004E-06  0.3446449E+04  0.7818609E-02  0.8126599E-01
       -2   -1    0    0    0  501  0.00000000000E+00  0.00000000000E+00  0.20812668202E+04  0.20812668202E+04  0.25500000920E-02 0.  1.
        2   -1    0    0  501    0  0.00000000000E+00  0.00000000000E+00 -0.14267763322E+04  0.14267763322E+04  0.25500000920E-02 0. -1.
    10030    2    1    2    0    0  0.00000000000E+00  0.00000000000E+00  0.65449048798E+03  0.35080431524E+04  0.34464487463E+04 0.  0.
        3    1    3    3  502    0  0.57760404288E+03 -0.18113083562E+01 -0.13253074018E+04  0.14457072424E+04  0.10100000352E+00 0. -1.
       -3    1    3    3    0  502 -0.57760404288E+03  0.18113083562E+01  0.19797978898E+04  0.20623359100E+04  0.10100000352E+00 0.  1.
</event>
<event>
 5   0  0.2565004E-06  0.3501739E+04  0.7818609E-02  0.8113378E-01
        2   -1    0    0  501    0  0.00000000000E+00  0.00000000000E+00  0.24068485777E+04  0.24068485777E+04  0.25500000920E-02 0. -1.
       -2   -1    0    0    0  501  0.00000000000E+00  0.00000000000E+00 -0.12736752712E+04  0.12736752712E+04  0.25500000920E-02 0.  1.
    10030    2    1    2    0    0  0.00000000000E+00  0.00000000000E+00  0.11331733065E+04  0.36805238489E+04  0.35017387195E+04 0.  0.
        3    1    3    3  502    0  0.63569516744E+02 -0.38855883026E+03  0.23597156119E+04  0.23923371057E+04  0.10100000352E+00 0. -1.
       -3    1    3    3    0  502 -0.63569516744E+02  0.38855883026E+03 -0.12265423054E+04  0.12881867431E+04  0.10100000352E+00 0.  1.
</event>
<event>
 5   0  0.1908726E-06  0.3452984E+04  0.7818609E-02  0.8125023E-01
        2   -1    0    0  501    0  0.00000000000E+00  0.00000000000E+00  0.17442253987E+04  0.17442253987E+04  0.25500000920E-02 0. -1.
       -2   -1    0    0    0  501  0.00000000000E+00  0.00000000000E+00 -0.17089386249E+04  0.17089386249E+04  0.25500000920E-02 0.  1.
    10030    2    1    2    0    0  0.00000000000E+00  0.00000000000E+00  0.35286773835E+02  0.34531640235E+04  0.34529837267E+04 0.  0.
        5    1    3    3  502    0  0.14401700839E+04  0.90904377920E+03  0.30103355478E+03  0.17294778849E+04  0.46999998093E+01 0. -1.
       -5    1    3    3    0  502 -0.14401700839E+04 -0.90904377920E+03 -0.26574678095E+03  0.17236861387E+04  0.46999998093E+01 0.  1.
</event>
<event>
 5   0  0.2565004E-06  0.2589537E+04  0.7818609E-02  0.8371764E-01
       -2   -1    0    0    0  501  0.00000000000E+00  0.00000000000E+00  0.17195373258E+04  0.17195373258E+04  0.25500000920E-02 0.  1.
        2   -1    0    0  501    0  0.00000000000E+00  0.00000000000E+00 -0.97492846517E+03  0.97492846517E+03  0.25500000920E-02 0. -1.
    10030    2    1    2    0    0  0.00000000000E+00  0.00000000000E+00  0.74460886059E+03  0.26944657909E+04  0.25895373222E+04 0.  0.
        3    1    3    3  502    0 -0.19398014539E+03 -0.86975768090E+03  0.13496842176E+04  0.16173293473E+04  0.10100000352E+00 0.  1.
       -3    1    3    3    0  502  0.19398014539E+03  0.86975768090E+03 -0.60507535701E+03  0.10771364436E+04  0.10100000352E+00 0. -1.
</event>
<event>
 5   0  0.1130707E-06  0.1727333E+04  0.7818609E-02  0.8745927E-01
       -1   -1    0    0    0  501  0.00000000000E+00  0.00000000000E+00  0.83458770147E+03  0.83458770149E+03  0.50400001928E-02 0. -1.
        1   -1    0    0  501    0  0.00000000000E+00  0.00000000000E+00 -0.89375823201E+03  0.89375823203E+03  0.50400001928E-02 0.  1.
    10030    2    1    2    0    0  0.00000000000E+00  0.00000000000E+00 -0.59170530542E+02  0.17283459335E+04  0.17273327746E+04 0.  0.
        3    1    3    3  502    0  0.21051861259E+03 -0.71342710450E+03  0.40956087158E+03  0.84913864440E+03  0.10100000352E+00 0. -1.
       -3    1    3    3    0  502 -0.21051861259E+03  0.71342710450E+03 -0.46873140213E+03  0.87920728911E+03  0.10100000352E+00 0.  1.
</event>
<event>
 5   0  0.1908726E-06  0.1760524E+04  0.7818609E-02  0.8727578E-01
        2   -1    0    0  501    0  0.00000000000E+00  0.00000000000E+00  0.26425395084E+04  0.26425395084E+04  0.25500000920E-02 0. -1.
       -2   -1    0    0    0  501  0.00000000000E+00  0.00000000000E+00 -0.29322606876E+03  0.29322606878E+03  0.25500000920E-02 0.  1.
    10030    2    1    2    0    0  0.00000000000E+00  0.00000000000E+00  0.23493134396E+04  0.29357655772E+04  0.17605243215E+04 0.  0.
        5    1    3    3  502    0  0.83816862778E+03  0.20136733735E+03  0.87745833181E+03  0.12300531156E+04  0.46999998093E+01 0.  1.
       -5    1    3    3    0  502 -0.83816862778E+03 -0.20136733735E+03  0.14718551078E+04  0.17057124616E+04  0.46999998093E+01 0. -1.
</event>
<event>
 5   0  0.2565004E-06  0.3379661E+04  0.7818609E-02  0.8142916E-01
        2   -1    0    0  501    0  0.00000000000E+00  0.00000000000E+00  0.17701513446E+04  0.17701513446E+04  0.25500000920E-02 0.  1.
       -2   -1    0    0    0  501  0.00000000000E+00  0.00000000000E+00 -0.16131543904E+04  0.16131543904E+04  0.25500000920E-02 0. -1.
    10030    2    1    2    0    0  0.00000000000E+00  0.00000000000E+00  0.15699695424E+03  0.33833057350E+04  0.33796611743E+04 0.  0.
        3    1    3    3  502    0  0.12586041371E+04 -0.91014124929E+03 -0.58786634881E+03  0.16607312612E+04  0.10100000352E+00 0.  1.
       -3    1    3    3    0  502 -0.12586041371E+04  0.91014124929E+03  0.74486330305E+03  0.17225744738E+04  0.10100000352E+00 0. -1.
</event>
<event>
 5   0  0.1782660E-06  0.3399076E+04  0.7818609E-02  0.8138133E-01
       -2   -1    0    0    0  501  0.00000000000E+00  0.00000000000E+00  0.13481263932E+04  0.13481263932E+04  0.25500000920E-02 0.  1.
        2   -1    0    0  501    0  0.00000000000E+00  0.00000000000E+00 -0.21425507834E+04  0.21425507834E+04  0.25500000920E-02 0. -1.
    10030    2    1    2    0    0  0.00000000000E+00  0.00000000000E+00 -0.79442439022E+03  0.34906771766E+04  0.33990759097E+04 0.  0.
        4    1    3    3  502    0  0.98582486916E+03  0.13298651868E+04 -0.20896166032E+01  0.16554147719E+04  0.12699999809E+01 0. -1.
       -4    1    3    3    0  502 -0.98582486916E+03 -0.13298651868E+04 -0.79233477362E+03  0.18352624047E+04  0.12699999809E+01 0.  1.
</event>
<event>
 5   0  0.1908726E-06  0.2383248E+04  0.7818609E-02  0.8445802E-01
        2   -1    0    0  501    0  0.00000000000E+00  0.00000000000E+00  0.75051812735E+03  0.75051812735E+03  0.25500000920E-02 0.  1.
       -2   -1    0    0    0  501  0.00000000000E+00  0.00000000000E+00 -0.18919835517E+04  0.18919835517E+04  0.25500000920E-02 0. -1.
    10030    2    1    2    0    0  0.00000000000E+00  0.00000000000E+00 -0.11414654244E+04  0.26425016791E+04  0.23832481635E+04 0.  0.
        5    1    3    3  502    0  0.18222334951E+02 -0.68446722274E+03  0.51060986505E+03  0.85414984445E+03  0.46999998093E+01 0.  1.
       -5    1    3    3    0  502 -0.18222334951E+02  0.68446722274E+03 -0.16520752894E+04  0.17883518346E+04  0.46999998093E+01 0. -1.
</event>
<event>
 5   0  0.3378848E-06  0.3801192E+04  0.7818609E-02  0.8045899E-01
        2   -1    0    0  501    0  0.00000000000E+00  0.00000000000E+00  0.21401137596E+04  0.21401137596E+04  0.25500000920E-02 0. -1.
       -2   -1    0    0    0  501  0.00000000000E+00  0.00000000000E+00 -0.16878844457E+04  0.16878844457E+04  0.25500000920E-02 0.  1.
    10030    2    1    2    0    0  0.00000000000E+00  0.00000000000E+00  0.45222931398E+03  0.38279982053E+04  0.38011917746E+04 0.  0.
        1    1    3    3  502    0  0.10785299907E+04 -0.14602062976E+04  0.79296545583E+03  0.19809653169E+04  0.50400001928E-02 0. -1.
       -1    1    3    3    0  502 -0.10785299907E+04  0.14602062976E+04 -0.34073614185E+03  0.18470328884E+04  0.50400001928E-02 0.  1.
</event>
<event>
 5   0  0.1089337E-06  0.3338722E+04  0.7818609E-02  0.8153112E-01
        1   -1    0    0  501    0  0.00000000000E+00  0.00000000000E+00  0.19989783550E+04  0.19989783550E+04  0.50400001928E-02 0. -1.
       -1   -1    0    0    0  501  0.00000000000E+00  0.00000000000E+00 -0.13940955733E+04  0.13940955733E+04  0.50400001928E-02 0.  1.
    10030    2    1    2    0    0  0.00000000000E+00  0.00000000000E+00  0.60488278169E+03  0.33930739283E+04  0.33387224358E+04 0.  0.
        2    1    3    3  502    0 -0.60449878650E+00  0.76196756701E+03 -0.12070571050E+04  0.14274388931E+04  0.25500000920E-02 0.  1.
       -2    1    3    3    0  502  0.60449878650E+00 -0.76196756701E+03  0.18119398867E+04  0.19656350352E+04  0.25500000920E-02 0. -1.
</event>
<event>
 5   0  0.1102175E-06  0.3476851E+04  0.7818609E-02  0.8119298E-01
       -1   -1    0    0    0  501  0.00000000000E+00  0.00000000000E+00  0.16010918371E+04  0.16010918371E+04  0.50400001928E-02 0. -1.
        1   -1    0    0  501    0  0.00000000000E+00  0.00000000000E+00 -0.18875385607E+04  0.18875385607E+04  0.50400001928E-02 0.  1.
    10030    2    1    2    0    0  0.00000000000E+00  0.00000000000E+00 -0.28644672361E+03  0.34886303978E+04  0.34768506334E+04 0.  0.
        5    1    3    3  502    0  0.10184742386E+04 -0.12003530157E+04 -0.88326089825E+03  0.18050786801E+04  0.46999998093E+01 0.  1.
       -5    1    3    3    0  502 -0.10184742386E+04  0.12003530157E+04  0.59681417464E+03  0.16835517177E+04  0.46999998093E+01 0. -1.
</event>
<event>
 5   0  0.1130707E-06  0.3486335E+04  0.7818609E-02  0.8117036E-01
        1   -1    0    0  501    0  0.00000000000E+00  0.00000000000E+00  0.10568372278E+04  0.10568372278E+04  0.50400001928E-02 0. -1.
       -1   -1    0    0    0  501  0.00000000000E+00  0.00000000000E+00 -0.28752133515E+04  0.28752133515E+04  0.50400001928E-02 0.  1.
    10030    2    1    2    0    0  0.00000000000E+00  0.00000000000E+00 -0.18183761237E+04  0.39320505793E+04  0.34863347560E+04 0.  0.
        3    1    3    3  502    0  0.87069239054E+03 -0.10797975207E+04 -0.20998888126E+04  0.25166646499E+04  0.10100000352E+00 0.  1.
       -3    1    3    3    0  502 -0.87069239054E+03  0.10797975207E+04  0.28151268894E+03  0.14153859293E+04  0.10100000352E+00 0. -1.
</event>
<event>
 5   0  0.2565004E-06  0.3451788E+04  0.7818609E-02  0.8125312E-01
        2   -1    0    0  501    0  0.00000000000E+00  0.00000000000E+00  0.93857443955E+03  0.93857443955E+03  0.25500000920E-02 0. -1.
       -2   -1    0    0    0  501  0.00000000000E+00  0.00000000000E+00 -0.31736539055E+04  0.31736539055E+04  0.25500000920E-02 0.  1.
    10030    2    1    2    0    0  0.00000000000E+00  0.00000000000E+00 -0.22350794659E+04  0.41122283450E+04  0.34517881949E+04 0.  0.
        3    1    3    3  502    0  0.28753002351E+03 -0.14244123303E+04 -0.22268787205E+04  0.26590624001E+04  0.10100000352E+00 0.  1.
       -3    1    3    3    0  502 -0.28753002351E+03  0.14244123303E+04 -0.82007453791E+01  0.14531659450E+04  0.10100000352E+00 0. -1.
</event>
<event>
 5   0  0.1089337E-06  0.3558835E+04  0.7818609E-02  0.8099987E-01
       -1   -1    0    0    0  501  0.00000000000E+00  0.00000000000E+00  0.15476936914E+04  0.15476936914E+04  0.50400001928E-02 0.  1.
        1   -1    0    0  501    0  0.00000000000E+00  0.00000000000E+00 -0.20458351408E+04  0.20458351408E+04  0.50400001928E-02 0. -1.
    10030    2    1    2    0    0  0.00000000000E+00  0.00000000000E+00 -0.49814144942E+03  0.35935288322E+04  0.35588347200E+04 0.  0.
        2    1    3    3  502    0 -0.21540555461E+03  0.12939567849E+04  0.96498256227E+03  0.16284701593E+04  0.25500000920E-02 0.  1.
       -2    1    3    3    0  502  0.21540555461E+03 -0.12939567849E+04 -0.14631240117E+04  0.19650586729E+04  0.25500000920E-02 0. -1.
</event>
<event>
 5   0  0.2565004E-06  0.2283653E+04  0.7818609E-02  0.8484394E-01
       -2   -1    0    0    0  501  0.00000000000E+00  0.00000000000E+00  0.11728593810E+04  0.11728593810E+04  0.25500000920E-02 0.  1.
        2   -1    0    0  501    0  0.00000000000E+00  0.00000000000E+00 -0.11116148350E+04  0.11116148350E+04  0.25500000920E-02 0. -1.
    10030    2    1    2    0    0  0.00000000000E+00  0.00000000000E+00  0.61244545964E+02  0.22844742160E+04  0.22836531149E+04 0.  0.
        3    1    3    3  502    0  0.42503231606E+03  0.74560110768E+03 -0.72277161151E+03  0.11220393460E+04  0.10100000352E+00 0. -1.
       -3    1    3    3    0  502 -0.42503231606E+03 -0.74560110768E+03  0.78401615747E+03  0.11624348699E+04  0.10100000352E+00 0.  1.
</event>
<event>
 5   0  0.1782660E-06  0.3497521E+04  0.7818609E-02  0.8114378E-01
        2   -1    0    0  501    0  0.00000000000E+00  0.00000000000E+00  0.14919471313E+04  0.14919471313E+04  0.25500000920E-02 0.  1.
       -2   -1    0    0    0  501  0.00000000000E+00  0.00000000000E+00 -0.20497796798E+04  0.20497796798E+04  0.25500000920E-02 0. -1.
    10030    2    1    2    0    0  0.00000000000E+00  0.00000000000E+00 -0.55783254842E+03  0.35417268111E+04  0.34975207866E+04 0.  0.
        4    1    3    3  502    0  0.59339399736E+02  0.12679067620E+04 -0.14970554503E+04  0.19627239632E+04  0.12699999809E+01 0. -1.
       -4    1    3    3    0  502 -0.59339399736E+02 -0.12679067620E+04  0.93922290184E+03  0.15790028479E+04  0.12699999809E+01 0.  1.
</event>
<event>
 5   0  0.3041329E-06  0.2852365E+04  0.7818609E-02  0.8287193E-01
       -2   -1    0    0    0  501  0.00000000000E+00  0.00000000000E+00  0.11051021694E+04  0.11051021694E+04  0.25500000920E-02 0. -1.
        2   -1    0    0  501    0  0.00000000000E+00  0.00000000000E+00 -0.18405503573E+04  0.18405503573E+04  0.25500000920E-02 0.  1.
    10030    2    1    2    0    0  0.00000000000E+00  0.00000000000E+00 -0.73544818792E+03  0.29456525267E+04  0.28523647682E+04 0.  0.
        2    1    3    3  502    0 -0.24826407459E+03 -0.13692703106E+04 -0.69012003302E+03  0.15533196369E+04  0.25500000920E-02 0. -1.
       -2    1    3    3    0  502  0.24826407459E+03  0.13692703106E+04 -0.45328154903E+02  0.13923328898E+04  0.25500000920E-02 0.  1.
</event>
<event>
 5   0  0.3041329E-06  0.3451616E+04  0.7818609E-02  0.8125353E-01
        2   -1    0    0  501    0  0.00000000000E+00  0.00000000000E+00  0.17284649498E+04  0.17284649498E+04  0.25500000920E-02 0.  1.
       -2   -1    0    0    0  501  0.00000000000E+00  0.00000000000E+00 -0.17231555404E+04  0.17231555404E+04  0.25500000920E-02 0. -1.
    10030    2    1    2    0    0  0.00000000000E+00  0.00000000000E+00  0.53094094102E+01  0.34516204902E+04  0.34516164066E+04 0.  0.
        2    1    3    3  502    0  0.77702243101E+03 -0.27512197498E+03 -0.15135786002E+04  0.17234779193E+04  0.25500000920E-02 0. -1.
       -2    1    3    3    0  502 -0.77702243101E+03  0.27512197498E+03  0.15188880096E+04  0.17281425708E+04  0.25500000920E-02 0.  1.
</event>
<event>
 5   0  0.1908726E-06  0.3229794E+04  0.7818609E-02  0.8180993E-01
       -2   -1    0    0    0  501  0.00000000000E+00  0.00000000000E+00  0.13713334688E+04  0.13713334688E+04  0.25500000920E-02 0.  1.
        2   -1    0    0  501    0  0.00000000000E+00  0.00000000000E+00 -0.19017195367E+04  0.19017195367E+04  0.25500000920E-02 0. -1.
    10030    2    1    2    0    0  0.00000000000E+00  0.00000000000E+00 -0.53038606796E+03  0.32730530055E+04  0.32297935841E+04 0.  0.
        5    1    3    3  502    0  0.69886103647E+03 -0.84475172512E+03 -0.14667625354E+04  0.18312363722E+04  0.46999998093E+01 0. -1.
       -5    1    3    3    0  502 -0.69886103647E+03  0.84475172512E+03  0.93637646747E+03  0.14418166334E+04  0.46999998093E+01 0.  1.
</event>
<event>
 5   0  0.3041329E-06  0.3540597E+04  0.7818609E-02  0.8104236E-01
        2   -1    0    0  501    0  0.00000000000E+00  0.00000000000E+00  0.28739518341E+04  0.28739518341E+04  0.25500000920E-02 0.  1.
       -2   -1    0    0    0  501  0.00000000000E+00  0.00000000000E+00 -0.10904693753E+04  0.10904693753E+04  0.25500000920E-02 0. -1.
    10030    2    1    2    0    0  0.00000000000E+00  0.00000000000E+00  0.17834824588E+04  0.39644212094E+04  0.35405968204E+04 0.  0.
        2    1    3    3  502    0  0.13588137856E+04 -0.86384664362E+03  0.17155807096E+04  0.23528329943E+04  0.25500000920E-02 0.  1.
       -2    1    3    3    0  502 -0.13588137856E+04  0.86384664362E+03  0.67901749206E+02  0.16115882152E+04  0.25500000920E-02 0. -1.
</event>
<event>
 5   0  0.2565004E-06  0.3426187E+04  0.7818609E-02  0.8131509E-01
       -2   -1    0    0    0  501  0.00000000000E+00  0.00000000000E+00  0.14183519696E+04  0.14183519696E+04  0.25500000920E-02 0.  1.
        2   -1    0    0  501    0  0.00000000000E+00  0.00000000000E+00 -0.20690844791E+04  0.20690844791E+04  0.25500000920E-02 0. -1.
    10030    2    1    2    0    0  0.00000000000E+00  0.00000000000E+00 -0.65073250955E+03  0.34874364487E+04  0.34261874124E+04 0.  0.
        3    1    3    3  502    0 -0.52637131018E+03  0.53963657912E+03  0.12404496524E+04  0.14515473620E+04  0.10100000352E+00 0.  1.
       -3    1    3    3    0  502  0.52637131018E+03 -0.53963657912E+03 -0.18911821620E+04  0.20358890868E+04  0.10100000352E+00 0. -1.
</event>
<event>
 5   0  0.2565004E-06  0.2956415E+04  0.7818609E-02  0.8256287E-01
        2   -1    0    0  501    0  0.00000000000E+00  0.00000000000E+00  0.16184705239E+04  0.16184705239E+04  0.25500000920E-02 0. -1.
       -2   -1    0    0    0  501  0.00000000000E+00  0.00000000000E+00 -0.13501002371E+04  0.13501002371E+04  0.25500000920E-02 0.  1.
    10030    2    1    2    0    0  0.00000000000E+00  0.00000000000E+00  0.26837028683E+03  0.29685707610E+04  0.29564150169E+04 0.  0.
        3    1    3    3  502    0  0.29116434864E+03 -0.52745290320E+03  0.14895923814E+04  0.16068194410E+04  0.10100000352E+00 0. -1.
       -3    1    3    3    0  502 -0.29116434864E+03  0.52745290320E+03 -0.12212220946E+04  0.13617513200E+04  0.10100000352E+00 0.  1.
</event>
<event>
 5   0  0.1042825E-06  0.2790258E+04  0.7818609E-02  0.8306299E-01
       -3   -1    0    0    0  501  0.00000000000E+00  0.00000000000E+00  0.20626506180E+04  0.20626506205E+04  0.10100000352E+00 0. -1.
        3   -1    0    0  501    0  0.00000000000E+00  0.00000000000E+00 -0.94363305078E+03  0.94363305618E+03  0.10100000352E+00 0.  1.
    10030    2    1    2    0    0  0.00000000000E+00  0.00000000000E+00  0.11190175672E+04  0.30062836767E+04  0.27902582728E+04 0.  0.
        2    1    3    3  502    0 -0.11854405242E+04 -0.59297373033E+03  0.10285252912E+04  0.16777220735E+04  0.25500000920E-02 0. -1.
       -2    1    3    3    0  502  0.11854405242E+04  0.59297373033E+03  0.90492276000E+02  0.13285616031E+04  0.25500000920E-02 0.  1.
</event>
<event>
 5   0  0.3378848E-06  0.3302728E+04  0.7818609E-02  0.8162202E-01
        2   -1    0    0  501    0  0.00000000000E+00  0.00000000000E+00  0.23964456477E+04  0.23964456477E+04  0.25500000920E-02 0. -1.
       -2   -1    0    0    0  501  0.00000000000E+00  0.00000000000E+00 -0.11379366088E+04  0.11379366088E+04  0.25500000920E-02 0.  1.
    10030    2    1    2    0    0  0.00000000000E+00  0.00000000000E+00  0.12585090389E+04  0.35343822565E+04  0.33027281048E+04 0.  0.
        1    1    3    3  502    0  0.15244551919E+04 -0.63123287153E+03  0.70171386689E+03  0.17929921699E+04  0.50400001928E-02 0.  1.
       -1    1    3    3    0  502 -0.15244551919E+04  0.63123287153E+03  0.55679517197E+03  0.17413900866E+04  0.50400001928E-02 0. -1.
</event>
<event>
 5   0  0.1110956E-06  0.3496151E+04  0.7818609E-02  0.8114703E-01
        1   -1    0    0  501    0  0.00000000000E+00  0.00000000000E+00  0.16273302010E+04  0.16273302010E+04  0.50400001928E-02 0. -1.
       -1   -1    0    0    0  501  0.00000000000E+00  0.00000000000E+00 -0.18777799296E+04  0.18777799296E+04  0.50400001928E-02 0.  1.
    10030    2    1    2    0    0  0.00000000000E+00  0.00000000000E+00 -0.25044972859E+03  0.35051101306E+04  0.34961510209E+04 0.  0.
        1    1    3    3  502    0  0.10340569338E+04 -0.10695819076E+04 -0.10454488510E+04  0.18183075921E+04  0.50400001928E-02 0.  1.
       -1    1    3    3    0  502 -0.10340569338E+04  0.10695819076E+04  0.79499912241E+03  0.16868025385E+04  0.50400001928E-02 0. -1.
</event>
<event>
 5   0  0.1102175E-06  0.2920211E+04  0.7818609E-02  0.8266889E-01
        1   -1    0    0  501    0  0.00000000000E+00  0.00000000000E+00  0.28645628601E+04  0.28645628601E+04  0.50400001928E-02 0.  1.
       -1   -1    0    0    0  501  0.00000000000E+00  0.00000000000E+00 -0.74423493466E+03  0.74423493468E+03  0.50400001928E-02 0. -1.
    10030    2    1    2    0    0  0.00000000000E+00  0.00000000000E+00  0.21203279255E+04  0.36087977948E+04  0.29202107822E+04 0.  0.
        5    1    3    3  502    0 -0.92868836261E+03 -0.59511891613E+03 -0.12211481317E+03  0.11097579541E+04  0.46999998093E+01 0. -1.
       -5    1    3    3    0  502  0.92868836261E+03  0.59511891613E+03  0.22424427386E+04  0.24990398407E+04  0.46999998093E+01 0.  1.
</event>
<event>
 5   0  0.1089337E-06  0.2090431E+04  0.7818609E-02  0.8565470E-01
       -1   -1    0    0    0  501  0.00000000000E+00  0.00000000000E+00  0.71141738433E+03  0.71141738435E+03  0.50400001928E-02 0.  1.
        1   -1    0    0  501    0  0.00000000000E+00  0.00000000000E+00 -0.15356317985E+04  0.15356317985E+04  0.50400001928E-02 0. -1.
    10030    2    1    2    0    0  0.00000000000E+00  0.00000000000E+00 -0.82421441421E+03  0.22470491829E+04  0.20904307283E+04 0.  0.
        2    1    3    3  502    0  0.21489285552E+03 -0.18924938604E+03 -0.14926472096E+04  0.15198651130E+04  0.25500000920E-02 0. -1.
       -2    1    3    3    0  502 -0.21489285552E+03  0.18924938604E+03  0.66843279540E+03  0.72718406985E+03  0.25500000920E-02 0.  1.
</event>
<event>
 5   0  0.3378848E-06  0.3062914E+04  0.7818609E-02  0.8225990E-01
        2   -1    0    0  501    0  0.00000000000E+00  0.00000000000E+00  0.21785220727E+04  0.21785220727E+04  0.25500000920E-02 0.  1.
       -2   -1    0    0    0  501  0.00000000000E+00  0.00000000000E+00 -0.10765832702E+04  0.10765832702E+04  0.25500000920E-02 0. -1.
    10030    2    1    2    0    0  0.00000000000E+00  0.00000000000E+00  0.11019388025E+04  0.32551053429E+04  0.30629139179E+04 0.  0.
        1    1    3    3  502    0  0.19620637176E+03 -0.40562279895E+03 -0.10045441842E+04  0.11009703962E+04  0.50400001928E-02 0. -1.
       -1    1    3    3    0  502 -0.19620637176E+03  0.40562279895E+03  0.21064829867E+04  0.21541349467E+04  0.50400001928E-02 0.  1.
</event>
<event>
 5   0  0.1908726E-06  0.3359441E+04  0.7818609E-02  0.8147933E-01
        2   -1    0    0  501    0  0.00000000000E+00  0.00000000000E+00  0.18706906879E+04  0.18706906879E+04  0.25500000920E-02 0. -1.
       -2   -1    0    0    0  501  0.00000000000E+00  0.00000000000E+00 -0.15082456749E+04  0.15082456749E+04  0.25500000920E-02 0.  1.
    10030    2    1    2    0    0  0.00000000000E+00  0.00000000000E+00  0.36244501300E+03  0.33789363628E+04  0.33594411077E+04 0.  0.
        5    1    3    3  502    0  0.72029234872E+03  0.13658076537E+04 -0.48381603646E+03  0.16181321521E+04  0.46999998093E+01 0.  1.
       -5    1    3    3    0  502 -0.72029234872E+03 -0.13658076537E+04  0.84626104947E+03  0.17608042107E+04  0.46999998093E+01 0. -1.
</event>
<event>
 5   0  0.1782660E-06  0.3498523E+04  0.7818609E-02  0.8114140E-01
       -2   -1    0    0    0  501  0.00000000000E+00  0.00000000000E+00  0.12824033057E+04  0.12824033057E+04  0.25500000920E-02 0.  1.
        2   -1    0    0  501    0  0.00000000000E+00  0.00000000000E+00 -0.23860793431E+04  0.23860793431E+04  0.25500000920E-02 0. -1.
    10030    2    1    2    0    0  0.00000000000E+00  0.00000000000E+00 -0.11036760374E+04  0.36684826488E+04  0.34985231383E+04 0.  0.
        4    1    3    3  502    0 -0.15268521211E+03  0.13727875779E+04  0.57364383706E+03  0.14956361098E+04  0.12699999809E+01 0.  1.
       -4    1    3    3    0  502  0.15268521211E+03 -0.13727875779E+04 -0.16773198745E+04  0.21728465391E+04  0.12699999809E+01 0. -1.
</event>
<event>
 5   0  0.1130707E-06  0.2101365E+04  0.7818609E-02  0.8560642E-01
        1   -1    0    0  501    0  0.00000000000E+00  0.00000000000E+00  0.15467141135E+04  0.15467141135E+04  0.50400001928E-02 0. -1.
       -1   -1    0    0    0  501  0.00000000000E+00  0.00000000000E+00 -0.71372835467E+03  0.71372835468E+03  0.50400001928E-02 0.  1.
    10030    2    1    2    0    0  0.00000000000E+00  0.00000000000E+00  0.83298575881E+03  0.22604424682E+04  0.21013650034E+04 0.  0.
        3    1    3    3  502    0  0.98853619223E+03 -0.87705331212E+02  0.45355932127E+02  0.99345518230E+03  0.10100000352E+00 0. -1.
       -3    1    3    3    0  502 -0.98853619223E+03  0.87705331212E+02  0.78762982668E+03  0.12669872859E+04  0.10100000352E+00 0.  1.
</event>
<event>
 5   0  0.1089337E-06  0.3490626E+04  0.7818609E-02  0.8116015E-01
        1   -1    0    0  501    0  0.00000000000E+00  0.00000000000E+00  0.23035527792E+04  0.23035527792E+04  0.50400001928E-02 0. -1.
       -1   -1    0    0    0  501  0.00000000000E+00  0.00000000000E+00 -0.13223564289E+04  0.13223564290E+04  0.50400001928E-02 0.  1.
    10030    2    1    2    0    0  0.00000000000E+00  0.00000000000E+00  0.98119635025E+03  0.36259092082E+04  0.34906262057E+04 0.  0.
        2    1    3    3  502    0 -0.13220529560E+04  0.10823587882E+04  0.86047887297E+03  0.19130469037E+04  0.25500000920E-02 0.  1.
       -2    1    3    3    0  502  0.13220529560E+04 -0.10823587882E+04  0.12071747729E+03  0.17128623045E+04  0.25500000920E-02 0. -1.
</event>
<event>
 5   0  0.1782660E-06  0.2067890E+04  0.7818609E-02  0.8575521E-01
        2   -1    0    0  501    0  0.00000000000E+00  0.00000000000E+00  0.14345788019E+04  0.14345788019E+04  0.25500000920E-02 0.  1.
       -2   -1    0    0    0  501  0.00000000000E+00  0.00000000000E+00 -0.74519613152E+03  0.74519613153E+03  0.25500000920E-02 0. -1.
    10030    2    1    2    0    0  0.00000000000E+00  0.00000000000E+00  0.68938267035E+03  0.21797749334E+04  0.20678903003E+04 0.  0.
        4    1    3    3  502    0  0.69317167717E+03  0.48091699908E+03  0.97475458789E+03  0.12891533088E+04  0.12699999809E+01 0.  1.
       -4    1    3    3    0  502 -0.69317167717E+03 -0.48091699908E+03 -0.28537191754E+03  0.89062162462E+03  0.12699999809E+01 0. -1.
</event>
<event>
 5   0  0.1782660E-06  0.2061581E+04  0.7818609E-02  0.8578358E-01
       -2   -1    0    0    0  501  0.00000000000E+00  0.00000000000E+00  0.70720083769E+03  0.70720083769E+03  0.25500000920E-02 0.  1.
        2   -1    0    0  501    0  0.00000000000E+00  0.00000000000E+00 -0.15024437474E+04  0.15024437474E+04  0.25500000920E-02 0. -1.
    10030    2    1    2    0    0  0.00000000000E+00  0.00000000000E+00 -0.79524290972E+03  0.22096445851E+04  0.20615814093E+04 0.  0.
        4    1    3    3  502    0 -0.47304872992E+03  0.29372708304E+03  0.53213370509E+03  0.77020685090E+03  0.12699999809E+01 0.  1.
       -4    1    3    3    0  502  0.47304872992E+03 -0.29372708304E+03 -0.13273766148E+04  0.14394377342E+04  0.12699999809E+01 0. -1.
</event>
<event>
 5   0  0.3041329E-06  0.3570424E+04  0.7818609E-02  0.8097300E-01
        2   -1    0    0  501    0  0.00000000000E+00  0.00000000000E+00  0.25200484338E+04  0.25200484338E+04  0.25500000920E-02 0.  1.
       -2   -1    0    0    0  501  0.00000000000E+00  0.00000000000E+00 -0.12646509736E+04  0.12646509736E+04  0.25500000920E-02 0. -1.
    10030    2    1    2    0    0  0.00000000000E+00  0.00000000000E+00  0.12553974602E+04  0.37846994074E+04  0.35704238993E+04 0.  0.
        2    1    3    3  502    0  0.47100203483E+03 -0.16973468486E+04  0.32019879388E+03  0.17903509457E+04  0.25500000920E-02 0. -1.
       -2    1    3    3    0  502 -0.47100203483E+03  0.16973468486E+04  0.93519866632E+03  0.19943484617E+04  0.25500000920E-02 0.  1.
</event>
<event>
 5   0  0.1125196E-06  0.3285497E+04  0.7818609E-02  0.8166595E-01
        1   -1    0    0  501    0  0.00000000000E+00  0.00000000000E+00  0.10418888399E+04  0.10418888399E+04  0.50400001928E-02 0. -1.
       -1   -1    0    0    0  501  0.00000000000E+00  0.00000000000E+00 -0.25901258512E+04  0.25901258512E+04  0.50400001928E-02 0.  1.
    10030    2    1    2    0    0  0.00000000000E+00  0.00000000000E+00 -0.15482370113E+04  0.36320146911E+04  0.32854973555E+04 0.  0.
        4    1    3    3  502    0 -0.11012615413E+04  0.11199697423E+04 -0.24221408164E+03  0.15892697947E+04  0.12699999809E+01 0.  1.
       -4    1    3    3    0  502  0.11012615413E+04 -0.11199697423E+04 -0.13060229297E+04  0.20427448964E+04  0.12699999809E+01 0. -1.
</event>
<event>
 5   0  0.1130707E-06  0.3518082E+04  0.7818609E-02  0.8109518E-01
        1   -1    0    0  501    0  0.00000000000E+00  0.00000000000E+00  0.14996401635E+04  0.14996401635E+04  0.50400001928E-02 0.  1.
       -1   -1    0    0    0  501  0.00000000000E+00  0.00000000000E+00 -0.20633117758E+04  0.20633117758E+04  0.50400001928E-02 0. -1.
    10030    2    1    2    0    0  0.00000000000E+00  0.00000000000E+00 -0.56367161235E+03  0.35629519393E+04  0.35180819825E+04 0.  0.
        3    1    3    3  502    0  0.72517333020E+02  0.35275161568E+03  0.14619058137E+04  0.15056098712E+04  0.10100000352E+00 0.  1.
       -3    1    3    3    0  502 -0.72517333020E+02 -0.35275161568E+03 -0.20255774261E+04  0.20573420681E+04  0.10100000352E+00 0. -1.
</event>
<event>
 5   0  0.1089337E-06  0.3642570E+04  0.7818609E-02  0.8080810E-01
        1   -1    0    0  501    0  0.00000000000E+00  0.00000000000E+00  0.15188529003E+04  0.15188529003E+04  0.50400001928E-02 0. -1.
       -1   -1    0    0    0  501  0.00000000000E+00  0.00000000000E+00 -0.21839365779E+04  0.21839365779E+04  0.50400001928E-02 0.  1.
    10030    2    1    2    0    0  0.00000000000E+00  0.00000000000E+00 -0.66508367760E+03  0.37027894782E+04  0.36425696454E+04 0.  0.
        2    1    3    3  502    0 -0.87432525082E+03 -0.39264349398E+03 -0.19068430721E+04  0.21341658931E+04  0.25500000920E-02 0.  1.
       -2    1    3    3    0  502  0.87432525082E+03  0.39264349398E+03  0.12417593945E+04  0.15686235850E+04  0.25500000920E-02 0. -1.
</event>
<event>
 5   0  0.1908726E-06  0.3381250E+04  0.7818609E-02  0.8142524E-01
        2   -1    0    0  501    0  0.00000000000E+00  0.00000000000E+00  0.19390709904E+04  0.19390709904E+04  0.25500000920E-02 0. -1.
       -2   -1    0    0    0  501  0.00000000000E+00  0.00000000000E+00 -0.14740114569E+04  0.14740114569E+04  0.25500000920E-02 0.  1.
    10030    2    1    2    0    0  0.00000000000E+00  0.00000000000E+00  0.46505953350E+03  0.34130824473E+04  0.33812499793E+04 0.  0.
        5    1    3    3  502    0 -0.50991462662E+03 -0.15749066686E+04  0.57904987523E+03  0.17537573348E+04  0.46999998093E+01 0. -1.
       -5    1    3    3    0  502  0.50991462662E+03  0.15749066686E+04 -0.11399034173E+03  0.16593251126E+04  0.46999998093E+01 0.  1.
</event>
<event>
 5   0  0.3041329E-06  0.2718748E+04  0.7818609E-02  0.8328947E-01
        2   -1    0    0  501    0  0.00000000000E+00  0.00000000000E+00  0.15625299220E+04  0.15625299220E+04  0.25500000920E-02 0.  1.
       -2   -1    0    0    0  501  0.00000000000E+00  0.00000000000E+00 -0.11826320835E+04  0.11826320835E+04  0.25500000920E-02 0. -1.
    10030    2    1    2    0    0  0.00000000000E+00  0.00000000000E+00  0.37989783845E+03  0.27451620055E+04  0.27187482540E+04 0.  0.
        2    1    3    3  502    0 -0.74095876063E+02 -0.65160298208E+03  0.13922403266E+04  0.15389638632E+04  0.25500000920E-02 0.  1.
       -2    1    3    3    0  502  0.74095876063E+02  0.65160298208E+03 -0.10123424882E+04  0.12061981423E+04  0.25500000920E-02 0. -1.
</event>
<event>
 5   0  0.2565004E-06  0.2919549E+04  0.7818609E-02  0.8267085E-01
       -2   -1    0    0    0  501  0.00000000000E+00  0.00000000000E+00  0.77401392034E+03  0.77401392034E+03  0.25500000920E-02 0. -1.
        2   -1    0    0  501    0  0.00000000000E+00  0.00000000000E+00 -0.27531053476E+04  0.27531053476E+04  0.25500000920E-02 0.  1.
    10030    2    1    2    0    0  0.00000000000E+00  0.00000000000E+00 -0.19790914273E+04  0.35271192680E+04  0.29195491866E+04 0.  0.
        3    1    3    3  502    0 -0.64427578075E+03 -0.41961039769E+03  0.50956379835E+03  0.92239874365E+03  0.10100000352E+00 0. -1.
       -3    1    3    3    0  502  0.64427578075E+03  0.41961039769E+03 -0.24886552256E+04  0.26047205243E+04  0.10100000352E+00 0.  1.
</event>
<event>
 5   0  0.1089337E-06  0.2609616E+04  0.7818609E-02  0.8364942E-01
        1   -1    0    0  501    0  0.00000000000E+00  0.00000000000E+00  0.14635962506E+04  0.14635962506E+04  0.50400001928E-02 0.  1.
       -1   -1    0    0    0  501  0.00000000000E+00  0.00000000000E+00 -0.11632467172E+04  0.11632467172E+04  0.50400001928E-02 0. -1.
    10030    2    1    2    0    0  0.00000000000E+00  0.00000000000E+00  0.30034953337E+03  0.26268429678E+04  0.26096157064E+04 0.  0.
        2    1    3    3  502    0  0.34498849695E+03  0.65986740800E+03 -0.92838423685E+03  0.11901005631E+04  0.25500000920E-02 0. -1.
       -2    1    3    3    0  502 -0.34498849695E+03 -0.65986740800E+03  0.12287337702E+04  0.14367424046E+04  0.25500000920E-02 0.  1.
</event>
<event>
 5   0  0.1782660E-06  0.2525907E+04  0.7818609E-02  0.8393814E-01
        2   -1    0    0  501    0  0.00000000000E+00  0.00000000000E+00  0.13006223205E+04  0.13006223205E+04  0.25500000920E-02 0.  1.
       -2   -1    0    0    0  501  0.00000000000E+00  0.00000000000E+00 -0.12263756044E+04  0.12263756044E+04  0.25500000920E-02 0. -1.
    10030    2    1    2    0    0  0.00000000000E+00  0.00000000000E+00  0.74246716049E+02  0.25269979249E+04  0.25259069534E+04 0.  0.
        4    1    3    3  502    0 -0.70379981202E+03 -0.66175661747E+03  0.85098186734E+03  0.12874112581E+04  0.12699999809E+01 0.  1.
       -4    1    3    3    0  502  0.70379981202E+03  0.66175661747E+03 -0.77673515129E+03  0.12395866667E+04  0.12699999809E+01 0. -1.
</event>
<event>
 5   0  0.1089337E-06  0.3069163E+04  0.7818609E-02  0.8224252E-01
        1   -1    0    0  501    0  0.00000000000E+00  0.00000000000E+00  0.16763011450E+04  0.16763011450E+04  0.50400001928E-02 0.  1.
       -1   -1    0    0    0  501  0.00000000000E+00  0.00000000000E+00 -0.14048434698E+04  0.14048434698E+04  0.50400001928E-02 0. -1.
    10030    2    1    2    0    0  0.00000000000E+00  0.00000000000E+00  0.27145767516E+03  0.30811446148E+04  0.30691632195E+04 0.  0.
        2    1    3    3  502    0 -0.14852734782E+04 -0.24688909401E+03 -0.16199116404E+03  0.15143423216E+04  0.25500000920E-02 0. -1.
       -2    1    3    3    0  502  0.14852734782E+04  0.24688909401E+03  0.43344883919E+03  0.15668022932E+04  0.25500000920E-02 0.  1.
</event>
<event>
 5   0  0.2565004E-06  0.2491739E+04  0.7818609E-02  0.8405935E-01
       -2   -1    0    0    0  501  0.00000000000E+00  0.00000000000E+00  0.89894185912E+03  0.89894185912E+03  0.25500000920E-02 0. -1.
        2   -1    0    0  501    0  0.00000000000E+00  0.00000000000E+00 -0.17266859500E+04  0.17266859500E+04  0.25500000920E-02 0.  1.
    10030    2    1    2    0    0  0.00000000000E+00  0.00000000000E+00 -0.82774409090E+03  0.26256278091E+04  0.24917385722E+04 0.  0.
        3    1    3    3  502    0  0.76217023066E+03  0.78053482430E+03  0.22016740520E+03  0.11129293639E+04  0.10100000352E+00 0. -1.
       -3    1    3    3    0  502 -0.76217023066E+03 -0.78053482430E+03 -0.10479114961E+04  0.15126984453E+04  0.10100000352E+00 0.  1.
</event>
<event>
 5   0  0.1782660E-06  0.3307750E+04  0.7818609E-02  0.8160926E-01
       -2   -1    0    0    0  501  0.00000000000E+00  0.00000000000E+00  0.11920055935E+04  0.11920055935E+04  0.25500000920E-02 0.  1.
        2   -1    0    0  501    0  0.00000000000E+00  0.00000000000E+00 -0.22947059926E+04  0.22947059926E+04  0.25500000920E-02 0. -1.
    10030    2    1    2    0    0  0.00000000000E+00  0.00000000000E+00 -0.11027003990E+04  0.34867115861E+04  0.33077499172E+04 0.  0.
        4    1    3    3  502    0 -0.13513442528E+04  0.17026915929E+03  0.43758670744E+03  0.14305965943E+04  0.12699999809E+01 0.  1.
       -4    1    3    3    0  502  0.13513442528E+04 -0.17026915929E+03 -0.15402871065E+04  0.20561149918E+04  0.12699999809E+01 0. -1.
</event>
<event>
 5   0  0.2565004E-06  0.3481563E+04  0.7818609E-02  0.8118173E-01
       -2   -1    0    0    0  501  0.00000000000E+00  0.00000000000E+00  0.14083745348E+04  0.14083745348E+04  0.25500000920E-02 0. -1.
        2   -1    0    0  501    0  0.00000000000E+00  0.00000000000E+00 -0.21516434964E+04  0.21516434964E+04  0.25500000920E-02 0.  1.
    10030    2    1    2    0    0  0.00000000000E+00  0.00000000000E+00 -0.74326896160E+03  0.35600180312E+04  0.34815628147E+04 0.  0.
        3    1    3    3  502    0 -0.15762332671E+04  0.51692166483E+03 -0.91135504933E+03  0.18926931489E+04  0.10100000352E+00 0.  1.
       -3    1    3    3    0  502  0.15762332671E+04 -0.51692166483E+03  0.16808608773E+03  0.16673248822E+04  0.10100000352E+00 0. -1.
</event>
<event>
 5   0  0.2565004E-06  0.3553043E+04  0.7818609E-02  0.8101333E-01
        2   -1    0    0  501    0  0.00000000000E+00  0.00000000000E+00  0.26611318568E+04  0.26611318568E+04  0.25500000920E-02 0. -1.
       -2   -1    0    0    0  501  0.00000000000E+00  0.00000000000E+00 -0.11859724416E+04  0.11859724416E+04  0.25500000920E-02 0.  1.
    10030    2    1    2    0    0  0.00000000000E+00  0.00000000000E+00  0.14751594152E+04  0.38471042983E+04  0.35530432283E+04 0.  0.
        3    1    3    3  502    0 -0.10096571367E+04  0.29581831648E+03 -0.81236578739E+03  0.13292306770E+04  0.10100000352E+00 0.  1.
       -3    1    3    3    0  502  0.10096571367E+04 -0.29581831648E+03  0.22875252026E+04  0.25178736213E+04  0.10100000352E+00 0. -1.
</event>
<event>
 5   0  0.1908726E-06  0.3505965E+04  0.7818609E-02  0.8112378E-01
       -2   -1    0    0    0  501  0.00000000000E+00  0.00000000000E+00  0.16265949954E+04  0.16265949954E+04  0.25500000920E-02 0.  1.
        2   -1    0    0  501    0  0.00000000000E+00  0.00000000000E+00 -0.18891908597E+04  0.18891908597E+04  0.25500000920E-02 0. -1.
    10030    2    1    2    0    0  0.00000000000E+00  0.00000000000E+00 -0.26259586431E+03  0.35157858550E+04  0.35059654292E+04 0.  0.
        5    1    3    3  502    0  0.95324574523E+03 -0.10350068541E+04 -0.11796973884E+04  0.18361984253E+04  0.46999998093E+01 0. -1.
       -5    1    3    3    0  502 -0.95324574523E+03  0.10350068541E+04  0.91710152405E+03  0.16795874298E+04  0.46999998093E+01 0.  1.
</event>
<event>
 5   0  0.3378848E-06  0.1828188E+04  0.7818609E-02  0.8691452E-01
       -2   -1    0    0    0  501  0.00000000000E+00  0.00000000000E+00  0.38981650332E+03  0.38981650333E+03  0.25500000920E-02 0.  1.
        2   -1    0    0  501    0  0.00000000000E+00  0.00000000000E+00 -0.21434891988E+04  0.21434891988E+04  0.25500000920E-02 0. -1.
    10030    2    1    2    0    0  0.00000000000E+00  0.00000000000E+00 -0.17536726955E+04  0.25333057022E+04  0.18281875882E+04 0.  0.
        1    1    3    3  502    0  0.89434196487E+03 -0.18486103504E+03 -0.93132617190E+03  0.13043732560E+04  0.50400001928E-02 0.  1.
       -1    1    3    3    0  502 -0.89434196487E+03  0.18486103504E+03 -0.82234652362E+03  0.12289324462E+04  0.50400001928E-02 0. -1.
</event>
<event>
 5   0  0.1908726E-06  0.3446952E+04  0.7818609E-02  0.8126478E-01
        2   -1    0    0  501    0  0.00000000000E+00  0.00000000000E+00  0.23266953145E+04  0.23266953145E+04  0.25500000920E-02 0. -1.
       -2   -1    0    0    0  501  0.00000000000E+00  0.00000000000E+00 -0.12766473776E+04  0.12766473776E+04  0.25500000920E-02 0.  1.
    10030    2    1    2    0    0  0.00000000000E+00  0.00000000000E+00  0.10500479369E+04  0.36033426921E+04  0.34469519705E+04 0.  0.
        5    1    3    3  502    0  0.10077802877E+04 -0.13346116222E+04  0.89544440645E+02  0.16747685175E+04  0.46999998093E+01 0. -1.
       -5    1    3    3    0  502 -0.10077802877E+04  0.13346116222E+04  0.96050349627E+03  0.19285741746E+04  0.46999998093E+01 0.  1.
</event>
<event>
 5   0  0.1782660E-06  0.3353521E+04  0.7818609E-02  0.8149409E-01
        2   -1    0    0  501    0  0.00000000000E+00  0.00000000000E+00  0.18711238711E+04  0.18711238711E+04  0.25500000920E-02 0. -1.
       -2   -1    0    0    0  501  0.00000000000E+00  0.00000000000E+00 -0.15025868631E+04  0.15025868631E+04  0.25500000920E-02 0.  1.
    10030    2    1    2    0    0  0.00000000000E+00  0.00000000000E+00  0.36853700796E+03  0.33737107342E+04  0.33535212228E+04 0.  0.
        4    1    3    3  502    0  0.29478611595E+03  0.12372131744E+02 -0.14762663932E+04  0.15054620555E+04  0.12699999809E+01 0.  1.
       -4    1    3    3    0  502 -0.29478611595E+03 -0.12372131744E+02  0.18448034012E+04  0.18682486788E+04  0.12699999809E+01 0. -1.
</event>
<event>
 5   0  0.1125196E-06  0.2004897E+04  0.7818609E-02  0.8604335E-01
        1   -1    0    0  501    0  0.00000000000E+00  0.00000000000E+00  0.13876610421E+04  0.13876610421E+04  0.50400001928E-02 0.  1.
       -1   -1    0    0    0  501  0.00000000000E+00  0.00000000000E+00 -0.72417019285E+03  0.72417019286E+03  0.50400001928E-02 0. -1.
    10030    2    1    2    0    0  0.00000000000E+00  0.00000000000E+00  0.66349084925E+03  0.21118312350E+04  0.20048967699E+04 0.  0.
        4    1    3    3  502    0 -0.43124387533E+03  0.76999549926E+01 -0.62143436986E+03  0.75644752512E+03  0.12699999809E+01 0. -1.
       -4    1    3    3    0  502  0.43124387533E+03 -0.76999549926E+01  0.12849252191E+04  0.13553837099E+04  0.12699999809E+01 0.  1.
</event>
<event>
 5   0  0.2565004E-06  0.3008007E+04  0.7818609E-02  0.8241448E-01
        2   -1    0    0  501    0  0.00000000000E+00  0.00000000000E+00  0.16607820456E+04  0.16607820456E+04  0.25500000920E-02 0.  1.
       -2   -1    0    0    0  501  0.00000000000E+00  0.00000000000E+00 -0.13620250538E+04  0.13620250538E+04  0.25500000920E-02 0. -1.
    10030    2    1    2    0    0  0.00000000000E+00  0.00000000000E+00  0.29875699184E+03  0.30228070994E+04  0.30080071509E+04 0.  0.
        3    1    3    3  502    0 -0.43376464274E+03 -0.13890487729E+04  0.53127260837E+03  0.15491477830E+04  0.10100000352E+00 0.  1.
       -3    1    3    3    0  502  0.43376464274E+03  0.13890487729E+04 -0.23251561652E+03  0.14736593165E+04  0.10100000352E+00 0. -1.
</event>
<event>
 5   0  0.1908726E-06  0.3092714E+04  0.7818609E-02  0.8217740E-01
       -2   -1    0    0    0  501  0.00000000000E+00  0.00000000000E+00  0.11896905555E+04  0.11896905555E+04  0.25500000920E-02 0.  1.
        2   -1    0    0  501    0  0.00000000000E+00  0.00000000000E+00 -0.20099513753E+04  0.20099513753E+04  0.25500000920E-02 0. -1.
    10030    2    1    2    0    0  0.00000000000E+00  0.00000000000E+00 -0.82026081980E+03  0.31996419309E+04  0.30927141273E+04 0.  0.
        5    1    3    3  502    0 -0.12158200432E+04  0.74470082521E+03  0.20923341100E+03  0.14410407374E+04  0.46999998093E+01 0.  1.
       -5    1    3    3    0  502  0.12158200432E+04 -0.74470082521E+03 -0.10294942308E+04  0.17586011935E+04  0.46999998093E+01 0. -1.
</event>
<event>
 5   0  0.1782660E-06  0.2050201E+04  0.7818609E-02  0.8583503E-01
        2   -1    0    0  501    0  0.00000000000E+00  0.00000000000E+00  0.12197974093E+04  0.12197974093E+04  0.25500000920E-02 0. -1.
       -2   -1    0    0    0  501  0.00000000000E+00  0.00000000000E+00 -0.86147958686E+03  0.86147958687E+03  0.25500000920E-02 0.  1.
    10030    2    1    2    0    0  0.00000000000E+00  0.00000000000E+00  0.35831782244E+03  0.20812769962E+04  0.20502005446E+04 0.  0.
        4    1    3    3  502    0 -0.81213763189E+03 -0.30670283294E+03 -0.37426018233E+03  0.94536049095E+03  0.12699999809E+01 0.  1.
       -4    1    3    3    0  502  0.81213763189E+03  0.30670283294E+03  0.73257800476E+03  0.11359165052E+04  0.12699999809E+01 0. -1.
</event>
<event>
 5   0  0.1110956E-06  0.3285741E+04  0.7818609E-02  0.8166533E-01
       -1   -1    0    0    0  501  0.00000000000E+00  0.00000000000E+00  0.11558266872E+04  0.11558266872E+04  0.50400001928E-02 0.  1.
        1   -1    0    0  501    0  0.00000000000E+00  0.00000000000E+00 -0.23351457126E+04  0.23351457126E+04  0.50400001928E-02 0. -1.
    10030    2    1    2    0    0  0.00000000000E+00  0.00000000000E+00 -0.11793190254E+04  0.34909723998E+04  0.32857411542E+04 0.  0.
        1    1    3    3  502    0  0.31639463901E+03 -0.16102140289E+04 -0.50648198885E+03  0.17173871991E+04  0.50400001928E-02 0. -1.
       -1    1    3    3    0  502 -0.31639463901E+03  0.16102140289E+04 -0.67283703658E+03  0.17735852007E+04  0.50400001928E-02 0.  1.
</event>
<event>
 5   0  0.1042825E-06  0.3323005E+04  0.7818609E-02  0.8157066E-01
       -4   -1    0    0    0  501  0.00000000000E+00  0.00000000000E+00  0.12233454862E+04  0.12233461454E+04  0.12699999809E+01 0. -1.
        4   -1    0    0  501    0  0.00000000000E+00  0.00000000000E+00 -0.22565893129E+04  0.22565896703E+04  0.12699999809E+01 0.  1.
    10030    2    1    2    0    0  0.00000000000E+00  0.00000000000E+00 -0.10332438267E+04  0.34799358157E+04  0.33230047361E+04 0.  0.
        4    1    3    3  502    0  0.58303206453E+03  0.12199323613E+04  0.49460292693E+03  0.14397204668E+04  0.12699999809E+01 0. -1.
       -4    1    3    3    0  502 -0.58303206453E+03 -0.12199323613E+04 -0.15278467537E+04  0.20402153489E+04  0.12699999809E+01 0.  1.
</event>
<event>
 5   0  0.3378848E-06  0.3135885E+04  0.7818609E-02  0.8205958E-01
       -2   -1    0    0    0  501  0.00000000000E+00  0.00000000000E+00  0.17277325852E+04  0.17277325852E+04  0.25500000920E-02 0.  1.
        2   -1    0    0  501    0  0.00000000000E+00  0.00000000000E+00 -0.14229302889E+04  0.14229302889E+04  0.25500000920E-02 0. -1.
    10030    2    1    2    0    0  0.00000000000E+00  0.00000000000E+00  0.30480229636E+03  0.31506628741E+04  0.31358845811E+04 0.  0.
        1    1    3    3  502    0 -0.25174253113E+03  0.44524026083E+03  0.16415567335E+04  0.17193957372E+04  0.50400001928E-02 0.  1.
       -1    1    3    3    0  502  0.25174253113E+03 -0.44524026083E+03 -0.13367544371E+04  0.14312671369E+04  0.50400001928E-02 0. -1.
</event>
<event>
 5   0  0.1130707E-06  0.3541441E+04  0.7818609E-02  0.8104039E-01
       -1   -1    0    0    0  501  0.00000000000E+00  0.00000000000E+00  0.14651564539E+04  0.14651564539E+04  0.50400001928E-02 0.  1.
        1   -1    0    0  501    0  0.00000000000E+00  0.00000000000E+00 -0.21400105693E+04  0.21400105693E+04  0.50400001928E-02 0. -1.
    10030    2    1    2    0    0  0.00000000000E+00  0.00000000000E+00 -0.67485411541E+03  0.36051670233E+04  0.35414405527E+04 0.  0.
        3    1    3    3  502    0 -0.74636118328E+03  0.87400798020E+03  0.10338479378E+04  0.15458934420E+04  0.10100000352E+00 0.  1.
       -3    1    3    3    0  502  0.74636118328E+03 -0.87400798020E+03 -0.17087020532E+04  0.20592735812E+04  0.10100000352E+00 0. -1.
</event>
<event>
 5   0  0.1125196E-06  0.1898279E+04  0.7818609E-02  0.8655713E-01
       -1   -1    0    0    0  501  0.00000000000E+00  0.00000000000E+00  0.10666382112E+04  0.10666382112E+04  0.50400001928E-02 0. -1.
        1   -1    0    0  501    0  0.00000000000E+00  0.00000000000E+00 -0.84458450108E+03  0.84458450109E+03  0.50400001928E-02 0.  1.
    10030    2    1    2    0    0  0.00000000000E+00  0.00000000000E+00  0.22205371015E+03  0.19112227123E+04  0.18982793277E+04 0.  0.
        4    1    3    3  502    0  0.62211928611E+03  0.17909631410E+03  0.80984635131E+03  0.10368030775E+04  0.12699999809E+01 0. -1.
       -4    1    3    3    0  502 -0.62211928611E+03 -0.17909631410E+03 -0.58779264116E+03  0.87441963483E+03  0.12699999809E+01 0.  1.
</event>
<event>
 5   0  0.1908726E-06  0.3421500E+04  0.7818609E-02  0.8132650E-01
       -2   -1    0    0    0  501  0.00000000000E+00  0.00000000000E+00  0.14656918365E+04  0.14656918365E+04  0.25500000920E-02 0.  1.
        2   -1    0    0  501    0  0.00000000000E+00  0.00000000000E+00 -0.19967807134E+04  0.19967807134E+04  0.25500000920E-02 0. -1.
    10030    2    1    2    0    0  0.00000000000E+00  0.00000000000E+00 -0.53108887692E+03  0.34624725499E+04  0.34214997828E+04 0.  0.
        5    1    3    3  502    0  0.57789954874E+03  0.77484442696E+02  0.13620284642E+04  0.14815921687E+04  0.46999998093E+01 0.  1.
       -5    1    3    3    0  502 -0.57789954874E+03 -0.77484442696E+02 -0.18931173411E+04  0.19808803812E+04  0.46999998093E+01 0. -1.
</event>
<event>
 5   0  0.3041329E-06  0.2138404E+04  0.7818609E-02  0.8544512E-01
        2   -1    0    0  501    0  0.00000000000E+00  0.00000000000E+00  0.20831516298E+04  0.20831516298E+04  0.25500000920E-02 0. -1.
       -2   -1    0    0    0  501  0.00000000000E+00  0.00000000000E+00 -0.54878054457E+03  0.54878054457E+03  0.25500000920E-02 0.  1.
    10030    2    1    2    0    0  0.00000000000E+00  0.00000000000E+00  0.15343710852E+04  0.26319321744E+04  0.21384041581E+04 0.  0.
        2    1    3    3  502    0  0.72702937095E+03  0.19728859761E+03  0.17010470731E+04  0.18603912604E+04  0.25500000920E-02 0. -1.
       -2    1    3    3    0  502 -0.72702937095E+03 -0.19728859761E+03 -0.16667598786E+03  0.77154091396E+03  0.25500000920E-02 0.  1.
</event>
<event>
 5   0  0.1908726E-06  0.3446592E+04  0.7818609E-02  0.8126565E-01
       -2   -1    0    0    0  501  0.00000000000E+00  0.00000000000E+00  0.24032736668E+04  0.24032736669E+04  0.25500000920E-02 0. -1.
        2   -1    0    0  501    0  0.00000000000E+00  0.00000000000E+00 -0.12357102660E+04  0.12357102660E+04  0.25500000920E-02 0.  1.
    10030    2    1    2    0    0  0.00000000000E+00  0.00000000000E+00  0.11675634008E+04  0.36389839329E+04  0.34465924866E+04 0.  0.
        5    1    3    3  502    0  0.13160309266E+04  0.99785069443E+03  0.11032674551E+04  0.19861683150E+04  0.46999998093E+01 0. -1.
       -5    1    3    3    0  502 -0.13160309266E+04 -0.99785069443E+03  0.64295945692E+02  0.16528156179E+04  0.46999998093E+01 0.  1.
</event>
<event>
 5   0  0.1908726E-06  0.3105215E+04  0.7818609E-02  0.8214308E-01
        2   -1    0    0  501    0  0.00000000000E+00  0.00000000000E+00  0.76235358623E+03  0.76235358623E+03  0.25500000920E-02 0.  1.
       -2   -1    0    0    0  501  0.00000000000E+00  0.00000000000E+00 -0.31620365343E+04  0.31620365343E+04  0.25500000920E-02 0. -1.
    10030    2    1    2    0    0  0.00000000000E+00  0.00000000000E+00 -0.23996829481E+04  0.39243901205E+04  0.31052148987E+04 0.  0.
        5    1    3    3  502    0  0.12850924378E+03 -0.77432383241E+03  0.49312872291E+03  0.92697899142E+03  0.46999998093E+01 0.  1.
       -5    1    3    3    0  502 -0.12850924378E+03  0.77432383241E+03 -0.28928116710E+04  0.29974111291E+04  0.46999998093E+01 0. -1.
</event>
<event>
 5   0  0.1125196E-06  0.2115366E+04  0.7818609E-02  0.8554505E-01
       -1   -1    0    0    0  501  0.00000000000E+00  0.00000000000E+00  0.73473128082E+03  0.73473128084E+03  0.50400001928E-02 0. -1.
        1   -1    0    0  501    0  0.00000000000E+00  0.00000000000E+00 -0.15225884135E+04  0.15225884135E+04  0.50400001928E-02 0.  1.
    10030    2    1    2    0    0  0.00000000000E+00  0.00000000000E+00 -0.78785713269E+03  0.22573196944E+04  0.21153660064E+04 0.  0.
        4    1    3    3  502    0 -0.57101389052E+03  0.27652700247E+03  0.50912790128E+03  0.81347211324E+03  0.12699999809E+01 0. -1.
       -4    1    3    3    0  502  0.57101389052E+03 -0.27652700247E+03 -0.12969850340E+04  0.14438475811E+04  0.12699999809E+01 0.  1.
</event>
<event>
 5   0  0.1102175E-06  0.3465675E+04  0.7818609E-02  0.8121973E-01
        1   -1    0    0  501    0  0.00000000000E+00  0.00000000000E+00  0.19321023624E+04  0.19321023624E+04  0.50400001928E-02 0. -1.
       -1   -1    0    0    0  501  0.00000000000E+00  0.00000000000E+00 -0.15541236583E+04  0.15541236583E+04  0.50400001928E-02 0.  1.
    10030    2    1    2    0    0  0.00000000000E+00  0.00000000000E+00  0.37797870408E+03  0.34862260207E+04  0.34656751098E+04 0.  0.
        5    1    3    3  502    0 -0.29969157145E+02  0.15410032271E+02  0.19317662989E+04  0.19320659262E+04  0.46999998093E+01 0. -1.
       -5    1    3    3    0  502  0.29969157145E+02 -0.15410032271E+02 -0.15537875948E+04  0.15541600945E+04  0.46999998093E+01 0.  1.
</event>
<event>
 5   0  0.2394912E-06  0.1752837E+04  0.7818609E-02  0.8731791E-01
       -2   -1    0    0    0  501  0.00000000000E+00  0.00000000000E+00  0.42275728423E+03  0.42275728424E+03  0.25500000920E-02 0. -1.
        2   -1    0    0  501    0  0.00000000000E+00  0.00000000000E+00 -0.18169029756E+04  0.18169029756E+04  0.25500000920E-02 0.  1.
    10030    2    1    2    0    0  0.00000000000E+00  0.00000000000E+00 -0.13941456914E+04  0.22396602599E+04  0.17528365214E+04 0.  0.
        4    1    3    3  502    0  0.39182359182E+03 -0.39828701714E+03  0.16570483607E+03  0.58276751860E+03  0.12699999809E+01 0. -1.
       -4    1    3    3    0  502 -0.39182359182E+03  0.39828701714E+03 -0.15598505275E+04  0.16568927413E+04  0.12699999809E+01 0.  1.
</event>
<event>
 5   0  0.1130707E-06  0.1936411E+04  0.7818609E-02  0.8636942E-01
        1   -1    0    0  501    0  0.00000000000E+00  0.00000000000E+00  0.11999568464E+04  0.11999568464E+04  0.50400001928E-02 0.  1.
       -1   -1    0    0    0  501  0.00000000000E+00  0.00000000000E+00 -0.78121291179E+03  0.78121291180E+03  0.50400001928E-02 0. -1.
    10030    2    1    2    0    0  0.00000000000E+00  0.00000000000E+00  0.41874393460E+03  0.19811697582E+04  0.19364108882E+04 0.  0.
        3    1    3    3  502    0 -0.22384879173E+03 -0.92575519286E+03  0.31306526150E+02  0.95294861742E+03  0.10100000352E+00 0. -1.
       -3    1    3    3    0  502  0.22384879173E+03  0.92575519286E+03  0.38743740845E+03  0.10282211408E+04  0.10100000352E+00 0.  1.
</event>
<event>
 5   0  0.1782660E-06  0.3368103E+04  0.7818609E-02  0.8145779E-01
        2   -1    0    0  501    0  0.00000000000E+00  0.00000000000E+00  0.25707696558E+04  0.25707696558E+04  0.25500000920E-02 0.  1.
       -2   -1    0    0    0  501  0.00000000000E+00  0.00000000000E+00 -0.11031831408E+04  0.11031831408E+04  0.25500000920E-02 0. -1.
    10030    2    1    2    0    0  0.00000000000E+00  0.00000000000E+00  0.14675865150E+04  0.36739527966E+04  0.33681031714E+04 0.  0.
        4    1    3    3  502    0  0.74479730254E+03  0.14028097275E+04  0.13444799428E+04  0.20809195282E+04  0.12699999809E+01 0.  1.
       -4    1    3    3    0  502 -0.74479730254E+03 -0.14028097275E+04  0.12310657220E+03  0.15930332684E+04  0.12699999809E+01 0. -1.
</event>
<event>
 5   0  0.1125196E-06  0.1833373E+04  0.7818609E-02  0.8688751E-01
        1   -1    0    0  501    0  0.00000000000E+00  0.00000000000E+00  0.14757087785E+04  0.14757087785E+04  0.50400001928E-02 0. -1.
       -1   -1    0    0    0  501  0.00000000000E+00  0.00000000000E+00 -0.56943071241E+03  0.56943071243E+03  0.50400001928E-02 0.  1.
    10030    2    1    2    0    0  0.00000000000E+00  0.00000000000E+00  0.90627806610E+03  0.20451394909E+04  0.18333727402E+04 0.  0.
        4    1    3    3  502    0 -0.74366835807E+03 -0.26636726064E+03 -0.65683272253E+02  0.79266010969E+03  0.12699999809E+01 0.  1.
       -4    1    3    3    0  502  0.74366835807E+03  0.26636726064E+03  0.97196133835E+03  0.12524793813E+04  0.12699999809E+01 0. -1.
</event>
<event>
 5   0  0.1782660E-06  0.3428174E+04  0.7818609E-02  0.8131026E-01
        2   -1    0    0  501    0  0.00000000000E+00  0.00000000000E+00  0.29977477670E+04  0.29977477670E+04  0.25500000920E-02 0.  1.
       -2   -1    0    0    0  501  0.00000000000E+00  0.00000000000E+00 -0.98010054913E+03  0.98010054913E+03  0.25500000920E-02 0. -1.
    10030    2    1    2    0    0  0.00000000000E+00  0.00000000000E+00  0.20176472179E+04  0.39778483161E+04  0.34281739936E+04 0.  0.
        4    1    3    3  502    0 -0.14058435215E+04 -0.30021882352E+03 -0.74442911082E+02  0.14394688982E+04  0.12699999809E+01 0. -1.
       -4    1    3    3    0  502  0.14058435215E+04  0.30021882352E+03  0.20920901290E+04  0.25383794180E+04  0.12699999809E+01 0.  1.
</event>
<event>
 5   0  0.1130707E-06  0.3196140E+04  0.7818609E-02  0.8189837E-01
        1   -1    0    0  501    0  0.00000000000E+00  0.00000000000E+00  0.20379589774E+04  0.20379589774E+04  0.50400001928E-02 0.  1.
       -1   -1    0    0    0  501  0.00000000000E+00  0.00000000000E+00 -0.12531298655E+04  0.12531298655E+04  0.50400001928E-02 0. -1.
    10030    2    1    2    0    0  0.00000000000E+00  0.00000000000E+00  0.78482911188E+03  0.32910888429E+04  0.31961397087E+04 0.  0.
        3    1    3    3  502    0  0.60921810600E+03  0.53388704234E+03  0.18108884804E+04  0.19838092583E+04  0.10100000352E+00 0.  1.
       -3    1    3    3    0  502 -0.60921810600E+03 -0.53388704234E+03 -0.10260593685E+04  0.13072795847E+04  0.10100000352E+00 0. -1.
</event>
<event>
 5   0  0.1782660E-06  0.3381203E+04  0.7818609E-02  0.8142535E-01
       -2   -1    0    0    0  501  0.00000000000E+00  0.00000000000E+00  0.11424323737E+04  0.11424323737E+04  0.25500000920E-02 0. -1.
        2   -1    0    0  501    0  0.00000000000E+00  0.00000000000E+00 -0.25017973151E+04  0.25017973151E+04  0.25500000920E-02 0.  1.
    10030    2    1    2    0    0  0.00000000000E+00  0.00000000000E+00 -0.13593649414E+04  0.36442296889E+04  0.33812034812E+04 0.  0.
        4    1    3    3  502    0 -0.81704255530E+03  0.97018901936E+03 -0.18843552137E+04  0.22714800142E+04  0.12699999809E+01 0.  1.
       -4    1    3    3    0  502  0.81704255530E+03 -0.97018901936E+03  0.52499027233E+03  0.13727496747E+04  0.12699999809E+01 0. -1.
</event>
<event>
 5   0  0.2565004E-06  0.3310990E+04  0.7818609E-02  0.8160105E-01
       -2   -1    0    0    0  501  0.00000000000E+00  0.00000000000E+00  0.13281660729E+04  0.13281660729E+04  0.25500000920E-02 0. -1.
        2   -1    0    0  501    0  0.00000000000E+00  0.00000000000E+00 -0.20634950695E+04  0.20634950695E+04  0.25500000920E-02 0.  1.
    10030    2    1    2    0    0  0.00000000000E+00  0.00000000000E+00 -0.73532899653E+03  0.33916611424E+04  0.33109902706E+04 0.  0.
        3    1    3    3  502    0 -0.81795056139E+03  0.72131589367E+03 -0.16435328418E+04  0.19724451708E+04  0.10100000352E+00 0.  1.
       -3    1    3    3    0  502  0.81795056139E+03 -0.72131589367E+03  0.90820384531E+03  0.14192159716E+04  0.10100000352E+00 0. -1.
</event>
<event>
 5   0  0.1042825E-06  0.3465945E+04  0.7818609E-02  0.8121908E-01
        3   -1    0    0  501    0  0.00000000000E+00  0.00000000000E+00  0.27604320152E+04  0.27604320171E+04  0.10100000352E+00 0. -1.
       -3   -1    0    0    0  501  0.00000000000E+00  0.00000000000E+00 -0.10879434132E+04  0.10879434179E+04  0.10100000352E+00 0.  1.
    10030    2    1    2    0    0  0.00000000000E+00  0.00000000000E+00  0.16724886021E+04  0.38483754350E+04  0.34659450896E+04 0.  0.
        4    1    3    3  502    0 -0.12542601252E+04 -0.89939949716E+03 -0.38816092774E+02  0.15438899634E+04  0.12699999809E+01 0.  1.
       -4    1    3    3    0  502  0.12542601252E+04  0.89939949716E+03  0.17113046948E+04  0.23044854716E+04  0.12699999809E+01 0. -1.
</event>
<event>
 5   0  0.1102175E-06  0.2617971E+04  0.7818609E-02  0.8362122E-01
        1   -1    0    0  501    0  0.00000000000E+00  0.00000000000E+00  0.25489942770E+04  0.25489942770E+04  0.50400001928E-02 0. -1.
       -1   -1    0    0    0  501  0.00000000000E+00  0.00000000000E+00 -0.67220348547E+03  0.67220348549E+03  0.50400001928E-02 0.  1.
    10030    2    1    2    0    0  0.00000000000E+00  0.00000000000E+00  0.18767907915E+04  0.32211977625E+04  0.26179708459E+04 0.  0.
        5    1    3    3  502    0  0.77656582106E+03 -0.15837713842E+03 -0.34341583973E+03  0.86376751582E+03  0.46999998093E+01 0.  1.
       -5    1    3    3    0  502 -0.77656582106E+03  0.15837713842E+03  0.22202066313E+04  0.23574302467E+04  0.46999998093E+01 0. -1.
</event>
<event>
 5   0  0.1782660E-06  0.3518906E+04  0.7818609E-02  0.8109324E-01
        2   -1    0    0  501    0  0.00000000000E+00  0.00000000000E+00  0.20144161220E+04  0.20144161220E+04  0.25500000920E-02 0.  1.
       -2   -1    0    0    0  501  0.00000000000E+00  0.00000000000E+00 -0.15367605489E+04  0.15367605489E+04  0.25500000920E-02 0. -1.
    10030    2    1    2    0    0  0.00000000000E+00  0.00000000000E+00  0.47765557312E+03  0.35511766708E+04  0.35189062080E+04 0.  0.
        4    1    3    3  502    0 -0.14344873828E+03  0.99013908281E+03 -0.12217599386E+04  0.15791301100E+04  0.12699999809E+01 0. -1.
       -4    1    3    3    0  502  0.14344873828E+03 -0.99013908281E+03  0.16994155117E+04  0.19720465609E+04  0.12699999809E+01 0.  1.
</event>
<event>
 5   0  0.2565004E-06  0.3546831E+04  0.7818609E-02  0.8102780E-01
       -2   -1    0    0    0  501  0.00000000000E+00  0.00000000000E+00  0.13963557682E+04  0.13963557682E+04  0.25500000920E-02 0.  1.
        2   -1    0    0  501    0  0.00000000000E+00  0.00000000000E+00 -0.22522931727E+04  0.22522931727E+04  0.25500000920E-02 0. -1.
    10030    2    1    2    0    0  0.00000000000E+00  0.00000000000E+00 -0.85593740449E+03  0.36486489409E+04  0.35468310157E+04 0.  0.
        3    1    3    3  502    0 -0.15919603073E+04  0.37771176761E+03  0.27577404156E+03  0.16592332964E+04  0.10100000352E+00 0.  1.
       -3    1    3    3    0  502  0.15919603073E+04 -0.37771176761E+03 -0.11317114460E+04  0.19894156446E+04  0.10100000352E+00 0. -1.
</event>
<event>
 5   0  0.1782660E-06  0.2480772E+04  0.7818609E-02  0.8409868E-01
       -2   -1    0    0    0  501  0.00000000000E+00  0.00000000000E+00  0.11569446937E+04  0.11569446937E+04  0.25500000920E-02 0.  1.
        2   -1    0    0  501    0  0.00000000000E+00  0.00000000000E+00 -0.13298450621E+04  0.13298450621E+04  0.25500000920E-02 0. -1.
    10030    2    1    2    0    0  0.00000000000E+00  0.00000000000E+00 -0.17290036840E+03  0.24867897557E+04  0.24807718057E+04 0.  0.
        4    1    3    3  502    0  0.83788175573E+03 -0.29694688619E+03 -0.95361069671E+03  0.13036864131E+04  0.12699999809E+01 0. -1.
       -4    1    3    3    0  502 -0.83788175573E+03  0.29694688619E+03  0.78071032832E+03  0.11831033427E+04  0.12699999809E+01 0.  1.
</event>
<event>
 5   0  0.1042825E-06  0.1771177E+04  0.7818609E-02  0.8721779E-01
       -4   -1    0    0    0  501  0.00000000000E+00  0.00000000000E+00  0.14129903175E+04  0.14129908882E+04  0.12699999809E+01 0.  1.
        4   -1    0    0  501    0  0.00000000000E+00  0.00000000000E+00 -0.55503904933E+03  0.55504050229E+03  0.12699999809E+01 0. -1.
    10030    2    1    2    0    0  0.00000000000E+00  0.00000000000E+00  0.85795126815E+03  0.19680313905E+04  0.17711767770E+04 0.  0.
        5    1    3    3  502    0  0.70960484715E+02 -0.86153492569E+03  0.21533859902E+03  0.89088193427E+03  0.46999998093E+01 0. -1.
       -5    1    3    3    0  502 -0.70960484715E+02  0.86153492569E+03  0.64261266912E+03  0.10771494562E+04  0.46999998093E+01 0.  1.
</event>
<event>
 5   0  0.1125196E-06  0.2094354E+04  0.7818609E-02  0.8563734E-01
        1   -1    0    0  501    0  0.00000000000E+00  0.00000000000E+00  0.12077363364E+04  0.12077363364E+04  0.50400001928E-02 0.  1.
       -1   -1    0    0    0  501  0.00000000000E+00  0.00000000000E+00 -0.90796293929E+03  0.90796293930E+03  0.50400001928E-02 0. -1.
    10030    2    1    2    0    0  0.00000000000E+00  0.00000000000E+00  0.29977339714E+03  0.21156992757E+04  0.20943541572E+04 0.  0.
        4    1    3    3  502    0 -0.27463277701E+03  0.66142297326E+03  0.92165911409E+03  0.11672020593E+04  0.12699999809E+01 0.  1.
       -4    1    3    3    0  502  0.27463277701E+03 -0.66142297326E+03 -0.62188571694E+03  0.94849721644E+03  0.12699999809E+01 0. -1.
</event>
<event>
 5   0  0.1782660E-06  0.3533378E+04  0.7818609E-02  0.8105925E-01
        2   -1    0    0  501    0  0.00000000000E+00  0.00000000000E+00  0.23981332506E+04  0.23981332507E+04  0.25500000920E-02 0.  1.
       -2   -1    0    0    0  501  0.00000000000E+00  0.00000000000E+00 -0.13015081810E+04  0.13015081810E+04  0.25500000920E-02 0. -1.
    10030    2    1    2    0    0  0.00000000000E+00  0.00000000000E+00  0.10966250697E+04  0.36996414316E+04  0.35333780125E+04 0.  0.
        4    1    3    3  502    0  0.45438476307E+03  0.11321306181E+04 -0.78970882897E+03  0.14532126124E+04  0.12699999809E+01 0. -1.
       -4    1    3    3    0  502 -0.45438476307E+03 -0.11321306181E+04  0.18863338987E+04  0.22464288192E+04  0.12699999809E+01 0.  1.
</event>
<event>
 5   0  0.1102175E-06  0.2024344E+04  0.7818609E-02  0.8595323E-01
        1   -1    0    0  501    0  0.00000000000E+00  0.00000000000E+00  0.83310502018E+03  0.83310502020E+03  0.50400001928E-02 0.  1.
       -1   -1    0    0    0  501  0.00000000000E+00  0.00000000000E+00 -0.12297277620E+04  0.12297277620E+04  0.50400001928E-02 0. -1.
    10030    2    1    2    0    0  0.00000000000E+00  0.00000000000E+00 -0.39662274183E+03  0.20628327822E+04  0.20243442118E+04 0.  0.
        5    1    3    3  502    0  0.87586019717E+02 -0.25545037300E+03  0.79570633352E+03  0.84029569981E+03  0.46999998093E+01 0.  1.
       -5    1    3    3    0  502 -0.87586019717E+02  0.25545037300E+03 -0.11923290754E+04  0.12225370824E+04  0.46999998093E+01 0. -1.
</event>
<event>
 5   0  0.1908726E-06  0.2348186E+04  0.7818609E-02  0.8459161E-01
        2   -1    0    0  501    0  0.00000000000E+00  0.00000000000E+00  0.12657844000E+04  0.12657844000E+04  0.25500000920E-02 0. -1.
       -2   -1    0    0    0  501  0.00000000000E+00  0.00000000000E+00 -0.10890438350E+04  0.10890438350E+04  0.25500000920E-02 0.  1.
    10030    2    1    2    0    0  0.00000000000E+00  0.00000000000E+00  0.17674056501E+03  0.23548282350E+04  0.23481862765E+04 0.  0.
        5    1    3    3  502    0  0.65006850882E+03  0.97451075540E+03  0.93290134509E+01  0.11714817109E+04  0.46999998093E+01 0.  1.
       -5    1    3    3    0  502 -0.65006850882E+03 -0.97451075540E+03  0.16741155156E+03  0.11833465241E+04  0.46999998093E+01 0. -1.
</event>
<event>
 5   0  0.3041329E-06  0.2455000E+04  0.7818609E-02  0.8419195E-01
       -2   -1    0    0    0  501  0.00000000000E+00  0.00000000000E+00  0.89391070572E+03  0.89391070572E+03  0.25500000920E-02 0. -1.
        2   -1    0    0  501    0  0.00000000000E+00  0.00000000000E+00 -0.16855786470E+04  0.16855786470E+04  0.25500000920E-02 0.  1.
    10030    2    1    2    0    0  0.00000000000E+00  0.00000000000E+00 -0.79166794131E+03  0.25794893528E+04  0.24550004464E+04 0.  0.
        2    1    3    3  502    0  0.39668770700E+03 -0.10171584326E+04  0.19367274096E+03  0.11088198882E+04  0.25500000920E-02 0. -1.
       -2    1    3    3    0  502 -0.39668770700E+03  0.10171584326E+04 -0.98534068226E+03  0.14706694646E+04  0.25500000920E-02 0.  1.
</event>
<event>
 5   0  0.1908726E-06  0.3429081E+04  0.7818609E-02  0.8130806E-01
       -2   -1    0    0    0  501  0.00000000000E+00  0.00000000000E+00  0.24695398401E+04  0.24695398401E+04  0.25500000920E-02 0.  1.
        2   -1    0    0  501    0  0.00000000000E+00  0.00000000000E+00 -0.11903628097E+04  0.11903628097E+04  0.25500000920E-02 0. -1.
    10030    2    1    2    0    0  0.00000000000E+00  0.00000000000E+00  0.12791770303E+04  0.36599026498E+04  0.34290805664E+04 0.  0.
        5    1    3    3  502    0  0.57828781878E+03  0.19296917349E+03 -0.10707694703E+04  0.12321620234E+04  0.46999998093E+01 0. -1.
       -5    1    3    3    0  502 -0.57828781878E+03 -0.19296917349E+03  0.23499465007E+04  0.24277406264E+04  0.46999998093E+01 0.  1.
</event>
<event>
 5   0  0.2565004E-06  0.3510998E+04  0.7818609E-02  0.8111189E-01
       -2   -1    0    0    0  501  0.00000000000E+00  0.00000000000E+00  0.18304670029E+04  0.18304670029E+04  0.25500000920E-02 0. -1.
        2   -1    0    0  501    0  0.00000000000E+00  0.00000000000E+00 -0.16836012203E+04  0.16836012203E+04  0.25500000920E-02 0.  1.
    10030    2    1    2    0    0  0.00000000000E+00  0.00000000000E+00  0.14686578258E+03  0.35140682233E+04  0.35109978524E+04 0.  0.
        3    1    3    3  502    0 -0.75634492492E+03  0.68363960936E+03 -0.13569269776E+04  0.16972541335E+04  0.10100000352E+00 0.  1.
       -3    1    3    3    0  502  0.75634492492E+03 -0.68363960936E+03  0.15037927602E+04  0.18168140898E+04  0.10100000352E+00 0. -1.
</event>
<event>
 5   0  0.1089337E-06  0.3295352E+04  0.7818609E-02  0.8164079E-01
        1   -1    0    0  501    0  0.00000000000E+00  0.00000000000E+00  0.12897301582E+04  0.12897301582E+04  0.50400001928E-02 0. -1.
       -1   -1    0    0    0  501  0.00000000000E+00  0.00000000000E+00 -0.21049641360E+04  0.21049641360E+04  0.50400001928E-02 0.  1.
    10030    2    1    2    0    0  0.00000000000E+00  0.00000000000E+00 -0.81523397772E+03  0.33946942942E+04  0.32953517130E+04 0.  0.
        2    1    3    3  502    0  0.12544307720E+03  0.48518661835E+03 -0.20245508425E+04  0.20856529275E+04  0.25500000920E-02 0.  1.
       -2    1    3    3    0  502 -0.12544307720E+03 -0.48518661835E+03  0.12093168648E+04  0.13090413667E+04  0.25500000920E-02 0. -1.
</event>
<event>
 5   0  0.1782660E-06  0.2518202E+04  0.7818609E-02  0.8396529E-01
        2   -1    0    0  501    0  0.00000000000E+00  0.00000000000E+00  0.72778607398E+03  0.72778607398E+03  0.25500000920E-02 0. -1.
       -2   -1    0    0    0  501  0.00000000000E+00  0.00000000000E+00 -0.21782991077E+04  0.21782991077E+04  0.25500000920E-02 0.  1.
    10030    2    1    2    0    0  0.00000000000E+00  0.00000000000E+00 -0.14505130337E+04  0.29060851817E+04  0.25182023394E+04 0.  0.
        4    1    3    3  502    0  0.52701155226E+03 -0.10233913473E+04 -0.13651585726E+03  0.11591847213E+04  0.12699999809E+01 0. -1.
       -4    1    3    3    0  502 -0.52701155226E+03  0.10233913473E+04 -0.13139971765E+04  0.17469004604E+04  0.12699999809E+01 0.  1.
</event>
<event>
 5   0  0.1908726E-06  0.3385760E+04  0.7818609E-02  0.8141410E-01
        2   -1    0    0  501    0  0.00000000000E+00  0.00000000000E+00  0.15682408208E+04  0.15682408208E+04  0.25500000920E-02 0. -1.
       -2   -1    0    0    0  501  0.00000000000E+00  0.00000000000E+00 -0.18274253317E+04  0.18274253317E+04  0.25500000920E-02 0.  1.
    10030    2    1    2    0    0  0.00000000000E+00  0.00000000000E+00 -0.25918451086E+03  0.33956661525E+04  0.33857601818E+04 0.  0.
        5    1    3    3  502    0 -0.12489144946E+04 -0.10378046514E+04  0.35034205111E+03  0.16612006357E+04  0.46999998093E+01 0. -1.
       -5    1    3    3    0  502  0.12489144946E+04  0.10378046514E+04 -0.60952656198E+03  0.17344655168E+04  0.46999998093E+01 0.  1.
</event>
<event>
 5   0  0.1908726E-06  0.3453086E+04  0.7818609E-02  0.8124999E-01
       -2   -1    0    0    0  501  0.00000000000E+00  0.00000000000E+00  0.29672539953E+04  0.29672539953E+04  0.25500000920E-02 0. -1.
        2   -1    0    0  501    0  0.00000000000E+00  0.00000000000E+00 -0.10046162421E+04  0.10046162421E+04  0.25500000920E-02 0.  1.
    10030    2    1    2    0    0  0.00000000000E+00  0.00000000000E+00  0.19626377532E+04  0.39718702373E+04  0.34530864791E+04 0.  0.
        5    1    3    3  502    0 -0.29380635888E+03  0.19224140627E+03  0.29257481693E+04  0.29467445385E+04  0.46999998093E+01 0. -1.
       -5    1    3    3    0  502  0.29380635888E+03 -0.19224140627E+03 -0.96311041613E+03  0.10251256989E+04  0.46999998093E+01 0.  1.
</event>
<event>
 5   0  0.1110956E-06  0.3451144E+04  0.7818609E-02  0.8125467E-01
       -1   -1    0    0    0  501  0.00000000000E+00  0.00000000000E+00  0.17201293189E+04  0.17201293189E+04  0.50400001928E-02 0. -1.
        1   -1    0    0  501    0  0.00000000000E+00  0.00000000000E+00 -0.17310314710E+04  0.17310314710E+04  0.50400001928E-02 0.  1.
    10030    2    1    2    0    0  0.00000000000E+00  0.00000000000E+00 -0.10902152122E+02  0.34511607900E+04  0.34511435701E+04 0.  0.
        1    1    3    3  502    0  0.68461841592E+03  0.54233098725E+03  0.14827675947E+04  0.17208791401E+04  0.50400001928E-02 0. -1.
       -1    1    3    3    0  502 -0.68461841592E+03 -0.54233098725E+03 -0.14936697468E+04  0.17302816498E+04  0.50400001928E-02 0.  1.
</event>
<event>
 5   0  0.1102175E-06  0.3508087E+04  0.7818609E-02  0.8111876E-01
        1   -1    0    0  501    0  0.00000000000E+00  0.00000000000E+00  0.17130521235E+04  0.17130521235E+04  0.50400001928E-02 0. -1.
       -1   -1    0    0    0  501  0.00000000000E+00  0.00000000000E+00 -0.17960154620E+04  0.17960154620E+04  0.50400001928E-02 0.  1.
    10030    2    1    2    0    0  0.00000000000E+00  0.00000000000E+00 -0.82963338465E+02  0.35090675855E+04  0.35080867156E+04 0.  0.
        5    1    3    3  502    0 -0.79426209783E+03  0.11733102694E+04 -0.10757614636E+04  0.17789868141E+04  0.46999998093E+01 0.  1.
       -5    1    3    3    0  502  0.79426209783E+03 -0.11733102694E+04  0.99279812509E+03  0.17300807714E+04  0.46999998093E+01 0. -1.
</event>
<event>
 5   0  0.1042825E-06  0.2205034E+04  0.7818609E-02  0.8516336E-01
        3   -1    0    0  501    0  0.00000000000E+00  0.00000000000E+00  0.10655485391E+04  0.10655485439E+04  0.10100000352E+00 0.  1.
       -3   -1    0    0    0  501  0.00000000000E+00  0.00000000000E+00 -0.11407683705E+04  0.11407683750E+04  0.10100000352E+00 0. -1.
    10030    2    1    2    0    0  0.00000000000E+00  0.00000000000E+00 -0.75219831468E+02  0.22063169189E+04  0.22050343134E+04 0.  0.
        2    1    3    3  502    0  0.25988158484E+03 -0.73875947102E+03  0.73888277717E+03  0.10766855402E+04  0.25500000920E-02 0.  1.
       -2    1    3    3    0  502 -0.25988158484E+03  0.73875947102E+03 -0.81410260864E+03  0.11296313786E+04  0.25500000920E-02 0. -1.
</event>
<event>
 5   0  0.1849973E-06  0.1813800E+04  0.7818609E-02  0.8698995E-01
       -1   -1    0    0    0  501  0.00000000000E+00  0.00000000000E+00  0.75653737634E+03  0.75653737635E+03  0.50400001928E-02 0.  1.
        1   -1    0    0  501    0  0.00000000000E+00  0.00000000000E+00 -0.10871477941E+04  0.10871477941E+04  0.50400001928E-02 0. -1.
    10030    2    1    2    0    0  0.00000000000E+00  0.00000000000E+00 -0.33061041774E+03  0.18436851704E+04  0.18138003637E+04 0.  0.
        1    1    3    3  502    0 -0.26741181222E+03  0.56005612136E+03 -0.83748435078E+03  0.10423780381E+04  0.50400001928E-02 0. -1.
       -1    1    3    3    0  502  0.26741181222E+03 -0.56005612136E+03  0.50687393304E+03  0.80130713239E+03  0.50400001928E-02 0.  1.
</event>
<event>
 5   0  0.1908726E-06  0.1891045E+04  0.7818609E-02  0.8659326E-01
       -2   -1    0    0    0  501  0.00000000000E+00  0.00000000000E+00  0.15187636407E+04  0.15187636407E+04  0.25500000920E-02 0.  1.
        2   -1    0    0  501    0  0.00000000000E+00  0.00000000000E+00 -0.58864541731E+03  0.58864541732E+03  0.25500000920E-02 0. -1.
    10030    2    1    2    0    0  0.00000000000E+00  0.00000000000E+00  0.93011822343E+03  0.21074090581E+04  0.18910454856E+04 0.  0.
        5    1    3    3  502    0 -0.35753230111E+03  0.34357910762E+03  0.13622254627E+04  0.14496745327E+04  0.46999998093E+01 0.  1.
       -5    1    3    3    0  502  0.35753230111E+03 -0.34357910762E+03 -0.43210723932E+03  0.65773452532E+03  0.46999998093E+01 0. -1.
</event>
<event>
 5   0  0.1782660E-06  0.3643026E+04  0.7818609E-02  0.8080706E-01
       -2   -1    0    0    0  501  0.00000000000E+00  0.00000000000E+00  0.12683697562E+04  0.12683697562E+04  0.25500000920E-02 0.  1.
        2   -1    0    0  501    0  0.00000000000E+00  0.00000000000E+00 -0.26158857416E+04  0.26158857416E+04  0.25500000920E-02 0. -1.
    10030    2    1    2    0    0  0.00000000000E+00  0.00000000000E+00 -0.13475159854E+04  0.38842554978E+04  0.36430264124E+04 0.  0.
        4    1    3    3  502    0  0.13428103067E+04 -0.34170912066E+03  0.58690699803E+03  0.15047810738E+04  0.12699999809E+01 0.  1.
       -4    1    3    3    0  502 -0.13428103067E+04  0.34170912066E+03 -0.19344229834E+04  0.23794744240E+04  0.12699999809E+01 0. -1.
</event>
<event>
 5   0  0.1782660E-06  0.1914714E+04  0.7818609E-02  0.8647567E-01
        2   -1    0    0  501    0  0.00000000000E+00  0.00000000000E+00  0.90651058727E+03  0.90651058728E+03  0.25500000920E-02 0. -1.
       -2   -1    0    0    0  501  0.00000000000E+00  0.00000000000E+00 -0.10110549757E+04  0.10110549757E+04  0.25500000920E-02 0.  1.
    10030    2    1    2    0    0  0.00000000000E+00  0.00000000000E+00 -0.10454438845E+03  0.19175655630E+04  0.19147135972E+04 0.  0.
        4    1    3    3  502    0 -0.17394349253E+03  0.91678358251E+03  0.16201368295E+03  0.94710005919E+03  0.12699999809E+01 0. -1.
       -4    1    3    3    0  502  0.17394349253E+03 -0.91678358251E+03 -0.26655807140E+03  0.97046550381E+03  0.12699999809E+01 0.  1.
</event>
<event>
 5   0  0.2565004E-06  0.3474986E+04  0.7818609E-02  0.8119744E-01
       -2   -1    0    0    0  501  0.00000000000E+00  0.00000000000E+00  0.16585659751E+04  0.16585659751E+04  0.25500000920E-02 0. -1.
        2   -1    0    0  501    0  0.00000000000E+00  0.00000000000E+00 -0.18201760696E+04  0.18201760696E+04  0.25500000920E-02 0.  1.
    10030    2    1    2    0    0  0.00000000000E+00  0.00000000000E+00 -0.16161009445E+03  0.34787420447E+04  0.34749860994E+04 0.  0.
        3    1    3    3  502    0 -0.82933942518E+03  0.16806000470E+03 -0.15999544064E+04  0.18099453473E+04  0.10100000352E+00 0.  1.
       -3    1    3    3    0  502  0.82933942518E+03 -0.16806000470E+03  0.14383443120E+04  0.16687966974E+04  0.10100000352E+00 0. -1.
</event>
<event>
 5   0  0.3041329E-06  0.3526205E+04  0.7818609E-02  0.8107608E-01
       -2   -1    0    0    0  501  0.00000000000E+00  0.00000000000E+00  0.16787230478E+04  0.16787230478E+04  0.25500000920E-02 0. -1.
        2   -1    0    0  501    0  0.00000000000E+00  0.00000000000E+00 -0.18517231147E+04  0.18517231147E+04  0.25500000920E-02 0.  1.
    10030    2    1    2    0    0  0.00000000000E+00  0.00000000000E+00 -0.17300006684E+03  0.35304461625E+04  0.35262049122E+04 0.  0.
        2    1    3    3  502    0  0.10278237362E+04 -0.60790352216E+03 -0.13851962586E+04  0.18288622145E+04  0.25500000920E-02 0.  1.
       -2    1    3    3    0  502 -0.10278237362E+04  0.60790352216E+03  0.12121961917E+04  0.17015839480E+04  0.25500000920E-02 0. -1.
</event>
<event>
 5   0  0.1908726E-06  0.3437994E+04  0.7818609E-02  0.8128644E-01
       -2   -1    0    0    0  501  0.00000000000E+00  0.00000000000E+00  0.16717729074E+04  0.16717729074E+04  0.25500000920E-02 0. -1.
        2   -1    0    0  501    0  0.00000000000E+00  0.00000000000E+00 -0.17675547786E+04  0.17675547786E+04  0.25500000920E-02 0.  1.
    10030    2    1    2    0    0  0.00000000000E+00  0.00000000000E+00 -0.95781871186E+02  0.34393276860E+04  0.34379937121E+04 0.  0.
        5    1    3    3  502    0  0.16346759361E+04 -0.53159017839E+03 -0.34673417075E+02  0.17192957482E+04  0.46999998093E+01 0. -1.
       -5    1    3    3    0  502 -0.16346759361E+04  0.53159017839E+03 -0.61108454111E+02  0.17200319378E+04  0.46999998093E+01 0.  1.
</event>
<event>
 5   0  0.1089337E-06  0.3217849E+04  0.7818609E-02  0.8184119E-01
       -1   -1    0    0    0  501  0.00000000000E+00  0.00000000000E+00  0.17762098639E+04  0.17762098639E+04  0.50400001928E-02 0.  1.
        1   -1    0    0  501    0  0.00000000000E+00  0.00000000000E+00 -0.14573943106E+04  0.14573943106E+04  0.50400001928E-02 0. -1.
    10030    2    1    2    0    0  0.00000000000E+00  0.00000000000E+00  0.31881555332E+03  0.32336041745E+04  0.32178490642E+04 0.  0.
        2    1    3    3  502    0 -0.11058364993E+03 -0.87023937201E+03 -0.11959333598E+04  0.14831729196E+04  0.25500000920E-02 0. -1.
       -2    1    3    3    0  502  0.11058364993E+03  0.87023937201E+03  0.15147489131E+04  0.17504312549E+04  0.25500000920E-02 0.  1.
</event>
<event>
 5   0  0.2565004E-06  0.2177134E+04  0.7818609E-02  0.8528006E-01
        2   -1    0    0  501    0  0.00000000000E+00  0.00000000000E+00  0.85144993284E+03  0.85144993284E+03  0.25500000920E-02 0.  1.
       -2   -1    0    0    0  501  0.00000000000E+00  0.00000000000E+00 -0.13917178686E+04  0.13917178686E+04  0.25500000920E-02 0. -1.
    10030    2    1    2    0    0  0.00000000000E+00  0.00000000000E+00 -0.54026793577E+03  0.22431678014E+04  0.21771339745E+04 0.  0.
        3    1    3    3  502    0 -0.90562500327E+03  0.53085943603E+03 -0.56698666461E+03  0.11930810012E+04  0.10100000352E+00 0. -1.
       -3    1    3    3    0  502  0.90562500327E+03 -0.53085943603E+03  0.26718728845E+02  0.10500868002E+04  0.10100000352E+00 0.  1.
</event>
<event>
 5   0  0.3378848E-06  0.3440564E+04  0.7818609E-02  0.8128022E-01
       -2   -1    0    0    0  501  0.00000000000E+00  0.00000000000E+00  0.15969746946E+04  0.15969746946E+04  0.25500000920E-02 0. -1.
        2   -1    0    0  501    0  0.00000000000E+00  0.00000000000E+00 -0.18531098306E+04  0.18531098306E+04  0.25500000920E-02 0.  1.
    10030    2    1    2    0    0  0.00000000000E+00  0.00000000000E+00 -0.25613513594E+03  0.34500845252E+04  0.34405636200E+04 0.  0.
        1    1    3    3  502    0  0.16941894244E+04 -0.14144905372E+03 -0.39163300444E+03  0.17446094264E+04  0.50400001928E-02 0.  1.
       -1    1    3    3    0  502 -0.16941894244E+04  0.14144905372E+03  0.13549786850E+03  0.17054750988E+04  0.50400001928E-02 0. -1.
</event>
<event>
 5   0  0.1130707E-06  0.3489561E+04  0.7818609E-02  0.8116268E-01
       -1   -1    0    0    0  501  0.00000000000E+00  0.00000000000E+00  0.18690681978E+04  0.18690681978E+04  0.50400001928E-02 0.  1.
        1   -1    0    0  501    0  0.00000000000E+00  0.00000000000E+00 -0.16287577461E+04  0.16287577461E+04  0.50400001928E-02 0. -1.
    10030    2    1    2    0    0  0.00000000000E+00  0.00000000000E+00  0.24031045166E+03  0.34978259440E+04  0.34895611789E+04 0.  0.
        3    1    3    3  502    0 -0.34174379124E+02  0.17042400255E+04 -0.25309391252E+03  0.17232697094E+04  0.10100000352E+00 0. -1.
       -3    1    3    3    0  502  0.34174379124E+02 -0.17042400255E+04  0.49340436418E+03  0.17745562345E+04  0.10100000352E+00 0.  1.
</event>
<event>
 5   0  0.1125196E-06  0.2687578E+04  0.7818609E-02  0.8339047E-01
       -1   -1    0    0    0  501  0.00000000000E+00  0.00000000000E+00  0.12510027679E+04  0.12510027679E+04  0.50400001928E-02 0.  1.
        1   -1    0    0  501    0  0.00000000000E+00  0.00000000000E+00 -0.14434568902E+04  0.14434568902E+04  0.50400001928E-02 0. -1.
    10030    2    1    2    0    0  0.00000000000E+00  0.00000000000E+00 -0.19245412226E+03  0.26944596581E+04  0.26875777682E+04 0.  0.
        4    1    3    3  502    0  0.13080643253E+03  0.56328787895E+03 -0.13123307878E+04  0.14340910944E+04  0.12699999809E+01 0. -1.
       -4    1    3    3    0  502 -0.13080643253E+03 -0.56328787895E+03  0.11198766656E+04  0.12603685637E+04  0.12699999809E+01 0.  1.
</event>
<event>
 5   0  0.1042825E-06  0.3470577E+04  0.7818609E-02  0.8120798E-01
        3   -1    0    0  501    0  0.00000000000E+00  0.00000000000E+00  0.22284199781E+04  0.22284199804E+04  0.10100000352E+00 0.  1.
       -3   -1    0    0    0  501  0.00000000000E+00  0.00000000000E+00 -0.13512832902E+04  0.13512832939E+04  0.10100000352E+00 0. -1.
    10030    2    1    2    0    0  0.00000000000E+00  0.00000000000E+00  0.87713668790E+03  0.35797032743E+04  0.34705772953E+04 0.  0.
        3    1    3    3  502    0  0.76036417655E+03 -0.10113128374E+04  0.16634779461E+04  0.20899919195E+04  0.10100000352E+00 0.  1.
       -3    1    3    3    0  502 -0.76036417655E+03  0.10113128374E+04 -0.78634125821E+03  0.14897113548E+04  0.10100000352E+00 0. -1.
</event>
<event>
 5   0  0.1102175E-06  0.2254485E+04  0.7818609E-02  0.8496086E-01
       -1   -1    0    0    0  501  0.00000000000E+00  0.00000000000E+00  0.14298943344E+04  0.14298943344E+04  0.50400001928E-02 0. -1.
        1   -1    0    0  501    0  0.00000000000E+00  0.00000000000E+00 -0.88864987831E+03  0.88864987833E+03  0.50400001928E-02 0.  1.
    10030    2    1    2    0    0  0.00000000000E+00  0.00000000000E+00  0.54124445604E+03  0.23185442127E+04  0.22544847981E+04 0.  0.
        5    1    3    3  502    0  0.63827743395E+03 -0.18033993929E+03  0.12079656572E+04  0.13780869694E+04  0.46999998093E+01 0. -1.
       -5    1    3    3    0  502 -0.63827743395E+03  0.18033993929E+03 -0.66672120112E+03  0.94045724327E+03  0.46999998093E+01 0.  1.
</event>
<event>
 5   0  0.2565004E-06  0.3048239E+04  0.7818609E-02  0.8230089E-01
       -2   -1    0    0    0  501  0.00000000000E+00  0.00000000000E+00  0.12402880640E+04  0.12402880640E+04  0.25500000920E-02 0.  1.
        2   -1    0    0  501    0  0.00000000000E+00  0.00000000000E+00 -0.18729039489E+04  0.18729039489E+04  0.25500000920E-02 0. -1.
    10030    2    1    2    0    0  0.00000000000E+00  0.00000000000E+00 -0.63261588491E+03  0.31131920129E+04  0.30482391067E+04 0.  0.
        3    1    3    3  502    0 -0.86773343655E+03  0.50194041393E+03  0.85621225701E+03  0.13183341516E+04  0.10100000352E+00 0.  1.
       -3    1    3    3    0  502  0.86773343655E+03 -0.50194041393E+03 -0.14888281419E+04  0.17948578613E+04  0.10100000352E+00 0. -1.
</event>
<event>
 5   0  0.1125196E-06  0.3514024E+04  0.7818609E-02  0.8110474E-01
        1   -1    0    0  501    0  0.00000000000E+00  0.00000000000E+00  0.25608575706E+04  0.25608575706E+04  0.50400001928E-02 0.  1.
       -1   -1    0    0    0  501  0.00000000000E+00  0.00000000000E+00 -0.12054913778E+04  0.12054913778E+04  0.50400001928E-02 0. -1.
    10030    2    1    2    0    0  0.00000000000E+00  0.00000000000E+00  0.13553661928E+04  0.37663489484E+04  0.35140243147E+04 0.  0.
        4    1    3    3  502    0  0.27072036790E+03 -0.17315805697E+04  0.81081716434E+03  0.19310843777E+04  0.12699999809E+01 0.  1.
       -4    1    3    3    0  502 -0.27072036790E+03  0.17315805697E+04  0.54454902844E+03  0.18352645707E+04  0.12699999809E+01 0. -1.
</event>
<event>
 5   0  0.1102175E-06  0.3546465E+04  0.7818609E-02  0.8102866E-01
       -1   -1    0    0    0  501  0.00000000000E+00  0.00000000000E+00  0.16349566078E+04  0.16349566078E+04  0.50400001928E-02 0.  1.
        1   -1    0    0  501    0  0.00000000000E+00  0.00000000000E+00 -0.19232026617E+04  0.19232026617E+04  0.50400001928E-02 0. -1.
    10030    2    1    2    0    0  0.00000000000E+00  0.00000000000E+00 -0.28824605391E+03  0.35581592696E+04  0.35464646622E+04 0.  0.
        5    1    3    3  502    0  0.35570175835E+03  0.69646709960E+03  0.14525835251E+04  0.16497306293E+04  0.46999998093E+01 0.  1.
       -5    1    3    3    0  502 -0.35570175835E+03 -0.69646709960E+03 -0.17408295790E+04  0.19084286403E+04  0.46999998093E+01 0. -1.
</event>
<event>
 5   0  0.2565004E-06  0.3131627E+04  0.7818609E-02  0.8207111E-01
       -2   -1    0    0    0  501  0.00000000000E+00  0.00000000000E+00  0.14927634134E+04  0.14927634134E+04  0.25500000920E-02 0. -1.
        2   -1    0    0  501    0  0.00000000000E+00  0.00000000000E+00 -0.16424380523E+04  0.16424380523E+04  0.25500000920E-02 0.  1.
    10030    2    1    2    0    0  0.00000000000E+00  0.00000000000E+00 -0.14967463889E+03  0.31352014657E+04  0.31316266912E+04 0.  0.
        3    1    3    3  502    0  0.58257516335E+03 -0.46732055481E+03 -0.14526310535E+04  0.16333766589E+04  0.10100000352E+00 0.  1.
       -3    1    3    3    0  502 -0.58257516335E+03  0.46732055481E+03  0.13029564146E+04  0.15018248069E+04  0.10100000352E+00 0. -1.
</event>
<event>
 5   0  0.1908726E-06  0.3536898E+04  0.7818609E-02  0.8105101E-01
       -2   -1    0    0    0  501  0.00000000000E+00  0.00000000000E+00  0.96363710592E+03  0.96363710592E+03  0.25500000920E-02 0.  1.
        2   -1    0    0  501    0  0.00000000000E+00  0.00000000000E+00 -0.32454242427E+04  0.32454242427E+04  0.25500000920E-02 0. -1.
    10030    2    1    2    0    0  0.00000000000E+00  0.00000000000E+00 -0.22817871368E+04  0.42090613486E+04  0.35368976376E+04 0.  0.
        5    1    3    3  502    0 -0.61200179182E+03  0.13477052961E+04 -0.22925538644E+04  0.27288607640E+04  0.46999998093E+01 0. -1.
       -5    1    3    3    0  502  0.61200179182E+03 -0.13477052961E+04  0.10766727597E+02  0.14802005846E+04  0.46999998093E+01 0.  1.
</event>
<event>
 5   0  0.1782660E-06  0.2639614E+04  0.7818609E-02  0.8354868E-01
       -2   -1    0    0    0  501  0.00000000000E+00  0.00000000000E+00  0.11460765712E+04  0.11460765713E+04  0.25500000920E-02 0. -1.
        2   -1    0    0  501    0  0.00000000000E+00  0.00000000000E+00 -0.15198732750E+04  0.15198732750E+04  0.25500000920E-02 0.  1.
    10030    2    1    2    0    0  0.00000000000E+00  0.00000000000E+00 -0.37379670376E+03  0.26659498463E+04  0.26396144808E+04 0.  0.
        4    1    3    3  502    0  0.45912747492E+03  0.31706813641E+03 -0.13948913162E+04  0.15023493729E+04  0.12699999809E+01 0.  1.
       -4    1    3    3    0  502 -0.45912747492E+03 -0.31706813641E+03  0.10210946124E+04  0.11636004734E+04  0.12699999809E+01 0. -1.
</event>
<event>
 5   0  0.1102175E-06  0.2185043E+04  0.7818609E-02  0.8524680E-01
        1   -1    0    0  501    0  0.00000000000E+00  0.00000000000E+00  0.12202748841E+04  0.12202748842E+04  0.50400001928E-02 0.  1.
       -1   -1    0    0    0  501  0.00000000000E+00  0.00000000000E+00 -0.97814271297E+03  0.97814271298E+03  0.50400001928E-02 0. -1.
    10030    2    1    2    0    0  0.00000000000E+00  0.00000000000E+00  0.24213217118E+03  0.21984175971E+04  0.21850427783E+04 0.  0.
        5    1    3    3  502    0 -0.27447159848E+03  0.48590863281E+03  0.10660377119E+04  0.12032873103E+04  0.46999998093E+01 0.  1.
       -5    1    3    3    0  502  0.27447159848E+03 -0.48590863281E+03 -0.82390554074E+03  0.99513028688E+03  0.46999998093E+01 0. -1.
</event>
<event>
 5   0  0.1908726E-06  0.3602231E+04  0.7818609E-02  0.8089981E-01
        2   -1    0    0  501    0  0.00000000000E+00  0.00000000000E+00  0.19488944126E+04  0.19488944126E+04  0.25500000920E-02 0.  1.
       -2   -1    0    0    0  501  0.00000000000E+00  0.00000000000E+00 -0.16645421207E+04  0.16645421207E+04  0.25500000920E-02 0. -1.
    10030    2    1    2    0    0  0.00000000000E+00  0.00000000000E+00  0.28435229196E+03  0.36134365333E+04  0.36022308858E+04 0.  0.
        5    1    3    3  502    0  0.11167323396E+04 -0.11461616917E+04 -0.68696452701E+03  0.17414706697E+04  0.46999998093E+01 0. -1.
       -5    1    3    3    0  502 -0.11167323396E+04  0.11461616917E+04  0.97131681896E+03  0.18719658637E+04  0.46999998093E+01 0.  1.
</event>
<event>
 5   0  0.1130707E-06  0.3420986E+04  0.7818609E-02  0.8132775E-01
        1   -1    0    0  501    0  0.00000000000E+00  0.00000000000E+00  0.12504508960E+04  0.12504508960E+04  0.50400001928E-02 0. -1.
       -1   -1    0    0    0  501  0.00000000000E+00  0.00000000000E+00 -0.23397845215E+04  0.23397845215E+04  0.50400001928E-02 0.  1.
    10030    2    1    2    0    0  0.00000000000E+00  0.00000000000E+00 -0.10893336255E+04  0.35902354175E+04  0.34209856190E+04 0.  0.
        3    1    3    3  502    0  0.34609188300E+03 -0.45456522414E+03 -0.22366898552E+04  0.23085039860E+04  0.10100000352E+00 0.  1.
       -3    1    3    3    0  502 -0.34609188300E+03  0.45456522414E+03  0.11473562297E+04  0.12817314315E+04  0.10100000352E+00 0. -1.
</event>
<event>
 5   0  0.1782660E-06  0.3571111E+04  0.7818609E-02  0.8097141E-01
       -2   -1    0    0    0  501  0.00000000000E+00  0.00000000000E+00  0.28046513229E+04  0.28046513229E+04  0.25500000920E-02 0.  1.
        2   -1    0    0  501    0  0.00000000000E+00  0.00000000000E+00 -0.11367576359E+04  0.11367576359E+04  0.25500000920E-02 0. -1.
    10030    2    1    2    0    0  0.00000000000E+00  0.00000000000E+00  0.16678936871E+04  0.39414089588E+04  0.35711112037E+04 0.  0.
        4    1    3    3  502    0  0.12875107855E+04  0.11858273630E+04  0.12231243069E+04  0.21353934628E+04  0.12699999809E+01 0. -1.
       -4    1    3    3    0  502 -0.12875107855E+04 -0.11858273630E+04  0.44476938012E+03  0.18060154961E+04  0.12699999809E+01 0.  1.
</event>
<event>
 5   0  0.1908726E-06  0.3459609E+04  0.7818609E-02  0.8123429E-01
       -2   -1    0    0    0  501  0.00000000000E+00  0.00000000000E+00  0.15799109894E+04  0.15799109894E+04  0.25500000920E-02 0. -1.
        2   -1    0    0  501    0  0.00000000000E+00  0.00000000000E+00 -0.18939193917E+04  0.18939193917E+04  0.25500000920E-02 0.  1.
    10030    2    1    2    0    0  0.00000000000E+00  0.00000000000E+00 -0.31400840230E+03  0.34738303811E+04  0.34596092611E+04 0.  0.
        5    1    3    3  502    0 -0.17927357057E+03 -0.17115529584E+04  0.18785222058E+02  0.17210251355E+04  0.46999998093E+01 0. -1.
       -5    1    3    3    0  502  0.17927357057E+03  0.17115529584E+04 -0.33279362436E+03  0.17528052456E+04  0.46999998093E+01 0.  1.
</event>
<event>
 5   0  0.1908726E-06  0.3534468E+04  0.7818609E-02  0.8105670E-01
       -2   -1    0    0    0  501  0.00000000000E+00  0.00000000000E+00  0.12910586886E+04  0.12910586886E+04  0.25500000920E-02 0.  1.
        2   -1    0    0  501    0  0.00000000000E+00  0.00000000000E+00 -0.24190347108E+04  0.24190347108E+04  0.25500000920E-02 0. -1.
    10030    2    1    2    0    0  0.00000000000E+00  0.00000000000E+00 -0.11279760222E+04  0.37100933994E+04  0.35344678702E+04 0.  0.
        5    1    3    3  502    0 -0.38164301396E+03  0.12841115038E+04 -0.17738659992E+04  0.22228847063E+04  0.46999998093E+01 0. -1.
       -5    1    3    3    0  502  0.38164301396E+03 -0.12841115038E+04  0.64588997706E+03  0.14872086931E+04  0.46999998093E+01 0.  1.
</event>
<event>
 5   0  0.1110956E-06  0.3460408E+04  0.7818609E-02  0.8123237E-01
       -1   -1    0    0    0  501  0.00000000000E+00  0.00000000000E+00  0.16961419611E+04  0.16961419611E+04  0.50400001928E-02 0.  1.
        1   -1    0    0  501    0  0.00000000000E+00  0.00000000000E+00 -0.17649503445E+04  0.17649503445E+04  0.50400001928E-02 0. -1.
    10030    2    1    2    0    0  0.00000000000E+00  0.00000000000E+00 -0.68808383345E+02  0.34610923056E+04  0.34604082641E+04 0.  0.
        1    1    3    3  502    0  0.94988985135E+03  0.11211303038E+04  0.87922174866E+03  0.17123827759E+04  0.50400001928E-02 0.  1.
       -1    1    3    3    0  502 -0.94988985135E+03 -0.11211303038E+04 -0.94803013201E+03  0.17487095297E+04  0.50400001928E-02 0. -1.
</event>
<event>
 5   0  0.1908726E-06  0.2877800E+04  0.7818609E-02  0.8279514E-01
       -2   -1    0    0    0  501  0.00000000000E+00  0.00000000000E+00  0.12887779776E+04  0.12887779776E+04  0.25500000920E-02 0. -1.
        2   -1    0    0  501    0  0.00000000000E+00  0.00000000000E+00 -0.16065084526E+04  0.16065084526E+04  0.25500000920E-02 0.  1.
    10030    2    1    2    0    0  0.00000000000E+00  0.00000000000E+00 -0.31773047503E+03  0.28952864302E+04  0.28777996557E+04 0.  0.
        5    1    3    3  502    0  0.86117509408E+02  0.14180424530E+04  0.70886147082E+02  0.14224301599E+04  0.46999998093E+01 0.  1.
       -5    1    3    3    0  502 -0.86117509408E+02 -0.14180424530E+04 -0.38861662211E+03  0.14728562703E+04  0.46999998093E+01 0. -1.
</event>
<event>
 5   0  0.1042825E-06  0.3510688E+04  0.7818609E-02  0.8111262E-01
        3   -1    0    0  501    0  0.00000000000E+00  0.00000000000E+00  0.16855901361E+04  0.16855901392E+04  0.10100000352E+00 0. -1.
       -3   -1    0    0    0  501  0.00000000000E+00  0.00000000000E+00 -0.18279842905E+04  0.18279842933E+04  0.10100000352E+00 0.  1.
    10030    2    1    2    0    0  0.00000000000E+00  0.00000000000E+00 -0.14239415434E+03  0.35135744325E+04  0.35106878524E+04 0.  0.
        4    1    3    3  502    0  0.28478801176E+03 -0.16019112073E+04  0.58813664406E+03  0.17300664880E+04  0.12699999809E+01 0. -1.
       -4    1    3    3    0  502 -0.28478801176E+03  0.16019112073E+04 -0.73053079840E+03  0.17835079445E+04  0.12699999809E+01 0.  1.
</event>
<event>
 5   0  0.1125196E-06  0.3480997E+04  0.7818609E-02  0.8118308E-01
       -1   -1    0    0    0  501  0.00000000000E+00  0.00000000000E+00  0.28522181737E+04  0.28522181737E+04  0.50400001928E-02 0. -1.
        1   -1    0    0  501    0  0.00000000000E+00  0.00000000000E+00 -0.10620981724E+04  0.10620981724E+04  0.50400001928E-02 0.  1.
    10030    2    1    2    0    0  0.00000000000E+00  0.00000000000E+00  0.17901200013E+04  0.39143163461E+04  0.34809973913E+04 0.  0.
        4    1    3    3  502    0  0.86383446149E+03  0.54262494076E+03 -0.69069075523E+03  0.12319525703E+04  0.12699999809E+01 0.  1.
       -4    1    3    3    0  502 -0.86383446149E+03 -0.54262494076E+03  0.24808107565E+04  0.26823637758E+04  0.12699999809E+01 0. -1.
</event>
<event>
 5   0  0.1102175E-06  0.2873560E+04  0.7818609E-02  0.8280788E-01
       -1   -1    0    0    0  501  0.00000000000E+00  0.00000000000E+00  0.10076827950E+04  0.10076827950E+04  0.50400001928E-02 0. -1.
        1   -1    0    0  501    0  0.00000000000E+00  0.00000000000E+00 -0.20485983221E+04  0.20485983221E+04  0.50400001928E-02 0.  1.
    10030    2    1    2    0    0  0.00000000000E+00  0.00000000000E+00 -0.10409155271E+04  0.30562811171E+04  0.28735603583E+04 0.  0.
        5    1    3    3  502    0  0.18357243617E+03 -0.11746901062E+04  0.33750786143E+03  0.12359325756E+04  0.46999998093E+01 0.  1.
       -5    1    3    3    0  502 -0.18357243617E+03  0.11746901062E+04 -0.13784233885E+04  0.18203485416E+04  0.46999998093E+01 0. -1.
</event>
<event>
 5   0  0.1110956E-06  0.2642938E+04  0.7818609E-02  0.8353761E-01
        1   -1    0    0  501    0  0.00000000000E+00  0.00000000000E+00  0.11577613973E+04  0.11577613974E+04  0.50400001928E-02 0. -1.
       -1   -1    0    0    0  501  0.00000000000E+00  0.00000000000E+00 -0.15083246950E+04  0.15083246950E+04  0.50400001928E-02 0.  1.
    10030    2    1    2    0    0  0.00000000000E+00  0.00000000000E+00 -0.35056329764E+03  0.26660860923E+04  0.26429378400E+04 0.  0.
        1    1    3    3  502    0 -0.78473276707E+03 -0.86548099653E+03 -0.79828068881E+03  0.14149611052E+04  0.50400001928E-02 0.  1.
       -1    1    3    3    0  502  0.78473276707E+03  0.86548099653E+03  0.44771739117E+03  0.12511249871E+04  0.50400001928E-02 0. -1.
</event>
<event>
 5   0  0.1110956E-06  0.3138402E+04  0.7818609E-02  0.8205277E-01
       -1   -1    0    0    0  501  0.00000000000E+00  0.00000000000E+00  0.81934915313E+03  0.81934915315E+03  0.50400001928E-02 0.  1.
        1   -1    0    0  501    0  0.00000000000E+00  0.00000000000E+00 -0.30053020348E+04  0.30053020348E+04  0.50400001928E-02 0. -1.
    10030    2    1    2    0    0  0.00000000000E+00  0.00000000000E+00 -0.21859528817E+04  0.38246511880E+04  0.31384019355E+04 0.  0.
        1    1    3    3  502    0 -0.25590895855E+03  0.41180461380E+03  0.72577983430E+03  0.87282804889E+03  0.50400001928E-02 0.  1.
       -1    1    3    3    0  502  0.25590895855E+03 -0.41180461380E+03 -0.29117327160E+04  0.29518231391E+04  0.50400001928E-02 0. -1.
</event>
<event>
 5   0  0.1110956E-06  0.2288455E+04  0.7818609E-02  0.8482487E-01
       -1   -1    0    0    0  501  0.00000000000E+00  0.00000000000E+00  0.10459262155E+04  0.10459262155E+04  0.50400001928E-02 0. -1.
        1   -1    0    0  501    0  0.00000000000E+00  0.00000000000E+00 -0.12517677122E+04  0.12517677122E+04  0.50400001928E-02 0.  1.
    10030    2    1    2    0    0  0.00000000000E+00  0.00000000000E+00 -0.20584149672E+03  0.22976939278E+04  0.22884550823E+04 0.  0.
        1    1    3    3  502    0  0.24944057927E+03 -0.67062410076E+03  0.79360031350E+03  0.10685311155E+04  0.50400001928E-02 0. -1.
       -1    1    3    3    0  502 -0.24944057927E+03  0.67062410076E+03 -0.99944181021E+03  0.12291628123E+04  0.50400001928E-02 0.  1.
</event>
<event>
 5   0  0.1782660E-06  0.2839352E+04  0.7818609E-02  0.8291154E-01
        2   -1    0    0  501    0  0.00000000000E+00  0.00000000000E+00  0.12858763339E+04  0.12858763339E+04  0.25500000920E-02 0. -1.
       -2   -1    0    0    0  501  0.00000000000E+00  0.00000000000E+00 -0.15673976449E+04  0.15673976449E+04  0.25500000920E-02 0.  1.
    10030    2    1    2    0    0  0.00000000000E+00  0.00000000000E+00 -0.28152131100E+03  0.28532739787E+04  0.28393517128E+04 0.  0.
        4    1    3    3  502    0 -0.87831443374E+03  0.30781187396E+03 -0.12180683566E+04  0.15329306992E+04  0.12699999809E+01 0.  1.
       -4    1    3    3    0  502  0.87831443374E+03 -0.30781187396E+03  0.93654704562E+03  0.13203432795E+04  0.12699999809E+01 0. -1.
</event>
<event>
 5   0  0.1102175E-06  0.3300623E+04  0.7818609E-02  0.8162737E-01
       -1   -1    0    0    0  501  0.00000000000E+00  0.00000000000E+00  0.16224101727E+04  0.16224101727E+04  0.50400001928E-02 0.  1.
        1   -1    0    0  501    0  0.00000000000E+00  0.00000000000E+00 -0.16786931296E+04  0.16786931296E+04  0.50400001928E-02 0. -1.
    10030    2    1    2    0    0  0.00000000000E+00  0.00000000000E+00 -0.56282956902E+02  0.33011033024E+04  0.33006234626E+04 0.  0.
        5    1    3    3  502    0  0.52206166892E+03  0.43751227128E+03  0.14752541355E+04  0.16249191451E+04  0.46999998093E+01 0.  1.
       -5    1    3    3    0  502 -0.52206166892E+03 -0.43751227128E+03 -0.15315370924E+04  0.16761841573E+04  0.46999998093E+01 0. -1.
</event>
<event>
 5   0  0.1908726E-06  0.3420450E+04  0.7818609E-02  0.8132905E-01
        2   -1    0    0  501    0  0.00000000000E+00  0.00000000000E+00  0.21934758997E+04  0.21934758997E+04  0.25500000920E-02 0. -1.
       -2   -1    0    0    0  501  0.00000000000E+00  0.00000000000E+00 -0.13334405177E+04  0.13334405177E+04  0.25500000920E-02 0.  1.
    10030    2    1    2    0    0  0.00000000000E+00  0.00000000000E+00  0.86003538204E+03  0.35269164174E+04  0.34204500518E+04 0.  0.
        5    1    3    3  502    0 -0.14973051346E+04  0.59242077955E+03 -0.16407803773E+03  0.16185885019E+04  0.46999998093E+01 0. -1.
       -5    1    3    3    0  502  0.14973051346E+04 -0.59242077955E+03  0.10241134198E+04  0.19083279154E+04  0.46999998093E+01 0.  1.
</event>
<event>
 5   0  0.3378848E-06  0.2433261E+04  0.7818609E-02  0.8427155E-01
       -2   -1    0    0    0  501  0.00000000000E+00  0.00000000000E+00  0.90925523762E+03  0.90925523762E+03  0.25500000920E-02 0. -1.
        2   -1    0    0  501    0  0.00000000000E+00  0.00000000000E+00 -0.16279140538E+04  0.16279140538E+04  0.25500000920E-02 0.  1.
    10030    2    1    2    0    0  0.00000000000E+00  0.00000000000E+00 -0.71865881613E+03  0.25371692914E+04  0.24332606764E+04 0.  0.
        1    1    3    3  502    0  0.81073030310E+03 -0.66828683638E+03 -0.99895676310E+03  0.14497605094E+04  0.50400001928E-02 0.  1.
       -1    1    3    3    0  502 -0.81073030310E+03  0.66828683638E+03  0.28029794696E+03  0.10874087820E+04  0.50400001928E-02 0. -1.
</event>
<event>
 5   0  0.1102175E-06  0.2285211E+04  0.7818609E-02  0.8483775E-01
        1   -1    0    0  501    0  0.00000000000E+00  0.00000000000E+00  0.10890525447E+04  0.10890525447E+04  0.50400001928E-02 0. -1.
       -1   -1    0    0    0  501  0.00000000000E+00  0.00000000000E+00 -0.11987917020E+04  0.11987917020E+04  0.50400001928E-02 0.  1.
    10030    2    1    2    0    0  0.00000000000E+00  0.00000000000E+00 -0.10973915731E+03  0.22878442467E+04  0.22852108469E+04 0.  0.
        5    1    3    3  502    0 -0.11054485896E+04 -0.40052527681E+02 -0.34138860193E+03  0.11576653475E+04  0.46999998093E+01 0.  1.
       -5    1    3    3    0  502  0.11054485896E+04  0.40052527681E+02  0.23164944462E+03  0.11301788993E+04  0.46999998093E+01 0. -1.
</event>
<event>
 5   0  0.1782660E-06  0.2185683E+04  0.7818609E-02  0.8524411E-01
        2   -1    0    0  501    0  0.00000000000E+00  0.00000000000E+00  0.98497447854E+03  0.98497447854E+03  0.25500000920E-02 0.  1.
       -2   -1    0    0    0  501  0.00000000000E+00  0.00000000000E+00 -0.12125213731E+04  0.12125213731E+04  0.25500000920E-02 0. -1.
    10030    2    1    2    0    0  0.00000000000E+00  0.00000000000E+00 -0.22754689461E+03  0.21974958517E+04  0.21856830577E+04 0.  0.
        4    1    3    3  502    0 -0.38750769428E+03 -0.13881515650E+03  0.90405617176E+03  0.99335342925E+03  0.12699999809E+01 0.  1.
       -4    1    3    3    0  502  0.38750769428E+03  0.13881515650E+03 -0.11316030664E+04  0.12041424224E+04  0.12699999809E+01 0. -1.
</event>
<event>
 5   0  0.1908726E-06  0.3474069E+04  0.7818609E-02  0.8119963E-01
        2   -1    0    0  501    0  0.00000000000E+00  0.00000000000E+00  0.19652983229E+04  0.19652983229E+04  0.25500000920E-02 0. -1.
       -2   -1    0    0    0  501  0.00000000000E+00  0.00000000000E+00 -0.15352827772E+04  0.15352827772E+04  0.25500000920E-02 0.  1.
    10030    2    1    2    0    0  0.00000000000E+00  0.00000000000E+00  0.43001554563E+03  0.35005811001E+04  0.34740688923E+04 0.  0.
        5    1    3    3  502    0 -0.13616059061E+04  0.51679130859E+02 -0.87053693729E+03  0.16169409468E+04  0.46999998093E+01 0.  1.
       -5    1    3    3    0  502  0.13616059061E+04 -0.51679130859E+02  0.13005524829E+04  0.18836401533E+04  0.46999998093E+01 0. -1.
</event>
<event>
 5   0  0.1782660E-06  0.3332301E+04  0.7818609E-02  0.8154725E-01
        2   -1    0    0  501    0  0.00000000000E+00  0.00000000000E+00  0.20071443332E+04  0.20071443332E+04  0.25500000920E-02 0. -1.
       -2   -1    0    0    0  501  0.00000000000E+00  0.00000000000E+00 -0.13830882283E+04  0.13830882283E+04  0.25500000920E-02 0.  1.
    10030    2    1    2    0    0  0.00000000000E+00  0.00000000000E+00  0.62405610487E+03  0.33902325615E+04  0.33323011267E+04 0.  0.
        4    1    3    3  502    0  0.81711996438E+02  0.14510455216E+04  0.11409601659E+04  0.18477017263E+04  0.12699999809E+01 0. -1.
       -4    1    3    3    0  502 -0.81711996438E+02 -0.14510455216E+04 -0.51690406103E+03  0.15425308352E+04  0.12699999809E+01 0.  1.
</event>
<event>
 5   0  0.1042825E-06  0.3523620E+04  0.7818609E-02  0.8108215E-01
        3   -1    0    0  501    0  0.00000000000E+00  0.00000000000E+00  0.12728555710E+04  0.12728555750E+04  0.10100000352E+00 0. -1.
       -3   -1    0    0    0  501  0.00000000000E+00  0.00000000000E+00 -0.24385912870E+04  0.24385912891E+04  0.10100000352E+00 0.  1.
    10030    2    1    2    0    0  0.00000000000E+00  0.00000000000E+00 -0.11657357160E+04  0.37114468641E+04  0.35236200228E+04 0.  0.
        5    1    3    3  502    0  0.10626035968E+04  0.14047541068E+04 -0.54218352429E+03  0.18429448089E+04  0.46999998093E+01 0.  1.
       -5    1    3    3    0  502 -0.10626035968E+04 -0.14047541068E+04 -0.62355219168E+03  0.18685020552E+04  0.46999998093E+01 0. -1.
</event>
<event>
 5   0  0.3378848E-06  0.3545643E+04  0.7818609E-02  0.8103058E-01
        2   -1    0    0  501    0  0.00000000000E+00  0.00000000000E+00  0.13997768145E+04  0.13997768145E+04  0.25500000920E-02 0.  1.
       -2   -1    0    0    0  501  0.00000000000E+00  0.00000000000E+00 -0.22452835062E+04  0.22452835062E+04  0.25500000920E-02 0. -1.
    10030    2    1    2    0    0  0.00000000000E+00  0.00000000000E+00 -0.84550669172E+03  0.36450603207E+04  0.35456428438E+04 0.  0.
        1    1    3    3  502    0 -0.15014508581E+04  0.58016873408E+03  0.34100817499E+03  0.16453683523E+04  0.50400001928E-02 0.  1.
       -1    1    3    3    0  502  0.15014508581E+04 -0.58016873408E+03 -0.11865148667E+04  0.19996919684E+04  0.50400001928E-02 0. -1.
</event>
<event>
 5   0  0.1908726E-06  0.3365522E+04  0.7818609E-02  0.8146421E-01
       -2   -1    0    0    0  501  0.00000000000E+00  0.00000000000E+00  0.13383998053E+04  0.13383998053E+04  0.25500000920E-02 0. -1.
        2   -1    0    0  501    0  0.00000000000E+00  0.00000000000E+00 -0.21157242008E+04  0.21157242008E+04  0.25500000920E-02 0.  1.
    10030    2    1    2    0    0  0.00000000000E+00  0.00000000000E+00 -0.77732439550E+03  0.34541240061E+04  0.33655221636E+04 0.  0.
        5    1    3    3  502    0 -0.51325243265E+03  0.82245906016E+03 -0.18002977870E+04  0.20447398800E+04  0.46999998093E+01 0.  1.
       -5    1    3    3    0  502  0.51325243265E+03 -0.82245906016E+03  0.10229733915E+04  0.14093841261E+04  0.46999998093E+01 0. -1.
</event>
<event>
 5   0  0.3378848E-06  0.3501451E+04  0.7818609E-02  0.8113446E-01
        2   -1    0    0  501    0  0.00000000000E+00  0.00000000000E+00  0.21266451973E+04  0.21266451973E+04  0.25500000920E-02 0.  1.
       -2   -1    0    0    0  501  0.00000000000E+00  0.00000000000E+00 -0.14412558428E+04  0.14412558428E+04  0.25500000920E-02 0. -1.
    10030    2    1    2    0    0  0.00000000000E+00  0.00000000000E+00  0.68538935456E+03  0.35679010401E+04  0.35014510227E+04 0.  0.
        1    1    3    3  502    0 -0.94548517993E+03 -0.60723036113E+03 -0.10253068563E+04  0.15211591260E+04  0.50400001928E-02 0. -1.
       -1    1    3    3    0  502  0.94548517993E+03  0.60723036113E+03  0.17106962109E+04  0.20467419141E+04  0.50400001928E-02 0.  1.
</event>
<event>
 5   0  0.1089337E-06  0.3413423E+04  0.7818609E-02  0.8134620E-01
       -1   -1    0    0    0  501  0.00000000000E+00  0.00000000000E+00  0.10744782873E+04  0.10744782873E+04  0.50400001928E-02 0. -1.
        1   -1    0    0  501    0  0.00000000000E+00  0.00000000000E+00 -0.27109565376E+04  0.27109565376E+04  0.50400001928E-02 0.  1.
    10030    2    1    2    0    0  0.00000000000E+00  0.00000000000E+00 -0.16364782502E+04  0.37854348249E+04  0.34134228789E+04 0.  0.
        2    1    3    3  502    0  0.10097218525E+03 -0.14391437106E+04 -0.18295057330E+04  0.23298972572E+04  0.25500000920E-02 0.  1.
       -2    1    3    3    0  502 -0.10097218525E+03  0.14391437106E+04  0.19302748275E+03  0.14555375677E+04  0.25500000920E-02 0. -1.
</event>
<event>
 5   0  0.1908726E-06  0.3458216E+04  0.7818609E-02  0.8123764E-01
        2   -1    0    0  501    0  0.00000000000E+00  0.00000000000E+00  0.17739664684E+04  0.17739664684E+04  0.25500000920E-02 0.  1.
       -2   -1    0    0    0  501  0.00000000000E+00  0.00000000000E+00 -0.16853840345E+04  0.16853840345E+04  0.25500000920E-02 0. -1.
    10030    2    1    2    0    0  0.00000000000E+00  0.00000000000E+00  0.88582433871E+02  0.34593505029E+04  0.34582161665E+04 0.  0.
        5    1    3    3  502    0  0.11658554035E+04  0.11352759297E+04 -0.54047081171E+03  0.17147014453E+04  0.46999998093E+01 0.  1.
       -5    1    3    3    0  502 -0.11658554035E+04 -0.11352759297E+04  0.62905324558E+03  0.17446490576E+04  0.46999998093E+01 0. -1.
</event>
<event>
 5   0  0.1089337E-06  0.1751744E+04  0.7818609E-02  0.8732391E-01
        1   -1    0    0  501    0  0.00000000000E+00  0.00000000000E+00  0.14822045573E+04  0.14822045573E+04  0.50400001928E-02 0. -1.
       -1   -1    0    0    0  501  0.00000000000E+00  0.00000000000E+00 -0.51757493616E+03  0.51757493619E+03  0.50400001928E-02 0.  1.
    10030    2    1    2    0    0  0.00000000000E+00  0.00000000000E+00  0.96462962115E+03  0.19997794935E+04  0.17517441927E+04 0.  0.
        2    1    3    3  502    0 -0.18342560599E+03 -0.70505144687E+03  0.10373797875E+04  0.12676353258E+04  0.25500000920E-02 0. -1.
       -2    1    3    3    0  502  0.18342560599E+03  0.70505144687E+03 -0.72750166321E+02  0.73214416775E+03  0.25500000920E-02 0.  1.
</event>
<event>
 5   0  0.1782660E-06  0.3506094E+04  0.7818609E-02  0.8112347E-01
        2   -1    0    0  501    0  0.00000000000E+00  0.00000000000E+00  0.24406762614E+04  0.24406762615E+04  0.25500000920E-02 0.  1.
       -2   -1    0    0    0  501  0.00000000000E+00  0.00000000000E+00 -0.12591487214E+04  0.12591487214E+04  0.25500000920E-02 0. -1.
    10030    2    1    2    0    0  0.00000000000E+00  0.00000000000E+00  0.11815275401E+04  0.36998249828E+04  0.35060943478E+04 0.  0.
        4    1    3    3  502    0  0.47842079116E+03 -0.69604359858E+02  0.23689369248E+04  0.24177665286E+04  0.12699999809E+01 0.  1.
       -4    1    3    3    0  502 -0.47842079116E+03  0.69604359858E+02 -0.11874093847E+04  0.12820584542E+04  0.12699999809E+01 0. -1.
</event>
<event>
 5   0  0.1089337E-06  0.3647353E+04  0.7818609E-02  0.8079730E-01
       -1   -1    0    0    0  501  0.00000000000E+00  0.00000000000E+00  0.27889810528E+04  0.27889810528E+04  0.50400001928E-02 0.  1.
        1   -1    0    0  501    0  0.00000000000E+00  0.00000000000E+00 -0.11924773326E+04  0.11924773326E+04  0.50400001928E-02 0. -1.
    10030    2    1    2    0    0  0.00000000000E+00  0.00000000000E+00  0.15965037202E+04  0.39814583855E+04  0.36473533893E+04 0.  0.
        2    1    3    3  502    0  0.18097721755E+03  0.15269508495E+04  0.18686148522E+04  0.24199283287E+04  0.25500000920E-02 0.  1.
       -2    1    3    3    0  502 -0.18097721755E+03 -0.15269508495E+04 -0.27211113195E+03  0.15615300568E+04  0.25500000920E-02 0. -1.
</event>
<event>
 5   0  0.1908726E-06  0.1728651E+04  0.7818609E-02  0.8745190E-01
        2   -1    0    0  501    0  0.00000000000E+00  0.00000000000E+00  0.13107123246E+04  0.13107123246E+04  0.25500000920E-02 0.  1.
       -2   -1    0    0    0  501  0.00000000000E+00  0.00000000000E+00 -0.56996366608E+03  0.56996366609E+03  0.25500000920E-02 0. -1.
    10030    2    1    2    0    0  0.00000000000E+00  0.00000000000E+00  0.74074865856E+03  0.18806759907E+04  0.17286508054E+04 0.  0.
        5    1    3    3  502    0 -0.50290265392E+03  0.41739208763E+03  0.98572118985E+03  0.11827068903E+04  0.46999998093E+01 0.  1.
       -5    1    3    3    0  502  0.50290265392E+03 -0.41739208763E+03 -0.24497253129E+03  0.69796910048E+03  0.46999998093E+01 0. -1.
</event>
<event>
 5   0  0.3041329E-06  0.2576221E+04  0.7818609E-02  0.8376324E-01
        2   -1    0    0  501    0  0.00000000000E+00  0.00000000000E+00  0.16887188676E+04  0.16887188676E+04  0.25500000920E-02 0.  1.
       -2   -1    0    0    0  501  0.00000000000E+00  0.00000000000E+00 -0.98253655813E+03  0.98253655813E+03  0.25500000920E-02 0. -1.
    10030    2    1    2    0    0  0.00000000000E+00  0.00000000000E+00  0.70618230946E+03  0.26712554257E+04  0.25762205059E+04 0.  0.
        2    1    3    3  502    0  0.62593201930E+03  0.37774678975E+02  0.15197690989E+04  0.16440547233E+04  0.25500000920E-02 0.  1.
       -2    1    3    3    0  502 -0.62593201930E+03 -0.37774678975E+02 -0.81358678943E+03  0.10272007024E+04  0.25500000920E-02 0. -1.
</event>
<event>
 5   0  0.3041329E-06  0.3639080E+04  0.7818609E-02  0.8081598E-01
       -2   -1    0    0    0  501  0.00000000000E+00  0.00000000000E+00  0.11123790965E+04  0.11123790965E+04  0.25500000920E-02 0. -1.
        2   -1    0    0  501    0  0.00000000000E+00  0.00000000000E+00 -0.29762560236E+04  0.29762560236E+04  0.25500000920E-02 0.  1.
    10030    2    1    2    0    0  0.00000000000E+00  0.00000000000E+00 -0.18638769271E+04  0.40886351201E+04  0.36390795465E+04 0.  0.
        2    1    3    3  502    0 -0.15532724642E+04 -0.59195049234E+03 -0.17634035223E+04  0.24233556725E+04  0.25500000920E-02 0.  1.
       -2    1    3    3    0  502  0.15532724642E+04  0.59195049234E+03 -0.10047340485E+03  0.16652794476E+04  0.25500000920E-02 0. -1.
</event>
<event>
 5   0  0.1102175E-06  0.2642777E+04  0.7818609E-02  0.8353814E-01
        1   -1    0    0  501    0  0.00000000000E+00  0.00000000000E+00  0.10457017758E+04  0.10457017758E+04  0.50400001928E-02 0.  1.
       -1   -1    0    0    0  501  0.00000000000E+00  0.00000000000E+00 -0.16697567761E+04  0.16697567761E+04  0.50400001928E-02 0. -1.
    10030    2    1    2    0    0  0.00000000000E+00  0.00000000000E+00 -0.62405500031E+03  0.27154585520E+04  0.26427770440E+04 0.  0.
        5    1    3    3  502    0  0.49139370615E+03  0.48652394611E+03  0.84493796095E+03  0.10918404519E+04  0.46999998093E+01 0.  1.
       -5    1    3    3    0  502 -0.49139370615E+03 -0.48652394611E+03 -0.14689929613E+04  0.16236181001E+04  0.46999998093E+01 0. -1.
</event>
<event>
 5   0  0.2565004E-06  0.3454466E+04  0.7818609E-02  0.8124666E-01
        2   -1    0    0  501    0  0.00000000000E+00  0.00000000000E+00  0.25764944022E+04  0.25764944022E+04  0.25500000920E-02 0. -1.
       -2   -1    0    0    0  501  0.00000000000E+00  0.00000000000E+00 -0.11579042843E+04  0.11579042843E+04  0.25500000920E-02 0.  1.
    10030    2    1    2    0    0  0.00000000000E+00  0.00000000000E+00  0.14185901179E+04  0.37343986865E+04  0.34544660408E+04 0.  0.
        3    1    3    3  502    0 -0.90682702399E+03  0.42059332403E+03  0.22320202119E+04  0.24456386144E+04  0.10100000352E+00 0. -1.
       -3    1    3    3    0  502  0.90682702399E+03 -0.42059332403E+03 -0.81343009394E+03  0.12887600722E+04  0.10100000352E+00 0.  1.
</event>
<event>
 5   0  0.1782660E-06  0.3178807E+04  0.7818609E-02  0.8194437E-01
       -2   -1    0    0    0  501  0.00000000000E+00  0.00000000000E+00  0.14052047167E+04  0.14052047167E+04  0.25500000920E-02 0.  1.
        2   -1    0    0  501    0  0.00000000000E+00  0.00000000000E+00 -0.17977479017E+04  0.17977479017E+04  0.25500000920E-02 0. -1.
    10030    2    1    2    0    0  0.00000000000E+00  0.00000000000E+00 -0.39254318500E+03  0.32029526183E+04  0.31788072171E+04 0.  0.
        4    1    3    3  502    0 -0.15888456850E+04 -0.20382714212E+02 -0.23337728374E+03  0.16060238589E+04  0.12699999809E+01 0. -1.
       -4    1    3    3    0  502  0.15888456850E+04  0.20382714212E+02 -0.15916590127E+03  0.15969287595E+04  0.12699999809E+01 0.  1.
</event>
<event>
 5   0  0.1125196E-06  0.3143154E+04  0.7818609E-02  0.8203994E-01
        1   -1    0    0  501    0  0.00000000000E+00  0.00000000000E+00  0.24532057749E+04  0.24532057749E+04  0.50400001928E-02 0. -1.
       -1   -1    0    0    0  501  0.00000000000E+00  0.00000000000E+00 -0.10067861651E+04  0.10067861651E+04  0.50400001928E-02 0.  1.
    10030    2    1    2    0    0  0.00000000000E+00  0.00000000000E+00  0.14464196098E+04  0.34599919401E+04  0.31431535976E+04 0.  0.
        4    1    3    3  502    0  0.88223484950E+03 -0.12712108936E+04  0.10257534760E+04  0.18564717267E+04  0.12699999809E+01 0. -1.
       -4    1    3    3    0  502 -0.88223484950E+03  0.12712108936E+04  0.42066613380E+03  0.16035202134E+04  0.12699999809E+01 0.  1.
</event>
<event>
 5   0  0.1782660E-06  0.3250642E+04  0.7818609E-02  0.8175569E-01
       -2   -1    0    0    0  501  0.00000000000E+00  0.00000000000E+00  0.15096829023E+04  0.15096829024E+04  0.25500000920E-02 0. -1.
        2   -1    0    0  501    0  0.00000000000E+00  0.00000000000E+00 -0.17498167000E+04  0.17498167000E+04  0.25500000920E-02 0.  1.
    10030    2    1    2    0    0  0.00000000000E+00  0.00000000000E+00 -0.24013379769E+03  0.32594996024E+04  0.32506420008E+04 0.  0.
        4    1    3    3  502    0 -0.12064235096E+04  0.10859071303E+04 -0.36084507284E+02  0.16235626519E+04  0.12699999809E+01 0. -1.
       -4    1    3    3    0  502  0.12064235096E+04 -0.10859071303E+04 -0.20404929040E+03  0.16359369505E+04  0.12699999809E+01 0.  1.
</event>
<event>
 5   0  0.2565004E-06  0.3423744E+04  0.7818609E-02  0.8132103E-01
        2   -1    0    0  501    0  0.00000000000E+00  0.00000000000E+00  0.27379812750E+04  0.27379812750E+04  0.25500000920E-02 0. -1.
       -2   -1    0    0    0  501  0.00000000000E+00  0.00000000000E+00 -0.10703159021E+04  0.10703159021E+04  0.25500000920E-02 0.  1.
    10030    2    1    2    0    0  0.00000000000E+00  0.00000000000E+00  0.16676653729E+04  0.38082971772E+04  0.34237435058E+04 0.  0.
        3    1    3    3  502    0 -0.14814103627E+04  0.20194722941E+01  0.17880474594E+04  0.23220022542E+04  0.10100000352E+00 0. -1.
       -3    1    3    3    0  502  0.14814103627E+04 -0.20194722941E+01 -0.12038208654E+03  0.14862949230E+04  0.10100000352E+00 0.  1.
</event>
<event>
 5   0  0.3378848E-06  0.3476998E+04  0.7818609E-02  0.8119263E-01
       -2   -1    0    0    0  501  0.00000000000E+00  0.00000000000E+00  0.14510810349E+04  0.14510810349E+04  0.25500000920E-02 0. -1.
        2   -1    0    0  501    0  0.00000000000E+00  0.00000000000E+00 -0.20828463473E+04  0.20828463473E+04  0.25500000920E-02 0.  1.
    10030    2    1    2    0    0  0.00000000000E+00  0.00000000000E+00 -0.63176531237E+03  0.35339273822E+04  0.34769980346E+04 0.  0.
        1    1    3    3  502    0 -0.17636858894E+02  0.11250581843E+04 -0.16628404651E+04  0.20077612879E+04  0.50400001928E-02 0.  1.
       -1    1    3    3    0  502  0.17636858894E+02 -0.11250581843E+04  0.10310751527E+04  0.15261660943E+04  0.50400001928E-02 0. -1.
</event>
<event>
 5   0  0.1089337E-06  0.3363507E+04  0.7818609E-02  0.8146921E-01
        1   -1    0    0  501    0  0.00000000000E+00  0.00000000000E+00  0.29112798790E+04  0.29112798790E+04  0.50400001928E-02 0. -1.
       -1   -1    0    0    0  501  0.00000000000E+00  0.00000000000E+00 -0.97149555261E+03  0.97149555262E+03  0.50400001928E-02 0.  1.
    10030    2    1    2    0    0  0.00000000000E+00  0.00000000000E+00  0.19397843264E+04  0.38827754316E+04  0.33635073687E+04 0.  0.
        2    1    3    3  502    0 -0.52205846899E+03 -0.76314629166E+03 -0.65174185399E+03  0.11312403599E+04  0.25500000920E-02 0.  1.
       -2    1    3    3    0  502  0.52205846899E+03  0.76314629166E+03  0.25915261804E+04  0.27515350717E+04  0.25500000920E-02 0. -1.
</event>
<event>
 5   0  0.1908726E-06  0.3487782E+04  0.7818609E-02  0.8116692E-01
       -2   -1    0    0    0  501  0.00000000000E+00  0.00000000000E+00  0.14310935926E+04  0.14310935926E+04  0.25500000920E-02 0.  1.
        2   -1    0    0  501    0  0.00000000000E+00  0.00000000000E+00 -0.21250567097E+04  0.21250567097E+04  0.25500000920E-02 0. -1.
    10030    2    1    2    0    0  0.00000000000E+00  0.00000000000E+00 -0.69396311717E+03  0.35561503023E+04  0.34877815535E+04 0.  0.
        5    1    3    3  502    0  0.69582953092E+03 -0.14775200121E+04  0.27646908370E+03  0.16564121970E+04  0.46999998093E+01 0.  1.
       -5    1    3    3    0  502 -0.69582953092E+03  0.14775200121E+04 -0.97043220087E+03  0.18997381053E+04  0.46999998093E+01 0. -1.
</event>
<event>
 5   0  0.1908726E-06  0.3563147E+04  0.7818609E-02  0.8098986E-01
        2   -1    0    0  501    0  0.00000000000E+00  0.00000000000E+00  0.20783702047E+04  0.20783702047E+04  0.25500000920E-02 0.  1.
       -2   -1    0    0    0  501  0.00000000000E+00  0.00000000000E+00 -0.15271598690E+04  0.15271598690E+04  0.25500000920E-02 0. -1.
    10030    2    1    2    0    0  0.00000000000E+00  0.00000000000E+00  0.55121033568E+03  0.36055300737E+04  0.35631466821E+04 0.  0.
        5    1    3    3  502    0 -0.13405544958E+04 -0.56647599029E+03 -0.76423693035E+03  0.16437948715E+04  0.46999998093E+01 0. -1.
       -5    1    3    3    0  502  0.13405544958E+04  0.56647599029E+03  0.13154472660E+04  0.19617352022E+04  0.46999998093E+01 0.  1.
</event>
<event>
 5   0  0.3041329E-06  0.3486244E+04  0.7818609E-02  0.8117058E-01
       -2   -1    0    0    0  501  0.00000000000E+00  0.00000000000E+00  0.15415837347E+04  0.15415837347E+04  0.25500000920E-02 0. -1.
        2   -1    0    0  501    0  0.00000000000E+00  0.00000000000E+00 -0.19710082068E+04  0.19710082068E+04  0.25500000920E-02 0.  1.
    10030    2    1    2    0    0  0.00000000000E+00  0.00000000000E+00 -0.42942447214E+03  0.35125919415E+04  0.34862439344E+04 0.  0.
        2    1    3    3  502    0  0.34465524333E+03 -0.14719751062E+04  0.65958794005E+03  0.16494102584E+04  0.25500000920E-02 0. -1.
       -2    1    3    3    0  502 -0.34465524333E+03  0.14719751062E+04 -0.10890124122E+04  0.18631816830E+04  0.25500000920E-02 0.  1.
</event>
<event>
 5   0  0.1782660E-06  0.3596978E+04  0.7818609E-02  0.8091184E-01
        2   -1    0    0  501    0  0.00000000000E+00  0.00000000000E+00  0.28991192478E+04  0.28991192478E+04  0.25500000920E-02 0.  1.
       -2   -1    0    0    0  501  0.00000000000E+00  0.00000000000E+00 -0.11157050602E+04  0.11157050602E+04  0.25500000920E-02 0. -1.
    10030    2    1    2    0    0  0.00000000000E+00  0.00000000000E+00  0.17834141877E+04  0.40148243080E+04  0.35969776284E+04 0.  0.
        4    1    3    3  502    0  0.28400708253E+03 -0.84675110861E+03 -0.85069672872E+03  0.12334236904E+04  0.12699999809E+01 0. -1.
       -4    1    3    3    0  502 -0.28400708253E+03  0.84675110861E+03  0.26341109164E+04  0.27814006176E+04  0.12699999809E+01 0.  1.
</event>
<event>
 5   0  0.2565004E-06  0.3317950E+04  0.7818609E-02  0.8158343E-01
        2   -1    0    0  501    0  0.00000000000E+00  0.00000000000E+00  0.22761254962E+04  0.22761254962E+04  0.25500000920E-02 0.  1.
       -2   -1    0    0    0  501  0.00000000000E+00  0.00000000000E+00 -0.12091591182E+04  0.12091591182E+04  0.25500000920E-02 0. -1.
    10030    2    1    2    0    0  0.00000000000E+00  0.00000000000E+00  0.10669663780E+04  0.34852846144E+04  0.33179499080E+04 0.  0.
        3    1    3    3  502    0  0.31261706770E+02 -0.20703205711E+03 -0.11952241866E+04  0.12134250836E+04  0.10100000352E+00 0. -1.
       -3    1    3    3    0  502 -0.31261706770E+02  0.20703205711E+03  0.22621905646E+04  0.22718595308E+04  0.10100000352E+00 0.  1.
</event>
<event>
 5   0  0.1589423E-06  0.1768080E+04  0.7818609E-02  0.8723461E-01
        1   -1    0    0  501    0  0.00000000000E+00  0.00000000000E+00  0.81490194610E+03  0.81490194612E+03  0.50400001928E-02 0.  1.
       -1   -1    0    0    0  501  0.00000000000E+00  0.00000000000E+00 -0.95904377007E+03  0.95904377009E+03  0.50400001928E-02 0. -1.
    10030    2    1    2    0    0  0.00000000000E+00  0.00000000000E+00 -0.14414182397E+03  0.17739457162E+04  0.17680799017E+04 0.  0.
        2    1    3    3  502    0 -0.32528337002E+03 -0.17646792744E+03  0.73344783168E+03  0.82152049398E+03  0.25500000920E-02 0.  1.
       -2    1    3    3    0  502  0.32528337002E+03  0.17646792744E+03 -0.87758965565E+03  0.95242522223E+03  0.25500000920E-02 0. -1.
</event>
<event>
 5   0  0.1908726E-06  0.3331995E+04  0.7818609E-02  0.8154802E-01
        2   -1    0    0  501    0  0.00000000000E+00  0.00000000000E+00  0.18208381506E+04  0.18208381506E+04  0.25500000920E-02 0. -1.
       -2   -1    0    0    0  501  0.00000000000E+00  0.00000000000E+00 -0.15243239021E+04  0.15243239021E+04  0.25500000920E-02 0.  1.
    10030    2    1    2    0    0  0.00000000000E+00  0.00000000000E+00  0.29651424848E+03  0.33451620527E+04  0.33319946667E+04 0.  0.
        5    1    3    3  502    0 -0.12700840597E+04 -0.10778309513E+04  0.17466595188E+03  0.16749218976E+04  0.46999998093E+01 0. -1.
       -5    1    3    3    0  502  0.12700840597E+04  0.10778309513E+04  0.12184829660E+03  0.16702401551E+04  0.46999998093E+01 0.  1.
</event>
<event>
 5   0  0.3041329E-06  0.3178713E+04  0.7818609E-02  0.8194462E-01
        2   -1    0    0  501    0  0.00000000000E+00  0.00000000000E+00  0.18741925340E+04  0.18741925340E+04  0.25500000920E-02 0.  1.
       -2   -1    0    0    0  501  0.00000000000E+00  0.00000000000E+00 -0.13478094178E+04  0.13478094178E+04  0.25500000920E-02 0. -1.
    10030    2    1    2    0    0  0.00000000000E+00  0.00000000000E+00  0.52638311624E+03  0.32220019518E+04  0.31787131661E+04 0.  0.
        2    1    3    3  502    0 -0.14966435617E+03 -0.86921380085E+03  0.16033630164E+04  0.18299467243E+04  0.25500000920E-02 0.  1.
       -2    1    3    3    0  502  0.14966435617E+03  0.86921380085E+03 -0.10769799002E+04  0.13920552276E+04  0.25500000920E-02 0. -1.
</event>
<event>
 5   0  0.1782660E-06  0.3654589E+04  0.7818609E-02  0.8078101E-01
       -2   -1    0    0    0  501  0.00000000000E+00  0.00000000000E+00  0.18335803618E+04  0.18335803618E+04  0.25500000920E-02 0. -1.
        2   -1    0    0  501    0  0.00000000000E+00  0.00000000000E+00 -0.18210297464E+04  0.18210297464E+04  0.25500000920E-02 0.  1.
    10030    2    1    2    0    0  0.00000000000E+00  0.00000000000E+00  0.12550615417E+02  0.36546101083E+04  0.36545885576E+04 0.  0.
        4    1    3    3  502    0 -0.14010801877E+04 -0.10814395106E+04  0.46066291311E+03  0.18288655063E+04  0.12699999809E+01 0.  1.
       -4    1    3    3    0  502  0.14010801877E+04  0.10814395106E+04 -0.44811229770E+03  0.18257446020E+04  0.12699999809E+01 0. -1.
</event>
<event>
 5   0  0.1789576E-06  0.1784115E+04  0.7818609E-02  0.8714793E-01
        2   -1    0    0  501    0  0.00000000000E+00  0.00000000000E+00  0.86150503341E+03  0.86150503341E+03  0.25500000920E-02 0. -1.
       -2   -1    0    0    0  501  0.00000000000E+00  0.00000000000E+00 -0.92369344810E+03  0.92369344810E+03  0.25500000920E-02 0.  1.
    10030    2    1    2    0    0  0.00000000000E+00  0.00000000000E+00 -0.62188414686E+02  0.17851984815E+04  0.17841149681E+04 0.  0.
        4    1    3    3  502    0  0.22574347581E+03 -0.45761450479E+03 -0.76324466258E+03  0.91810412248E+03  0.12699999809E+01 0.  1.
       -4    1    3    3    0  502 -0.22574347581E+03  0.45761450479E+03  0.70105624789E+03  0.86709435903E+03  0.12699999809E+01 0. -1.
</event>
<event>
 5   0  0.1908726E-06  0.2765679E+04  0.7818609E-02  0.8314004E-01
       -2   -1    0    0    0  501  0.00000000000E+00  0.00000000000E+00  0.10938129115E+04  0.10938129115E+04  0.25500000920E-02 0.  1.
        2   -1    0    0  501    0  0.00000000000E+00  0.00000000000E+00 -0.17482372236E+04  0.17482372236E+04  0.25500000920E-02 0. -1.
    10030    2    1    2    0    0  0.00000000000E+00  0.00000000000E+00 -0.65442431207E+03  0.28420501351E+04  0.27656785406E+04 0.  0.
        5    1    3    3  502    0  0.13292614381E+04 -0.35858121515E+03 -0.46003260902E+03  0.14516089522E+04  0.46999998093E+01 0. -1.
       -5    1    3    3    0  502 -0.13292614381E+04  0.35858121515E+03 -0.19439170305E+03  0.13904411829E+04  0.46999998093E+01 0.  1.
</event>
<event>
 5   0  0.2565004E-06  0.3444059E+04  0.7818609E-02  0.8127177E-01
        2   -1    0    0  501    0  0.00000000000E+00  0.00000000000E+00  0.92442000948E+03  0.92442000948E+03  0.25500000920E-02 0.  1.
       -2   -1    0    0    0  501  0.00000000000E+00  0.00000000000E+00 -0.32078335516E+04  0.32078335516E+04  0.25500000920E-02 0. -1.
    10030    2    1    2    0    0  0.00000000000E+00  0.00000000000E+00 -0.22834135421E+04  0.41322535611E+04  0.34440589555E+04 0.  0.
        3    1    3    3  502    0 -0.11098966108E+04 -0.10478822491E+04 -0.20981512155E+04  0.25946418304E+04  0.10100000352E+00 0.  1.
       -3    1    3    3    0  502  0.11098966108E+04  0.10478822491E+04 -0.18526232660E+03  0.15376117307E+04  0.10100000352E+00 0. -1.
</event>
<event>
 5   0  0.1908726E-06  0.3456709E+04  0.7818609E-02  0.8124127E-01
        2   -1    0    0  501    0  0.00000000000E+00  0.00000000000E+00  0.15999403267E+04  0.15999403267E+04  0.25500000920E-02 0.  1.
       -2   -1    0    0    0  501  0.00000000000E+00  0.00000000000E+00 -0.18670753592E+04  0.18670753592E+04  0.25500000920E-02 0. -1.
    10030    2    1    2    0    0  0.00000000000E+00  0.00000000000E+00 -0.26713503254E+03  0.34670156859E+04  0.34567089321E+04 0.  0.
        5    1    3    3  502    0  0.19101142080E+02  0.16310469144E+04 -0.70668020977E+03  0.17776664197E+04  0.46999998093E+01 0. -1.
       -5    1    3    3    0  502 -0.19101142080E+02 -0.16310469144E+04  0.43954517724E+03  0.16893492663E+04  0.46999998093E+01 0.  1.
</event>
<event>
 5   0  0.1089337E-06  0.3474690E+04  0.7818609E-02  0.8119814E-01
        1   -1    0    0  501    0  0.00000000000E+00  0.00000000000E+00  0.24875915039E+04  0.24875915039E+04  0.50400001928E-02 0.  1.
       -1   -1    0    0    0  501  0.00000000000E+00  0.00000000000E+00 -0.12133694078E+04  0.12133694079E+04  0.50400001928E-02 0. -1.
    10030    2    1    2    0    0  0.00000000000E+00  0.00000000000E+00  0.12742220960E+04  0.37009609117E+04  0.34746898740E+04 0.  0.
        2    1    3    3  502    0  0.11692204818E+04  0.48183722950E+03  0.19059560937E+04  0.22873373782E+04  0.25500000920E-02 0.  1.
       -2    1    3    3    0  502 -0.11692204818E+04 -0.48183722950E+03 -0.63173399766E+03  0.14136235335E+04  0.25500000920E-02 0. -1.
</event>
<event>
 5   0  0.1102175E-06  0.3351597E+04  0.7818609E-02  0.8149889E-01
        1   -1    0    0  501    0  0.00000000000E+00  0.00000000000E+00  0.22647003993E+04  0.22647003993E+04  0.50400001928E-02 0. -1.
       -1   -1    0    0    0  501  0.00000000000E+00  0.00000000000E+00 -0.12400317382E+04  0.12400317382E+04  0.50400001928E-02 0.  1.
    10030    2    1    2    0    0  0.00000000000E+00  0.00000000000E+00  0.10246686611E+04  0.35047321375E+04  0.33515968568E+04 0.  0.
        5    1    3    3  502    0  0.13010683975E+04  0.36182164549E+01  0.16167566139E+04  0.20752629002E+04  0.46999998093E+01 0. -1.
       -5    1    3    3    0  502 -0.13010683975E+04 -0.36182164549E+01 -0.59208795281E+03  0.14294692373E+04  0.46999998093E+01 0.  1.
</event>
<event>
 5   0  0.1089337E-06  0.3549678E+04  0.7818609E-02  0.8102117E-01
       -1   -1    0    0    0  501  0.00000000000E+00  0.00000000000E+00  0.19391398140E+04  0.19391398140E+04  0.50400001928E-02 0. -1.
        1   -1    0    0  501    0  0.00000000000E+00  0.00000000000E+00 -0.16244593023E+04  0.16244593023E+04  0.50400001928E-02 0.  1.
    10030    2    1    2    0    0  0.00000000000E+00  0.00000000000E+00  0.31468051176E+03  0.35635991163E+04  0.35496781315E+04 0.  0.
        2    1    3    3  502    0 -0.10258525207E+04 -0.26840311013E+02 -0.12964271638E+04  0.16534258941E+04  0.25500000920E-02 0.  1.
       -2    1    3    3    0  502  0.10258525207E+04  0.26840311013E+02  0.16111076755E+04  0.19101732221E+04  0.25500000920E-02 0. -1.
</event>
<event>
 5   0  0.1908726E-06  0.3537781E+04  0.7818609E-02  0.8104894E-01
        2   -1    0    0  501    0  0.00000000000E+00  0.00000000000E+00  0.22279413831E+04  0.22279413831E+04  0.25500000920E-02 0.  1.
       -2   -1    0    0    0  501  0.00000000000E+00  0.00000000000E+00 -0.14044234740E+04  0.14044234740E+04  0.25500000920E-02 0. -1.
    10030    2    1    2    0    0  0.00000000000E+00  0.00000000000E+00  0.82351790907E+03  0.36323648571E+04  0.35377807604E+04 0.  0.
        5    1    3    3  502    0  0.11468881408E+04  0.13400066266E+04  0.54943694187E+03  0.18473963326E+04  0.46999998093E+01 0.  1.
       -5    1    3    3    0  502 -0.11468881408E+04 -0.13400066266E+04  0.27408096720E+03  0.17849685245E+04  0.46999998093E+01 0. -1.
</event>
<event>
 5   0  0.1130707E-06  0.3554787E+04  0.7818609E-02  0.8100927E-01
        1   -1    0    0  501    0  0.00000000000E+00  0.00000000000E+00  0.12953970824E+04  0.12953970824E+04  0.50400001928E-02 0. -1.
       -1   -1    0    0    0  501  0.00000000000E+00  0.00000000000E+00 -0.24387329522E+04  0.24387329522E+04  0.50400001928E-02 0.  1.
    10030    2    1    2    0    0  0.00000000000E+00  0.00000000000E+00 -0.11433358698E+04  0.37341300346E+04  0.35547869421E+04 0.  0.
        3    1    3    3  502    0 -0.98028162237E+03  0.78831605648E+03 -0.18906988603E+04  0.22709329481E+04  0.10100000352E+00 0.  1.
       -3    1    3    3    0  502  0.98028162237E+03 -0.78831605648E+03  0.74736299051E+03  0.14631970865E+04  0.10100000352E+00 0. -1.
</event>
<event>
 5   0  0.1102175E-06  0.3468890E+04  0.7818609E-02  0.8121202E-01
       -1   -1    0    0    0  501  0.00000000000E+00  0.00000000000E+00  0.30444396168E+04  0.30444396168E+04  0.50400001928E-02 0. -1.
        1   -1    0    0  501    0  0.00000000000E+00  0.00000000000E+00 -0.98812916627E+03  0.98812916628E+03  0.50400001928E-02 0.  1.
    10030    2    1    2    0    0  0.00000000000E+00  0.00000000000E+00  0.20563104506E+04  0.40325687831E+04  0.34688900705E+04 0.  0.
        5    1    3    3  502    0 -0.31112059708E+03  0.13086291048E+04  0.23010592095E+04  0.26653708439E+04  0.46999998093E+01 0. -1.
       -5    1    3    3    0  502  0.31112059708E+03 -0.13086291048E+04 -0.24474875899E+03  0.13671979392E+04  0.46999998093E+01 0.  1.
</event>
<event>
 5   0  0.1125196E-06  0.1791055E+04  0.7818609E-02  0.8711071E-01
       -1   -1    0    0    0  501  0.00000000000E+00  0.00000000000E+00  0.15153068830E+04  0.15153068830E+04  0.50400001928E-02 0. -1.
        1   -1    0    0  501    0  0.00000000000E+00  0.00000000000E+00 -0.52924577497E+03  0.52924577499E+03  0.50400001928E-02 0.  1.
    10030    2    1    2    0    0  0.00000000000E+00  0.00000000000E+00  0.98606110801E+03  0.20445526580E+04  0.17910552930E+04 0.  0.
        4    1    3    3  502    0 -0.30513255346E+03 -0.11949028068E+03  0.14444057051E+04  0.14811121687E+04  0.12699999809E+01 0. -1.
       -4    1    3    3    0  502  0.30513255346E+03  0.11949028068E+03 -0.45834459712E+03  0.56344048929E+03  0.12699999809E+01 0.  1.
</event>
<event>
 5   0  0.3378848E-06  0.3580115E+04  0.7818609E-02  0.8095062E-01
        2   -1    0    0  501    0  0.00000000000E+00  0.00000000000E+00  0.19961588493E+04  0.19961588493E+04  0.25500000920E-02 0. -1.
       -2   -1    0    0    0  501  0.00000000000E+00  0.00000000000E+00 -0.16052361788E+04  0.16052361788E+04  0.25500000920E-02 0.  1.
    10030    2    1    2    0    0  0.00000000000E+00  0.00000000000E+00  0.39092267048E+03  0.36013950282E+04  0.35801153075E+04 0.  0.
        1    1    3    3  502    0  0.23662074813E+03  0.17362818447E+04  0.56320554900E+03  0.18406152540E+04  0.50400001928E-02 0. -1.
       -1    1    3    3    0  502 -0.23662074813E+03 -0.17362818447E+04 -0.17228287852E+03  0.17607797742E+04  0.50400001928E-02 0.  1.
</event>
<event>
 5   0  0.1125196E-06  0.3188459E+04  0.7818609E-02  0.8191872E-01
       -1   -1    0    0    0  501  0.00000000000E+00  0.00000000000E+00  0.12394268206E+04  0.12394268206E+04  0.50400001928E-02 0. -1.
        1   -1    0    0  501    0  0.00000000000E+00  0.00000000000E+00 -0.20505994971E+04  0.20505994971E+04  0.50400001928E-02 0.  1.
    10030    2    1    2    0    0  0.00000000000E+00  0.00000000000E+00 -0.81117267654E+03  0.32900263177E+04  0.31884591984E+04 0.  0.
        4    1    3    3  502    0 -0.11772166481E+04 -0.44498477056E+03  0.60421713790E+03  0.13960409898E+04  0.12699999809E+01 0. -1.
       -4    1    3    3    0  502  0.11772166481E+04  0.44498477056E+03 -0.14153898144E+04  0.18939853279E+04  0.12699999809E+01 0.  1.
</event>
<event>
 5   0  0.1782660E-06  0.3475393E+04  0.7818609E-02  0.8119646E-01
        2   -1    0    0  501    0  0.00000000000E+00  0.00000000000E+00  0.20465350918E+04  0.20465350918E+04  0.25500000920E-02 0.  1.
       -2   -1    0    0    0  501  0.00000000000E+00  0.00000000000E+00 -0.14754639521E+04  0.14754639521E+04  0.25500000920E-02 0. -1.
    10030    2    1    2    0    0  0.00000000000E+00  0.00000000000E+00  0.57107113967E+03  0.35219990439E+04  0.34753927863E+04 0.  0.
        4    1    3    3  502    0  0.10777570900E+04  0.91648543140E+03  0.13080667459E+04  0.19267968538E+04  0.12699999809E+01 0.  1.
       -4    1    3    3    0  502 -0.10777570900E+04 -0.91648543140E+03 -0.73699560627E+03  0.15952021902E+04  0.12699999809E+01 0. -1.
</event>
<event>
 5   0  0.3378848E-06  0.2208211E+04  0.7818609E-02  0.8515018E-01
        2   -1    0    0  501    0  0.00000000000E+00  0.00000000000E+00  0.14171701934E+04  0.14171701934E+04  0.25500000920E-02 0.  1.
       -2   -1    0    0    0  501  0.00000000000E+00  0.00000000000E+00 -0.86019944623E+03  0.86019944623E+03  0.25500000920E-02 0. -1.
    10030    2    1    2    0    0  0.00000000000E+00  0.00000000000E+00  0.55697074716E+03  0.22773696396E+04  0.22082110547E+04 0.  0.
        1    1    3    3  502    0 -0.39584058454E+03 -0.29036738421E+03 -0.74144985846E+03  0.88924174375E+03  0.50400001928E-02 0. -1.
       -1    1    3    3    0  502  0.39584058454E+03  0.29036738421E+03  0.12984206056E+04  0.13881278959E+04  0.50400001928E-02 0.  1.
</event>
<event>
 5   0  0.3041329E-06  0.3440576E+04  0.7818609E-02  0.8128019E-01
        2   -1    0    0  501    0  0.00000000000E+00  0.00000000000E+00  0.26804894074E+04  0.26804894074E+04  0.25500000920E-02 0.  1.
       -2   -1    0    0    0  501  0.00000000000E+00  0.00000000000E+00 -0.11040488595E+04  0.11040488595E+04  0.25500000920E-02 0. -1.
    10030    2    1    2    0    0  0.00000000000E+00  0.00000000000E+00  0.15764405479E+04  0.37845382669E+04  0.34405762733E+04 0.  0.
        2    1    3    3  502    0 -0.12368431341E+04  0.82263034228E+03 -0.16621696484E+03  0.14947005379E+04  0.25500000920E-02 0. -1.
       -2    1    3    3    0  502  0.12368431341E+04 -0.82263034228E+03  0.17426575127E+04  0.22898377290E+04  0.25500000920E-02 0.  1.
</event>
<event>
 5   0  0.1110956E-06  0.3568767E+04  0.7818609E-02  0.8097684E-01
       -1   -1    0    0    0  501  0.00000000000E+00  0.00000000000E+00  0.10920880874E+04  0.10920880874E+04  0.50400001928E-02 0. -1.
        1   -1    0    0  501    0  0.00000000000E+00  0.00000000000E+00 -0.29155379247E+04  0.29155379247E+04  0.50400001928E-02 0.  1.
    10030    2    1    2    0    0  0.00000000000E+00  0.00000000000E+00 -0.18234498373E+04  0.40076260121E+04  0.35687668660E+04 0.  0.
        1    1    3    3  502    0 -0.86874795802E+03 -0.10452768892E+04 -0.22100563406E+04  0.25945473243E+04  0.50400001928E-02 0.  1.
       -1    1    3    3    0  502  0.86874795802E+03  0.10452768892E+04  0.38660650327E+03  0.14130786878E+04  0.50400001928E-02 0. -1.
</event>
<event>
 5   0  0.1125196E-06  0.3473644E+04  0.7818609E-02  0.8120065E-01
       -1   -1    0    0    0  501  0.00000000000E+00  0.00000000000E+00  0.15423852233E+04  0.15423852233E+04  0.50400001928E-02 0. -1.
        1   -1    0    0  501    0  0.00000000000E+00  0.00000000000E+00 -0.19557699854E+04  0.19557699854E+04  0.50400001928E-02 0.  1.
    10030    2    1    2    0    0  0.00000000000E+00  0.00000000000E+00 -0.41338476203E+03  0.34981552087E+04  0.34736440380E+04 0.  0.
        4    1    3    3  502    0  0.12509576027E+04  0.11949583476E+04 -0.51564067959E+02  0.17307457474E+04  0.12699999809E+01 0.  1.
       -4    1    3    3    0  502 -0.12509576027E+04 -0.11949583476E+04 -0.36182069407E+03  0.17674094613E+04  0.12699999809E+01 0. -1.
</event>
<event>
 5   0  0.1042825E-06  0.2190446E+04  0.7818609E-02  0.8522415E-01
       -3   -1    0    0    0  501  0.00000000000E+00  0.00000000000E+00  0.78711289934E+03  0.78711290582E+03  0.10100000352E+00 0. -1.
        3   -1    0    0  501    0  0.00000000000E+00  0.00000000000E+00 -0.15239402026E+04  0.15239402060E+04  0.10100000352E+00 0.  1.
    10030    2    1    2    0    0  0.00000000000E+00  0.00000000000E+00 -0.73682730328E+03  0.23110531118E+04  0.21904456192E+04 0.  0.
        2    1    3    3  502    0  0.79266502172E+03  0.16192341355E+03 -0.11472857187E+04  0.14038523957E+04  0.25500000920E-02 0.  1.
       -2    1    3    3    0  502 -0.79266502172E+03 -0.16192341355E+03  0.41045841542E+03  0.90720071611E+03  0.25500000920E-02 0. -1.
</event>
<event>
 5   0  0.1782660E-06  0.3470845E+04  0.7818609E-02  0.8120734E-01
        2   -1    0    0  501    0  0.00000000000E+00  0.00000000000E+00  0.14023603362E+04  0.14023603362E+04  0.25500000920E-02 0. -1.
       -2   -1    0    0    0  501  0.00000000000E+00  0.00000000000E+00 -0.21475872871E+04  0.21475872871E+04  0.25500000920E-02 0.  1.
    10030    2    1    2    0    0  0.00000000000E+00  0.00000000000E+00 -0.74522695081E+03  0.35499476233E+04  0.34708449864E+04 0.  0.
        4    1    3    3  502    0  0.39964414057E+03 -0.30637447640E+03  0.13259916460E+04  0.14183921238E+04  0.12699999809E+01 0. -1.
       -4    1    3    3    0  502 -0.39964414057E+03  0.30637447640E+03 -0.20712185968E+04  0.21315554995E+04  0.12699999809E+01 0.  1.
</event>
<event>
 5   0  0.1782660E-06  0.3490273E+04  0.7818609E-02  0.8116099E-01
       -2   -1    0    0    0  501  0.00000000000E+00  0.00000000000E+00  0.21819586805E+04  0.21819586805E+04  0.25500000920E-02 0. -1.
        2   -1    0    0  501    0  0.00000000000E+00  0.00000000000E+00 -0.13957646865E+04  0.13957646865E+04  0.25500000920E-02 0.  1.
    10030    2    1    2    0    0  0.00000000000E+00  0.00000000000E+00  0.78619399408E+03  0.35777233670E+04  0.34902726963E+04 0.  0.
        4    1    3    3  502    0 -0.41188776287E+03  0.35164957395E+03 -0.13074421273E+04  0.14151733043E+04  0.12699999809E+01 0.  1.
       -4    1    3    3    0  502  0.41188776287E+03 -0.35164957395E+03  0.20936361214E+04  0.21625500627E+04  0.12699999809E+01 0. -1.
</event>
<event>
 5   0  0.2565004E-06  0.3147945E+04  0.7818609E-02  0.8202702E-01
        2   -1    0    0  501    0  0.00000000000E+00  0.00000000000E+00  0.16521329873E+04  0.16521329873E+04  0.25500000920E-02 0.  1.
       -2   -1    0    0    0  501  0.00000000000E+00  0.00000000000E+00 -0.14995095636E+04  0.14995095636E+04  0.25500000920E-02 0. -1.
    10030    2    1    2    0    0  0.00000000000E+00  0.00000000000E+00  0.15262342375E+03  0.31516425509E+04  0.31479448628E+04 0.  0.
        3    1    3    3  502    0  0.10117134908E+04 -0.11402642086E+04 -0.31609581196E+03  0.15568183020E+04  0.10100000352E+00 0.  1.
       -3    1    3    3    0  502 -0.10117134908E+04  0.11402642086E+04  0.46871923570E+03  0.15948242489E+04  0.10100000352E+00 0. -1.
</event>
<event>
 5   0  0.3378848E-06  0.3430909E+04  0.7818609E-02  0.8130362E-01
        2   -1    0    0  501    0  0.00000000000E+00  0.00000000000E+00  0.26206101623E+04  0.26206101623E+04  0.25500000920E-02 0.  1.
       -2   -1    0    0    0  501  0.00000000000E+00  0.00000000000E+00 -0.11229382419E+04  0.11229382419E+04  0.25500000920E-02 0. -1.
    10030    2    1    2    0    0  0.00000000000E+00  0.00000000000E+00  0.14976719204E+04  0.37435484042E+04  0.34309085493E+04 0.  0.
        1    1    3    3  502    0 -0.12624012484E+04 -0.99448359699E+03  0.14036277978E+04  0.21337351127E+04  0.50400001928E-02 0. -1.
       -1    1    3    3    0  502  0.12624012484E+04  0.99448359699E+03  0.94044122591E+02  0.16098132915E+04  0.50400001928E-02 0.  1.
</event>
<event>
 5   0  0.1243472E-06  0.1882079E+04  0.7818609E-02  0.8663828E-01
        1   -1    0    0  501    0  0.00000000000E+00  0.00000000000E+00  0.83373707361E+03  0.83373707362E+03  0.50400001928E-02 0.  1.
       -1   -1    0    0    0  501  0.00000000000E+00  0.00000000000E+00 -0.10621522176E+04  0.10621522176E+04  0.50400001928E-02 0. -1.
    10030    2    1    2    0    0  0.00000000000E+00  0.00000000000E+00 -0.22841514401E+03  0.18958892913E+04  0.18820793625E+04 0.  0.
        3    1    3    3  502    0 -0.28688884443E+03 -0.99829163845E+01  0.78855509337E+03  0.83918056052E+03  0.10100000352E+00 0.  1.
       -3    1    3    3    0  502  0.28688884443E+03  0.99829163845E+01 -0.10169702374E+04  0.10567087307E+04  0.10100000352E+00 0. -1.
</event>
<event>
 5   0  0.1782660E-06  0.1939432E+04  0.7818609E-02  0.8635474E-01
       -2   -1    0    0    0  501  0.00000000000E+00  0.00000000000E+00  0.38517028533E+03  0.38517028534E+03  0.25500000920E-02 0.  1.
        2   -1    0    0  501    0  0.00000000000E+00  0.00000000000E+00 -0.24413851843E+04  0.24413851843E+04  0.25500000920E-02 0. -1.
    10030    2    1    2    0    0  0.00000000000E+00  0.00000000000E+00 -0.20562148990E+04  0.28265554696E+04  0.19394319045E+04 0.  0.
        4    1    3    3  502    0 -0.52323500629E+03 -0.63660766483E+03 -0.28310901275E+03  0.87131883758E+03  0.12699999809E+01 0.  1.
       -4    1    3    3    0  502  0.52323500629E+03  0.63660766483E+03 -0.17731058862E+04  0.19552366321E+04  0.12699999809E+01 0. -1.
</event>
<event>
 5   0  0.1130707E-06  0.3466590E+04  0.7818609E-02  0.8121754E-01
       -1   -1    0    0    0  501  0.00000000000E+00  0.00000000000E+00  0.18371736515E+04  0.18371736515E+04  0.50400001928E-02 0.  1.
        1   -1    0    0  501    0  0.00000000000E+00  0.00000000000E+00 -0.16352898142E+04  0.16352898143E+04  0.50400001928E-02 0. -1.
    10030    2    1    2    0    0  0.00000000000E+00  0.00000000000E+00  0.20188383722E+03  0.34724634657E+04  0.34665898859E+04 0.  0.
        3    1    3    3  502    0  0.11963761969E+03 -0.10117317510E+04  0.15056006623E+04  0.18178964933E+04  0.10100000352E+00 0.  1.
       -3    1    3    3    0  502 -0.11963761969E+03  0.10117317510E+04 -0.13037168251E+04  0.16545669724E+04  0.10100000352E+00 0. -1.
</event>
<event>
 5   0  0.1110956E-06  0.3519195E+04  0.7818609E-02  0.8109256E-01
       -1   -1    0    0    0  501  0.00000000000E+00  0.00000000000E+00  0.15114249880E+04  0.15114249880E+04  0.50400001928E-02 0. -1.
        1   -1    0    0  501    0  0.00000000000E+00  0.00000000000E+00 -0.20485192547E+04  0.20485192547E+04  0.50400001928E-02 0.  1.
    10030    2    1    2    0    0  0.00000000000E+00  0.00000000000E+00 -0.53709426676E+03  0.35599442427E+04  0.35191949022E+04 0.  0.
        1    1    3    3  502    0 -0.49323187686E+03  0.36708864651E+03 -0.19363192173E+04  0.20315914624E+04  0.50400001928E-02 0.  1.
       -1    1    3    3    0  502  0.49323187686E+03 -0.36708864651E+03  0.13992249506E+04  0.15283527803E+04  0.50400001928E-02 0. -1.
</event>
<event>
 5   0  0.1908726E-06  0.3249007E+04  0.7818609E-02  0.8175993E-01
       -2   -1    0    0    0  501  0.00000000000E+00  0.00000000000E+00  0.12592603697E+04  0.12592603697E+04  0.25500000920E-02 0. -1.
        2   -1    0    0  501    0  0.00000000000E+00  0.00000000000E+00 -0.20956843178E+04  0.20956843178E+04  0.25500000920E-02 0.  1.
    10030    2    1    2    0    0  0.00000000000E+00  0.00000000000E+00 -0.83642394809E+03  0.33549446875E+04  0.32490073615E+04 0.  0.
        5    1    3    3  502    0  0.85398498091E+03  0.40958986219E+03  0.94464649062E+03  0.13376970079E+04  0.46999998093E+01 0. -1.
       -5    1    3    3    0  502 -0.85398498091E+03 -0.40958986219E+03 -0.17810704387E+04  0.20172476795E+04  0.46999998093E+01 0.  1.
</event>
<event>
 5   0  0.1130707E-06  0.3389458E+04  0.7818609E-02  0.8140499E-01
       -1   -1    0    0    0  501  0.00000000000E+00  0.00000000000E+00  0.15436104913E+04  0.15436104913E+04  0.50400001928E-02 0.  1.
        1   -1    0    0  501    0  0.00000000000E+00  0.00000000000E+00 -0.18606414035E+04  0.18606414035E+04  0.50400001928E-02 0. -1.
    10030    2    1    2    0    0  0.00000000000E+00  0.00000000000E+00 -0.31703091222E+03  0.34042518948E+04  0.33894575324E+04 0.  0.
        3    1    3    3  502    0 -0.20506628354E+03 -0.16169157026E+04  0.30787874564E+03  0.16586916236E+04  0.10100000352E+00 0. -1.
       -3    1    3    3    0  502  0.20506628354E+03  0.16169157026E+04 -0.62490965786E+03  0.17455602713E+04  0.10100000352E+00 0.  1.
</event>
<event>
 5   0  0.1782660E-06  0.3058538E+04  0.7818609E-02  0.8227210E-01
        2   -1    0    0  501    0  0.00000000000E+00  0.00000000000E+00  0.16908590734E+04  0.16908590734E+04  0.25500000920E-02 0.  1.
       -2   -1    0    0    0  501  0.00000000000E+00  0.00000000000E+00 -0.13831214594E+04  0.13831214594E+04  0.25500000920E-02 0. -1.
    10030    2    1    2    0    0  0.00000000000E+00  0.00000000000E+00  0.30773761405E+03  0.30739805328E+04  0.30585378658E+04 0.  0.
        4    1    3    3  502    0 -0.13018258578E+04  0.44436299973E+03 -0.51767606151E+03  0.14697615987E+04  0.12699999809E+01 0. -1.
       -4    1    3    3    0  502  0.13018258578E+04 -0.44436299973E+03  0.82541367556E+03  0.16042189340E+04  0.12699999809E+01 0.  1.
</event>
<event>
 5   0  0.3378848E-06  0.1795650E+04  0.7818609E-02  0.8708616E-01
       -2   -1    0    0    0  501  0.00000000000E+00  0.00000000000E+00  0.48129169295E+03  0.48129169295E+03  0.25500000920E-02 0. -1.
        2   -1    0    0  501    0  0.00000000000E+00  0.00000000000E+00 -0.16748461320E+04  0.16748461320E+04  0.25500000920E-02 0.  1.
    10030    2    1    2    0    0  0.00000000000E+00  0.00000000000E+00 -0.11935544391E+04  0.21561378250E+04  0.17956497769E+04 0.  0.
        1    1    3    3  502    0 -0.79790890858E+03  0.41102369123E+03 -0.57018570798E+03  0.10633488810E+04  0.50400001928E-02 0. -1.
       -1    1    3    3    0  502  0.79790890858E+03 -0.41102369123E+03 -0.62336873111E+03  0.10927889440E+04  0.50400001928E-02 0.  1.
</event>
<event>
 5   0  0.1130707E-06  0.2554249E+04  0.7818609E-02  0.8383910E-01
        1   -1    0    0  501    0  0.00000000000E+00  0.00000000000E+00  0.23962134519E+04  0.23962134519E+04  0.50400001928E-02 0.  1.
       -1   -1    0    0    0  501  0.00000000000E+00  0.00000000000E+00 -0.68067665766E+03  0.68067665768E+03  0.50400001928E-02 0. -1.
    10030    2    1    2    0    0  0.00000000000E+00  0.00000000000E+00  0.17155367943E+04  0.30768901096E+04  0.25542486672E+04 0.  0.
        3    1    3    3  502    0 -0.57438250328E+02  0.33107211398E+03  0.23420097579E+04  0.23659918879E+04  0.10100000352E+00 0.  1.
       -3    1    3    3    0  502  0.57438250328E+02 -0.33107211398E+03 -0.62647296364E+03  0.71089822171E+03  0.10100000352E+00 0. -1.
</event>
<event>
 5   0  0.3041329E-06  0.3487062E+04  0.7818609E-02  0.8116863E-01
        2   -1    0    0  501    0  0.00000000000E+00  0.00000000000E+00  0.22897100850E+04  0.22897100850E+04  0.25500000920E-02 0. -1.
       -2   -1    0    0    0  501  0.00000000000E+00  0.00000000000E+00 -0.13276356290E+04  0.13276356290E+04  0.25500000920E-02 0.  1.
    10030    2    1    2    0    0  0.00000000000E+00  0.00000000000E+00  0.96207445604E+03  0.36173457140E+04  0.34870621955E+04 0.  0.
        2    1    3    3  502    0 -0.85486881381E+03 -0.13641279129E+04  0.11755702712E+04  0.19933918616E+04  0.25500000920E-02 0. -1.
       -2    1    3    3    0  502  0.85486881381E+03  0.13641279129E+04 -0.21349581514E+03  0.16239538523E+04  0.25500000920E-02 0.  1.
</event>
<event>
 5   0  0.1130707E-06  0.3341998E+04  0.7818609E-02  0.8152290E-01
       -1   -1    0    0    0  501  0.00000000000E+00  0.00000000000E+00  0.14594782869E+04  0.14594782869E+04  0.50400001928E-02 0. -1.
        1   -1    0    0  501    0  0.00000000000E+00  0.00000000000E+00 -0.19131753408E+04  0.19131753408E+04  0.50400001928E-02 0.  1.
    10030    2    1    2    0    0  0.00000000000E+00  0.00000000000E+00 -0.45369705389E+03  0.33726536277E+04  0.33419981262E+04 0.  0.
        3    1    3    3  502    0  0.58325244660E+03 -0.12585938534E+04 -0.11670574960E+04  0.18128058675E+04  0.10100000352E+00 0.  1.
       -3    1    3    3    0  502 -0.58325244660E+03  0.12585938534E+04  0.71336044212E+03  0.15598477601E+04  0.10100000352E+00 0. -1.
</event>
<event>
 5   0  0.1782660E-06  0.3640257E+04  0.7818609E-02  0.8081332E-01
       -2   -1    0    0    0  501  0.00000000000E+00  0.00000000000E+00  0.14410743593E+04  0.14410743593E+04  0.25500000920E-02 0. -1.
        2   -1    0    0  501    0  0.00000000000E+00  0.00000000000E+00 -0.22988874824E+04  0.22988874824E+04  0.25500000920E-02 0.  1.
    10030    2    1    2    0    0  0.00000000000E+00  0.00000000000E+00 -0.85781312312E+03  0.37399618417E+04  0.36402570271E+04 0.  0.
        4    1    3    3  502    0 -0.12228349610E+04  0.64711400152E+03  0.78618918316E+03  0.15912815330E+04  0.12699999809E+01 0. -1.
       -4    1    3    3    0  502  0.12228349610E+04 -0.64711400152E+03 -0.16440023063E+04  0.21486803086E+04  0.12699999809E+01 0.  1.
</event>
<event>
 5   0  0.1089337E-06  0.3506896E+04  0.7818609E-02  0.8112158E-01
        1   -1    0    0  501    0  0.00000000000E+00  0.00000000000E+00  0.20763973556E+04  0.20763973557E+04  0.50400001928E-02 0. -1.
       -1   -1    0    0    0  501  0.00000000000E+00  0.00000000000E+00 -0.14807279641E+04  0.14807279641E+04  0.50400001928E-02 0.  1.
    10030    2    1    2    0    0  0.00000000000E+00  0.00000000000E+00  0.59566939157E+03  0.35571253197E+04  0.35068958519E+04 0.  0.
        2    1    3    3  502    0 -0.37094701779E+03  0.17125047118E+04  0.23127816472E+03  0.17674172307E+04  0.25500000920E-02 0.  1.
       -2    1    3    3    0  502  0.37094701779E+03 -0.17125047118E+04  0.36439122685E+03  0.17897080891E+04  0.25500000920E-02 0. -1.
</event>
<event>
 5   0  0.3041329E-06  0.1731106E+04  0.7818609E-02  0.8743820E-01
       -2   -1    0    0    0  501  0.00000000000E+00  0.00000000000E+00  0.54452955090E+03  0.54452955091E+03  0.25500000920E-02 0. -1.
        2   -1    0    0  501    0  0.00000000000E+00  0.00000000000E+00 -0.13758337976E+04  0.13758337976E+04  0.25500000920E-02 0.  1.
    10030    2    1    2    0    0  0.00000000000E+00  0.00000000000E+00 -0.83130424673E+03  0.19203633485E+04  0.17311061896E+04 0.  0.
        2    1    3    3  502    0 -0.43446248423E+02  0.45006503980E+03 -0.12344048426E+04  0.13146107530E+04  0.25500000920E-02 0.  1.
       -2    1    3    3    0  502  0.43446248423E+02 -0.45006503980E+03  0.40310059588E+03  0.60575259550E+03  0.25500000920E-02 0. -1.
</event>
<event>
 5   0  0.1110956E-06  0.2746272E+04  0.7818609E-02  0.8320146E-01
       -1   -1    0    0    0  501  0.00000000000E+00  0.00000000000E+00  0.81477922007E+03  0.81477922009E+03  0.50400001928E-02 0. -1.
        1   -1    0    0  501    0  0.00000000000E+00  0.00000000000E+00 -0.23141261817E+04  0.23141261817E+04  0.50400001928E-02 0.  1.
    10030    2    1    2    0    0  0.00000000000E+00  0.00000000000E+00 -0.14993469616E+04  0.31289054017E+04  0.27462716002E+04 0.  0.
        1    1    3    3  502    0  0.99196074453E+03 -0.82686579454E+03 -0.12813979215E+04  0.18192508882E+04  0.50400001928E-02 0.  1.
       -1    1    3    3    0  502 -0.99196074453E+03  0.82686579454E+03 -0.21794904009E+03  0.13096545136E+04  0.50400001928E-02 0. -1.
</event>
<event>
 5   0  0.1130707E-06  0.1845457E+04  0.7818609E-02  0.8682493E-01
        1   -1    0    0  501    0  0.00000000000E+00  0.00000000000E+00  0.73425104845E+03  0.73425104847E+03  0.50400001928E-02 0. -1.
       -1   -1    0    0    0  501  0.00000000000E+00  0.00000000000E+00 -0.11595868978E+04  0.11595868978E+04  0.50400001928E-02 0.  1.
    10030    2    1    2    0    0  0.00000000000E+00  0.00000000000E+00 -0.42533584931E+03  0.18938379462E+04  0.18454570117E+04 0.  0.
        3    1    3    3  502    0  0.35447783422E+03  0.26379849693E+03  0.61862024723E+03  0.76022049593E+03  0.10100000352E+00 0. -1.
       -3    1    3    3    0  502 -0.35447783422E+03 -0.26379849693E+03 -0.10439560965E+04  0.11336174503E+04  0.10100000352E+00 0.  1.
</event>
<event>
 5   0  0.1125196E-06  0.3486115E+04  0.7818609E-02  0.8117088E-01
        1   -1    0    0  501    0  0.00000000000E+00  0.00000000000E+00  0.25879587216E+04  0.25879587216E+04  0.50400001928E-02 0. -1.
       -1   -1    0    0    0  501  0.00000000000E+00  0.00000000000E+00 -0.11739943346E+04  0.11739943346E+04  0.50400001928E-02 0.  1.
    10030    2    1    2    0    0  0.00000000000E+00  0.00000000000E+00  0.14139643870E+04  0.37619530561E+04  0.34861146724E+04 0.  0.
        4    1    3    3  502    0  0.65197153256E+03  0.15994425532E+04  0.45398803745E+03  0.17858863657E+04  0.12699999809E+01 0.  1.
       -4    1    3    3    0  502 -0.65197153256E+03 -0.15994425532E+04  0.95997634957E+03  0.19760666904E+04  0.12699999809E+01 0. -1.
</event>
<event>
 5   0  0.2565004E-06  0.2772437E+04  0.7818609E-02  0.8311877E-01
        2   -1    0    0  501    0  0.00000000000E+00  0.00000000000E+00  0.20609701669E+04  0.20609701669E+04  0.25500000920E-02 0. -1.
       -2   -1    0    0    0  501  0.00000000000E+00  0.00000000000E+00 -0.93237745711E+03  0.93237745711E+03  0.25500000920E-02 0.  1.
    10030    2    1    2    0    0  0.00000000000E+00  0.00000000000E+00  0.11285927098E+04  0.29933476240E+04  0.27724372840E+04 0.  0.
        3    1    3    3  502    0 -0.73168844299E+03  0.10904822642E+04  0.10436097099E+04  0.16773910645E+04  0.10100000352E+00 0. -1.
       -3    1    3    3    0  502  0.73168844299E+03 -0.10904822642E+04  0.84982999873E+02  0.13159565596E+04  0.10100000352E+00 0.  1.
</event>
<event>
 5   0  0.1110956E-06  0.3480802E+04  0.7818609E-02  0.8118355E-01
        1   -1    0    0  501    0  0.00000000000E+00  0.00000000000E+00  0.15059309744E+04  0.15059309744E+04  0.50400001928E-02 0.  1.
       -1   -1    0    0    0  501  0.00000000000E+00  0.00000000000E+00 -0.20113776430E+04  0.20113776431E+04  0.50400001928E-02 0. -1.
    10030    2    1    2    0    0  0.00000000000E+00  0.00000000000E+00 -0.50544666863E+03  0.35173086175E+04  0.34808021454E+04 0.  0.
        1    1    3    3  502    0 -0.10820193564E+04  0.10647993706E+04 -0.11127858953E+04  0.18822476022E+04  0.50400001928E-02 0. -1.
       -1    1    3    3    0  502  0.10820193564E+04 -0.10647993706E+04  0.60733922664E+03  0.16350610152E+04  0.50400001928E-02 0.  1.
</event>
<event>
 5   0  0.3378848E-06  0.1837666E+04  0.7818609E-02  0.8686522E-01
       -2   -1    0    0    0  501  0.00000000000E+00  0.00000000000E+00  0.68628236856E+03  0.68628236856E+03  0.25500000920E-02 0.  1.
        2   -1    0    0  501    0  0.00000000000E+00  0.00000000000E+00 -0.12301847676E+04  0.12301847676E+04  0.25500000920E-02 0. -1.
    10030    2    1    2    0    0  0.00000000000E+00  0.00000000000E+00 -0.54390239902E+03  0.19164671361E+04  0.18376660372E+04 0.  0.
        1    1    3    3  502    0  0.36404664720E+03 -0.63136947336E+03  0.31159341066E+03  0.79262085945E+03  0.50400001928E-02 0.  1.
       -1    1    3    3    0  502 -0.36404664720E+03  0.63136947336E+03 -0.85549580968E+03  0.11238462767E+04  0.50400001928E-02 0. -1.
</event>
<event>
 5   0  0.1089337E-06  0.3553181E+04  0.7818609E-02  0.8101301E-01
       -1   -1    0    0    0  501  0.00000000000E+00  0.00000000000E+00  0.12384228394E+04  0.12384228394E+04  0.50400001928E-02 0. -1.
        1   -1    0    0  501    0  0.00000000000E+00  0.00000000000E+00 -0.25486236495E+04  0.25486236495E+04  0.50400001928E-02 0.  1.
    10030    2    1    2    0    0  0.00000000000E+00  0.00000000000E+00 -0.13102008101E+04  0.37870464889E+04  0.35531809616E+04 0.  0.
        2    1    3    3  502    0 -0.13030162267E+04 -0.12000364332E+04 -0.79941952380E+03  0.19434531903E+04  0.25500000920E-02 0.  1.
       -2    1    3    3    0  502  0.13030162267E+04  0.12000364332E+04 -0.51078128635E+03  0.18435932986E+04  0.25500000920E-02 0. -1.
</event>
<event>
 5   0  0.1110956E-06  0.2933604E+04  0.7818609E-02  0.8262949E-01
       -1   -1    0    0    0  501  0.00000000000E+00  0.00000000000E+00  0.10212093122E+04  0.10212093122E+04  0.50400001928E-02 0.  1.
        1   -1    0    0  501    0  0.00000000000E+00  0.00000000000E+00 -0.21068244661E+04  0.21068244661E+04  0.50400001928E-02 0. -1.
    10030    2    1    2    0    0  0.00000000000E+00  0.00000000000E+00 -0.10856151539E+04  0.31280337782E+04  0.29336044477E+04 0.  0.
        1    1    3    3  502    0  0.26280879941E+03  0.97696020693E+03  0.58965098914E+03  0.11709859094E+04  0.50400001928E-02 0.  1.
       -1    1    3    3    0  502 -0.26280879941E+03 -0.97696020693E+03 -0.16752661430E+04  0.19570478689E+04  0.50400001928E-02 0. -1.
</event>
<event>
 5   0  0.3378848E-06  0.3420743E+04  0.7818609E-02  0.8132834E-01
        2   -1    0    0  501    0  0.00000000000E+00  0.00000000000E+00  0.10189310242E+04  0.10189310242E+04  0.25500000920E-02 0. -1.
       -2   -1    0    0    0  501  0.00000000000E+00  0.00000000000E+00 -0.28710186414E+04  0.28710186414E+04  0.25500000920E-02 0.  1.
    10030    2    1    2    0    0  0.00000000000E+00  0.00000000000E+00 -0.18520876172E+04  0.38899496656E+04  0.34207425888E+04 0.  0.
        1    1    3    3  502    0 -0.29223316559E+03  0.16817463537E+04 -0.10490414861E+04  0.20035366382E+04  0.50400001928E-02 0. -1.
       -1    1    3    3    0  502  0.29223316559E+03 -0.16817463537E+04 -0.80304613114E+03  0.18864130274E+04  0.50400001928E-02 0.  1.
</event>
<event>
 5   0  0.2565004E-06  0.3531548E+04  0.7818609E-02  0.8106354E-01
       -2   -1    0    0    0  501  0.00000000000E+00  0.00000000000E+00  0.15040747782E+04  0.15040747782E+04  0.25500000920E-02 0.  1.
        2   -1    0    0  501    0  0.00000000000E+00  0.00000000000E+00 -0.20730073380E+04  0.20730073380E+04  0.25500000920E-02 0. -1.
    10030    2    1    2    0    0  0.00000000000E+00  0.00000000000E+00 -0.56893255980E+03  0.35770821162E+04  0.35315481320E+04 0.  0.
        3    1    3    3  502    0 -0.97077438687E+03  0.90246025709E+03 -0.14661794789E+04  0.19764917658E+04  0.10100000352E+00 0. -1.
       -3    1    3    3    0  502  0.97077438687E+03 -0.90246025709E+03  0.89724691906E+03  0.16005903504E+04  0.10100000352E+00 0.  1.
</event>
<event>
 5   0  0.2565004E-06  0.3486215E+04  0.7818609E-02  0.8117065E-01
        2   -1    0    0  501    0  0.00000000000E+00  0.00000000000E+00  0.23850696383E+04  0.23850696383E+04  0.25500000920E-02 0.  1.
       -2   -1    0    0    0  501  0.00000000000E+00  0.00000000000E+00 -0.12739351489E+04  0.12739351489E+04  0.25500000920E-02 0. -1.
    10030    2    1    2    0    0  0.00000000000E+00  0.00000000000E+00  0.11111344894E+04  0.36590047873E+04  0.34862151654E+04 0.  0.
        3    1    3    3  502    0 -0.30419706224E+03 -0.16577460379E+04  0.88816643907E+02  0.16877636639E+04  0.10100000352E+00 0. -1.
       -3    1    3    3    0  502  0.30419706224E+03  0.16577460379E+04  0.10223178455E+04  0.19712411233E+04  0.10100000352E+00 0.  1.
</event>
<event>
 5   0  0.1042825E-06  0.3496872E+04  0.7818609E-02  0.8114532E-01
       -4   -1    0    0    0  501  0.00000000000E+00  0.00000000000E+00  0.24931566181E+04  0.24931569416E+04  0.12699999809E+01 0.  1.
        4   -1    0    0  501    0  0.00000000000E+00  0.00000000000E+00 -0.12261668006E+04  0.12261674583E+04  0.12699999809E+01 0. -1.
    10030    2    1    2    0    0  0.00000000000E+00  0.00000000000E+00  0.12669898176E+04  0.37193243999E+04  0.34968715724E+04 0.  0.
        5    1    3    3  502    0 -0.15986336698E+04 -0.27652287718E+03  0.13268144057E+04  0.20958418521E+04  0.46999998093E+01 0.  1.
       -5    1    3    3    0  502  0.15986336698E+04  0.27652287718E+03 -0.59824588105E+02  0.16234825478E+04  0.46999998093E+01 0. -1.
</event>
<event>
 5   0  0.1311102E-06  0.1901897E+04  0.7818609E-02  0.8653913E-01
        1   -1    0    0  501    0  0.00000000000E+00  0.00000000000E+00  0.14652057001E+04  0.14652057001E+04  0.50400001928E-02 0.  1.
       -1   -1    0    0    0  501  0.00000000000E+00  0.00000000000E+00 -0.61718515597E+03  0.61718515599E+03  0.50400001928E-02 0. -1.
    10030    2    1    2    0    0  0.00000000000E+00  0.00000000000E+00  0.84802054410E+03  0.20823908561E+04  0.19018971671E+04 0.  0.
        3    1    3    3  502    0  0.19787222565E+01 -0.33923638801E+03 -0.54867803550E+03  0.64508359081E+03  0.10100000352E+00 0. -1.
       -3    1    3    3    0  502 -0.19787222565E+01  0.33923638801E+03  0.13966985796E+04  0.14373072653E+04  0.10100000352E+00 0.  1.
</event>
<event>
 5   0  0.1102175E-06  0.2605178E+04  0.7818609E-02  0.8366445E-01
        1   -1    0    0  501    0  0.00000000000E+00  0.00000000000E+00  0.11031888102E+04  0.11031888102E+04  0.50400001928E-02 0.  1.
       -1   -1    0    0    0  501  0.00000000000E+00  0.00000000000E+00 -0.15380299979E+04  0.15380299979E+04  0.50400001928E-02 0. -1.
    10030    2    1    2    0    0  0.00000000000E+00  0.00000000000E+00 -0.43484118766E+03  0.26412188081E+04  0.26051775245E+04 0.  0.
        5    1    3    3  502    0 -0.83664235724E+03 -0.96967843934E+03  0.23498317061E+02  0.12809453425E+04  0.46999998093E+01 0. -1.
       -5    1    3    3    0  502  0.83664235724E+03  0.96967843934E+03 -0.45833950472E+03  0.13602734656E+04  0.46999998093E+01 0.  1.
</event>
<event>
 5   0  0.1908726E-06  0.3563287E+04  0.7818609E-02  0.8098953E-01
       -2   -1    0    0    0  501  0.00000000000E+00  0.00000000000E+00  0.18541779455E+04  0.18541779455E+04  0.25500000920E-02 0. -1.
        2   -1    0    0  501    0  0.00000000000E+00  0.00000000000E+00 -0.17119468972E+04  0.17119468972E+04  0.25500000920E-02 0.  1.
    10030    2    1    2    0    0  0.00000000000E+00  0.00000000000E+00  0.14223104831E+03  0.35661248427E+04  0.35632873477E+04 0.  0.
        5    1    3    3  502    0 -0.43349776936E+03 -0.16853685034E+04  0.45331593138E+03  0.17983060729E+04  0.46999998093E+01 0. -1.
       -5    1    3    3    0  502  0.43349776936E+03  0.16853685034E+04 -0.31108488308E+03  0.17678187697E+04  0.46999998093E+01 0.  1.
</event>
<event>
 5   0  0.1125196E-06  0.1970197E+04  0.7818609E-02  0.8620683E-01
        1   -1    0    0  501    0  0.00000000000E+00  0.00000000000E+00  0.93893712149E+03  0.93893712150E+03  0.50400001928E-02 0. -1.
       -1   -1    0    0    0  501  0.00000000000E+00  0.00000000000E+00 -0.10335295684E+04  0.10335295684E+04  0.50400001928E-02 0.  1.
    10030    2    1    2    0    0  0.00000000000E+00  0.00000000000E+00 -0.94592446929E+02  0.19724666899E+04  0.19701972266E+04 0.  0.
        4    1    3    3  502    0 -0.56886554127E+03 -0.77313730510E+03 -0.26906519552E+03  0.99686859160E+03  0.12699999809E+01 0. -1.
       -4    1    3    3    0  502  0.56886554127E+03  0.77313730510E+03  0.17447274859E+03  0.97559809834E+03  0.12699999809E+01 0.  1.
</event>
<event>
 5   0  0.1130707E-06  0.3293784E+04  0.7818609E-02  0.8164479E-01
       -1   -1    0    0    0  501  0.00000000000E+00  0.00000000000E+00  0.11227060547E+04  0.11227060547E+04  0.50400001928E-02 0.  1.
        1   -1    0    0  501    0  0.00000000000E+00  0.00000000000E+00 -0.24158170957E+04  0.24158170958E+04  0.50400001928E-02 0. -1.
    10030    2    1    2    0    0  0.00000000000E+00  0.00000000000E+00 -0.12931110410E+04  0.35385231505E+04  0.32937835269E+04 0.  0.
        3    1    3    3  502    0 -0.11665880895E+04  0.31967853834E+03  0.55413440090E+03  0.13304837778E+04  0.10100000352E+00 0.  1.
       -3    1    3    3    0  502  0.11665880895E+04 -0.31967853834E+03 -0.18472454419E+04  0.22080393727E+04  0.10100000352E+00 0. -1.
</event>
<event>
 5   0  0.1089337E-06  0.3535404E+04  0.7818609E-02  0.8105451E-01
       -1   -1    0    0    0  501  0.00000000000E+00  0.00000000000E+00  0.12299112498E+04  0.12299112498E+04  0.50400001928E-02 0. -1.
        1   -1    0    0  501    0  0.00000000000E+00  0.00000000000E+00 -0.25406468140E+04  0.25406468140E+04  0.50400001928E-02 0.  1.
    10030    2    1    2    0    0  0.00000000000E+00  0.00000000000E+00 -0.13107355642E+04  0.37705580639E+04  0.35354038516E+04 0.  0.
        2    1    3    3  502    0 -0.75687868197E+03 -0.92788991370E+03 -0.20422155233E+04  0.23673802556E+04  0.25500000920E-02 0.  1.
       -2    1    3    3    0  502  0.75687868197E+03  0.92788991370E+03  0.73147995902E+03  0.14031778083E+04  0.25500000920E-02 0. -1.
</event>
<event>
 5   0  0.2565004E-06  0.3529263E+04  0.7818609E-02  0.8106890E-01
        2   -1    0    0  501    0  0.00000000000E+00  0.00000000000E+00  0.28263060383E+04  0.28263060383E+04  0.25500000920E-02 0.  1.
       -2   -1    0    0    0  501  0.00000000000E+00  0.00000000000E+00 -0.11017647966E+04  0.11017647966E+04  0.25500000920E-02 0. -1.
    10030    2    1    2    0    0  0.00000000000E+00  0.00000000000E+00  0.17245412417E+04  0.39280708350E+04  0.35292630945E+04 0.  0.
        3    1    3    3  502    0 -0.13456566986E+04 -0.36030244151E+03  0.20678686509E+04  0.24933292136E+04  0.10100000352E+00 0.  1.
       -3    1    3    3    0  502  0.13456566986E+04  0.36030244151E+03 -0.34332740922E+03  0.14347416213E+04  0.10100000352E+00 0. -1.
</event>
<event>
 5   0  0.1102175E-06  0.3401813E+04  0.7818609E-02  0.8137461E-01
        1   -1    0    0  501    0  0.00000000000E+00  0.00000000000E+00  0.33481025991E+04  0.33481025991E+04  0.50400001928E-02 0. -1.
       -1   -1    0    0    0  501  0.00000000000E+00  0.00000000000E+00 -0.86409644034E+03  0.86409644036E+03  0.50400001928E-02 0.  1.
    10030    2    1    2    0    0  0.00000000000E+00  0.00000000000E+00  0.24840061588E+04  0.42121990395E+04  0.34018133622E+04 0.  0.
        5    1    3    3  502    0 -0.13507972808E+03  0.79688861949E+03 -0.61110784804E+03  0.10132881608E+04  0.46999998093E+01 0.  1.
       -5    1    3    3    0  502  0.13507972808E+03 -0.79688861949E+03  0.30951140068E+04  0.31989108787E+04  0.46999998093E+01 0. -1.
</event>
<event>
 5   0  0.2673330E-06  0.1890889E+04  0.7818609E-02  0.8659405E-01
       -2   -1    0    0    0  501  0.00000000000E+00  0.00000000000E+00  0.11090910666E+04  0.11090910666E+04  0.25500000920E-02 0.  1.
        2   -1    0    0  501    0  0.00000000000E+00  0.00000000000E+00 -0.80594389332E+03  0.80594389333E+03  0.25500000920E-02 0. -1.
    10030    2    1    2    0    0  0.00000000000E+00  0.00000000000E+00  0.30314717329E+03  0.19150349599E+04  0.18908888622E+04 0.  0.
        3    1    3    3  502    0 -0.35016741109E+03  0.43142096245E+02 -0.73677423523E+03  0.81689334687E+03  0.10100000352E+00 0. -1.
       -3    1    3    3    0  502  0.35016741109E+03 -0.43142096245E+02  0.10399214085E+04  0.10981416131E+04  0.10100000352E+00 0.  1.
</event>
<event>
 5   0  0.2565004E-06  0.1924523E+04  0.7818609E-02  0.8642745E-01
       -2   -1    0    0    0  501  0.00000000000E+00  0.00000000000E+00  0.66062993552E+03  0.66062993553E+03  0.25500000920E-02 0. -1.
        2   -1    0    0  501    0  0.00000000000E+00  0.00000000000E+00 -0.14016129751E+04  0.14016129751E+04  0.25500000920E-02 0.  1.
    10030    2    1    2    0    0  0.00000000000E+00  0.00000000000E+00 -0.74098303962E+03  0.20622429107E+04  0.19245233066E+04 0.  0.
        3    1    3    3  502    0  0.94550091774E+03  0.94235680574E+02 -0.53333742874E+03  0.10896335035E+04  0.10100000352E+00 0. -1.
       -3    1    3    3    0  502 -0.94550091774E+03 -0.94235680574E+02 -0.20764561088E+03  0.97260940714E+03  0.10100000352E+00 0.  1.
</event>
<event>
 5   0  0.1089337E-06  0.2926646E+04  0.7818609E-02  0.8264993E-01
       -1   -1    0    0    0  501  0.00000000000E+00  0.00000000000E+00  0.99391294384E+03  0.99391294385E+03  0.50400001928E-02 0. -1.
        1   -1    0    0  501    0  0.00000000000E+00  0.00000000000E+00 -0.21544282670E+04  0.21544282670E+04  0.50400001928E-02 0.  1.
    10030    2    1    2    0    0  0.00000000000E+00  0.00000000000E+00 -0.11605153231E+04  0.31483412108E+04  0.29266459582E+04 0.  0.
        2    1    3    3  502    0 -0.12465364570E+04  0.30246451067E+03  0.17734594634E+03  0.12949090715E+04  0.25500000920E-02 0. -1.
       -2    1    3    3    0  502  0.12465364570E+04 -0.30246451067E+03 -0.13378612695E+04  0.18534321393E+04  0.25500000920E-02 0.  1.
</event>
<event>
 5   0  0.1102175E-06  0.3549863E+04  0.7818609E-02  0.8102074E-01
        1   -1    0    0  501    0  0.00000000000E+00  0.00000000000E+00  0.33380877655E+04  0.33380877655E+04  0.50400001928E-02 0.  1.
       -1   -1    0    0    0  501  0.00000000000E+00  0.00000000000E+00 -0.94376867216E+03  0.94376867217E+03  0.50400001928E-02 0. -1.
    10030    2    1    2    0    0  0.00000000000E+00  0.00000000000E+00  0.23943190933E+04  0.42818564377E+04  0.35498634667E+04 0.  0.
        5    1    3    3  502    0  0.94492469591E+02 -0.16976359091E+04  0.58274843917E+03  0.17973631631E+04  0.46999998093E+01 0. -1.
       -5    1    3    3    0  502 -0.94492469591E+02  0.16976359091E+04  0.18115706542E+04  0.24844932746E+04  0.46999998093E+01 0.  1.
</event>
<event>
 5   0  0.1782660E-06  0.2185005E+04  0.7818609E-02  0.8524696E-01
        2   -1    0    0  501    0  0.00000000000E+00  0.00000000000E+00  0.14760353038E+04  0.14760353038E+04  0.25500000920E-02 0. -1.
       -2   -1    0    0    0  501  0.00000000000E+00  0.00000000000E+00 -0.80862658209E+03  0.80862658209E+03  0.25500000920E-02 0.  1.
    10030    2    1    2    0    0  0.00000000000E+00  0.00000000000E+00  0.66740872167E+03  0.22846618859E+04  0.21850046981E+04 0.  0.
        4    1    3    3  502    0 -0.53056641993E+03 -0.58629739631E+02  0.13303966290E+04  0.14334904868E+04  0.12699999809E+01 0. -1.
       -4    1    3    3    0  502  0.53056641993E+03  0.58629739631E+02 -0.66298790737E+03  0.85117139904E+03  0.12699999809E+01 0.  1.
</event>
<event>
 5   0  0.1782660E-06  0.3511968E+04  0.7818609E-02  0.8110960E-01
       -2   -1    0    0    0  501  0.00000000000E+00  0.00000000000E+00  0.13722401446E+04  0.13722401446E+04  0.25500000920E-02 0. -1.
        2   -1    0    0  501    0  0.00000000000E+00  0.00000000000E+00 -0.22470403339E+04  0.22470403339E+04  0.25500000920E-02 0.  1.
    10030    2    1    2    0    0  0.00000000000E+00  0.00000000000E+00 -0.87480018933E+03  0.36192804784E+04  0.35119675127E+04 0.  0.
        4    1    3    3  502    0  0.48864305461E+02  0.98145781557E+03 -0.19371447279E+04  0.21721368451E+04  0.12699999809E+01 0.  1.
       -4    1    3    3    0  502 -0.48864305461E+02 -0.98145781557E+03  0.10623445386E+04  0.14471436334E+04  0.12699999809E+01 0. -1.
</event>
<event>
 5   0  0.1102175E-06  0.3445933E+04  0.7818609E-02  0.8126724E-01
       -1   -1    0    0    0  501  0.00000000000E+00  0.00000000000E+00  0.10785267335E+04  0.10785267335E+04  0.50400001928E-02 0.  1.
        1   -1    0    0  501    0  0.00000000000E+00  0.00000000000E+00 -0.27524702141E+04  0.27524702141E+04  0.50400001928E-02 0. -1.
    10030    2    1    2    0    0  0.00000000000E+00  0.00000000000E+00 -0.16739434806E+04  0.38309969476E+04  0.34459325060E+04 0.  0.
        5    1    3    3  502    0 -0.14228562534E+04  0.31058590840E+03 -0.18605058746E+04  0.23627288722E+04  0.46999998093E+01 0. -1.
       -5    1    3    3    0  502  0.14228562534E+04 -0.31058590840E+03  0.18656239394E+03  0.14682680754E+04  0.46999998093E+01 0.  1.
</event>
<event>
 5   0  0.1125196E-06  0.2164392E+04  0.7818609E-02  0.8533397E-01
       -1   -1    0    0    0  501  0.00000000000E+00  0.00000000000E+00  0.10973868125E+04  0.10973868125E+04  0.50400001928E-02 0.  1.
        1   -1    0    0  501    0  0.00000000000E+00  0.00000000000E+00 -0.10672155355E+04  0.10672155355E+04  0.50400001928E-02 0. -1.
    10030    2    1    2    0    0  0.00000000000E+00  0.00000000000E+00  0.30171277008E+02  0.21646023479E+04  0.21643920668E+04 0.  0.
        4    1    3    3  502    0  0.30512443706E+02  0.10817428819E+04  0.81589228508E+01  0.10822046260E+04  0.12699999809E+01 0.  1.
       -4    1    3    3    0  502 -0.30512443706E+02 -0.10817428819E+04  0.22012354157E+02  0.10823977219E+04  0.12699999809E+01 0. -1.
</event>
<event>
 5   0  0.1782660E-06  0.3216046E+04  0.7818609E-02  0.8184592E-01
       -2   -1    0    0    0  501  0.00000000000E+00  0.00000000000E+00  0.17234770862E+04  0.17234770862E+04  0.25500000920E-02 0.  1.
        2   -1    0    0  501    0  0.00000000000E+00  0.00000000000E+00 -0.15003029137E+04  0.15003029138E+04  0.25500000920E-02 0. -1.
    10030    2    1    2    0    0  0.00000000000E+00  0.00000000000E+00  0.22317417244E+03  0.32237799999E+04  0.32160458294E+04 0.  0.
        4    1    3    3  502    0 -0.97335881685E+03  0.11275836678E+04 -0.49556232518E+03  0.15698585749E+04  0.12699999809E+01 0. -1.
       -4    1    3    3    0  502  0.97335881685E+03 -0.11275836678E+04  0.71873649761E+03  0.16539214250E+04  0.12699999809E+01 0.  1.
</event>
<event>
 5   0  0.1908726E-06  0.3498408E+04  0.7818609E-02  0.8114167E-01
       -2   -1    0    0    0  501  0.00000000000E+00  0.00000000000E+00  0.20445744629E+04  0.20445744629E+04  0.25500000920E-02 0. -1.
        2   -1    0    0  501    0  0.00000000000E+00  0.00000000000E+00 -0.14965043463E+04  0.14965043463E+04  0.25500000920E-02 0.  1.
    10030    2    1    2    0    0  0.00000000000E+00  0.00000000000E+00  0.54807011655E+03  0.35410788092E+04  0.34984079637E+04 0.  0.
        5    1    3    3  502    0 -0.11393509400E+04  0.83405325988E+03 -0.77099525031E+03  0.16087949437E+04  0.46999998093E+01 0.  1.
       -5    1    3    3    0  502  0.11393509400E+04 -0.83405325988E+03  0.13190653669E+04  0.19322838655E+04  0.46999998093E+01 0. -1.
</event>
<event>
 5   0  0.3041329E-06  0.3324386E+04  0.7818609E-02  0.8156718E-01
        2   -1    0    0  501    0  0.00000000000E+00  0.00000000000E+00  0.22836432433E+04  0.22836432433E+04  0.25500000920E-02 0.  1.
       -2   -1    0    0    0  501  0.00000000000E+00  0.00000000000E+00 -0.12098589611E+04  0.12098589611E+04  0.25500000920E-02 0. -1.
    10030    2    1    2    0    0  0.00000000000E+00  0.00000000000E+00  0.10737842822E+04  0.34935022044E+04  0.33243864046E+04 0.  0.
        2    1    3    3  502    0 -0.29358351353E+03  0.15993461130E+04  0.17470424515E+03  0.16354268072E+04  0.25500000920E-02 0. -1.
       -2    1    3    3    0  502  0.29358351353E+03 -0.15993461130E+04  0.89908003704E+03  0.18580753972E+04  0.25500000920E-02 0.  1.
</event>
<event>
 5   0  0.1125196E-06  0.3510810E+04  0.7818609E-02  0.8111233E-01
       -1   -1    0    0    0  501  0.00000000000E+00  0.00000000000E+00  0.17701715065E+04  0.17701715065E+04  0.50400001928E-02 0. -1.
        1   -1    0    0  501    0  0.00000000000E+00  0.00000000000E+00 -0.17407618346E+04  0.17407618346E+04  0.50400001928E-02 0.  1.
    10030    2    1    2    0    0  0.00000000000E+00  0.00000000000E+00  0.29409671937E+02  0.35109333411E+04  0.35108101625E+04 0.  0.
        4    1    3    3  502    0  0.11701575334E+04 -0.31751061039E+03  0.12841444047E+04  0.17661002536E+04  0.12699999809E+01 0. -1.
       -4    1    3    3    0  502 -0.11701575334E+04  0.31751061039E+03 -0.12547347328E+04  0.17448330875E+04  0.12699999809E+01 0.  1.
</event>
<event>
 5   0  0.3041329E-06  0.3359463E+04  0.7818609E-02  0.8147928E-01
        2   -1    0    0  501    0  0.00000000000E+00  0.00000000000E+00  0.14561638511E+04  0.14561638511E+04  0.25500000920E-02 0. -1.
       -2   -1    0    0    0  501  0.00000000000E+00  0.00000000000E+00 -0.19376244131E+04  0.19376244131E+04  0.25500000920E-02 0.  1.
    10030    2    1    2    0    0  0.00000000000E+00  0.00000000000E+00 -0.48146056202E+03  0.33937882642E+04  0.33594634259E+04 0.  0.
        2    1    3    3  502    0  0.13312391385E+04 -0.89505686755E+02 -0.12715924826E+04  0.18431376383E+04  0.25500000920E-02 0.  1.
       -2    1    3    3    0  502 -0.13312391385E+04  0.89505686755E+02  0.79013192059E+03  0.15506506260E+04  0.25500000920E-02 0. -1.
</event>
<event>
 5   0  0.2565004E-06  0.3294347E+04  0.7818609E-02  0.8164335E-01
        2   -1    0    0  501    0  0.00000000000E+00  0.00000000000E+00  0.19203398622E+04  0.19203398622E+04  0.25500000920E-02 0.  1.
       -2   -1    0    0    0  501  0.00000000000E+00  0.00000000000E+00 -0.14128651756E+04  0.14128651756E+04  0.25500000920E-02 0. -1.
    10030    2    1    2    0    0  0.00000000000E+00  0.00000000000E+00  0.50747468667E+03  0.33332050378E+04  0.32943474721E+04 0.  0.
        3    1    3    3  502    0 -0.10584120370E+04  0.22770483746E+03  0.15097888236E+04  0.18578341786E+04  0.10100000352E+00 0.  1.
       -3    1    3    3    0  502  0.10584120370E+04 -0.22770483746E+03 -0.10023141369E+04  0.14753708593E+04  0.10100000352E+00 0. -1.
</event>
<event>
 5   0  0.2565004E-06  0.2729866E+04  0.7818609E-02  0.8325379E-01
        2   -1    0    0  501    0  0.00000000000E+00  0.00000000000E+00  0.12895761847E+04  0.12895761847E+04  0.25500000920E-02 0.  1.
       -2   -1    0    0    0  501  0.00000000000E+00  0.00000000000E+00 -0.14446934856E+04  0.14446934856E+04  0.25500000920E-02 0. -1.
    10030    2    1    2    0    0  0.00000000000E+00  0.00000000000E+00 -0.15511730084E+03  0.27342696703E+04  0.27298661603E+04 0.  0.
        3    1    3    3  502    0  0.56614403391E+03 -0.12366814047E+04  0.37266315653E+02  0.13606207232E+04  0.10100000352E+00 0. -1.
       -3    1    3    3    0  502 -0.56614403391E+03  0.12366814047E+04 -0.19238361650E+03  0.13736489471E+04  0.10100000352E+00 0.  1.
</event>
<event>
 5   0  0.2565004E-06  0.3538184E+04  0.7818609E-02  0.8104800E-01
        2   -1    0    0  501    0  0.00000000000E+00  0.00000000000E+00  0.19951437371E+04  0.19951437371E+04  0.25500000920E-02 0. -1.
       -2   -1    0    0    0  501  0.00000000000E+00  0.00000000000E+00 -0.15686520710E+04  0.15686520710E+04  0.25500000920E-02 0.  1.
    10030    2    1    2    0    0  0.00000000000E+00  0.00000000000E+00  0.42649166606E+03  0.35637958081E+04  0.35381839156E+04 0.  0.
        3    1    3    3  502    0  0.10313051943E+04 -0.89084752972E+03  0.13494569155E+04  0.19178721808E+04  0.10100000352E+00 0. -1.
       -3    1    3    3    0  502 -0.10313051943E+04  0.89084752972E+03 -0.92296524941E+03  0.16459236273E+04  0.10100000352E+00 0.  1.
</event>
<event>
 5   0  0.1102175E-06  0.2435784E+04  0.7818609E-02  0.8426227E-01
        1   -1    0    0  501    0  0.00000000000E+00  0.00000000000E+00  0.11133142116E+04  0.11133142116E+04  0.50400001928E-02 0. -1.
       -1   -1    0    0    0  501  0.00000000000E+00  0.00000000000E+00 -0.13322927929E+04  0.13322927929E+04  0.50400001928E-02 0.  1.
    10030    2    1    2    0    0  0.00000000000E+00  0.00000000000E+00 -0.21897858131E+03  0.24456070046E+04  0.24357836525E+04 0.  0.
        5    1    3    3  502    0  0.80438204319E+03 -0.88239791579E+03 -0.35041924173E+03  0.12443762647E+04  0.46999998093E+01 0.  1.
       -5    1    3    3    0  502 -0.80438204319E+03  0.88239791579E+03  0.13144066042E+03  0.12012307399E+04  0.46999998093E+01 0. -1.
</event>
<event>
 5   0  0.1125196E-06  0.2707802E+04  0.7818609E-02  0.8332478E-01
       -1   -1    0    0    0  501  0.00000000000E+00  0.00000000000E+00  0.10142537807E+04  0.10142537807E+04  0.50400001928E-02 0.  1.
        1   -1    0    0  501    0  0.00000000000E+00  0.00000000000E+00 -0.18072871081E+04  0.18072871081E+04  0.50400001928E-02 0. -1.
    10030    2    1    2    0    0  0.00000000000E+00  0.00000000000E+00 -0.79303332739E+03  0.28215408887E+04  0.27078018998E+04 0.  0.
        4    1    3    3  502    0  0.84935911256E+03  0.46599673920E+03 -0.13820137322E+04  0.16877581083E+04  0.12699999809E+01 0. -1.
       -4    1    3    3    0  502 -0.84935911256E+03 -0.46599673920E+03  0.58898040486E+03  0.11337827805E+04  0.12699999809E+01 0.  1.
</event>
<event>
 5   0  0.1102175E-06  0.3587330E+04  0.7818609E-02  0.8093400E-01
        1   -1    0    0  501    0  0.00000000000E+00  0.00000000000E+00  0.24245777144E+04  0.24245777144E+04  0.50400001928E-02 0.  1.
       -1   -1    0    0    0  501  0.00000000000E+00  0.00000000000E+00 -0.13269255935E+04  0.13269255936E+04  0.50400001928E-02 0. -1.
    10030    2    1    2    0    0  0.00000000000E+00  0.00000000000E+00  0.10976521208E+04  0.37515033080E+04  0.35873300505E+04 0.  0.
        5    1    3    3  502    0  0.16440415607E+03  0.16963411121E+04  0.11335294297E+04  0.20468299766E+04  0.46999998093E+01 0.  1.
       -5    1    3    3    0  502 -0.16440415607E+03 -0.16963411121E+04 -0.35877308807E+02  0.17046733313E+04  0.46999998093E+01 0. -1.
</event>
<event>
 5   0  0.1102175E-06  0.3478140E+04  0.7818609E-02  0.8118990E-01
        1   -1    0    0  501    0  0.00000000000E+00  0.00000000000E+00  0.19476993495E+04  0.19476993495E+04  0.50400001928E-02 0. -1.
       -1   -1    0    0    0  501  0.00000000000E+00  0.00000000000E+00 -0.15527878542E+04  0.15527878542E+04  0.50400001928E-02 0.  1.
    10030    2    1    2    0    0  0.00000000000E+00  0.00000000000E+00  0.39491149536E+03  0.35004872037E+04  0.34781396715E+04 0.  0.
        5    1    3    3  502    0  0.33410846354E+03  0.31967629536E+03 -0.14897764237E+04  0.15598965613E+04  0.46999998093E+01 0.  1.
       -5    1    3    3    0  502 -0.33410846354E+03 -0.31967629536E+03  0.18846879191E+04  0.19405906424E+04  0.46999998093E+01 0. -1.
</event>
<event>
 5   0  0.1125196E-06  0.3391069E+04  0.7818609E-02  0.8140102E-01
       -1   -1    0    0    0  501  0.00000000000E+00  0.00000000000E+00  0.21501404408E+04  0.21501404408E+04  0.50400001928E-02 0. -1.
        1   -1    0    0  501    0  0.00000000000E+00  0.00000000000E+00 -0.13370459540E+04  0.13370459541E+04  0.50400001928E-02 0.  1.
    10030    2    1    2    0    0  0.00000000000E+00  0.00000000000E+00  0.81309448671E+03  0.34871863948E+04  0.33910686085E+04 0.  0.
        4    1    3    3  502    0 -0.81294272810E+03  0.64435255579E+03  0.17857441244E+04  0.20651754856E+04  0.12699999809E+01 0. -1.
       -4    1    3    3    0  502  0.81294272810E+03 -0.64435255579E+03 -0.97264963773E+03  0.14220109092E+04  0.12699999809E+01 0.  1.
</event>
<event>
 5   0  0.1110956E-06  0.3522712E+04  0.7818609E-02  0.8108429E-01
        1   -1    0    0  501    0  0.00000000000E+00  0.00000000000E+00  0.20450003385E+04  0.20450003385E+04  0.50400001928E-02 0.  1.
       -1   -1    0    0    0  501  0.00000000000E+00  0.00000000000E+00 -0.15170533122E+04  0.15170533122E+04  0.50400001928E-02 0. -1.
    10030    2    1    2    0    0  0.00000000000E+00  0.00000000000E+00  0.52794702637E+03  0.35620536507E+04  0.35227117606E+04 0.  0.
        1    1    3    3  502    0  0.25046748090E+03  0.18371600422E+02 -0.14988561547E+04  0.15197503898E+04  0.50400001928E-02 0. -1.
       -1    1    3    3    0  502 -0.25046748090E+03 -0.18371600422E+02  0.20268031811E+04  0.20423032609E+04  0.50400001928E-02 0.  1.
</event>
<event>
 5   0  0.1782660E-06  0.2021845E+04  0.7818609E-02  0.8596475E-01
        2   -1    0    0  501    0  0.00000000000E+00  0.00000000000E+00  0.12220407699E+04  0.12220407699E+04  0.25500000920E-02 0.  1.
       -2   -1    0    0    0  501  0.00000000000E+00  0.00000000000E+00 -0.83627717228E+03  0.83627717229E+03  0.25500000920E-02 0. -1.
    10030    2    1    2    0    0  0.00000000000E+00  0.00000000000E+00  0.38576359757E+03  0.20583179421E+04  0.20218454930E+04 0.  0.
        4    1    3    3  502    0  0.46235628599E+03  0.25996169149E+03  0.10689929619E+04  0.11933570219E+04  0.12699999809E+01 0.  1.
       -4    1    3    3    0  502 -0.46235628599E+03 -0.25996169149E+03 -0.68322936437E+03  0.86496092020E+03  0.12699999809E+01 0. -1.
</event>
<event>
 5   0  0.1110956E-06  0.3402497E+04  0.7818609E-02  0.8137294E-01
       -1   -1    0    0    0  501  0.00000000000E+00  0.00000000000E+00  0.24683728510E+04  0.24683728510E+04  0.50400001928E-02 0. -1.
        1   -1    0    0  501    0  0.00000000000E+00  0.00000000000E+00 -0.11725321279E+04  0.11725321279E+04  0.50400001928E-02 0.  1.
    10030    2    1    2    0    0  0.00000000000E+00  0.00000000000E+00  0.12958407231E+04  0.36409049789E+04  0.34024970074E+04 0.  0.
        1    1    3    3  502    0 -0.30512564425E+03  0.33875910098E+03  0.24017842583E+04  0.24446731910E+04  0.50400001928E-02 0. -1.
       -1    1    3    3    0  502  0.30512564425E+03 -0.33875910098E+03 -0.11059435352E+04  0.11962317879E+04  0.50400001928E-02 0.  1.
</event>
<event>
 5   0  0.3378848E-06  0.3497436E+04  0.7818609E-02  0.8114398E-01
       -2   -1    0    0    0  501  0.00000000000E+00  0.00000000000E+00  0.23328799559E+04  0.23328799559E+04  0.25500000920E-02 0. -1.
        2   -1    0    0  501    0  0.00000000000E+00  0.00000000000E+00 -0.13108323796E+04  0.13108323796E+04  0.25500000920E-02 0.  1.
    10030    2    1    2    0    0  0.00000000000E+00  0.00000000000E+00  0.10220475763E+04  0.36437123355E+04  0.34974359659E+04 0.  0.
        1    1    3    3  502    0 -0.12894414812E+04  0.98771575399E+03  0.11860202226E+04  0.20111901234E+04  0.50400001928E-02 0. -1.
       -1    1    3    3    0  502  0.12894414812E+04 -0.98771575399E+03 -0.16397264635E+03  0.16325222121E+04  0.50400001928E-02 0.  1.
</event>
<event>
 5   0  0.3378848E-06  0.3387538E+04  0.7818609E-02  0.8140972E-01
       -2   -1    0    0    0  501  0.00000000000E+00  0.00000000000E+00  0.13138399152E+04  0.13138399152E+04  0.25500000920E-02 0.  1.
        2   -1    0    0  501    0  0.00000000000E+00  0.00000000000E+00 -0.21835641970E+04  0.21835641970E+04  0.25500000920E-02 0. -1.
    10030    2    1    2    0    0  0.00000000000E+00  0.00000000000E+00 -0.86972428180E+03  0.34974041122E+04  0.33875382208E+04 0.  0.
        1    1    3    3  502    0 -0.13671392975E+04  0.33542008131E+03  0.53764164370E+03  0.15068626436E+04  0.50400001928E-02 0.  1.
       -1    1    3    3    0  502  0.13671392975E+04 -0.33542008131E+03 -0.14073659255E+04  0.19905414686E+04  0.50400001928E-02 0. -1.
</event>
<event>
 5   0  0.1042825E-06  0.1910454E+04  0.7818609E-02  0.8649670E-01
       -3   -1    0    0    0  501  0.00000000000E+00  0.00000000000E+00  0.72910855623E+03  0.72910856322E+03  0.10100000352E+00 0.  1.
        3   -1    0    0  501    0  0.00000000000E+00  0.00000000000E+00 -0.12514720536E+04  0.12514720577E+04  0.10100000352E+00 0. -1.
    10030    2    1    2    0    0  0.00000000000E+00  0.00000000000E+00 -0.52236349737E+03  0.19805806209E+04  0.19104543890E+04 0.  0.
        4    1    3    3  502    0  0.73101942705E+03 -0.50823343499E+03 -0.61995824930E+03  0.10849149602E+04  0.12699999809E+01 0. -1.
       -4    1    3    3    0  502 -0.73101942705E+03  0.50823343499E+03  0.97594751930E+02  0.89566566066E+03  0.12699999809E+01 0.  1.
</event>
<event>
 5   0  0.3041329E-06  0.3417000E+04  0.7818609E-02  0.8133747E-01
       -2   -1    0    0    0  501  0.00000000000E+00  0.00000000000E+00  0.13805759724E+04  0.13805759724E+04  0.25500000920E-02 0. -1.
        2   -1    0    0  501    0  0.00000000000E+00  0.00000000000E+00 -0.21143148194E+04  0.21143148194E+04  0.25500000920E-02 0.  1.
    10030    2    1    2    0    0  0.00000000000E+00  0.00000000000E+00 -0.73373884700E+03  0.34948907919E+04  0.34169999929E+04 0.  0.
        2    1    3    3  502    0  0.78393761140E+03  0.11230780973E+04  0.67773921387E+03  0.15281338401E+04  0.25500000920E-02 0. -1.
       -2    1    3    3    0  502 -0.78393761140E+03 -0.11230780973E+04 -0.14114780609E+04  0.19667569518E+04  0.25500000920E-02 0.  1.
</event>
<event>
 5   0  0.2420821E-06  0.1877911E+04  0.7818609E-02  0.8665930E-01
        2   -1    0    0  501    0  0.00000000000E+00  0.00000000000E+00  0.10802203134E+04  0.10802203134E+04  0.25500000920E-02 0. -1.
       -2   -1    0    0    0  501  0.00000000000E+00  0.00000000000E+00 -0.81616475599E+03  0.81616475600E+03  0.25500000920E-02 0.  1.
    10030    2    1    2    0    0  0.00000000000E+00  0.00000000000E+00  0.26405555743E+03  0.18963850694E+04  0.18779113382E+04 0.  0.
        5    1    3    3  502    0 -0.74280538600E+02 -0.32836076106E+03  0.10171646574E+04  0.10714403474E+04  0.46999998093E+01 0. -1.
       -5    1    3    3    0  502  0.74280538600E+02  0.32836076106E+03 -0.75310910000E+03  0.82494472198E+03  0.46999998093E+01 0.  1.
</event>
<event>
 5   0  0.2565004E-06  0.3452423E+04  0.7818609E-02  0.8125158E-01
        2   -1    0    0  501    0  0.00000000000E+00  0.00000000000E+00  0.17296037793E+04  0.17296037793E+04  0.25500000920E-02 0.  1.
       -2   -1    0    0    0  501  0.00000000000E+00  0.00000000000E+00 -0.17228263086E+04  0.17228263086E+04  0.25500000920E-02 0. -1.
    10030    2    1    2    0    0  0.00000000000E+00  0.00000000000E+00  0.67774706866E+01  0.34524300879E+04  0.34524234354E+04 0.  0.
        3    1    3    3  502    0 -0.13376149396E+04 -0.22766031481E+02  0.10942963628E+04  0.17283566063E+04  0.10100000352E+00 0.  1.
       -3    1    3    3    0  502  0.13376149396E+04  0.22766031481E+02 -0.10875188921E+04  0.17240734815E+04  0.10100000352E+00 0. -1.
</event>
<event>
 5   0  0.1130707E-06  0.3605781E+04  0.7818609E-02  0.8089169E-01
        1   -1    0    0  501    0  0.00000000000E+00  0.00000000000E+00  0.12055085711E+04  0.12055085711E+04  0.50400001928E-02 0.  1.
       -1   -1    0    0    0  501  0.00000000000E+00  0.00000000000E+00 -0.26963013299E+04  0.26963013299E+04  0.50400001928E-02 0. -1.
    10030    2    1    2    0    0  0.00000000000E+00  0.00000000000E+00 -0.14907927588E+04  0.39018099010E+04  0.36057811157E+04 0.  0.
        3    1    3    3  502    0 -0.97984457041E+03  0.14486636046E+04 -0.27162418336E+03  0.17698873774E+04  0.10100000352E+00 0. -1.
       -3    1    3    3    0  502  0.97984457041E+03 -0.14486636046E+04 -0.12191685754E+04  0.21319225236E+04  0.10100000352E+00 0.  1.
</event>
<event>
 5   0  0.1102175E-06  0.3342470E+04  0.7818609E-02  0.8152172E-01
       -1   -1    0    0    0  501  0.00000000000E+00  0.00000000000E+00  0.19381976287E+04  0.19381976287E+04  0.50400001928E-02 0. -1.
        1   -1    0    0  501    0  0.00000000000E+00  0.00000000000E+00 -0.14410427600E+04  0.14410427600E+04  0.50400001928E-02 0.  1.
    10030    2    1    2    0    0  0.00000000000E+00  0.00000000000E+00  0.49715486863E+03  0.33792403887E+04  0.33424695423E+04 0.  0.
        5    1    3    3  502    0 -0.21826677461E+03  0.95043620168E+03 -0.11235690422E+04  0.14877495895E+04  0.46999998093E+01 0.  1.
       -5    1    3    3    0  502  0.21826677461E+03 -0.95043620168E+03  0.16207239108E+04  0.18914907992E+04  0.46999998093E+01 0. -1.
</event>
<event>
 5   0  0.2565004E-06  0.3462345E+04  0.7818609E-02  0.8122772E-01
       -2   -1    0    0    0  501  0.00000000000E+00  0.00000000000E+00  0.13974234054E+04  0.13974234054E+04  0.25500000920E-02 0. -1.
        2   -1    0    0  501    0  0.00000000000E+00  0.00000000000E+00 -0.21446313840E+04  0.21446313840E+04  0.25500000920E-02 0.  1.
    10030    2    1    2    0    0  0.00000000000E+00  0.00000000000E+00 -0.74720797859E+03  0.35420547894E+04  0.34623449233E+04 0.  0.
        3    1    3    3  502    0  0.12347442202E+04  0.84785798429E+03 -0.12616327721E+04  0.19583599548E+04  0.10100000352E+00 0.  1.
       -3    1    3    3    0  502 -0.12347442202E+04 -0.84785798429E+03  0.51442479352E+03  0.15836948346E+04  0.10100000352E+00 0. -1.
</event>
<event>
 5   0  0.3378848E-06  0.1744017E+04  0.7818609E-02  0.8736650E-01
       -2   -1    0    0    0  501  0.00000000000E+00  0.00000000000E+00  0.17411922190E+04  0.17411922190E+04  0.25500000920E-02 0.  1.
        2   -1    0    0  501    0  0.00000000000E+00  0.00000000000E+00 -0.43671163870E+03  0.43671163871E+03  0.25500000920E-02 0. -1.
    10030    2    1    2    0    0  0.00000000000E+00  0.00000000000E+00  0.13044805803E+04  0.21779038577E+04  0.17440170954E+04 0.  0.
        1    1    3    3  502    0  0.88623535113E+02 -0.84858545597E+03  0.87718645233E+03  0.12236860215E+04  0.50400001928E-02 0. -1.
       -1    1    3    3    0  502 -0.88623535113E+02  0.84858545597E+03  0.42729412794E+03  0.95421783617E+03  0.50400001928E-02 0.  1.
</event>
<event>
 5   0  0.1782660E-06  0.3652757E+04  0.7818609E-02  0.8078513E-01
        2   -1    0    0  501    0  0.00000000000E+00  0.00000000000E+00  0.27663674304E+04  0.27663674304E+04  0.25500000920E-02 0. -1.
       -2   -1    0    0    0  501  0.00000000000E+00  0.00000000000E+00 -0.12057899457E+04  0.12057899457E+04  0.25500000920E-02 0.  1.
    10030    2    1    2    0    0  0.00000000000E+00  0.00000000000E+00  0.15605774847E+04  0.39721573761E+04  0.36527567856E+04 0.  0.
        4    1    3    3  502    0 -0.42669413784E+02  0.18254933717E+04  0.73945983312E+03  0.19700378643E+04  0.12699999809E+01 0.  1.
       -4    1    3    3    0  502  0.42669413784E+02 -0.18254933717E+04  0.82111765154E+03  0.20021195118E+04  0.12699999809E+01 0. -1.
</event>
<event>
 5   0  0.1102175E-06  0.3480509E+04  0.7818609E-02  0.8118425E-01
        1   -1    0    0  501    0  0.00000000000E+00  0.00000000000E+00  0.31542154519E+04  0.31542154519E+04  0.50400001928E-02 0.  1.
       -1   -1    0    0    0  501  0.00000000000E+00  0.00000000000E+00 -0.96013889687E+03  0.96013889688E+03  0.50400001928E-02 0. -1.
    10030    2    1    2    0    0  0.00000000000E+00  0.00000000000E+00  0.21940765550E+04  0.41143543488E+04  0.34805085517E+04 0.  0.
        5    1    3    3  502    0  0.16372259103E+04 -0.39877348007E+03  0.58321483485E+03  0.17831686974E+04  0.46999998093E+01 0. -1.
       -5    1    3    3    0  502 -0.16372259103E+04  0.39877348007E+03  0.16108617202E+04  0.23311856514E+04  0.46999998093E+01 0.  1.
</event>
<event>
 5   0  0.1908726E-06  0.2562143E+04  0.7818609E-02  0.8381175E-01
        2   -1    0    0  501    0  0.00000000000E+00  0.00000000000E+00  0.16283296473E+04  0.16283296473E+04  0.25500000920E-02 0.  1.
       -2   -1    0    0    0  501  0.00000000000E+00  0.00000000000E+00 -0.10078695256E+04  0.10078695256E+04  0.25500000920E-02 0. -1.
    10030    2    1    2    0    0  0.00000000000E+00  0.00000000000E+00  0.62046012170E+03  0.26361991730E+04  0.25621427199E+04 0.  0.
        5    1    3    3  502    0 -0.30599015949E+03  0.90878319868E+02 -0.96628831043E+03  0.10176561480E+04  0.46999998093E+01 0. -1.
       -5    1    3    3    0  502  0.30599015949E+03 -0.90878319868E+02  0.15867484321E+04  0.16185430249E+04  0.46999998093E+01 0.  1.
</event>
<event>
 5   0  0.1908726E-06  0.1974060E+04  0.7818609E-02  0.8618845E-01
        2   -1    0    0  501    0  0.00000000000E+00  0.00000000000E+00  0.15563810860E+04  0.15563810860E+04  0.25500000920E-02 0.  1.
       -2   -1    0    0    0  501  0.00000000000E+00  0.00000000000E+00 -0.62595722467E+03  0.62595722468E+03  0.25500000920E-02 0. -1.
    10030    2    1    2    0    0  0.00000000000E+00  0.00000000000E+00  0.93042386134E+03  0.21823383107E+04  0.19740597611E+04 0.  0.
        5    1    3    3  502    0  0.95977995457E+03  0.10713425230E+03  0.23986566948E+03  0.99509443703E+03  0.46999998093E+01 0. -1.
       -5    1    3    3    0  502 -0.95977995457E+03 -0.10713425230E+03  0.69055819187E+03  0.11872438737E+04  0.46999998093E+01 0.  1.
</event>
<event>
 5   0  0.2565004E-06  0.3512242E+04  0.7818609E-02  0.8110895E-01
       -2   -1    0    0    0  501  0.00000000000E+00  0.00000000000E+00  0.15148958229E+04  0.15148958229E+04  0.25500000920E-02 0.  1.
        2   -1    0    0  501    0  0.00000000000E+00  0.00000000000E+00 -0.20357573363E+04  0.20357573363E+04  0.25500000920E-02 0. -1.
    10030    2    1    2    0    0  0.00000000000E+00  0.00000000000E+00 -0.52086151340E+03  0.35506531592E+04  0.35122416120E+04 0.  0.
        3    1    3    3  502    0  0.58989999306E+03 -0.14525735492E+04  0.53942915802E+03  0.16579914790E+04  0.10100000352E+00 0. -1.
       -3    1    3    3    0  502 -0.58989999306E+03  0.14525735492E+04 -0.10602906714E+04  0.18926616802E+04  0.10100000352E+00 0.  1.
</event>
<event>
 5   0  0.3378848E-06  0.3425536E+04  0.7818609E-02  0.8131667E-01
       -2   -1    0    0    0  501  0.00000000000E+00  0.00000000000E+00  0.11342999515E+04  0.11342999515E+04  0.25500000920E-02 0.  1.
        2   -1    0    0  501    0  0.00000000000E+00  0.00000000000E+00 -0.25862426589E+04  0.25862426589E+04  0.25500000920E-02 0. -1.
    10030    2    1    2    0    0  0.00000000000E+00  0.00000000000E+00 -0.14519427074E+04  0.37205426105E+04  0.34255364092E+04 0.  0.
        1    1    3    3  502    0  0.50601569616E+03  0.71515511873E+03 -0.23244784167E+04  0.24840890963E+04  0.50400001928E-02 0. -1.
       -1    1    3    3    0  502 -0.50601569616E+03 -0.71515511873E+03  0.87253570932E+03  0.12364535142E+04  0.50400001928E-02 0.  1.
</event>
<event>
 5   0  0.1908726E-06  0.3261631E+04  0.7818609E-02  0.8172728E-01
        2   -1    0    0  501    0  0.00000000000E+00  0.00000000000E+00  0.20228939492E+04  0.20228939492E+04  0.25500000920E-02 0. -1.
       -2   -1    0    0    0  501  0.00000000000E+00  0.00000000000E+00 -0.13147295512E+04  0.13147295512E+04  0.25500000920E-02 0.  1.
    10030    2    1    2    0    0  0.00000000000E+00  0.00000000000E+00  0.70816439799E+03  0.33376235003E+04  0.32616305455E+04 0.  0.
        5    1    3    3  502    0 -0.11047841476E+03 -0.61530983461E+03  0.18954045554E+04  0.19958437292E+04  0.46999998093E+01 0. -1.
       -5    1    3    3    0  502  0.11047841476E+03  0.61530983461E+03 -0.11872401575E+04  0.13417797711E+04  0.46999998093E+01 0.  1.
</event>
<event>
 5   0  0.3041329E-06  0.3344365E+04  0.7818609E-02  0.8151698E-01
       -2   -1    0    0    0  501  0.00000000000E+00  0.00000000000E+00  0.14428655435E+04  0.14428655435E+04  0.25500000920E-02 0.  1.
        2   -1    0    0  501    0  0.00000000000E+00  0.00000000000E+00 -0.19379448491E+04  0.19379448491E+04  0.25500000920E-02 0. -1.
    10030    2    1    2    0    0  0.00000000000E+00  0.00000000000E+00 -0.49507930557E+03  0.33808103926E+04  0.33443647217E+04 0.  0.
        2    1    3    3  502    0 -0.64759721270E+03  0.33231783673E+03  0.12743151367E+04  0.14675477376E+04  0.25500000920E-02 0.  1.
       -2    1    3    3    0  502  0.64759721270E+03 -0.33231783673E+03 -0.17693944423E+04  0.19132626550E+04  0.25500000920E-02 0. -1.
</event>
<event>
 5   0  0.1908726E-06  0.3566920E+04  0.7818609E-02  0.8098111E-01
        2   -1    0    0  501    0  0.00000000000E+00  0.00000000000E+00  0.28664735057E+04  0.28664735057E+04  0.25500000920E-02 0. -1.
       -2   -1    0    0    0  501  0.00000000000E+00  0.00000000000E+00 -0.11096313034E+04  0.11096313034E+04  0.25500000920E-02 0.  1.
    10030    2    1    2    0    0  0.00000000000E+00  0.00000000000E+00  0.17568422023E+04  0.39761048091E+04  0.35669195294E+04 0.  0.
        5    1    3    3  502    0  0.12104021058E+04  0.87934705487E+03 -0.20370540720E+03  0.15099147272E+04  0.46999998093E+01 0.  1.
       -5    1    3    3    0  502 -0.12104021058E+04 -0.87934705487E+03  0.19605476095E+04  0.24661900819E+04  0.46999998093E+01 0. -1.
</event>
<event>
 5   0  0.1130707E-06  0.3506181E+04  0.7818609E-02  0.8112327E-01
        1   -1    0    0  501    0  0.00000000000E+00  0.00000000000E+00  0.25557579448E+04  0.25557579448E+04  0.50400001928E-02 0. -1.
       -1   -1    0    0    0  501  0.00000000000E+00  0.00000000000E+00 -0.12025107409E+04  0.12025107409E+04  0.50400001928E-02 0.  1.
    10030    2    1    2    0    0  0.00000000000E+00  0.00000000000E+00  0.13532472038E+04  0.37582686857E+04  0.35061810449E+04 0.  0.
        3    1    3    3  502    0 -0.32965900743E+03 -0.84092053094E+03  0.22871496345E+04  0.24590396217E+04  0.10100000352E+00 0. -1.
       -3    1    3    3    0  502  0.32965900743E+03  0.84092053094E+03 -0.93390243065E+03  0.12992290640E+04  0.10100000352E+00 0.  1.
</event>
<event>
 5   0  0.1110956E-06  0.3664266E+04  0.7818609E-02  0.8075927E-01
        1   -1    0    0  501    0  0.00000000000E+00  0.00000000000E+00  0.12405058102E+04  0.12405058102E+04  0.50400001928E-02 0.  1.
       -1   -1    0    0    0  501  0.00000000000E+00  0.00000000000E+00 -0.27059218103E+04  0.27059218104E+04  0.50400001928E-02 0. -1.
    10030    2    1    2    0    0  0.00000000000E+00  0.00000000000E+00 -0.14654160001E+04  0.39464276206E+04  0.36642662173E+04 0.  0.
        1    1    3    3  502    0  0.19217415112E+03  0.17620300852E+04 -0.23328623987E+03  0.17877649161E+04  0.50400001928E-02 0. -1.
       -1    1    3    3    0  502 -0.19217415112E+03 -0.17620300852E+04 -0.12321297602E+04  0.21586627045E+04  0.50400001928E-02 0.  1.
</event>
<event>
 5   0  0.3378848E-06  0.3507465E+04  0.7818609E-02  0.8112023E-01
        2   -1    0    0  501    0  0.00000000000E+00  0.00000000000E+00  0.18262113982E+04  0.18262113982E+04  0.25500000920E-02 0. -1.
       -2   -1    0    0    0  501  0.00000000000E+00  0.00000000000E+00 -0.16841303107E+04  0.16841303107E+04  0.25500000920E-02 0.  1.
    10030    2    1    2    0    0  0.00000000000E+00  0.00000000000E+00  0.14208108752E+03  0.35103417090E+04  0.35074651642E+04 0.  0.
        1    1    3    3  502    0 -0.28167390638E+02 -0.45202150070E+03 -0.16245924679E+04  0.16865401050E+04  0.50400001928E-02 0.  1.
       -1    1    3    3    0  502  0.28167390638E+02  0.45202150070E+03  0.17666735555E+04  0.18238016039E+04  0.50400001928E-02 0. -1.
</event>
<event>
 5   0  0.1908726E-06  0.3564786E+04  0.7818609E-02  0.8098606E-01
        2   -1    0    0  501    0  0.00000000000E+00  0.00000000000E+00  0.13321304579E+04  0.13321304579E+04  0.25500000920E-02 0.  1.
       -2   -1    0    0    0  501  0.00000000000E+00  0.00000000000E+00 -0.23848454813E+04  0.23848454813E+04  0.25500000920E-02 0. -1.
    10030    2    1    2    0    0  0.00000000000E+00  0.00000000000E+00 -0.10527150234E+04  0.37169759392E+04  0.35647862786E+04 0.  0.
        5    1    3    3  502    0 -0.32284403379E+02  0.17415861336E+04 -0.92029478524E+03  0.19700581527E+04  0.46999998093E+01 0. -1.
       -5    1    3    3    0  502  0.32284403379E+02 -0.17415861336E+04 -0.13242023820E+03  0.17469177865E+04  0.46999998093E+01 0.  1.
</event>
<event>
 5   0  0.1782660E-06  0.2115965E+04  0.7818609E-02  0.8554243E-01
       -2   -1    0    0    0  501  0.00000000000E+00  0.00000000000E+00  0.75659150650E+03  0.75659150650E+03  0.25500000920E-02 0.  1.
        2   -1    0    0  501    0  0.00000000000E+00  0.00000000000E+00 -0.14794333369E+04  0.14794333369E+04  0.25500000920E-02 0. -1.
    10030    2    1    2    0    0  0.00000000000E+00  0.00000000000E+00 -0.72284183042E+03  0.22360248434E+04  0.21159647418E+04 0.  0.
        4    1    3    3  502    0 -0.25264672224E+03 -0.36443648208E+03  0.65364426874E+03  0.78987135578E+03  0.12699999809E+01 0.  1.
       -4    1    3    3    0  502  0.25264672224E+03  0.36443648208E+03 -0.13764860992E+04  0.14461534876E+04  0.12699999809E+01 0. -1.
</event>
<event>
 5   0  0.1130707E-06  0.3540736E+04  0.7818609E-02  0.8104203E-01
       -1   -1    0    0    0  501  0.00000000000E+00  0.00000000000E+00  0.15271191122E+04  0.15271191122E+04  0.50400001928E-02 0. -1.
        1   -1    0    0  501    0  0.00000000000E+00  0.00000000000E+00 -0.20523631770E+04  0.20523631770E+04  0.50400001928E-02 0.  1.
    10030    2    1    2    0    0  0.00000000000E+00  0.00000000000E+00 -0.52524406488E+03  0.35794822892E+04  0.35407361002E+04 0.  0.
        3    1    3    3  502    0  0.73694342881E+03  0.15606799813E+04 -0.66113801201E+03  0.18482183589E+04  0.10100000352E+00 0.  1.
       -3    1    3    3    0  502 -0.73694342881E+03 -0.15606799813E+04  0.13589394713E+03  0.17312639303E+04  0.10100000352E+00 0. -1.
</event>
<event>
 5   0  0.3378848E-06  0.3069089E+04  0.7818609E-02  0.8224273E-01
        2   -1    0    0  501    0  0.00000000000E+00  0.00000000000E+00  0.11471166396E+04  0.11471166396E+04  0.25500000920E-02 0.  1.
       -2   -1    0    0    0  501  0.00000000000E+00  0.00000000000E+00 -0.20528229433E+04  0.20528229433E+04  0.25500000920E-02 0. -1.
    10030    2    1    2    0    0  0.00000000000E+00  0.00000000000E+00 -0.90570630366E+03  0.31999395829E+04  0.30690893479E+04 0.  0.
        1    1    3    3  502    0 -0.91814792239E+03  0.45610145508E+03 -0.16433774674E+04  0.19369340838E+04  0.50400001928E-02 0. -1.
       -1    1    3    3    0  502  0.91814792239E+03 -0.45610145508E+03  0.73767116375E+03  0.12630054990E+04  0.50400001928E-02 0.  1.
</event>
<event>
 5   0  0.1125196E-06  0.3454885E+04  0.7818609E-02  0.8124566E-01
       -1   -1    0    0    0  501  0.00000000000E+00  0.00000000000E+00  0.17984043445E+04  0.17984043445E+04  0.50400001928E-02 0.  1.
        1   -1    0    0  501    0  0.00000000000E+00  0.00000000000E+00 -0.16592803786E+04  0.16592803786E+04  0.50400001928E-02 0. -1.
    10030    2    1    2    0    0  0.00000000000E+00  0.00000000000E+00  0.13912396594E+03  0.34576847231E+04  0.34548846821E+04 0.  0.
        4    1    3    3  502    0 -0.59740121700E+03 -0.71981296136E+03  0.15229911949E+04  0.17873227761E+04  0.12699999809E+01 0.  1.
       -4    1    3    3    0  502  0.59740121700E+03  0.71981296136E+03 -0.13838672290E+04  0.16703619469E+04  0.12699999809E+01 0. -1.
</event>
<event>
 5   0  0.1102175E-06  0.2917682E+04  0.7818609E-02  0.8267636E-01
       -1   -1    0    0    0  501  0.00000000000E+00  0.00000000000E+00  0.12200413235E+04  0.12200413235E+04  0.50400001928E-02 0. -1.
        1   -1    0    0  501    0  0.00000000000E+00  0.00000000000E+00 -0.17443815171E+04  0.17443815171E+04  0.50400001928E-02 0.  1.
    10030    2    1    2    0    0  0.00000000000E+00  0.00000000000E+00 -0.52434019364E+03  0.29644228406E+04  0.29176823232E+04 0.  0.
        5    1    3    3  502    0  0.13871043611E+03  0.14621222337E+03 -0.17301610602E+04  0.17418662359E+04  0.46999998093E+01 0.  1.
       -5    1    3    3    0  502 -0.13871043611E+03 -0.14621222337E+03  0.12058208666E+04  0.12225566047E+04  0.46999998093E+01 0. -1.
</event>
<event>
 5   0  0.1089337E-06  0.2894366E+04  0.7818609E-02  0.8274556E-01
        1   -1    0    0  501    0  0.00000000000E+00  0.00000000000E+00  0.10858661291E+04  0.10858661291E+04  0.50400001928E-02 0. -1.
       -1   -1    0    0    0  501  0.00000000000E+00  0.00000000000E+00 -0.19287266409E+04  0.19287266409E+04  0.50400001928E-02 0.  1.
    10030    2    1    2    0    0  0.00000000000E+00  0.00000000000E+00 -0.84286051183E+03  0.30145927700E+04  0.28943662047E+04 0.  0.
        2    1    3    3  502    0 -0.14416840711E+04  0.10462078946E+03 -0.34822219187E+03  0.14868278869E+04  0.25500000920E-02 0. -1.
       -2    1    3    3    0  502  0.14416840711E+04 -0.10462078946E+03 -0.49463831996E+03  0.15277648831E+04  0.25500000920E-02 0.  1.
</event>
<event>
 5   0  0.1782660E-06  0.3603452E+04  0.7818609E-02  0.8089701E-01
        2   -1    0    0  501    0  0.00000000000E+00  0.00000000000E+00  0.18005705465E+04  0.18005705465E+04  0.25500000920E-02 0.  1.
       -2   -1    0    0    0  501  0.00000000000E+00  0.00000000000E+00 -0.18028825458E+04  0.18028825458E+04  0.25500000920E-02 0. -1.
    10030    2    1    2    0    0  0.00000000000E+00  0.00000000000E+00 -0.23119992982E+01  0.36034530923E+04  0.36034523506E+04 0.  0.
        4    1    3    3  502    0  0.30275370291E+03 -0.13063846307E+04 -0.12044496405E+04  0.18024985873E+04  0.12699999809E+01 0. -1.
       -4    1    3    3    0  502 -0.30275370291E+03  0.13063846307E+04  0.12021376412E+04  0.18009545050E+04  0.12699999809E+01 0.  1.
</event>
<event>
 5   0  0.1908726E-06  0.3365755E+04  0.7818609E-02  0.8146363E-01
        2   -1    0    0  501    0  0.00000000000E+00  0.00000000000E+00  0.27206679940E+04  0.27206679940E+04  0.25500000920E-02 0.  1.
       -2   -1    0    0    0  501  0.00000000000E+00  0.00000000000E+00 -0.10409488072E+04  0.10409488072E+04  0.25500000920E-02 0. -1.
    10030    2    1    2    0    0  0.00000000000E+00  0.00000000000E+00  0.16797191869E+04  0.37616168012E+04  0.33657546572E+04 0.  0.
        5    1    3    3  502    0  0.15820901581E+04 -0.22816029519E+03  0.14280558808E+04  0.21434626373E+04  0.46999998093E+01 0.  1.
       -5    1    3    3    0  502 -0.15820901581E+04  0.22816029519E+03  0.25166330612E+03  0.16181541640E+04  0.46999998093E+01 0. -1.
</event>
<event>
 5   0  0.1125196E-06  0.3520346E+04  0.7818609E-02  0.8108985E-01
       -1   -1    0    0    0  501  0.00000000000E+00  0.00000000000E+00  0.22483087695E+04  0.22483087695E+04  0.50400001928E-02 0.  1.
        1   -1    0    0  501    0  0.00000000000E+00  0.00000000000E+00 -0.13780172686E+04  0.13780172686E+04  0.50400001928E-02 0. -1.
    10030    2    1    2    0    0  0.00000000000E+00  0.00000000000E+00  0.87029150088E+03  0.36263260380E+04  0.35203456134E+04 0.  0.
        4    1    3    3  502    0 -0.97799077808E+03  0.14624773553E+04  0.37966600964E+03  0.17998482905E+04  0.12699999809E+01 0.  1.
       -4    1    3    3    0  502  0.97799077808E+03 -0.14624773553E+04  0.49062549123E+03  0.18264777476E+04  0.12699999809E+01 0. -1.
</event>
<event>
 5   0  0.1042825E-06  0.3129719E+04  0.7818609E-02  0.8207629E-01
       -3   -1    0    0    0  501  0.00000000000E+00  0.00000000000E+00  0.18009224141E+04  0.18009224169E+04  0.10100000352E+00 0. -1.
        3   -1    0    0  501    0  0.00000000000E+00  0.00000000000E+00 -0.13597398751E+04  0.13597398789E+04  0.10100000352E+00 0.  1.
    10030    2    1    2    0    0  0.00000000000E+00  0.00000000000E+00  0.44118253894E+03  0.31606622958E+04  0.31297194947E+04 0.  0.
        3    1    3    3  502    0  0.10202847860E+04  0.10105242585E+04 -0.40736481292E+03  0.14926776016E+04  0.10100000352E+00 0.  1.
       -3    1    3    3    0  502 -0.10202847860E+04 -0.10105242585E+04  0.84854735186E+03  0.16679846942E+04  0.10100000352E+00 0. -1.
</event>
<event>
 5   0  0.1102175E-06  0.3546884E+04  0.7818609E-02  0.8102768E-01
       -1   -1    0    0    0  501  0.00000000000E+00  0.00000000000E+00  0.20741537371E+04  0.20741537371E+04  0.50400001928E-02 0.  1.
        1   -1    0    0  501    0  0.00000000000E+00  0.00000000000E+00 -0.15163271890E+04  0.15163271890E+04  0.50400001928E-02 0. -1.
    10030    2    1    2    0    0  0.00000000000E+00  0.00000000000E+00  0.55782654811E+03  0.35904809261E+04  0.35468835367E+04 0.  0.
        5    1    3    3  502    0  0.12885984843E+04 -0.12112308560E+04  0.41285510061E+03  0.18160500171E+04  0.46999998093E+01 0. -1.
       -5    1    3    3    0  502 -0.12885984843E+04  0.12112308560E+04  0.14497144750E+03  0.17744309090E+04  0.46999998093E+01 0.  1.
</event>
<event>
 5   0  0.3378848E-06  0.3486972E+04  0.7818609E-02  0.8116884E-01
        2   -1    0    0  501    0  0.00000000000E+00  0.00000000000E+00  0.15705484869E+04  0.15705484869E+04  0.25500000920E-02 0. -1.
       -2   -1    0    0    0  501  0.00000000000E+00  0.00000000000E+00 -0.19354660638E+04  0.19354660638E+04  0.25500000920E-02 0.  1.
    10030    2    1    2    0    0  0.00000000000E+00  0.00000000000E+00 -0.36491757691E+03  0.35060145507E+04  0.34869719230E+04 0.  0.
        1    1    3    3  502    0 -0.15972831039E+04 -0.47172956028E+03  0.33601334247E+03  0.16990429831E+04  0.50400001928E-02 0. -1.
       -1    1    3    3    0  502  0.15972831039E+04  0.47172956028E+03 -0.70093091938E+03  0.18069715676E+04  0.50400001928E-02 0.  1.
</event>
<event>
 5   0  0.1042825E-06  0.1793743E+04  0.7818609E-02  0.8709634E-01
        4   -1    0    0  501    0  0.00000000000E+00  0.00000000000E+00  0.10080065226E+04  0.10080073226E+04  0.12699999809E+01 0.  1.
       -4   -1    0    0    0  501  0.00000000000E+00  0.00000000000E+00 -0.79798777177E+03  0.79798878237E+03  0.12699999809E+01 0. -1.
    10030    2    1    2    0    0  0.00000000000E+00  0.00000000000E+00  0.21001875083E+03  0.18059961050E+04  0.17937430294E+04 0.  0.
        2    1    3    3  502    0 -0.17004051790E+03  0.70794314484E+03  0.63230556735E+03  0.96431717011E+03  0.25500000920E-02 0.  1.
       -2    1    3    3    0  502  0.17004051790E+03 -0.70794314484E+03 -0.42228681652E+03  0.84167893491E+03  0.25500000920E-02 0. -1.
</event>
<event>
 5   0  0.1089337E-06  0.3534688E+04  0.7818609E-02  0.8105618E-01
       -1   -1    0    0    0  501  0.00000000000E+00  0.00000000000E+00  0.15312322260E+04  0.15312322260E+04  0.50400001928E-02 0.  1.
        1   -1    0    0  501    0  0.00000000000E+00  0.00000000000E+00 -0.20398637538E+04  0.20398637538E+04  0.50400001928E-02 0. -1.
    10030    2    1    2    0    0  0.00000000000E+00  0.00000000000E+00 -0.50863152781E+03  0.35710959798E+04  0.35346881709E+04 0.  0.
        2    1    3    3  502    0 -0.78320107635E+03 -0.12880268942E+04  0.67773083715E+03  0.16527965070E+04  0.25500000920E-02 0.  1.
       -2    1    3    3    0  502  0.78320107635E+03  0.12880268942E+04 -0.11863623650E+04  0.19182994727E+04  0.25500000920E-02 0. -1.
</event>
<event>
 5   0  0.1089337E-06  0.3455341E+04  0.7818609E-02  0.8124456E-01
        1   -1    0    0  501    0  0.00000000000E+00  0.00000000000E+00  0.26717696758E+04  0.26717696758E+04  0.50400001928E-02 0.  1.
       -1   -1    0    0    0  501  0.00000000000E+00  0.00000000000E+00 -0.11171793025E+04  0.11171793025E+04  0.50400001928E-02 0. -1.
    10030    2    1    2    0    0  0.00000000000E+00  0.00000000000E+00  0.15545903732E+04  0.37889489783E+04  0.34553412468E+04 0.  0.
        2    1    3    3  502    0  0.93592302706E+03 -0.19134851462E+03 -0.80123172466E+03  0.12468113102E+04  0.25500000920E-02 0. -1.
       -2    1    3    3    0  502 -0.93592302706E+03  0.19134851462E+03  0.23558220979E+04  0.25421376681E+04  0.25500000920E-02 0.  1.
</event>
<event>
 5   0  0.3041329E-06  0.3614819E+04  0.7818609E-02  0.8087106E-01
        2   -1    0    0  501    0  0.00000000000E+00  0.00000000000E+00  0.17355049271E+04  0.17355049271E+04  0.25500000920E-02 0.  1.
       -2   -1    0    0    0  501  0.00000000000E+00  0.00000000000E+00 -0.18822935007E+04  0.18822935007E+04  0.25500000920E-02 0. -1.
    10030    2    1    2    0    0  0.00000000000E+00  0.00000000000E+00 -0.14678857359E+03  0.36177984278E+04  0.36148193010E+04 0.  0.
        2    1    3    3  502    0  0.86157223550E+03 -0.13073278283E+04 -0.97708743472E+03  0.18455656647E+04  0.25500000920E-02 0. -1.
       -2    1    3    3    0  502 -0.86157223550E+03  0.13073278283E+04  0.83029886113E+03  0.17722327631E+04  0.25500000920E-02 0.  1.
</event>
<event>
 5   0  0.1782660E-06  0.3639998E+04  0.7818609E-02  0.8081391E-01
       -2   -1    0    0    0  501  0.00000000000E+00  0.00000000000E+00  0.17818915544E+04  0.17818915544E+04  0.25500000920E-02 0.  1.
        2   -1    0    0  501    0  0.00000000000E+00  0.00000000000E+00 -0.18589211214E+04  0.18589211214E+04  0.25500000920E-02 0. -1.
    10030    2    1    2    0    0  0.00000000000E+00  0.00000000000E+00 -0.77029567025E+02  0.36408126758E+04  0.36399977179E+04 0.  0.
        4    1    3    3  502    0 -0.11980374033E+04  0.12527744724E+04 -0.59330709869E+03  0.18321442150E+04  0.12699999809E+01 0. -1.
       -4    1    3    3    0  502  0.11980374033E+04 -0.12527744724E+04  0.51627753166E+03  0.18086684608E+04  0.12699999809E+01 0.  1.
</event>
<event>
 5   0  0.3378848E-06  0.3568607E+04  0.7818609E-02  0.8097721E-01
       -2   -1    0    0    0  501  0.00000000000E+00  0.00000000000E+00  0.15770875544E+04  0.15770875544E+04  0.25500000920E-02 0. -1.
        2   -1    0    0  501    0  0.00000000000E+00  0.00000000000E+00 -0.20187463219E+04  0.20187463219E+04  0.25500000920E-02 0.  1.
    10030    2    1    2    0    0  0.00000000000E+00  0.00000000000E+00 -0.44165876745E+03  0.35958338763E+04  0.35686074033E+04 0.  0.
        1    1    3    3  502    0  0.23400508025E+03  0.83849155869E+03  0.13485880723E+04  0.16051530333E+04  0.50400001928E-02 0. -1.
       -1    1    3    3    0  502 -0.23400508025E+03 -0.83849155869E+03 -0.17902468397E+04  0.19906808430E+04  0.50400001928E-02 0.  1.
</event>
<event>
 5   0  0.1110956E-06  0.2866136E+04  0.7818609E-02  0.8283025E-01
        1   -1    0    0  501    0  0.00000000000E+00  0.00000000000E+00  0.17224614455E+04  0.17224614455E+04  0.50400001928E-02 0.  1.
       -1   -1    0    0    0  501  0.00000000000E+00  0.00000000000E+00 -0.11922961278E+04  0.11922961278E+04  0.50400001928E-02 0. -1.
    10030    2    1    2    0    0  0.00000000000E+00  0.00000000000E+00  0.53016531770E+03  0.29147575732E+04  0.28661361528E+04 0.  0.
        1    1    3    3  502    0 -0.10571457892E+04  0.34139886294E+03 -0.65557809654E+03  0.12899197820E+04  0.50400001928E-02 0. -1.
       -1    1    3    3    0  502  0.10571457892E+04 -0.34139886294E+03  0.11857434142E+04  0.16248377912E+04  0.50400001928E-02 0.  1.
</event>
<event>
 5   0  0.2565004E-06  0.2656723E+04  0.7818609E-02  0.8349185E-01
       -2   -1    0    0    0  501  0.00000000000E+00  0.00000000000E+00  0.10486801374E+04  0.10486801374E+04  0.25500000920E-02 0. -1.
        2   -1    0    0  501    0  0.00000000000E+00  0.00000000000E+00 -0.16826340436E+04  0.16826340436E+04  0.25500000920E-02 0.  1.
    10030    2    1    2    0    0  0.00000000000E+00  0.00000000000E+00 -0.63395390622E+03  0.27313141810E+04  0.26567234708E+04 0.  0.
        3    1    3    3  502    0  0.95912915058E+03  0.90719794444E+03 -0.16585306630E+03  0.13305803575E+04  0.10100000352E+00 0.  1.
       -3    1    3    3    0  502 -0.95912915058E+03 -0.90719794444E+03 -0.46810083992E+03  0.14007338235E+04  0.10100000352E+00 0. -1.
</event>
<event>
 5   0  0.1042825E-06  0.3438123E+04  0.7818609E-02  0.8128613E-01
       -3   -1    0    0    0  501  0.00000000000E+00  0.00000000000E+00  0.18239123683E+04  0.18239123711E+04  0.10100000352E+00 0. -1.
        3   -1    0    0  501    0  0.00000000000E+00  0.00000000000E+00 -0.16202382467E+04  0.16202382498E+04  0.10100000352E+00 0.  1.
    10030    2    1    2    0    0  0.00000000000E+00  0.00000000000E+00  0.20367412169E+03  0.34441506209E+04  0.34381230856E+04 0.  0.
        1    1    3    3  502    0 -0.38655415840E+03  0.68810096521E+03  0.16316900961E+04  0.18125450685E+04  0.50400001928E-02 0. -1.
       -1    1    3    3    0  502  0.38655415840E+03 -0.68810096521E+03 -0.14280159744E+04  0.16316055525E+04  0.50400001928E-02 0.  1.
</event>
<event>
 5   0  0.1130707E-06  0.3845315E+04  0.7818609E-02  0.8036500E-01
       -1   -1    0    0    0  501  0.00000000000E+00  0.00000000000E+00  0.13543526531E+04  0.13543526531E+04  0.50400001928E-02 0.  1.
        1   -1    0    0  501    0  0.00000000000E+00  0.00000000000E+00 -0.27294312230E+04  0.27294312230E+04  0.50400001928E-02 0. -1.
    10030    2    1    2    0    0  0.00000000000E+00  0.00000000000E+00 -0.13750785699E+04  0.40837838761E+04  0.38453152892E+04 0.  0.
        3    1    3    3  502    0  0.12304476499E+04 -0.14483663498E+04 -0.99688652123E+03  0.21460543443E+04  0.10100000352E+00 0. -1.
       -3    1    3    3    0  502 -0.12304476499E+04  0.14483663498E+04 -0.37819204870E+03  0.19377295318E+04  0.10100000352E+00 0.  1.
</event>
<event>
 5   0  0.1102175E-06  0.2486686E+04  0.7818609E-02  0.8407744E-01
       -1   -1    0    0    0  501  0.00000000000E+00  0.00000000000E+00  0.10591753160E+04  0.10591753161E+04  0.50400001928E-02 0.  1.
        1   -1    0    0  501    0  0.00000000000E+00  0.00000000000E+00 -0.14595336241E+04  0.14595336241E+04  0.50400001928E-02 0. -1.
    10030    2    1    2    0    0  0.00000000000E+00  0.00000000000E+00 -0.40035830801E+03  0.25187089401E+04  0.24866861383E+04 0.  0.
        5    1    3    3  502    0  0.49146792018E+03 -0.76251275053E+03  0.66101321648E+03  0.11224646870E+04  0.46999998093E+01 0.  1.
       -5    1    3    3    0  502 -0.49146792018E+03  0.76251275053E+03 -0.10613715245E+04  0.13962442531E+04  0.46999998093E+01 0. -1.
</event>
<event>
 5   0  0.3041329E-06  0.3469700E+04  0.7818609E-02  0.8121008E-01
       -2   -1    0    0    0  501  0.00000000000E+00  0.00000000000E+00  0.11779367763E+04  0.11779367763E+04  0.25500000920E-02 0.  1.
        2   -1    0    0  501    0  0.00000000000E+00  0.00000000000E+00 -0.25550652398E+04  0.25550652398E+04  0.25500000920E-02 0. -1.
    10030    2    1    2    0    0  0.00000000000E+00  0.00000000000E+00 -0.13771284635E+04  0.37330020161E+04  0.34697004550E+04 0.  0.
        2    1    3    3  502    0 -0.46066038260E+03  0.44290955619E+03 -0.24238213583E+04  0.25066485274E+04  0.25500000920E-02 0. -1.
       -2    1    3    3    0  502  0.46066038260E+03 -0.44290955619E+03  0.10466928949E+04  0.12263534887E+04  0.25500000920E-02 0.  1.
</event>
<event>
 5   0  0.1110956E-06  0.2001297E+04  0.7818609E-02  0.8606015E-01
        1   -1    0    0  501    0  0.00000000000E+00  0.00000000000E+00  0.58485635559E+03  0.58485635561E+03  0.50400001928E-02 0.  1.
       -1   -1    0    0    0  501  0.00000000000E+00  0.00000000000E+00 -0.17120392234E+04  0.17120392234E+04  0.50400001928E-02 0. -1.
    10030    2    1    2    0    0  0.00000000000E+00  0.00000000000E+00 -0.11271828678E+04  0.22968955790E+04  0.20012966006E+04 0.  0.
        1    1    3    3  502    0  0.10639138708E+03  0.30614200410E+02  0.57780593773E+03  0.58831629097E+03  0.50400001928E-02 0.  1.
       -1    1    3    3    0  502 -0.10639138708E+03 -0.30614200410E+02 -0.17049888055E+04  0.17085792880E+04  0.50400001928E-02 0. -1.
</event>
<event>
 5   0  0.2565004E-06  0.3459592E+04  0.7818609E-02  0.8123433E-01
        2   -1    0    0  501    0  0.00000000000E+00  0.00000000000E+00  0.14721335345E+04  0.14721335345E+04  0.25500000920E-02 0. -1.
       -2   -1    0    0    0  501  0.00000000000E+00  0.00000000000E+00 -0.20325558786E+04  0.20325558786E+04  0.25500000920E-02 0.  1.
    10030    2    1    2    0    0  0.00000000000E+00  0.00000000000E+00 -0.56042234416E+03  0.35046894131E+04  0.34595916924E+04 0.  0.
        3    1    3    3  502    0 -0.16308047338E+04 -0.53330453270E+03 -0.57675468672E+02  0.17167598185E+04  0.10100000352E+00 0. -1.
       -3    1    3    3    0  502  0.16308047338E+04  0.53330453270E+03 -0.50274687549E+03  0.17879295946E+04  0.10100000352E+00 0.  1.
</event>
<event>
 5   0  0.1130707E-06  0.2259278E+04  0.7818609E-02  0.8494152E-01
       -1   -1    0    0    0  501  0.00000000000E+00  0.00000000000E+00  0.11801003349E+04  0.11801003349E+04  0.50400001928E-02 0. -1.
        1   -1    0    0  501    0  0.00000000000E+00  0.00000000000E+00 -0.10813356856E+04  0.10813356857E+04  0.50400001928E-02 0.  1.
    10030    2    1    2    0    0  0.00000000000E+00  0.00000000000E+00  0.98764649237E+02  0.22614360205E+04  0.22592782961E+04 0.  0.
        3    1    3    3  502    0 -0.58983762742E+03 -0.24459403950E+03 -0.88336059360E+03  0.10899819354E+04  0.10100000352E+00 0.  1.
       -3    1    3    3    0  502  0.58983762742E+03  0.24459403950E+03  0.98212524284E+03  0.11714540852E+04  0.10100000352E+00 0. -1.
</event>
<event>
 5   0  0.2565004E-06  0.3479124E+04  0.7818609E-02  0.8118755E-01
        2   -1    0    0  501    0  0.00000000000E+00  0.00000000000E+00  0.12180175113E+04  0.12180175114E+04  0.25500000920E-02 0. -1.
       -2   -1    0    0    0  501  0.00000000000E+00  0.00000000000E+00 -0.24844274407E+04  0.24844274407E+04  0.25500000920E-02 0.  1.
    10030    2    1    2    0    0  0.00000000000E+00  0.00000000000E+00 -0.12664099294E+04  0.37024449521E+04  0.34791241015E+04 0.  0.
        3    1    3    3  502    0  0.14490752975E+04 -0.48510996127E+03  0.25136912528E+03  0.15486566242E+04  0.10100000352E+00 0. -1.
       -3    1    3    3    0  502 -0.14490752975E+04  0.48510996127E+03 -0.15177790547E+04  0.21537883279E+04  0.10100000352E+00 0.  1.
</event>
<event>
 5   0  0.1102175E-06  0.3349133E+04  0.7818609E-02  0.8150505E-01
        1   -1    0    0  501    0  0.00000000000E+00  0.00000000000E+00  0.11257783779E+04  0.11257783779E+04  0.50400001928E-02 0. -1.
       -1   -1    0    0    0  501  0.00000000000E+00  0.00000000000E+00 -0.24908754086E+04  0.24908754086E+04  0.50400001928E-02 0.  1.
    10030    2    1    2    0    0  0.00000000000E+00  0.00000000000E+00 -0.13650970307E+04  0.36166537865E+04  0.33491334265E+04 0.  0.
        5    1    3    3  502    0 -0.30291895079E+03  0.98113538459E+03 -0.21109962553E+04  0.23474909613E+04  0.46999998093E+01 0.  1.
       -5    1    3    3    0  502  0.30291895079E+03 -0.98113538459E+03  0.74589922458E+03  0.12691628252E+04  0.46999998093E+01 0. -1.
</event>
<event>
 5   0  0.1782660E-06  0.2217960E+04  0.7818609E-02  0.8510990E-01
        2   -1    0    0  501    0  0.00000000000E+00  0.00000000000E+00  0.88914849515E+03  0.88914849516E+03  0.25500000920E-02 0. -1.
       -2   -1    0    0    0  501  0.00000000000E+00  0.00000000000E+00 -0.13831616926E+04  0.13831616926E+04  0.25500000920E-02 0.  1.
    10030    2    1    2    0    0  0.00000000000E+00  0.00000000000E+00 -0.49401319749E+03  0.22723101878E+04  0.22179595466E+04 0.  0.
        4    1    3    3  502    0 -0.10391705542E+04 -0.10171299333E+03 -0.62981175712E+03  0.12193791191E+04  0.12699999809E+01 0. -1.
       -4    1    3    3    0  502  0.10391705542E+04  0.10171299333E+03  0.13579855963E+03  0.10529310687E+04  0.12699999809E+01 0.  1.
</event>
<event>
 5   0  0.1782660E-06  0.3623188E+04  0.7818609E-02  0.8085201E-01
       -2   -1    0    0    0  501  0.00000000000E+00  0.00000000000E+00  0.12224789263E+04  0.12224789263E+04  0.25500000920E-02 0.  1.
        2   -1    0    0  501    0  0.00000000000E+00  0.00000000000E+00 -0.26846052619E+04  0.26846052619E+04  0.25500000920E-02 0. -1.
    10030    2    1    2    0    0  0.00000000000E+00  0.00000000000E+00 -0.14621263356E+04  0.39070841883E+04  0.36231882966E+04 0.  0.
        4    1    3    3  502    0  0.10902257244E+04 -0.68187661999E+03 -0.21071069804E+04  0.24684912993E+04  0.12699999809E+01 0. -1.
       -4    1    3    3    0  502 -0.10902257244E+04  0.68187661999E+03  0.64498064481E+03  0.14385928889E+04  0.12699999809E+01 0.  1.
</event>
<event>
 5   0  0.1125196E-06  0.3434278E+04  0.7818609E-02  0.8129544E-01
        1   -1    0    0  501    0  0.00000000000E+00  0.00000000000E+00  0.22440447231E+04  0.22440447231E+04  0.50400001928E-02 0. -1.
       -1   -1    0    0    0  501  0.00000000000E+00  0.00000000000E+00 -0.13139515539E+04  0.13139515539E+04  0.50400001928E-02 0.  1.
    10030    2    1    2    0    0  0.00000000000E+00  0.00000000000E+00  0.93009316915E+03  0.35579962770E+04  0.34342778286E+04 0.  0.
        4    1    3    3  502    0  0.66303097773E+03 -0.65315865064E+03 -0.10299688964E+04  0.13881872499E+04  0.12699999809E+01 0.  1.
       -4    1    3    3    0  502 -0.66303097773E+03  0.65315865064E+03  0.19600620656E+04  0.21698090271E+04  0.12699999809E+01 0. -1.
</event>
<event>
 5   0  0.1089337E-06  0.3943687E+04  0.7818609E-02  0.8016004E-01
        1   -1    0    0  501    0  0.00000000000E+00  0.00000000000E+00  0.20043817246E+04  0.20043817246E+04  0.50400001928E-02 0. -1.
       -1   -1    0    0    0  501  0.00000000000E+00  0.00000000000E+00 -0.19398330251E+04  0.19398330251E+04  0.50400001928E-02 0.  1.
    10030    2    1    2    0    0  0.00000000000E+00  0.00000000000E+00  0.64548699474E+02  0.39442147497E+04  0.39436865313E+04 0.  0.
        2    1    3    3  502    0  0.14276598894E+04 -0.13503822268E+04  0.19484133308E+03  0.19747678505E+04  0.25500000920E-02 0. -1.
       -2    1    3    3    0  502 -0.14276598894E+04  0.13503822268E+04 -0.13029263360E+03  0.19694468992E+04  0.25500000920E-02 0.  1.
</event>
<event>
 5   0  0.3378848E-06  0.3536653E+04  0.7818609E-02  0.8105158E-01
       -2   -1    0    0    0  501  0.00000000000E+00  0.00000000000E+00  0.19657454876E+04  0.19657454876E+04  0.25500000920E-02 0.  1.
        2   -1    0    0  501    0  0.00000000000E+00  0.00000000000E+00 -0.15907338873E+04  0.15907338873E+04  0.25500000920E-02 0. -1.
    10030    2    1    2    0    0  0.00000000000E+00  0.00000000000E+00  0.37501160028E+03  0.35564793750E+04  0.35366526327E+04 0.  0.
        1    1    3    3  502    0 -0.85939991893E+03  0.10367194596E+04  0.13400648318E+04  0.18997708314E+04  0.50400001928E-02 0.  1.
       -1    1    3    3    0  502  0.85939991893E+03 -0.10367194596E+04 -0.96505323152E+03  0.16567085435E+04  0.50400001928E-02 0. -1.
</event>
<event>
 5   0  0.1089337E-06  0.2435844E+04  0.7818609E-02  0.8426205E-01
        1   -1    0    0  501    0  0.00000000000E+00  0.00000000000E+00  0.14895276414E+04  0.14895276414E+04  0.50400001928E-02 0.  1.
       -1   -1    0    0    0  501  0.00000000000E+00  0.00000000000E+00 -0.99584208797E+03  0.99584208798E+03  0.50400001928E-02 0. -1.
    10030    2    1    2    0    0  0.00000000000E+00  0.00000000000E+00  0.49368555346E+03  0.24853697294E+04  0.24358442615E+04 0.  0.
        2    1    3    3  502    0 -0.79976799757E+03 -0.85936400810E+03 -0.84095672064E+02  0.11769483550E+04  0.25500000920E-02 0. -1.
       -2    1    3    3    0  502  0.79976799757E+03  0.85936400810E+03  0.57778122552E+03  0.13084213744E+04  0.25500000920E-02 0.  1.
</event>
<event>
 5   0  0.1782660E-06  0.3483496E+04  0.7818609E-02  0.8117712E-01
        2   -1    0    0  501    0  0.00000000000E+00  0.00000000000E+00  0.15940058936E+04  0.15940058936E+04  0.25500000920E-02 0.  1.
       -2   -1    0    0    0  501  0.00000000000E+00  0.00000000000E+00 -0.19031835147E+04  0.19031835147E+04  0.25500000920E-02 0. -1.
    10030    2    1    2    0    0  0.00000000000E+00  0.00000000000E+00 -0.30917762110E+03  0.34971894083E+04  0.34834957953E+04 0.  0.
        4    1    3    3  502    0 -0.13148053346E+04 -0.98116599190E+03  0.43276175046E+03  0.16966685349E+04  0.12699999809E+01 0.  1.
       -4    1    3    3    0  502  0.13148053346E+04  0.98116599190E+03 -0.74193937156E+03  0.18005208734E+04  0.12699999809E+01 0. -1.
</event>
<event>
 5   0  0.2565004E-06  0.2968698E+04  0.7818609E-02  0.8252726E-01
        2   -1    0    0  501    0  0.00000000000E+00  0.00000000000E+00  0.18076740196E+04  0.18076740196E+04  0.25500000920E-02 0. -1.
       -2   -1    0    0    0  501  0.00000000000E+00  0.00000000000E+00 -0.12188550842E+04  0.12188550842E+04  0.25500000920E-02 0.  1.
    10030    2    1    2    0    0  0.00000000000E+00  0.00000000000E+00  0.58881893548E+03  0.30265291038E+04  0.29686984821E+04 0.  0.
        3    1    3    3  502    0  0.97736798215E+03 -0.51224288413E+03  0.13065492727E+04  0.17101789255E+04  0.10100000352E+00 0. -1.
       -3    1    3    3    0  502 -0.97736798215E+03  0.51224288413E+03 -0.71773033722E+03  0.13163501783E+04  0.10100000352E+00 0.  1.
</event>
<event>
 5   0  0.2565004E-06  0.3545286E+04  0.7818609E-02  0.8103141E-01
       -2   -1    0    0    0  501  0.00000000000E+00  0.00000000000E+00  0.15871279069E+04  0.15871279069E+04  0.25500000920E-02 0.  1.
        2   -1    0    0  501    0  0.00000000000E+00  0.00000000000E+00 -0.19798419277E+04  0.19798419277E+04  0.25500000920E-02 0. -1.
    10030    2    1    2    0    0  0.00000000000E+00  0.00000000000E+00 -0.39271402077E+03  0.35669698346E+04  0.35452855314E+04 0.  0.
        3    1    3    3  502    0  0.81184254602E+03 -0.40847284429E+03  0.13348992243E+04  0.16148976232E+04  0.10100000352E+00 0.  1.
       -3    1    3    3    0  502 -0.81184254602E+03  0.40847284429E+03 -0.17276132451E+04  0.19520722115E+04  0.10100000352E+00 0. -1.
</event>
<event>
 5   0  0.1908726E-06  0.3488683E+04  0.7818609E-02  0.8116477E-01
        2   -1    0    0  501    0  0.00000000000E+00  0.00000000000E+00  0.11667168426E+04  0.11667168426E+04  0.25500000920E-02 0. -1.
       -2   -1    0    0    0  501  0.00000000000E+00  0.00000000000E+00 -0.26079401672E+04  0.26079401672E+04  0.25500000920E-02 0.  1.
    10030    2    1    2    0    0  0.00000000000E+00  0.00000000000E+00 -0.14412233245E+04  0.37746570098E+04  0.34886832574E+04 0.  0.
        5    1    3    3  502    0 -0.34578810521E+03 -0.92908641331E+03 -0.22735087496E+04  0.24802489999E+04  0.46999998093E+01 0.  1.
       -5    1    3    3    0  502  0.34578810521E+03  0.92908641331E+03  0.83228542510E+03  0.12944080098E+04  0.46999998093E+01 0. -1.
</event>
<event>
 5   0  0.1908726E-06  0.2593379E+04  0.7818609E-02  0.8370454E-01
        2   -1    0    0  501    0  0.00000000000E+00  0.00000000000E+00  0.22108978213E+04  0.22108978213E+04  0.25500000920E-02 0.  1.
       -2   -1    0    0    0  501  0.00000000000E+00  0.00000000000E+00 -0.76050697359E+03  0.76050697359E+03  0.25500000920E-02 0. -1.
    10030    2    1    2    0    0  0.00000000000E+00  0.00000000000E+00  0.14503908477E+04  0.29714047949E+04  0.25933786542E+04 0.  0.
        5    1    3    3  502    0  0.94955083411E+03 -0.18540939366E+03 -0.26399124898E+03  0.10028643474E+04  0.46999998093E+01 0. -1.
       -5    1    3    3    0  502 -0.94955083411E+03  0.18540939366E+03  0.17143820967E+04  0.19685404474E+04  0.46999998093E+01 0.  1.
</event>
<event>
 5   0  0.1130707E-06  0.3325182E+04  0.7818609E-02  0.8156517E-01
       -1   -1    0    0    0  501  0.00000000000E+00  0.00000000000E+00  0.16054390119E+04  0.16054390119E+04  0.50400001928E-02 0.  1.
        1   -1    0    0  501    0  0.00000000000E+00  0.00000000000E+00 -0.17217779516E+04  0.17217779516E+04  0.50400001928E-02 0. -1.
    10030    2    1    2    0    0  0.00000000000E+00  0.00000000000E+00 -0.11633893977E+03  0.33272169635E+04  0.33251823970E+04 0.  0.
        3    1    3    3  502    0  0.15040544872E+04 -0.70421998011E+03 -0.13634410778E+03  0.16663419237E+04  0.10100000352E+00 0.  1.
       -3    1    3    3    0  502 -0.15040544872E+04  0.70421998011E+03  0.20005168004E+02  0.16608750398E+04  0.10100000352E+00 0. -1.
</event>
<event>
 5   0  0.1089337E-06  0.3564625E+04  0.7818609E-02  0.8098643E-01
        1   -1    0    0  501    0  0.00000000000E+00  0.00000000000E+00  0.23585993201E+04  0.23585993201E+04  0.50400001928E-02 0. -1.
       -1   -1    0    0    0  501  0.00000000000E+00  0.00000000000E+00 -0.13468326349E+04  0.13468326349E+04  0.50400001928E-02 0.  1.
    10030    2    1    2    0    0  0.00000000000E+00  0.00000000000E+00  0.10117666851E+04  0.37054319550E+04  0.35646253868E+04 0.  0.
        2    1    3    3  502    0  0.62421342329E+01 -0.11509839836E+03 -0.13429539909E+04  0.13478916971E+04  0.25500000920E-02 0.  1.
       -2    1    3    3    0  502 -0.62421342329E+01  0.11509839836E+03  0.23547206760E+04  0.23575402579E+04  0.25500000920E-02 0. -1.
</event>
<event>
 5   0  0.2565004E-06  0.1889393E+04  0.7818609E-02  0.8660154E-01
        2   -1    0    0  501    0  0.00000000000E+00  0.00000000000E+00  0.10776271508E+04  0.10776271508E+04  0.25500000920E-02 0.  1.
       -2   -1    0    0    0  501  0.00000000000E+00  0.00000000000E+00 -0.82816337137E+03  0.82816337138E+03  0.25500000920E-02 0. -1.
    10030    2    1    2    0    0  0.00000000000E+00  0.00000000000E+00  0.24946377945E+03  0.19057905222E+04  0.18893928488E+04 0.  0.
        3    1    3    3  502    0 -0.93994949136E+03  0.26433330128E+02  0.21633612527E+03  0.96488605366E+03  0.10100000352E+00 0. -1.
       -3    1    3    3    0  502  0.93994949136E+03 -0.26433330128E+02  0.33127654176E+02  0.94090446854E+03  0.10100000352E+00 0.  1.
</event>
<event>
 5   0  0.1782660E-06  0.3319150E+04  0.7818609E-02  0.8158040E-01
        2   -1    0    0  501    0  0.00000000000E+00  0.00000000000E+00  0.27636951744E+04  0.27636951744E+04  0.25500000920E-02 0. -1.
       -2   -1    0    0    0  501  0.00000000000E+00  0.00000000000E+00 -0.99656016847E+03  0.99656016848E+03  0.25500000920E-02 0.  1.
    10030    2    1    2    0    0  0.00000000000E+00  0.00000000000E+00  0.17671350059E+04  0.37602553428E+04  0.33191496071E+04 0.  0.
        4    1    3    3  502    0  0.11664088327E+04 -0.13743620537E+02 -0.45377361493E+03  0.12516431434E+04  0.12699999809E+01 0.  1.
       -4    1    3    3    0  502 -0.11664088327E+04  0.13743620537E+02  0.22209086208E+04  0.25086121994E+04  0.12699999809E+01 0. -1.
</event>
<event>
 5   0  0.1782660E-06  0.3556645E+04  0.7818609E-02  0.8100496E-01
        2   -1    0    0  501    0  0.00000000000E+00  0.00000000000E+00  0.18892895579E+04  0.18892895579E+04  0.25500000920E-02 0.  1.
       -2   -1    0    0    0  501  0.00000000000E+00  0.00000000000E+00 -0.16738726723E+04  0.16738726723E+04  0.25500000920E-02 0. -1.
    10030    2    1    2    0    0  0.00000000000E+00  0.00000000000E+00  0.21541688558E+03  0.35631622303E+04  0.35566445766E+04 0.  0.
        4    1    3    3  502    0  0.77167018711E+03  0.54419297666E+03  0.16173898467E+04  0.18728514097E+04  0.12699999809E+01 0.  1.
       -4    1    3    3    0  502 -0.77167018711E+03 -0.54419297666E+03 -0.14019729611E+04  0.16903108206E+04  0.12699999809E+01 0. -1.
</event>
<event>
 5   0  0.3378848E-06  0.3026299E+04  0.7818609E-02  0.8236261E-01
       -2   -1    0    0    0  501  0.00000000000E+00  0.00000000000E+00  0.97486529641E+03  0.97486529641E+03  0.25500000920E-02 0.  1.
        2   -1    0    0  501    0  0.00000000000E+00  0.00000000000E+00 -0.23486547877E+04  0.23486547877E+04  0.25500000920E-02 0. -1.
    10030    2    1    2    0    0  0.00000000000E+00  0.00000000000E+00 -0.13737894913E+04  0.33235200841E+04  0.30262994206E+04 0.  0.
        1    1    3    3  502    0  0.13976052980E+04  0.57786662338E+03 -0.74060219561E+03  0.16839602179E+04  0.50400001928E-02 0. -1.
       -1    1    3    3    0  502 -0.13976052980E+04 -0.57786662338E+03 -0.63318729568E+03  0.16395598662E+04  0.50400001928E-02 0.  1.
</event>
<event>
 5   0  0.1908726E-06  0.3392550E+04  0.7818609E-02  0.8139737E-01
       -2   -1    0    0    0  501  0.00000000000E+00  0.00000000000E+00  0.12050293869E+04  0.12050293869E+04  0.25500000920E-02 0. -1.
        2   -1    0    0  501    0  0.00000000000E+00  0.00000000000E+00 -0.23877826754E+04  0.23877826754E+04  0.25500000920E-02 0.  1.
    10030    2    1    2    0    0  0.00000000000E+00  0.00000000000E+00 -0.11827532886E+04  0.35928120623E+04  0.33925496567E+04 0.  0.
        5    1    3    3  502    0 -0.77701536548E+03 -0.13036893076E+04 -0.13937046346E+04  0.20605323068E+04  0.46999998093E+01 0.  1.
       -5    1    3    3    0  502  0.77701536548E+03  0.13036893076E+04  0.21095134600E+03  0.15322797555E+04  0.46999998093E+01 0. -1.
</event>
<event>
 5   0  0.1130707E-06  0.3465457E+04  0.7818609E-02  0.8122025E-01
       -1   -1    0    0    0  501  0.00000000000E+00  0.00000000000E+00  0.16738752671E+04  0.16738752671E+04  0.50400001928E-02 0.  1.
        1   -1    0    0  501    0  0.00000000000E+00  0.00000000000E+00 -0.17936512047E+04  0.17936512047E+04  0.50400001928E-02 0. -1.
    10030    2    1    2    0    0  0.00000000000E+00  0.00000000000E+00 -0.11977593761E+03  0.34675264717E+04  0.34654571931E+04 0.  0.
        3    1    3    3  502    0 -0.96883636351E+03 -0.14275065296E+04 -0.22101078824E+03  0.17393287700E+04  0.10100000352E+00 0.  1.
       -3    1    3    3    0  502  0.96883636351E+03  0.14275065296E+04  0.10123485064E+03  0.17281977018E+04  0.10100000352E+00 0. -1.
</event>
<event>
 5   0  0.2565004E-06  0.3603711E+04  0.7818609E-02  0.8089642E-01
        2   -1    0    0  501    0  0.00000000000E+00  0.00000000000E+00  0.11239515573E+04  0.11239515573E+04  0.25500000920E-02 0. -1.
       -2   -1    0    0    0  501  0.00000000000E+00  0.00000000000E+00 -0.28886323594E+04  0.28886323594E+04  0.25500000920E-02 0.  1.
    10030    2    1    2    0    0  0.00000000000E+00  0.00000000000E+00 -0.17646808021E+04  0.40125839168E+04  0.36037107758E+04 0.  0.
        3    1    3    3  502    0 -0.14465134211E+04  0.10597791360E+04 -0.68582220590E+03  0.19198658815E+04  0.10100000352E+00 0.  1.
       -3    1    3    3    0  502  0.14465134211E+04 -0.10597791360E+04 -0.10788585962E+04  0.20927180353E+04  0.10100000352E+00 0. -1.
</event>
<event>
 5   0  0.1908726E-06  0.1726030E+04  0.7818609E-02  0.8746656E-01
       -2   -1    0    0    0  501  0.00000000000E+00  0.00000000000E+00  0.38131045643E+03  0.38131045644E+03  0.25500000920E-02 0.  1.
        2   -1    0    0  501    0  0.00000000000E+00  0.00000000000E+00 -0.19532501299E+04  0.19532501299E+04  0.25500000920E-02 0. -1.
    10030    2    1    2    0    0  0.00000000000E+00  0.00000000000E+00 -0.15719396735E+04  0.23345605864E+04  0.17260297779E+04 0.  0.
        5    1    3    3  502    0  0.24845754932E+03  0.32579816111E+03 -0.18132904689E+04  0.18590104922E+04  0.46999998093E+01 0. -1.
       -5    1    3    3    0  502 -0.24845754932E+03 -0.32579816111E+03  0.24135079540E+03  0.47555009414E+03  0.46999998093E+01 0.  1.
</event>
<event>
 5   0  0.1102175E-06  0.3697292E+04  0.7818609E-02  0.8068562E-01
       -1   -1    0    0    0  501  0.00000000000E+00  0.00000000000E+00  0.18971667765E+04  0.18971667765E+04  0.50400001928E-02 0.  1.
        1   -1    0    0  501    0  0.00000000000E+00  0.00000000000E+00 -0.18013659156E+04  0.18013659157E+04  0.50400001928E-02 0. -1.
    10030    2    1    2    0    0  0.00000000000E+00  0.00000000000E+00  0.95800860811E+02  0.36985326921E+04  0.36972917480E+04 0.  0.
        5    1    3    3  502    0  0.16895933159E+04 -0.11484244363E+03 -0.69366823138E+03  0.18300579404E+04  0.46999998093E+01 0. -1.
       -5    1    3    3    0  502 -0.16895933159E+04  0.11484244363E+03  0.78946909219E+03  0.18684747517E+04  0.46999998093E+01 0.  1.
</event>
<event>
 5   0  0.3041329E-06  0.3408482E+04  0.7818609E-02  0.8135828E-01
       -2   -1    0    0    0  501  0.00000000000E+00  0.00000000000E+00  0.16491747727E+04  0.16491747727E+04  0.25500000920E-02 0.  1.
        2   -1    0    0  501    0  0.00000000000E+00  0.00000000000E+00 -0.17611463885E+04  0.17611463885E+04  0.25500000920E-02 0. -1.
    10030    2    1    2    0    0  0.00000000000E+00  0.00000000000E+00 -0.11197161576E+03  0.34103211612E+04  0.34084824746E+04 0.  0.
        2    1    3    3  502    0 -0.10218067144E+04  0.71389076503E+03  0.11068412932E+04  0.16669812939E+04  0.25500000920E-02 0.  1.
       -2    1    3    3    0  502  0.10218067144E+04 -0.71389076503E+03 -0.12188129089E+04  0.17433398673E+04  0.25500000920E-02 0. -1.
</event>
<event>
 5   0  0.1125196E-06  0.1894475E+04  0.7818609E-02  0.8657611E-01
       -1   -1    0    0    0  501  0.00000000000E+00  0.00000000000E+00  0.12256396469E+04  0.12256396469E+04  0.50400001928E-02 0.  1.
        1   -1    0    0  501    0  0.00000000000E+00  0.00000000000E+00 -0.73207402606E+03  0.73207402608E+03  0.50400001928E-02 0. -1.
    10030    2    1    2    0    0  0.00000000000E+00  0.00000000000E+00  0.49356562086E+03  0.19577136730E+04  0.18944750733E+04 0.  0.
        4    1    3    3  502    0  0.44098614653E+03  0.22840863449E+03  0.10803168368E+04  0.11890018362E+04  0.12699999809E+01 0.  1.
       -4    1    3    3    0  502 -0.44098614653E+03 -0.22840863449E+03 -0.58675121594E+03  0.76871183681E+03  0.12699999809E+01 0. -1.
</event>
<event>
 5   0  0.2565004E-06  0.3223167E+04  0.7818609E-02  0.8182726E-01
       -2   -1    0    0    0  501  0.00000000000E+00  0.00000000000E+00  0.20516675949E+04  0.20516675949E+04  0.25500000920E-02 0.  1.
        2   -1    0    0  501    0  0.00000000000E+00  0.00000000000E+00 -0.12658975175E+04  0.12658975175E+04  0.25500000920E-02 0. -1.
    10030    2    1    2    0    0  0.00000000000E+00  0.00000000000E+00  0.78577007737E+03  0.33175651124E+04  0.32231667131E+04 0.  0.
        3    1    3    3  502    0 -0.11504653904E+04 -0.42492101582E+03  0.14690061575E+04  0.19136633938E+04  0.10100000352E+00 0.  1.
       -3    1    3    3    0  502  0.11504653904E+04  0.42492101582E+03 -0.68323608008E+03  0.14039017186E+04  0.10100000352E+00 0. -1.
</event>
<event>
 5   0  0.2565004E-06  0.3561039E+04  0.7818609E-02  0.8099475E-01
       -2   -1    0    0    0  501  0.00000000000E+00  0.00000000000E+00  0.16855820044E+04  0.16855820044E+04  0.25500000920E-02 0.  1.
        2   -1    0    0  501    0  0.00000000000E+00  0.00000000000E+00 -0.18808040391E+04  0.18808040391E+04  0.25500000920E-02 0. -1.
    10030    2    1    2    0    0  0.00000000000E+00  0.00000000000E+00 -0.19522203465E+03  0.35663860435E+04  0.35610388609E+04 0.  0.
        3    1    3    3  502    0  0.31130635685E+02 -0.83430030757E+03  0.14773989417E+04  0.16969778322E+04  0.10100000352E+00 0.  1.
       -3    1    3    3    0  502 -0.31130635685E+02  0.83430030757E+03 -0.16726209764E+04  0.18694082113E+04  0.10100000352E+00 0. -1.
</event>
<event>
 5   0  0.1125196E-06  0.3446432E+04  0.7818609E-02  0.8126604E-01
       -1   -1    0    0    0  501  0.00000000000E+00  0.00000000000E+00  0.13464115997E+04  0.13464115997E+04  0.50400001928E-02 0. -1.
        1   -1    0    0  501    0  0.00000000000E+00  0.00000000000E+00 -0.22054721567E+04  0.22054721567E+04  0.50400001928E-02 0.  1.
    10030    2    1    2    0    0  0.00000000000E+00  0.00000000000E+00 -0.85906055707E+03  0.35518837564E+04  0.34464319489E+04 0.  0.
        4    1    3    3  502    0  0.96726206728E+03  0.13242270760E+04 -0.97516169208E+03  0.19079085917E+04  0.12699999809E+01 0.  1.
       -4    1    3    3    0  502 -0.96726206728E+03 -0.13242270760E+04  0.11610113502E+03  0.16439751647E+04  0.12699999809E+01 0. -1.
</event>
<event>
 5   0  0.1089337E-06  0.2986534E+04  0.7818609E-02  0.8247587E-01
       -1   -1    0    0    0  501  0.00000000000E+00  0.00000000000E+00  0.14382666174E+04  0.14382666174E+04  0.50400001928E-02 0.  1.
        1   -1    0    0  501    0  0.00000000000E+00  0.00000000000E+00 -0.15503708032E+04  0.15503708032E+04  0.50400001928E-02 0. -1.
    10030    2    1    2    0    0  0.00000000000E+00  0.00000000000E+00 -0.11210418581E+03  0.29886374206E+04  0.29865341590E+04 0.  0.
        2    1    3    3  502    0 -0.26446854577E+03  0.53639858757E+03 -0.14252918094E+04  0.15456790735E+04  0.25500000920E-02 0. -1.
       -2    1    3    3    0  502  0.26446854577E+03 -0.53639858757E+03  0.13131876236E+04  0.14429583470E+04  0.25500000920E-02 0.  1.
</event>
<event>
 5   0  0.1042825E-06  0.3141529E+04  0.7818609E-02  0.8204432E-01
       -3   -1    0    0    0  501  0.00000000000E+00  0.00000000000E+00  0.20515187284E+04  0.20515187309E+04  0.10100000352E+00 0. -1.
        3   -1    0    0  501    0  0.00000000000E+00  0.00000000000E+00 -0.12026703622E+04  0.12026703665E+04  0.10100000352E+00 0.  1.
    10030    2    1    2    0    0  0.00000000000E+00  0.00000000000E+00  0.84884836617E+03  0.32541890974E+04  0.31415287891E+04 0.  0.
        4    1    3    3  502    0  0.13773698290E+04  0.36095393804E+03  0.11114306770E+04  0.18062987444E+04  0.12699999809E+01 0.  1.
       -4    1    3    3    0  502 -0.13773698290E+04 -0.36095393804E+03 -0.26258231088E+03  0.14478903529E+04  0.12699999809E+01 0. -1.
</event>
<event>
 5   0  0.1130707E-06  0.3229142E+04  0.7818609E-02  0.8181163E-01
        1   -1    0    0  501    0  0.00000000000E+00  0.00000000000E+00  0.15282764137E+04  0.15282764137E+04  0.50400001928E-02 0.  1.
       -1   -1    0    0    0  501  0.00000000000E+00  0.00000000000E+00 -0.17057386729E+04  0.17057386729E+04  0.50400001928E-02 0. -1.
    10030    2    1    2    0    0  0.00000000000E+00  0.00000000000E+00 -0.17746225917E+03  0.32340150867E+04  0.32291424136E+04 0.  0.
        3    1    3    3  502    0  0.85934691541E+03 -0.89222624252E+03  0.94834839655E+03  0.15600991893E+04  0.10100000352E+00 0.  1.
       -3    1    3    3    0  502 -0.85934691541E+03  0.89222624252E+03 -0.11258106557E+04  0.16739158974E+04  0.10100000352E+00 0. -1.
</event>
<event>
 5   0  0.1110956E-06  0.3500329E+04  0.7818609E-02  0.8113712E-01
        1   -1    0    0  501    0  0.00000000000E+00  0.00000000000E+00  0.21556055114E+04  0.21556055114E+04  0.50400001928E-02 0.  1.
       -1   -1    0    0    0  501  0.00000000000E+00  0.00000000000E+00 -0.14209818090E+04  0.14209818090E+04  0.50400001928E-02 0. -1.
    10030    2    1    2    0    0  0.00000000000E+00  0.00000000000E+00  0.73462370235E+03  0.35765873204E+04  0.35003292526E+04 0.  0.
        1    1    3    3  502    0  0.16124268529E+04 -0.46669239534E+03  0.87343542910E+03  0.18922504054E+04  0.50400001928E-02 0.  1.
       -1    1    3    3    0  502 -0.16124268529E+04  0.46669239534E+03 -0.13881172675E+03  0.16843369150E+04  0.50400001928E-02 0. -1.
</event>
<event>
 5   0  0.2565004E-06  0.3091915E+04  0.7818609E-02  0.8217960E-01
       -2   -1    0    0    0  501  0.00000000000E+00  0.00000000000E+00  0.12315539220E+04  0.12315539220E+04  0.25500000920E-02 0.  1.
        2   -1    0    0  501    0  0.00000000000E+00  0.00000000000E+00 -0.19406246996E+04  0.19406246996E+04  0.25500000920E-02 0. -1.
    10030    2    1    2    0    0  0.00000000000E+00  0.00000000000E+00 -0.70907077754E+03  0.31721786216E+04  0.30919145913E+04 0.  0.
        3    1    3    3  502    0 -0.53037248866E+03 -0.94905308663E+03 -0.14821516068E+04  0.18381431211E+04  0.10100000352E+00 0. -1.
       -3    1    3    3    0  502  0.53037248866E+03  0.94905308663E+03  0.77308082922E+03  0.13340355005E+04  0.10100000352E+00 0.  1.
</event>
<event>
 5   0  0.2565004E-06  0.3483807E+04  0.7818609E-02  0.8117638E-01
        2   -1    0    0  501    0  0.00000000000E+00  0.00000000000E+00  0.20749276770E+04  0.20749276770E+04  0.25500000920E-02 0. -1.
       -2   -1    0    0    0  501  0.00000000000E+00  0.00000000000E+00 -0.14623297692E+04  0.14623297692E+04  0.25500000920E-02 0.  1.
    10030    2    1    2    0    0  0.00000000000E+00  0.00000000000E+00  0.61259790783E+03  0.35372574462E+04  0.34838074062E+04 0.  0.
        3    1    3    3  502    0  0.41123357586E+03 -0.31663156938E+02  0.20246330094E+04  0.20662174237E+04  0.10100000352E+00 0. -1.
       -3    1    3    3    0  502 -0.41123357586E+03  0.31663156938E+02 -0.14120351015E+04  0.14710400224E+04  0.10100000352E+00 0.  1.
</event>
<event>
 5   0  0.2565004E-06  0.2264624E+04  0.7818609E-02  0.8492001E-01
       -2   -1    0    0    0  501  0.00000000000E+00  0.00000000000E+00  0.58250763771E+03  0.58250763772E+03  0.25500000920E-02 0.  1.
        2   -1    0    0  501    0  0.00000000000E+00  0.00000000000E+00 -0.22010533291E+04  0.22010533291E+04  0.25500000920E-02 0. -1.
    10030    2    1    2    0    0  0.00000000000E+00  0.00000000000E+00 -0.16185456914E+04  0.27835609668E+04  0.22646239204E+04 0.  0.
        3    1    3    3  502    0  0.36198378624E+03 -0.86238104152E+03 -0.15938101225E+04  0.18479621314E+04  0.10100000352E+00 0. -1.
       -3    1    3    3    0  502 -0.36198378624E+03  0.86238104152E+03 -0.24735568892E+02  0.93559883542E+03  0.10100000352E+00 0.  1.
</event>
<event>
 5   0  0.2565004E-06  0.2587954E+04  0.7818609E-02  0.8372304E-01
        2   -1    0    0  501    0  0.00000000000E+00  0.00000000000E+00  0.20831784992E+04  0.20831784992E+04  0.25500000920E-02 0.  1.
       -2   -1    0    0    0  501  0.00000000000E+00  0.00000000000E+00 -0.80376048979E+03  0.80376048979E+03  0.25500000920E-02 0. -1.
    10030    2    1    2    0    0  0.00000000000E+00  0.00000000000E+00  0.12794180094E+04  0.28869389890E+04  0.25879540729E+04 0.  0.
        3    1    3    3  502    0  0.84900251903E+03  0.97600685588E+03  0.60475356193E+03  0.14279781304E+04  0.10100000352E+00 0. -1.
       -3    1    3    3    0  502 -0.84900251903E+03 -0.97600685588E+03  0.67466444749E+03  0.14589608586E+04  0.10100000352E+00 0.  1.
</event>
<event>
 5   0  0.1908726E-06  0.2372671E+04  0.7818609E-02  0.8449807E-01
       -2   -1    0    0    0  501  0.00000000000E+00  0.00000000000E+00  0.63284711362E+03  0.63284711362E+03  0.25500000920E-02 0.  1.
        2   -1    0    0  501    0  0.00000000000E+00  0.00000000000E+00 -0.22239043820E+04  0.22239043820E+04  0.25500000920E-02 0. -1.
    10030    2    1    2    0    0  0.00000000000E+00  0.00000000000E+00 -0.15910572684E+04  0.28567514957E+04  0.23726706212E+04 0.  0.
        5    1    3    3  502    0 -0.10541017886E+04  0.50535142400E+03 -0.10389044820E+04  0.15639230337E+04  0.46999998093E+01 0. -1.
       -5    1    3    3    0  502  0.10541017886E+04 -0.50535142400E+03 -0.55215278639E+03  0.12928284620E+04  0.46999998093E+01 0.  1.
</event>
<event>
 5   0  0.3378848E-06  0.3499683E+04  0.7818609E-02  0.8113865E-01
        2   -1    0    0  501    0  0.00000000000E+00  0.00000000000E+00  0.33926725432E+04  0.33926725432E+04  0.25500000920E-02 0. -1.
       -2   -1    0    0    0  501  0.00000000000E+00  0.00000000000E+00 -0.90251723171E+03  0.90251723171E+03  0.25500000920E-02 0.  1.
    10030    2    1    2    0    0  0.00000000000E+00  0.00000000000E+00  0.24901553115E+04  0.42951897749E+04  0.34996830896E+04 0.  0.
        1    1    3    3  502    0 -0.15642635366E+04 -0.37969721057E+03  0.20872427822E+04  0.26358438526E+04  0.50400001928E-02 0. -1.
       -1    1    3    3    0  502  0.15642635366E+04  0.37969721057E+03  0.40291252934E+03  0.16593459223E+04  0.50400001928E-02 0.  1.
</event>
<event>
 5   0  0.3041329E-06  0.2983180E+04  0.7818609E-02  0.8248550E-01
       -2   -1    0    0    0  501  0.00000000000E+00  0.00000000000E+00  0.18297764080E+04  0.18297764080E+04  0.25500000920E-02 0.  1.
        2   -1    0    0  501    0  0.00000000000E+00  0.00000000000E+00 -0.12159085819E+04  0.12159085819E+04  0.25500000920E-02 0. -1.
    10030    2    1    2    0    0  0.00000000000E+00  0.00000000000E+00  0.61386782610E+03  0.30456849898E+04  0.29831800732E+04 0.  0.
        2    1    3    3  502    0 -0.14649526704E+04 -0.11251332556E+03  0.44457260325E+02  0.14699394623E+04  0.25500000920E-02 0. -1.
       -2    1    3    3    0  502  0.14649526704E+04  0.11251332556E+03  0.56941056578E+03  0.15757455275E+04  0.25500000920E-02 0.  1.
</event>
<event>
 5   0  0.2826709E-06  0.1725999E+04  0.7818609E-02  0.8746674E-01
        2   -1    0    0  501    0  0.00000000000E+00  0.00000000000E+00  0.10331286759E+04  0.10331286759E+04  0.25500000920E-02 0.  1.
       -2   -1    0    0    0  501  0.00000000000E+00  0.00000000000E+00 -0.72088581011E+03  0.72088581011E+03  0.25500000920E-02 0. -1.
    10030    2    1    2    0    0  0.00000000000E+00  0.00000000000E+00  0.31224286584E+03  0.17540144861E+04  0.17259986124E+04 0.  0.
        3    1    3    3  502    0 -0.21306741642E+03  0.29384025243E+02 -0.69321158040E+03  0.72581226931E+03  0.10100000352E+00 0. -1.
       -3    1    3    3    0  502  0.21306741642E+03 -0.29384025243E+02  0.10054544462E+04  0.10282022168E+04  0.10100000352E+00 0.  1.
</event>
<event>
 5   0  0.1908726E-06  0.3496514E+04  0.7818609E-02  0.8114617E-01
       -2   -1    0    0    0  501  0.00000000000E+00  0.00000000000E+00  0.24833995919E+04  0.24833995919E+04  0.25500000920E-02 0. -1.
        2   -1    0    0  501    0  0.00000000000E+00  0.00000000000E+00 -0.12307333370E+04  0.12307333371E+04  0.25500000920E-02 0.  1.
    10030    2    1    2    0    0  0.00000000000E+00  0.00000000000E+00  0.12526662549E+04  0.37141329290E+04  0.34965140738E+04 0.  0.
        5    1    3    3  502    0 -0.11315718653E+04 -0.11116122859E+04  0.14070922456E+04  0.21203932272E+04  0.46999998093E+01 0. -1.
       -5    1    3    3    0  502  0.11315718653E+04  0.11116122859E+04 -0.15442599075E+03  0.15937397018E+04  0.46999998093E+01 0.  1.
</event>
<event>
 5   0  0.3041329E-06  0.2170523E+04  0.7818609E-02  0.8530798E-01
        2   -1    0    0  501    0  0.00000000000E+00  0.00000000000E+00  0.15046818235E+04  0.15046818235E+04  0.25500000920E-02 0. -1.
       -2   -1    0    0    0  501  0.00000000000E+00  0.00000000000E+00 -0.78275221053E+03  0.78275221053E+03  0.25500000920E-02 0.  1.
    10030    2    1    2    0    0  0.00000000000E+00  0.00000000000E+00  0.72192961293E+03  0.22874340340E+04  0.21705234608E+04 0.  0.
        2    1    3    3  502    0  0.55363577680E+02 -0.10252066419E+04 -0.96583040325E+01  0.10267458630E+04  0.25500000920E-02 0.  1.
       -2    1    3    3    0  502 -0.55363577680E+02  0.10252066419E+04  0.73158791696E+03  0.12606881710E+04  0.25500000920E-02 0. -1.
</event>
<event>
 5   0  0.1908726E-06  0.2582796E+04  0.7818609E-02  0.8374069E-01
        2   -1    0    0  501    0  0.00000000000E+00  0.00000000000E+00  0.65261224596E+03  0.65261224597E+03  0.25500000920E-02 0.  1.
       -2   -1    0    0    0  501  0.00000000000E+00  0.00000000000E+00 -0.25554357824E+04  0.25554357824E+04  0.25500000920E-02 0. -1.
    10030    2    1    2    0    0  0.00000000000E+00  0.00000000000E+00 -0.19028235365E+04  0.32080480284E+04  0.25827959156E+04 0.  0.
        5    1    3    3  502    0 -0.10711753559E+04 -0.63790940444E+03 -0.13695745084E+04  0.18520533133E+04  0.46999998093E+01 0. -1.
       -5    1    3    3    0  502  0.10711753559E+04  0.63790940444E+03 -0.53324902808E+03  0.13559947151E+04  0.46999998093E+01 0.  1.
</event>
<event>
 5   0  0.1908726E-06  0.3416305E+04  0.7818609E-02  0.8133916E-01
        2   -1    0    0  501    0  0.00000000000E+00  0.00000000000E+00  0.20108426930E+04  0.20108426930E+04  0.25500000920E-02 0.  1.
       -2   -1    0    0    0  501  0.00000000000E+00  0.00000000000E+00 -0.14510259240E+04  0.14510259240E+04  0.25500000920E-02 0. -1.
    10030    2    1    2    0    0  0.00000000000E+00  0.00000000000E+00  0.55981676902E+03  0.34618686170E+04  0.34163049493E+04 0.  0.
        5    1    3    3  502    0  0.14345736064E+04 -0.78233861625E+03 -0.22443189616E+03  0.16493777338E+04  0.46999998093E+01 0. -1.
       -5    1    3    3    0  502 -0.14345736064E+04  0.78233861625E+03  0.78424866518E+03  0.18124908832E+04  0.46999998093E+01 0.  1.
</event>
<event>
 5   0  0.1102175E-06  0.3546612E+04  0.7818609E-02  0.8102832E-01
        1   -1    0    0  501    0  0.00000000000E+00  0.00000000000E+00  0.12720196477E+04  0.12720196478E+04  0.50400001928E-02 0.  1.
       -1   -1    0    0    0  501  0.00000000000E+00  0.00000000000E+00 -0.24721421180E+04  0.24721421180E+04  0.50400001928E-02 0. -1.
    10030    2    1    2    0    0  0.00000000000E+00  0.00000000000E+00 -0.12001224703E+04  0.37441617658E+04  0.35466115356E+04 0.  0.
        5    1    3    3  502    0 -0.99010146189E+02  0.44189973676E+03 -0.24100616097E+04  0.24522433482E+04  0.46999998093E+01 0. -1.
       -5    1    3    3    0  502  0.99010146189E+02 -0.44189973676E+03  0.12099391394E+04  0.12919184175E+04  0.46999998093E+01 0.  1.
</event>
<event>
 5   0  0.2026232E-06  0.1733159E+04  0.7818609E-02  0.8742675E-01
       -2   -1    0    0    0  501  0.00000000000E+00  0.00000000000E+00  0.87961469727E+03  0.87961469727E+03  0.25500000920E-02 0.  1.
        2   -1    0    0  501    0  0.00000000000E+00  0.00000000000E+00 -0.85373718325E+03  0.85373718325E+03  0.25500000920E-02 0. -1.
    10030    2    1    2    0    0  0.00000000000E+00  0.00000000000E+00  0.25877514023E+02  0.17333518805E+04  0.17331587048E+04 0.  0.
        4    1    3    3  502    0  0.63083528828E+03  0.24431282463E+03  0.55458590494E+03  0.87476228547E+03  0.12699999809E+01 0.  1.
       -4    1    3    3    0  502 -0.63083528828E+03 -0.24431282463E+03 -0.52870839092E+03  0.85858959506E+03  0.12699999809E+01 0. -1.
</event>
<event>
 5   0  0.1102175E-06  0.3505282E+04  0.7818609E-02  0.8112539E-01
        1   -1    0    0  501    0  0.00000000000E+00  0.00000000000E+00  0.16602721350E+04  0.16602721350E+04  0.50400001928E-02 0.  1.
       -1   -1    0    0    0  501  0.00000000000E+00  0.00000000000E+00 -0.18501485468E+04  0.18501485468E+04  0.50400001928E-02 0. -1.
    10030    2    1    2    0    0  0.00000000000E+00  0.00000000000E+00 -0.18987641176E+03  0.35104206818E+04  0.35052817735E+04 0.  0.
        5    1    3    3  502    0  0.94359254138E+03  0.46007309549E+03  0.13105771488E+04  0.16791869134E+04  0.46999998093E+01 0.  1.
       -5    1    3    3    0  502 -0.94359254138E+03 -0.46007309549E+03 -0.15004535605E+04  0.18312337684E+04  0.46999998093E+01 0. -1.
</event>
<event>
 5   0  0.1110956E-06  0.3598993E+04  0.7818609E-02  0.8090722E-01
        1   -1    0    0  501    0  0.00000000000E+00  0.00000000000E+00  0.14403038225E+04  0.14403038225E+04  0.50400001928E-02 0. -1.
       -1   -1    0    0    0  501  0.00000000000E+00  0.00000000000E+00 -0.22482675683E+04  0.22482675683E+04  0.50400001928E-02 0.  1.
    10030    2    1    2    0    0  0.00000000000E+00  0.00000000000E+00 -0.80796374584E+03  0.36885713908E+04  0.35989933996E+04 0.  0.
        1    1    3    3  502    0 -0.44693996360E+03 -0.26193586806E+02 -0.21902758716E+04  0.22355647673E+04  0.50400001928E-02 0.  1.
       -1    1    3    3    0  502  0.44693996360E+03  0.26193586806E+02  0.13823121257E+04  0.14530066235E+04  0.50400001928E-02 0. -1.
</event>
<event>
 5   0  0.1908726E-06  0.1991489E+04  0.7818609E-02  0.8610610E-01
       -2   -1    0    0    0  501  0.00000000000E+00  0.00000000000E+00  0.56635955530E+03  0.56635955530E+03  0.25500000920E-02 0.  1.
        2   -1    0    0  501    0  0.00000000000E+00  0.00000000000E+00 -0.17506668182E+04  0.17506668182E+04  0.25500000920E-02 0. -1.
    10030    2    1    2    0    0  0.00000000000E+00  0.00000000000E+00 -0.11843072629E+04  0.23170263735E+04  0.19914887704E+04 0.  0.
        5    1    3    3  502    0  0.50575316702E+03  0.85064136046E+02  0.40086352132E+03  0.65094994118E+03  0.46999998093E+01 0.  1.
       -5    1    3    3    0  502 -0.50575316702E+03 -0.85064136046E+02 -0.15851707842E+04  0.16660764323E+04  0.46999998093E+01 0. -1.
</event>
<event>
 5   0  0.3378848E-06  0.2212835E+04  0.7818609E-02  0.8513105E-01
       -2   -1    0    0    0  501  0.00000000000E+00  0.00000000000E+00  0.66837966897E+03  0.66837966897E+03  0.25500000920E-02 0. -1.
        2   -1    0    0  501    0  0.00000000000E+00  0.00000000000E+00 -0.18315340314E+04  0.18315340314E+04  0.25500000920E-02 0.  1.
    10030    2    1    2    0    0  0.00000000000E+00  0.00000000000E+00 -0.11631543624E+04  0.24999137003E+04  0.22128353844E+04 0.  0.
        1    1    3    3  502    0 -0.86100200008E+03 -0.60810787112E+03 -0.20174399155E+03  0.10732288969E+04  0.50400001928E-02 0. -1.
       -1    1    3    3    0  502  0.86100200008E+03  0.60810787112E+03 -0.96141037084E+03  0.14266848034E+04  0.50400001928E-02 0.  1.
</event>
<event>
 5   0  0.1102175E-06  0.2598556E+04  0.7818609E-02  0.8368692E-01
       -1   -1    0    0    0  501  0.00000000000E+00  0.00000000000E+00  0.81177560605E+03  0.81177560606E+03  0.50400001928E-02 0.  1.
        1   -1    0    0  501    0  0.00000000000E+00  0.00000000000E+00 -0.20795442940E+04  0.20795442940E+04  0.50400001928E-02 0. -1.
    10030    2    1    2    0    0  0.00000000000E+00  0.00000000000E+00 -0.12677686880E+04  0.28913199001E+04  0.25985560064E+04 0.  0.
        5    1    3    3  502    0 -0.39820302617E+03  0.26055548371E+03  0.71131060762E+03  0.85582689877E+03  0.46999998093E+01 0.  1.
       -5    1    3    3    0  502  0.39820302617E+03 -0.26055548371E+03 -0.19790792956E+04  0.20354930013E+04  0.46999998093E+01 0. -1.
</event>
<event>
 5   0  0.3378848E-06  0.1735582E+04  0.7818609E-02  0.8741327E-01
        2   -1    0    0  501    0  0.00000000000E+00  0.00000000000E+00  0.15652165486E+04  0.15652165486E+04  0.25500000920E-02 0.  1.
       -2   -1    0    0    0  501  0.00000000000E+00  0.00000000000E+00 -0.48112296106E+03  0.48112296107E+03  0.25500000920E-02 0. -1.
    10030    2    1    2    0    0  0.00000000000E+00  0.00000000000E+00  0.10840935876E+04  0.20463395097E+04  0.17355824620E+04 0.  0.
        1    1    3    3  502    0  0.86575899980E+03 -0.59344502880E+02  0.54334096042E+03  0.10238553682E+04  0.50400001928E-02 0.  1.
       -1    1    3    3    0  502 -0.86575899980E+03  0.59344502880E+02  0.54075262716E+03  0.10224841415E+04  0.50400001928E-02 0. -1.
</event>
<event>
 5   0  0.3041329E-06  0.3570179E+04  0.7818609E-02  0.8097357E-01
        2   -1    0    0  501    0  0.00000000000E+00  0.00000000000E+00  0.22562598549E+04  0.22562598549E+04  0.25500000920E-02 0. -1.
       -2   -1    0    0    0  501  0.00000000000E+00  0.00000000000E+00 -0.14123130972E+04  0.14123130972E+04  0.25500000920E-02 0.  1.
    10030    2    1    2    0    0  0.00000000000E+00  0.00000000000E+00  0.84394675772E+03  0.36685729521E+04  0.35701794598E+04 0.  0.
        2    1    3    3  502    0 -0.90976134399E+03 -0.14087085498E+04  0.10507357636E+04  0.19789318144E+04  0.25500000920E-02 0. -1.
       -2    1    3    3    0  502  0.90976134399E+03  0.14087085498E+04 -0.20678900586E+03  0.16896411377E+04  0.25500000920E-02 0.  1.
</event>
<event>
 5   0  0.1089337E-06  0.3409914E+04  0.7818609E-02  0.8135477E-01
       -1   -1    0    0    0  501  0.00000000000E+00  0.00000000000E+00  0.20868302660E+04  0.20868302660E+04  0.50400001928E-02 0.  1.
        1   -1    0    0  501    0  0.00000000000E+00  0.00000000000E+00 -0.13929634869E+04  0.13929634869E+04  0.50400001928E-02 0. -1.
    10030    2    1    2    0    0  0.00000000000E+00  0.00000000000E+00  0.69386677914E+03  0.34797937529E+04  0.34099139953E+04 0.  0.
        2    1    3    3  502    0 -0.65304843466E+03 -0.12399982149E+04 -0.64394941440E+03  0.15423160115E+04  0.25500000920E-02 0. -1.
       -2    1    3    3    0  502  0.65304843466E+03  0.12399982149E+04  0.13378161935E+04  0.19374777415E+04  0.25500000920E-02 0.  1.
</event>
<event>
 5   0  0.1782660E-06  0.2005631E+04  0.7818609E-02  0.8603992E-01
       -2   -1    0    0    0  501  0.00000000000E+00  0.00000000000E+00  0.52629234365E+03  0.52629234365E+03  0.25500000920E-02 0. -1.
        2   -1    0    0  501    0  0.00000000000E+00  0.00000000000E+00 -0.19107994351E+04  0.19107994351E+04  0.25500000920E-02 0.  1.
    10030    2    1    2    0    0  0.00000000000E+00  0.00000000000E+00 -0.13845070915E+04  0.24370917788E+04  0.20056311854E+04 0.  0.
        4    1    3    3  502    0 -0.82900714016E+03  0.20785850574E+03 -0.54828898947E+02  0.85642618941E+03  0.12699999809E+01 0. -1.
       -4    1    3    3    0  502  0.82900714016E+03 -0.20785850574E+03 -0.13296781925E+04  0.15806655894E+04  0.12699999809E+01 0.  1.
</event>
<event>
 5   0  0.1125196E-06  0.1849760E+04  0.7818609E-02  0.8680276E-01
       -1   -1    0    0    0  501  0.00000000000E+00  0.00000000000E+00  0.69205854498E+03  0.69205854500E+03  0.50400001928E-02 0.  1.
        1   -1    0    0  501    0  0.00000000000E+00  0.00000000000E+00 -0.12360275924E+04  0.12360275924E+04  0.50400001928E-02 0. -1.
    10030    2    1    2    0    0  0.00000000000E+00  0.00000000000E+00 -0.54396904738E+03  0.19280861374E+04  0.18497604787E+04 0.  0.
        4    1    3    3  502    0  0.21451759736E+02  0.41723675880E+03 -0.11320634375E+04  0.12066962875E+04  0.12699999809E+01 0. -1.
       -4    1    3    3    0  502 -0.21451759736E+02 -0.41723675880E+03  0.58809439012E+03  0.72138984986E+03  0.12699999809E+01 0.  1.
</event>
<event>
 5   0  0.3378848E-06  0.2954886E+04  0.7818609E-02  0.8256732E-01
       -2   -1    0    0    0  501  0.00000000000E+00  0.00000000000E+00  0.12589157335E+04  0.12589157335E+04  0.25500000920E-02 0. -1.
        2   -1    0    0  501    0  0.00000000000E+00  0.00000000000E+00 -0.17339029094E+04  0.17339029094E+04  0.25500000920E-02 0.  1.
    10030    2    1    2    0    0  0.00000000000E+00  0.00000000000E+00 -0.47498717588E+03  0.29928186430E+04  0.29548858882E+04 0.  0.
        1    1    3    3  502    0  0.36907526083E+03  0.72169813571E+02  0.12096282072E+04  0.12667381063E+04  0.50400001928E-02 0. -1.
       -1    1    3    3    0  502 -0.36907526083E+03 -0.72169813571E+02 -0.16846153831E+04  0.17260805367E+04  0.50400001928E-02 0.  1.
</event>
<event>
 5   0  0.2565004E-06  0.2738071E+04  0.7818609E-02  0.8322757E-01
       -2   -1    0    0    0  501  0.00000000000E+00  0.00000000000E+00  0.13649731294E+04  0.13649731294E+04  0.25500000920E-02 0. -1.
        2   -1    0    0  501    0  0.00000000000E+00  0.00000000000E+00 -0.13731103252E+04  0.13731103252E+04  0.25500000920E-02 0.  1.
    10030    2    1    2    0    0  0.00000000000E+00  0.00000000000E+00 -0.81371957651E+01  0.27380834546E+04  0.27380713633E+04 0.  0.
        3    1    3    3  502    0  0.12616428545E+04  0.53122765448E+03  0.13628209833E+02  0.13689891349E+04  0.10100000352E+00 0.  1.
       -3    1    3    3    0  502 -0.12616428545E+04 -0.53122765448E+03 -0.21765405599E+02  0.13690943197E+04  0.10100000352E+00 0. -1.
</event>
<event>
 5   0  0.1102175E-06  0.1727825E+04  0.7818609E-02  0.8745652E-01
        1   -1    0    0  501    0  0.00000000000E+00  0.00000000000E+00  0.43603388457E+03  0.43603388460E+03  0.50400001928E-02 0.  1.
       -1   -1    0    0    0  501  0.00000000000E+00  0.00000000000E+00 -0.17116669457E+04  0.17116669457E+04  0.50400001928E-02 0. -1.
    10030    2    1    2    0    0  0.00000000000E+00  0.00000000000E+00 -0.12756330612E+04  0.21477008303E+04  0.17278249766E+04 0.  0.
        5    1    3    3  502    0  0.49466433448E+03 -0.40052418344E+03 -0.13638975533E+04  0.15051083188E+04  0.46999998093E+01 0. -1.
       -5    1    3    3    0  502 -0.49466433448E+03  0.40052418344E+03  0.88264492157E+02  0.64259251155E+03  0.46999998093E+01 0.  1.
</event>
<event>
 5   0  0.1089337E-06  0.3599306E+04  0.7818609E-02  0.8090651E-01
       -1   -1    0    0    0  501  0.00000000000E+00  0.00000000000E+00  0.20323382592E+04  0.20323382592E+04  0.50400001928E-02 0. -1.
        1   -1    0    0  501    0  0.00000000000E+00  0.00000000000E+00 -0.15936080282E+04  0.15936080282E+04  0.50400001928E-02 0.  1.
    10030    2    1    2    0    0  0.00000000000E+00  0.00000000000E+00  0.43873023093E+03  0.36259462874E+04  0.35993058030E+04 0.  0.
        2    1    3    3  502    0  0.77222425498E+03  0.16244650610E+04  0.15948162501E+03  0.18057273945E+04  0.25500000920E-02 0.  1.
       -2    1    3    3    0  502 -0.77222425498E+03 -0.16244650610E+04  0.27924860592E+03  0.18202188930E+04  0.25500000920E-02 0. -1.
</event>
<event>
 5   0  0.1089337E-06  0.3525275E+04  0.7818609E-02  0.8107826E-01
       -1   -1    0    0    0  501  0.00000000000E+00  0.00000000000E+00  0.20803655752E+04  0.20803655752E+04  0.50400001928E-02 0. -1.
        1   -1    0    0  501    0  0.00000000000E+00  0.00000000000E+00 -0.14934351111E+04  0.14934351111E+04  0.50400001928E-02 0.  1.
    10030    2    1    2    0    0  0.00000000000E+00  0.00000000000E+00  0.58693046411E+03  0.35738006862E+04  0.35252750212E+04 0.  0.
        2    1    3    3  502    0 -0.31910012216E+03  0.10728929629E+04 -0.10868818453E+04  0.15602039429E+04  0.25500000920E-02 0.  1.
       -2    1    3    3    0  502  0.31910012216E+03 -0.10728929629E+04  0.16738123094E+04  0.20135967433E+04  0.25500000920E-02 0. -1.
</event>
<event>
 5   0  0.1782660E-06  0.1819064E+04  0.7818609E-02  0.8696227E-01
       -2   -1    0    0    0  501  0.00000000000E+00  0.00000000000E+00  0.34843567222E+03  0.34843567223E+03  0.25500000920E-02 0. -1.
        2   -1    0    0  501    0  0.00000000000E+00  0.00000000000E+00 -0.23741771303E+04  0.23741771303E+04  0.25500000920E-02 0.  1.
    10030    2    1    2    0    0  0.00000000000E+00  0.00000000000E+00 -0.20257414581E+04  0.27226128025E+04  0.18190635001E+04 0.  0.
        4    1    3    3  502    0 -0.13771878323E+02 -0.90791206479E+03 -0.93434815204E+03  0.13028822142E+04  0.12699999809E+01 0. -1.
       -4    1    3    3    0  502  0.13771878323E+02  0.90791206479E+03 -0.10913933060E+04  0.14197305883E+04  0.12699999809E+01 0.  1.
</event>
<event>
 5   0  0.1908726E-06  0.3440454E+04  0.7818609E-02  0.8128048E-01
       -2   -1    0    0    0  501  0.00000000000E+00  0.00000000000E+00  0.11861492341E+04  0.11861492341E+04  0.25500000920E-02 0.  1.
        2   -1    0    0  501    0  0.00000000000E+00  0.00000000000E+00 -0.24947793931E+04  0.24947793931E+04  0.25500000920E-02 0. -1.
    10030    2    1    2    0    0  0.00000000000E+00  0.00000000000E+00 -0.13086301589E+04  0.36809286272E+04  0.34404538459E+04 0.  0.
        5    1    3    3  502    0  0.30202010581E+03  0.16929313811E+04 -0.60736417421E+03  0.18237725011E+04  0.46999998093E+01 0. -1.
       -5    1    3    3    0  502 -0.30202010581E+03 -0.16929313811E+04 -0.70126598473E+03  0.18571561261E+04  0.46999998093E+01 0.  1.
</event>
<event>
 5   0  0.2565004E-06  0.3717742E+04  0.7818609E-02  0.8064041E-01
       -2   -1    0    0    0  501  0.00000000000E+00  0.00000000000E+00  0.19278577719E+04  0.19278577719E+04  0.25500000920E-02 0.  1.
        2   -1    0    0  501    0  0.00000000000E+00  0.00000000000E+00 -0.17923532023E+04  0.17923532023E+04  0.25500000920E-02 0. -1.
    10030    2    1    2    0    0  0.00000000000E+00  0.00000000000E+00  0.13550456957E+03  0.37202109743E+04  0.37177423532E+04 0.  0.
        3    1    3    3  502    0  0.15271209317E+03 -0.18399904082E+04 -0.14806743252E+03  0.18522444927E+04  0.10100000352E+00 0.  1.
       -3    1    3    3    0  502 -0.15271209317E+03  0.18399904082E+04  0.28357200209E+03  0.18679664816E+04  0.10100000352E+00 0. -1.
</event>
<event>
 5   0  0.1908726E-06  0.3500175E+04  0.7818609E-02  0.8113748E-01
       -2   -1    0    0    0  501  0.00000000000E+00  0.00000000000E+00  0.28498113263E+04  0.28498113263E+04  0.25500000920E-02 0. -1.
        2   -1    0    0  501    0  0.00000000000E+00  0.00000000000E+00 -0.10747401075E+04  0.10747401075E+04  0.25500000920E-02 0.  1.
    10030    2    1    2    0    0  0.00000000000E+00  0.00000000000E+00  0.17750712188E+04  0.39245514338E+04  0.35001751563E+04 0.  0.
        5    1    3    3  502    0 -0.10039521363E+04 -0.84452053579E+03 -0.41119717051E+03  0.13748600039E+04  0.46999998093E+01 0.  1.
       -5    1    3    3    0  502  0.10039521363E+04  0.84452053579E+03  0.21862683893E+04  0.25496914299E+04  0.46999998093E+01 0. -1.
</event>
<event>
 5   0  0.1110956E-06  0.3199207E+04  0.7818609E-02  0.8189027E-01
       -1   -1    0    0    0  501  0.00000000000E+00  0.00000000000E+00  0.94213574588E+03  0.94213574589E+03  0.50400001928E-02 0. -1.
        1   -1    0    0  501    0  0.00000000000E+00  0.00000000000E+00 -0.27158845833E+04  0.27158845833E+04  0.50400001928E-02 0.  1.
    10030    2    1    2    0    0  0.00000000000E+00  0.00000000000E+00 -0.17737488374E+04  0.36580203292E+04  0.31992073691E+04 0.  0.
        1    1    3    3  502    0 -0.55110231130E+03 -0.14784833981E+04 -0.11874533654E+04  0.19747588235E+04  0.50400001928E-02 0. -1.
       -1    1    3    3    0  502  0.55110231130E+03  0.14784833981E+04 -0.58629547201E+03  0.16832615057E+04  0.50400001928E-02 0.  1.
</event>
<event>
 5   0  0.1042825E-06  0.3468808E+04  0.7818609E-02  0.8121222E-01
        3   -1    0    0  501    0  0.00000000000E+00  0.00000000000E+00  0.25242369074E+04  0.25242369094E+04  0.10100000352E+00 0.  1.
       -3   -1    0    0    0  501  0.00000000000E+00  0.00000000000E+00 -0.11917094201E+04  0.11917094244E+04  0.10100000352E+00 0. -1.
    10030    2    1    2    0    0  0.00000000000E+00  0.00000000000E+00  0.13325274873E+04  0.37159463338E+04  0.34688078141E+04 0.  0.
        2    1    3    3  502    0 -0.82904440046E+03 -0.15231613397E+04  0.69697373290E+03  0.18689856792E+04  0.25500000920E-02 0. -1.
       -2    1    3    3    0  502  0.82904440046E+03  0.15231613397E+04  0.63555375438E+03  0.18469606546E+04  0.25500000920E-02 0.  1.
</event>
<event>
 5   0  0.1125196E-06  0.3462635E+04  0.7818609E-02  0.8122702E-01
       -1   -1    0    0    0  501  0.00000000000E+00  0.00000000000E+00  0.17568713892E+04  0.17568713892E+04  0.50400001928E-02 0.  1.
        1   -1    0    0  501    0  0.00000000000E+00  0.00000000000E+00 -0.17061353593E+04  0.17061353593E+04  0.50400001928E-02 0. -1.
    10030    2    1    2    0    0  0.00000000000E+00  0.00000000000E+00  0.50736029941E+02  0.34630067485E+04  0.34626350653E+04 0.  0.
        4    1    3    3  502    0 -0.11668316543E+04  0.67985839486E+02  0.13027445612E+04  0.17502180403E+04  0.12699999809E+01 0.  1.
       -4    1    3    3    0  502  0.11668316543E+04 -0.67985839486E+02 -0.12520085313E+04  0.17127887082E+04  0.12699999809E+01 0. -1.
</event>
<event>
 5   0  0.2565004E-06  0.3429027E+04  0.7818609E-02  0.8130819E-01
       -2   -1    0    0    0  501  0.00000000000E+00  0.00000000000E+00  0.12852189752E+04  0.12852189752E+04  0.25500000920E-02 0.  1.
        2   -1    0    0  501    0  0.00000000000E+00  0.00000000000E+00 -0.22872031040E+04  0.22872031040E+04  0.25500000920E-02 0. -1.
    10030    2    1    2    0    0  0.00000000000E+00  0.00000000000E+00 -0.10019841288E+04  0.35724220792E+04  0.34290271678E+04 0.  0.
        3    1    3    3  502    0  0.65785679405E+03  0.14613755670E+04  0.13371598677E+03  0.16081896917E+04  0.10100000352E+00 0.  1.
       -3    1    3    3    0  502 -0.65785679405E+03 -0.14613755670E+04 -0.11357001156E+04  0.19642323874E+04  0.10100000352E+00 0. -1.
</event>
<event>
 5   0  0.1908726E-06  0.2145495E+04  0.7818609E-02  0.8541463E-01
       -2   -1    0    0    0  501  0.00000000000E+00  0.00000000000E+00  0.82493818616E+03  0.82493818617E+03  0.25500000920E-02 0.  1.
        2   -1    0    0  501    0  0.00000000000E+00  0.00000000000E+00 -0.13949975917E+04  0.13949975917E+04  0.25500000920E-02 0. -1.
    10030    2    1    2    0    0  0.00000000000E+00  0.00000000000E+00 -0.57005940555E+03  0.22199357779E+04  0.21454946124E+04 0.  0.
        5    1    3    3  502    0  0.61459546334E+03 -0.66519757259E+03 -0.87991207845E+03  0.12627282962E+04  0.46999998093E+01 0. -1.
       -5    1    3    3    0  502 -0.61459546334E+03  0.66519757259E+03  0.30985267290E+03  0.95720748171E+03  0.46999998093E+01 0.  1.
</event>
<event>
 5   0  0.1125196E-06  0.3536444E+04  0.7818609E-02  0.8105207E-01
        1   -1    0    0  501    0  0.00000000000E+00  0.00000000000E+00  0.19672304506E+04  0.19672304506E+04  0.50400001928E-02 0.  1.
       -1   -1    0    0    0  501  0.00000000000E+00  0.00000000000E+00 -0.15893453803E+04  0.15893453803E+04  0.50400001928E-02 0. -1.
    10030    2    1    2    0    0  0.00000000000E+00  0.00000000000E+00  0.37788507035E+03  0.35565758309E+04  0.35364437666E+04 0.  0.
        4    1    3    3  502    0 -0.52673104526E+03 -0.16748532332E+04 -0.22080630963E+02  0.17558667700E+04  0.12699999809E+01 0. -1.
       -4    1    3    3    0  502  0.52673104526E+03  0.16748532332E+04  0.39996570131E+03  0.18007090609E+04  0.12699999809E+01 0.  1.
</event>
<event>
 5   0  0.2565004E-06  0.3551502E+04  0.7818609E-02  0.8101692E-01
        2   -1    0    0  501    0  0.00000000000E+00  0.00000000000E+00  0.16890737424E+04  0.16890737424E+04  0.25500000920E-02 0.  1.
       -2   -1    0    0    0  501  0.00000000000E+00  0.00000000000E+00 -0.18668761626E+04  0.18668761626E+04  0.25500000920E-02 0. -1.
    10030    2    1    2    0    0  0.00000000000E+00  0.00000000000E+00 -0.17780242020E+03  0.35559499051E+04  0.35515019396E+04 0.  0.
        3    1    3    3  502    0  0.13300704057E+04 -0.40873789314E+03 -0.11935224966E+04  0.18332075468E+04  0.10100000352E+00 0. -1.
       -3    1    3    3    0  502 -0.13300704057E+04  0.40873789314E+03  0.10157200764E+04  0.17227423583E+04  0.10100000352E+00 0.  1.
</event>
<event>
 5   0  0.2738185E-06  0.1808985E+04  0.7818609E-02  0.8701536E-01
        2   -1    0    0  501    0  0.00000000000E+00  0.00000000000E+00  0.68453701223E+03  0.68453701224E+03  0.25500000920E-02 0. -1.
       -2   -1    0    0    0  501  0.00000000000E+00  0.00000000000E+00 -0.11951243271E+04  0.11951243271E+04  0.25500000920E-02 0.  1.
    10030    2    1    2    0    0  0.00000000000E+00  0.00000000000E+00 -0.51058731488E+03  0.18796613394E+04  0.18089851698E+04 0.  0.
        3    1    3    3  502    0 -0.50980131818E+03  0.65951978080E+02  0.51800012150E+03  0.72977474847E+03  0.10100000352E+00 0. -1.
       -3    1    3    3    0  502  0.50980131818E+03 -0.65951978080E+02 -0.10285874364E+04  0.11498865909E+04  0.10100000352E+00 0.  1.
</event>
<event>
 5   0  0.1782660E-06  0.2008810E+04  0.7818609E-02  0.8602513E-01
        2   -1    0    0  501    0  0.00000000000E+00  0.00000000000E+00  0.79812721024E+03  0.79812721024E+03  0.25500000920E-02 0. -1.
       -2   -1    0    0    0  501  0.00000000000E+00  0.00000000000E+00 -0.12639958990E+04  0.12639958990E+04  0.25500000920E-02 0.  1.
    10030    2    1    2    0    0  0.00000000000E+00  0.00000000000E+00 -0.46586868881E+03  0.20621231093E+04  0.20088101161E+04 0.  0.
        4    1    3    3  502    0  0.20586890749E+03 -0.13555410879E+02  0.77614005183E+03  0.80309448335E+03  0.12699999809E+01 0. -1.
       -4    1    3    3    0  502 -0.20586890749E+03  0.13555410879E+02 -0.12420087406E+04  0.12590286259E+04  0.12699999809E+01 0.  1.
</event>
<event>
 5   0  0.1908726E-06  0.2376101E+04  0.7818609E-02  0.8448506E-01
        2   -1    0    0  501    0  0.00000000000E+00  0.00000000000E+00  0.10334936888E+04  0.10334936888E+04  0.25500000920E-02 0. -1.
       -2   -1    0    0    0  501  0.00000000000E+00  0.00000000000E+00 -0.13657207545E+04  0.13657207545E+04  0.25500000920E-02 0.  1.
    10030    2    1    2    0    0  0.00000000000E+00  0.00000000000E+00 -0.33222706569E+03  0.23992144433E+04  0.23761008232E+04 0.  0.
        5    1    3    3  502    0 -0.60721746470E+03  0.10031024787E+04  0.26831789526E+02  0.11728894522E+04  0.46999998093E+01 0.  1.
       -5    1    3    3    0  502  0.60721746470E+03 -0.10031024787E+04 -0.35905885521E+03  0.12263249911E+04  0.46999998093E+01 0. -1.
</event>
<event>
 5   0  0.1110956E-06  0.2101134E+04  0.7818609E-02  0.8560744E-01
       -1   -1    0    0    0  501  0.00000000000E+00  0.00000000000E+00  0.40962315934E+03  0.40962315937E+03  0.50400001928E-02 0. -1.
        1   -1    0    0  501    0  0.00000000000E+00  0.00000000000E+00 -0.26944048490E+04  0.26944048490E+04  0.50400001928E-02 0.  1.
    10030    2    1    2    0    0  0.00000000000E+00  0.00000000000E+00 -0.22847816897E+04  0.31040280084E+04  0.21011336244E+04 0.  0.
        1    1    3    3  502    0  0.50784928704E+03 -0.65049108787E+03 -0.21028033555E+04  0.22589447771E+04  0.50400001928E-02 0.  1.
       -1    1    3    3    0  502 -0.50784928704E+03  0.65049108787E+03 -0.18197833415E+03  0.84508323133E+03  0.50400001928E-02 0. -1.
</event>
<event>
 5   0  0.1125196E-06  0.3402918E+04  0.7818609E-02  0.8137191E-01
       -1   -1    0    0    0  501  0.00000000000E+00  0.00000000000E+00  0.22382857057E+04  0.22382857057E+04  0.50400001928E-02 0.  1.
        1   -1    0    0  501    0  0.00000000000E+00  0.00000000000E+00 -0.12933838373E+04  0.12933838373E+04  0.50400001928E-02 0. -1.
    10030    2    1    2    0    0  0.00000000000E+00  0.00000000000E+00  0.94490186840E+03  0.35316695430E+04  0.34029178979E+04 0.  0.
        4    1    3    3  502    0 -0.35738816589E+03  0.14404194861E+04  0.13360563966E+04  0.19968933133E+04  0.12699999809E+01 0.  1.
       -4    1    3    3    0  502  0.35738816589E+03 -0.14404194861E+04 -0.39115452819E+03  0.15347762296E+04  0.12699999809E+01 0. -1.
</event>
<event>
 5   0  0.3041329E-06  0.3484436E+04  0.7818609E-02  0.8117488E-01
        2   -1    0    0  501    0  0.00000000000E+00  0.00000000000E+00  0.21368785785E+04  0.21368785785E+04  0.25500000920E-02 0. -1.
       -2   -1    0    0    0  501  0.00000000000E+00  0.00000000000E+00 -0.14204471463E+04  0.14204471463E+04  0.25500000920E-02 0.  1.
    10030    2    1    2    0    0  0.00000000000E+00  0.00000000000E+00  0.71643143224E+03  0.35573257247E+04  0.34844357240E+04 0.  0.
        2    1    3    3  502    0 -0.17418364220E+04  0.23149508578E+02  0.32946533288E+03  0.17728726481E+04  0.25500000920E-02 0. -1.
       -2    1    3    3    0  502  0.17418364220E+04 -0.23149508578E+02  0.38696609935E+03  0.17844530767E+04  0.25500000920E-02 0.  1.
</event>
<event>
 5   0  0.1125196E-06  0.3348015E+04  0.7818609E-02  0.8150784E-01
        1   -1    0    0  501    0  0.00000000000E+00  0.00000000000E+00  0.12496980792E+04  0.12496980792E+04  0.50400001928E-02 0.  1.
       -1   -1    0    0    0  501  0.00000000000E+00  0.00000000000E+00 -0.22423826111E+04  0.22423826111E+04  0.50400001928E-02 0. -1.
    10030    2    1    2    0    0  0.00000000000E+00  0.00000000000E+00 -0.99268453195E+03  0.34920806903E+04  0.33480150788E+04 0.  0.
        4    1    3    3  502    0 -0.84606403544E+03 -0.10512944685E+04 -0.15295504901E+04  0.20397477114E+04  0.12699999809E+01 0. -1.
       -4    1    3    3    0  502  0.84606403544E+03  0.10512944685E+04  0.53686595815E+03  0.14523329789E+04  0.12699999809E+01 0.  1.
</event>
<event>
 5   0  0.1102175E-06  0.2149532E+04  0.7818609E-02  0.8539732E-01
        1   -1    0    0  501    0  0.00000000000E+00  0.00000000000E+00  0.10166407606E+04  0.10166407607E+04  0.50400001928E-02 0.  1.
       -1   -1    0    0    0  501  0.00000000000E+00  0.00000000000E+00 -0.11362148405E+04  0.11362148405E+04  0.50400001928E-02 0. -1.
    10030    2    1    2    0    0  0.00000000000E+00  0.00000000000E+00 -0.11957407986E+03  0.21528556012E+04  0.21495323396E+04 0.  0.
        5    1    3    3  502    0  0.48662255811E+03  0.52410200908E+03  0.74370997241E+03  0.10317999046E+04  0.46999998093E+01 0.  1.
       -5    1    3    3    0  502 -0.48662255811E+03 -0.52410200908E+03 -0.86328405226E+03  0.11210556966E+04  0.46999998093E+01 0. -1.
</event>
<event>
 5   0  0.1908726E-06  0.3541232E+04  0.7818609E-02  0.8104087E-01
        2   -1    0    0  501    0  0.00000000000E+00  0.00000000000E+00  0.20972286222E+04  0.20972286222E+04  0.25500000920E-02 0.  1.
       -2   -1    0    0    0  501  0.00000000000E+00  0.00000000000E+00 -0.14948685907E+04  0.14948685907E+04  0.25500000920E-02 0. -1.
    10030    2    1    2    0    0  0.00000000000E+00  0.00000000000E+00  0.60236003147E+03  0.35920972129E+04  0.35412320990E+04 0.  0.
        5    1    3    3  502    0  0.93839754949E+03  0.28740775199E+03  0.17960733156E+04  0.20467277840E+04  0.46999998093E+01 0.  1.
       -5    1    3    3    0  502 -0.93839754949E+03 -0.28740775199E+03 -0.11937132842E+04  0.15453694288E+04  0.46999998093E+01 0. -1.
</event>
<event>
 5   0  0.1089337E-06  0.3516322E+04  0.7818609E-02  0.8109933E-01
       -1   -1    0    0    0  501  0.00000000000E+00  0.00000000000E+00  0.19461000989E+04  0.19461000989E+04  0.50400001928E-02 0. -1.
        1   -1    0    0  501    0  0.00000000000E+00  0.00000000000E+00 -0.15883719250E+04  0.15883719250E+04  0.50400001928E-02 0.  1.
    10030    2    1    2    0    0  0.00000000000E+00  0.00000000000E+00  0.35772817392E+03  0.35344720239E+04  0.35163223745E+04 0.  0.
        2    1    3    3  502    0  0.10332946560E+04 -0.13428367618E+04 -0.29283665139E+03  0.17194946116E+04  0.25500000920E-02 0. -1.
       -2    1    3    3    0  502 -0.10332946560E+04  0.13428367618E+04  0.65056482530E+03  0.18149774123E+04  0.25500000920E-02 0.  1.
</event>
<event>
 5   0  0.3378848E-06  0.3101435E+04  0.7818609E-02  0.8215344E-01
        2   -1    0    0  501    0  0.00000000000E+00  0.00000000000E+00  0.22729195066E+04  0.22729195066E+04  0.25500000920E-02 0.  1.
       -2   -1    0    0    0  501  0.00000000000E+00  0.00000000000E+00 -0.10579892294E+04  0.10579892294E+04  0.25500000920E-02 0. -1.
    10030    2    1    2    0    0  0.00000000000E+00  0.00000000000E+00  0.12149302773E+04  0.33309087360E+04  0.31014347371E+04 0.  0.
        1    1    3    3  502    0 -0.11908580759E+02 -0.53141030258E+03  0.21720235140E+04  0.22361182593E+04  0.50400001928E-02 0.  1.
       -1    1    3    3    0  502  0.11908580759E+02  0.53141030258E+03 -0.95709323676E+03  0.10947904767E+04  0.50400001928E-02 0. -1.
</event>
<event>
 5   0  0.3378848E-06  0.3305639E+04  0.7818609E-02  0.8161462E-01
       -2   -1    0    0    0  501  0.00000000000E+00  0.00000000000E+00  0.15089855679E+04  0.15089855679E+04  0.25500000920E-02 0. -1.
        2   -1    0    0  501    0  0.00000000000E+00  0.00000000000E+00 -0.18103636775E+04  0.18103636775E+04  0.25500000920E-02 0.  1.
    10030    2    1    2    0    0  0.00000000000E+00  0.00000000000E+00 -0.30137810958E+03  0.33193492454E+04  0.33056392193E+04 0.  0.
        1    1    3    3  502    0  0.27096382332E+03  0.41579284166E+03 -0.17337770030E+04  0.18034100413E+04  0.50400001928E-02 0.  1.
       -1    1    3    3    0  502 -0.27096382332E+03 -0.41579284166E+03  0.14323988934E+04  0.15159392041E+04  0.50400001928E-02 0. -1.
</event>
<event>
 5   0  0.1908726E-06  0.3454525E+04  0.7818609E-02  0.8124652E-01
       -2   -1    0    0    0  501  0.00000000000E+00  0.00000000000E+00  0.18135247844E+04  0.18135247844E+04  0.25500000920E-02 0. -1.
        2   -1    0    0  501    0  0.00000000000E+00  0.00000000000E+00 -0.16451035449E+04  0.16451035449E+04  0.25500000920E-02 0.  1.
    10030    2    1    2    0    0  0.00000000000E+00  0.00000000000E+00  0.16842123944E+03  0.34586283293E+04  0.34545251782E+04 0.  0.
        5    1    3    3  502    0 -0.20555825464E+03  0.17128314015E+04 -0.17304624210E+01  0.17251291809E+04  0.46999998093E+01 0.  1.
       -5    1    3    3    0  502  0.20555825464E+03 -0.17128314015E+04  0.17015170186E+03  0.17334991485E+04  0.46999998093E+01 0. -1.
</event>
<event>
 5   0  0.1130707E-06  0.2104203E+04  0.7818609E-02  0.8559394E-01
        1   -1    0    0  501    0  0.00000000000E+00  0.00000000000E+00  0.59838096174E+03  0.59838096176E+03  0.50400001928E-02 0.  1.
       -1   -1    0    0    0  501  0.00000000000E+00  0.00000000000E+00 -0.18498536573E+04  0.18498536573E+04  0.50400001928E-02 0. -1.
    10030    2    1    2    0    0  0.00000000000E+00  0.00000000000E+00 -0.12514726956E+04  0.24482346191E+04  0.21042026619E+04 0.  0.
        3    1    3    3  502    0  0.97003723426E+03  0.29760316302E+03 -0.94938389220E+03  0.13895573624E+04  0.10100000352E+00 0.  1.
       -3    1    3    3    0  502 -0.97003723426E+03 -0.29760316302E+03 -0.30208880341E+03  0.10586772567E+04  0.10100000352E+00 0. -1.
</event>
<event>
 5   0  0.1130707E-06  0.2053952E+04  0.7818609E-02  0.8581803E-01
        1   -1    0    0  501    0  0.00000000000E+00  0.00000000000E+00  0.12342885206E+04  0.12342885206E+04  0.50400001928E-02 0.  1.
       -1   -1    0    0    0  501  0.00000000000E+00  0.00000000000E+00 -0.85448420740E+03  0.85448420742E+03  0.50400001928E-02 0. -1.
    10030    2    1    2    0    0  0.00000000000E+00  0.00000000000E+00  0.37980431321E+03  0.20887727280E+04  0.20539523347E+04 0.  0.
        3    1    3    3  502    0  0.98024324487E+03 -0.29112689590E+03  0.28663757399E+03  0.10619758932E+04  0.10100000352E+00 0.  1.
       -3    1    3    3    0  502 -0.98024324487E+03  0.29112689590E+03  0.93166739219E+02  0.10267968349E+04  0.10100000352E+00 0. -1.
</event>
<event>
 5   0  0.2565004E-06  0.1945854E+04  0.7818609E-02  0.8632362E-01
       -2   -1    0    0    0  501  0.00000000000E+00  0.00000000000E+00  0.13303381693E+04  0.13303381693E+04  0.25500000920E-02 0.  1.
        2   -1    0    0  501    0  0.00000000000E+00  0.00000000000E+00 -0.71153887849E+03  0.71153887849E+03  0.25500000920E-02 0. -1.
    10030    2    1    2    0    0  0.00000000000E+00  0.00000000000E+00  0.61879929081E+03  0.20418770478E+04  0.19458543923E+04 0.  0.
        3    1    3    3  502    0 -0.48339256513E+03 -0.18504389799E+03  0.11738718598E+04  0.12829204066E+04  0.10100000352E+00 0.  1.
       -3    1    3    3    0  502  0.48339256513E+03  0.18504389799E+03 -0.55507256898E+03  0.75895664121E+03  0.10100000352E+00 0. -1.
</event>
<event>
 5   0  0.3378848E-06  0.2157749E+04  0.7818609E-02  0.8536223E-01
       -2   -1    0    0    0  501  0.00000000000E+00  0.00000000000E+00  0.86976827002E+03  0.86976827003E+03  0.25500000920E-02 0. -1.
        2   -1    0    0  501    0  0.00000000000E+00  0.00000000000E+00 -0.13382532663E+04  0.13382532663E+04  0.25500000920E-02 0.  1.
    10030    2    1    2    0    0  0.00000000000E+00  0.00000000000E+00 -0.46848499626E+03  0.22080215363E+04  0.21577490385E+04 0.  0.
        1    1    3    3  502    0  0.73236622175E+03 -0.59201640034E+03  0.30445061455E+03  0.98971403838E+03  0.50400001928E-02 0. -1.
       -1    1    3    3    0  502 -0.73236622175E+03  0.59201640034E+03 -0.77293561081E+03  0.12183074979E+04  0.50400001928E-02 0.  1.
</event>
<event>
 5   0  0.1130707E-06  0.3643496E+04  0.7818609E-02  0.8080601E-01
       -1   -1    0    0    0  501  0.00000000000E+00  0.00000000000E+00  0.22969691633E+04  0.22969691633E+04  0.50400001928E-02 0. -1.
        1   -1    0    0  501    0  0.00000000000E+00  0.00000000000E+00 -0.14448452131E+04  0.14448452131E+04  0.50400001928E-02 0.  1.
    10030    2    1    2    0    0  0.00000000000E+00  0.00000000000E+00  0.85212395023E+03  0.37418143764E+04  0.36434955196E+04 0.  0.
        3    1    3    3  502    0 -0.14769862314E+04 -0.93536747938E+03 -0.99975059165E+02  0.17511126953E+04  0.10100000352E+00 0.  1.
       -3    1    3    3    0  502  0.14769862314E+04  0.93536747938E+03  0.95209900940E+03  0.19907016811E+04  0.10100000352E+00 0. -1.
</event>
<event>
 5   0  0.1908726E-06  0.2205458E+04  0.7818609E-02  0.8516160E-01
       -2   -1    0    0    0  501  0.00000000000E+00  0.00000000000E+00  0.52665397958E+03  0.52665397958E+03  0.25500000920E-02 0.  1.
        2   -1    0    0  501    0  0.00000000000E+00  0.00000000000E+00 -0.23089386184E+04  0.23089386184E+04  0.25500000920E-02 0. -1.
    10030    2    1    2    0    0  0.00000000000E+00  0.00000000000E+00 -0.17822846388E+04  0.28355925980E+04  0.22054584213E+04 0.  0.
        5    1    3    3  502    0  0.61318868181E+03  0.76610204457E+03 -0.24434050515E+03  0.10112551976E+04  0.46999998093E+01 0.  1.
       -5    1    3    3    0  502 -0.61318868181E+03 -0.76610204457E+03 -0.15379441337E+04  0.18243374004E+04  0.46999998093E+01 0. -1.
</event>
<event>
 5   0  0.1782660E-06  0.3577719E+04  0.7818609E-02  0.8095615E-01
        2   -1    0    0  501    0  0.00000000000E+00  0.00000000000E+00  0.24927054665E+04  0.24927054665E+04  0.25500000920E-02 0. -1.
       -2   -1    0    0    0  501  0.00000000000E+00  0.00000000000E+00 -0.12837528885E+04  0.12837528885E+04  0.25500000920E-02 0.  1.
    10030    2    1    2    0    0  0.00000000000E+00  0.00000000000E+00  0.12089525781E+04  0.37764583550E+04  0.35777187384E+04 0.  0.
        4    1    3    3  502    0  0.88609001761E+03 -0.14386169552E+04  0.12246884752E+04  0.20867768777E+04  0.12699999809E+01 0. -1.
       -4    1    3    3    0  502 -0.88609001761E+03  0.14386169552E+04 -0.15735897143E+02  0.16896814773E+04  0.12699999809E+01 0.  1.
</event>
<event>
 5   0  0.3378848E-06  0.3479816E+04  0.7818609E-02  0.8118590E-01
        2   -1    0    0  501    0  0.00000000000E+00  0.00000000000E+00  0.32321946538E+04  0.32321946538E+04  0.25500000920E-02 0. -1.
       -2   -1    0    0    0  501  0.00000000000E+00  0.00000000000E+00 -0.93660198807E+03  0.93660198807E+03  0.25500000920E-02 0.  1.
    10030    2    1    2    0    0  0.00000000000E+00  0.00000000000E+00  0.22955926658E+04  0.41687966419E+04  0.34798160518E+04 0.  0.
        1    1    3    3  502    0  0.16860835062E+04  0.97252056632E+02  0.16488732869E+04  0.23603217299E+04  0.50400001928E-02 0. -1.
       -1    1    3    3    0  502 -0.16860835062E+04 -0.97252056632E+02  0.64671937888E+03  0.18084749120E+04  0.50400001928E-02 0.  1.
</event>
<event>
 5   0  0.2565004E-06  0.2864959E+04  0.7818609E-02  0.8283380E-01
        2   -1    0    0  501    0  0.00000000000E+00  0.00000000000E+00  0.20124530461E+04  0.20124530461E+04  0.25500000920E-02 0. -1.
       -2   -1    0    0    0  501  0.00000000000E+00  0.00000000000E+00 -0.10196495961E+04  0.10196495961E+04  0.25500000920E-02 0.  1.
    10030    2    1    2    0    0  0.00000000000E+00  0.00000000000E+00  0.99280345001E+03  0.30321026422E+04  0.28649585935E+04 0.  0.
        3    1    3    3  502    0 -0.52487221853E+03  0.12672691313E+04  0.59350493531E+02  0.13729473363E+04  0.10100000352E+00 0.  1.
       -3    1    3    3    0  502  0.52487221853E+03 -0.12672691313E+04  0.93345295648E+03  0.16591553059E+04  0.10100000352E+00 0. -1.
</event>
<event>
 5   0  0.3273841E-06  0.1724098E+04  0.7818609E-02  0.8747739E-01
       -2   -1    0    0    0  501  0.00000000000E+00  0.00000000000E+00  0.44395100539E+03  0.44395100540E+03  0.25500000920E-02 0. -1.
        2   -1    0    0  501    0  0.00000000000E+00  0.00000000000E+00 -0.16738968300E+04  0.16738968300E+04  0.25500000920E-02 0.  1.
    10030    2    1    2    0    0  0.00000000000E+00  0.00000000000E+00 -0.12299458246E+04  0.21178478354E+04  0.17240976546E+04 0.  0.
        3    1    3    3  502    0  0.80515993842E+03  0.29694200478E+03 -0.51464280300E+03  0.10006569370E+04  0.10100000352E+00 0. -1.
       -3    1    3    3    0  502 -0.80515993842E+03 -0.29694200478E+03 -0.71530302164E+03  0.11171908985E+04  0.10100000352E+00 0.  1.
</event>
<event>
 5   0  0.2565004E-06  0.3457768E+04  0.7818609E-02  0.8123872E-01
       -2   -1    0    0    0  501  0.00000000000E+00  0.00000000000E+00  0.21709905297E+04  0.21709905297E+04  0.25500000920E-02 0.  1.
        2   -1    0    0  501    0  0.00000000000E+00  0.00000000000E+00 -0.13768092561E+04  0.13768092561E+04  0.25500000920E-02 0. -1.
    10030    2    1    2    0    0  0.00000000000E+00  0.00000000000E+00  0.79418127357E+03  0.35477997858E+04  0.34577679831E+04 0.  0.
        3    1    3    3  502    0 -0.15538410149E+04  0.75506320804E+03  0.46590019332E+03  0.17893030342E+04  0.10100000352E+00 0. -1.
       -3    1    3    3    0  502  0.15538410149E+04 -0.75506320804E+03  0.32828108025E+03  0.17584967517E+04  0.10100000352E+00 0.  1.
</event>
<event>
 5   0  0.1110956E-06  0.2136295E+04  0.7818609E-02  0.8545421E-01
        1   -1    0    0  501    0  0.00000000000E+00  0.00000000000E+00  0.18497633775E+04  0.18497633775E+04  0.50400001928E-02 0. -1.
       -1   -1    0    0    0  501  0.00000000000E+00  0.00000000000E+00 -0.61680299070E+03  0.61680299072E+03  0.50400001928E-02 0.  1.
    10030    2    1    2    0    0  0.00000000000E+00  0.00000000000E+00  0.12329603868E+04  0.24665663682E+04  0.21362954696E+04 0.  0.
        1    1    3    3  502    0  0.60361066677E+03 -0.53453824948E+03  0.14254111592E+04  0.16376428030E+04  0.50400001928E-02 0. -1.
       -1    1    3    3    0  502 -0.60361066677E+03  0.53453824948E+03 -0.19245077244E+03  0.82892356526E+03  0.50400001928E-02 0.  1.
</event>
<event>
 5   0  0.1782660E-06  0.3496225E+04  0.7818609E-02  0.8114685E-01
        2   -1    0    0  501    0  0.00000000000E+00  0.00000000000E+00  0.19899302926E+04  0.19899302926E+04  0.25500000920E-02 0. -1.
       -2   -1    0    0    0  501  0.00000000000E+00  0.00000000000E+00 -0.15356805443E+04  0.15356805443E+04  0.25500000920E-02 0.  1.
    10030    2    1    2    0    0  0.00000000000E+00  0.00000000000E+00  0.45424974830E+03  0.35256108369E+04  0.34962249555E+04 0.  0.
        4    1    3    3  502    0 -0.17361485918E+04 -0.20392687820E+03  0.21716677936E+03  0.17615223891E+04  0.12699999809E+01 0.  1.
       -4    1    3    3    0  502  0.17361485918E+04  0.20392687820E+03  0.23708296894E+03  0.17640884477E+04  0.12699999809E+01 0. -1.
</event>
<event>
 5   0  0.1908726E-06  0.3393948E+04  0.7818609E-02  0.8139393E-01
        2   -1    0    0  501    0  0.00000000000E+00  0.00000000000E+00  0.24290114628E+04  0.24290114628E+04  0.25500000920E-02 0.  1.
       -2   -1    0    0    0  501  0.00000000000E+00  0.00000000000E+00 -0.11855527758E+04  0.11855527759E+04  0.25500000920E-02 0. -1.
    10030    2    1    2    0    0  0.00000000000E+00  0.00000000000E+00  0.12434586869E+04  0.36145642386E+04  0.33939483097E+04 0.  0.
        5    1    3    3  502    0  0.81322140832E+03  0.19646611499E+03 -0.95064583288E+03  0.12663639220E+04  0.46999998093E+01 0. -1.
       -5    1    3    3    0  502 -0.81322140832E+03 -0.19646611499E+03  0.21941045198E+04  0.23482003167E+04  0.46999998093E+01 0.  1.
</event>
<event>
 5   0  0.1908726E-06  0.3540867E+04  0.7818609E-02  0.8104173E-01
        2   -1    0    0  501    0  0.00000000000E+00  0.00000000000E+00  0.27892980705E+04  0.27892980705E+04  0.25500000920E-02 0.  1.
       -2   -1    0    0    0  501  0.00000000000E+00  0.00000000000E+00 -0.11237359610E+04  0.11237359610E+04  0.25500000920E-02 0. -1.
    10030    2    1    2    0    0  0.00000000000E+00  0.00000000000E+00  0.16655621095E+04  0.39130340315E+04  0.35408668699E+04 0.  0.
        5    1    3    3  502    0 -0.12045336944E+04 -0.87041503818E+03 -0.23058653159E+03  0.15039002620E+04  0.46999998093E+01 0.  1.
       -5    1    3    3    0  502  0.12045336944E+04  0.87041503818E+03  0.18961486411E+04  0.24091337694E+04  0.46999998093E+01 0. -1.
</event>
<event>
 5   0  0.1102175E-06  0.3600998E+04  0.7818609E-02  0.8090263E-01
       -1   -1    0    0    0  501  0.00000000000E+00  0.00000000000E+00  0.14956976877E+04  0.14956976877E+04  0.50400001928E-02 0. -1.
        1   -1    0    0  501    0  0.00000000000E+00  0.00000000000E+00 -0.21674143047E+04  0.21674143047E+04  0.50400001928E-02 0.  1.
    10030    2    1    2    0    0  0.00000000000E+00  0.00000000000E+00 -0.67171661697E+03  0.36631119924E+04  0.36009979527E+04 0.  0.
        5    1    3    3  502    0 -0.85851924735E+03  0.15415219114E+04 -0.70041032260E+03  0.18984050705E+04  0.46999998093E+01 0.  1.
       -5    1    3    3    0  502  0.85851924735E+03 -0.15415219114E+04  0.28693705634E+02  0.17647069219E+04  0.46999998093E+01 0. -1.
</event>
<event>
 5   0  0.1102175E-06  0.3527265E+04  0.7818609E-02  0.8107359E-01
        1   -1    0    0  501    0  0.00000000000E+00  0.00000000000E+00  0.25096464005E+04  0.25096464005E+04  0.50400001928E-02 0. -1.
       -1   -1    0    0    0  501  0.00000000000E+00  0.00000000000E+00 -0.12393779488E+04  0.12393779488E+04  0.50400001928E-02 0.  1.
    10030    2    1    2    0    0  0.00000000000E+00  0.00000000000E+00  0.12702684517E+04  0.37490243493E+04  0.35272654609E+04 0.  0.
        5    1    3    3  502    0 -0.27954639362E+02 -0.77844185023E+03 -0.10466286733E+04  0.13046864933E+04  0.46999998093E+01 0.  1.
       -5    1    3    3    0  502  0.27954639362E+02  0.77844185023E+03  0.23168971250E+04  0.24443378560E+04  0.46999998093E+01 0. -1.
</event>
<event>
 5   0  0.1125196E-06  0.3131887E+04  0.7818609E-02  0.8207041E-01
        1   -1    0    0  501    0  0.00000000000E+00  0.00000000000E+00  0.18234991624E+04  0.18234991624E+04  0.50400001928E-02 0.  1.
       -1   -1    0    0    0  501  0.00000000000E+00  0.00000000000E+00 -0.13447653428E+04  0.13447653428E+04  0.50400001928E-02 0. -1.
    10030    2    1    2    0    0  0.00000000000E+00  0.00000000000E+00  0.47873381960E+03  0.31682645053E+04  0.31318866367E+04 0.  0.
        4    1    3    3  502    0  0.83586727070E+03 -0.13218384733E+04  0.31931537306E+03  0.15962126939E+04  0.12699999809E+01 0.  1.
       -4    1    3    3    0  502 -0.83586727070E+03  0.13218384733E+04  0.15941844654E+03  0.15720518114E+04  0.12699999809E+01 0. -1.
</event>
<event>
 5   0  0.1782660E-06  0.2331584E+04  0.7818609E-02  0.8465571E-01
       -2   -1    0    0    0  501  0.00000000000E+00  0.00000000000E+00  0.59922654921E+03  0.59922654921E+03  0.25500000920E-02 0.  1.
        2   -1    0    0  501    0  0.00000000000E+00  0.00000000000E+00 -0.22680416111E+04  0.22680416111E+04  0.25500000920E-02 0. -1.
    10030    2    1    2    0    0  0.00000000000E+00  0.00000000000E+00 -0.16688150619E+04  0.28672681603E+04  0.23315837948E+04 0.  0.
        4    1    3    3  502    0  0.65685013944E+03  0.92013800400E+03 -0.11843211152E+04  0.16372917177E+04  0.12699999809E+01 0. -1.
       -4    1    3    3    0  502 -0.65685013944E+03 -0.92013800400E+03 -0.48449394670E+03  0.12299764426E+04  0.12699999809E+01 0.  1.
</event>
<event>
 5   0  0.1908726E-06  0.3409215E+04  0.7818609E-02  0.8135648E-01
       -2   -1    0    0    0  501  0.00000000000E+00  0.00000000000E+00  0.15302818268E+04  0.15302818268E+04  0.25500000920E-02 0. -1.
        2   -1    0    0  501    0  0.00000000000E+00  0.00000000000E+00 -0.18987915302E+04  0.18987915302E+04  0.25500000920E-02 0.  1.
    10030    2    1    2    0    0  0.00000000000E+00  0.00000000000E+00 -0.36850970340E+03  0.34290733570E+04  0.34092146729E+04 0.  0.
        5    1    3    3  502    0  0.12167120052E+03 -0.97633416636E+03  0.12158419169E+04  0.15640735092E+04  0.46999998093E+01 0. -1.
       -5    1    3    3    0  502 -0.12167120052E+03  0.97633416636E+03 -0.15843516203E+04  0.18649998477E+04  0.46999998093E+01 0.  1.
</event>
<event>
 5   0  0.1908726E-06  0.3470106E+04  0.7818609E-02  0.8120911E-01
       -2   -1    0    0    0  501  0.00000000000E+00  0.00000000000E+00  0.12046928678E+04  0.12046928678E+04  0.25500000920E-02 0.  1.
        2   -1    0    0  501    0  0.00000000000E+00  0.00000000000E+00 -0.24989021135E+04  0.24989021135E+04  0.25500000920E-02 0. -1.
    10030    2    1    2    0    0  0.00000000000E+00  0.00000000000E+00 -0.12942092457E+04  0.37035949813E+04  0.34701063692E+04 0.  0.
        5    1    3    3  502    0  0.13679041841E+04  0.10562882738E+04 -0.48356005630E+03  0.17946473726E+04  0.46999998093E+01 0.  1.
       -5    1    3    3    0  502 -0.13679041841E+04 -0.10562882738E+04 -0.81064918942E+03  0.19089476086E+04  0.46999998093E+01 0. -1.
</event>
<event>
 5   0  0.1110956E-06  0.3799945E+04  0.7818609E-02  0.8046167E-01
       -1   -1    0    0    0  501  0.00000000000E+00  0.00000000000E+00  0.16735935075E+04  0.16735935075E+04  0.50400001928E-02 0. -1.
        1   -1    0    0  501    0  0.00000000000E+00  0.00000000000E+00 -0.21569730713E+04  0.21569730713E+04  0.50400001928E-02 0.  1.
    10030    2    1    2    0    0  0.00000000000E+00  0.00000000000E+00 -0.48337956373E+03  0.38305665788E+04  0.37999453301E+04 0.  0.
        1    1    3    3  502    0  0.45033791914E+03 -0.14533266931E+03 -0.20966185597E+04  0.21493569297E+04  0.50400001928E-02 0.  1.
       -1    1    3    3    0  502 -0.45033791914E+03  0.14533266931E+03  0.16132389960E+04  0.16812096491E+04  0.50400001928E-02 0. -1.
</event>
<event>
 5   0  0.3041329E-06  0.2876990E+04  0.7818609E-02  0.8279757E-01
        2   -1    0    0  501    0  0.00000000000E+00  0.00000000000E+00  0.22618077348E+04  0.22618077348E+04  0.25500000920E-02 0. -1.
       -2   -1    0    0    0  501  0.00000000000E+00  0.00000000000E+00 -0.91487370173E+03  0.91487370173E+03  0.25500000920E-02 0.  1.
    10030    2    1    2    0    0  0.00000000000E+00  0.00000000000E+00  0.13469340331E+04  0.31766814365E+04  0.28769903823E+04 0.  0.
        2    1    3    3  502    0  0.60445195383E+02 -0.13748414395E+04  0.21099868395E+03  0.13922510729E+04  0.25500000920E-02 0. -1.
       -2    1    3    3    0  502 -0.60445195383E+02  0.13748414395E+04  0.11359353491E+04  0.17844303636E+04  0.25500000920E-02 0.  1.
</event>
<event>
 5   0  0.1782660E-06  0.2020508E+04  0.7818609E-02  0.8597092E-01
       -2   -1    0    0    0  501  0.00000000000E+00  0.00000000000E+00  0.82181394205E+03  0.82181394205E+03  0.25500000920E-02 0. -1.
        2   -1    0    0  501    0  0.00000000000E+00  0.00000000000E+00 -0.12419034835E+04  0.12419034835E+04  0.25500000920E-02 0.  1.
    10030    2    1    2    0    0  0.00000000000E+00  0.00000000000E+00 -0.42008954144E+03  0.20637174255E+04  0.20205084483E+04 0.  0.
        4    1    3    3  502    0 -0.82556467420E+03  0.35828563297E+03 -0.67886653938E+03  0.11272918953E+04  0.12699999809E+01 0.  1.
       -4    1    3    3    0  502  0.82556467420E+03 -0.35828563297E+03  0.25877699795E+03  0.93642553022E+03  0.12699999809E+01 0. -1.
</event>
<event>
 5   0  0.2565004E-06  0.3503225E+04  0.7818609E-02  0.8113026E-01
       -2   -1    0    0    0  501  0.00000000000E+00  0.00000000000E+00  0.13954907903E+04  0.13954907903E+04  0.25500000920E-02 0. -1.
        2   -1    0    0  501    0  0.00000000000E+00  0.00000000000E+00 -0.21986143808E+04  0.21986143808E+04  0.25500000920E-02 0.  1.
    10030    2    1    2    0    0  0.00000000000E+00  0.00000000000E+00 -0.80312359055E+03  0.35941051711E+04  0.35032248685E+04 0.  0.
        3    1    3    3  502    0 -0.67894880234E+02  0.26690820728E+03 -0.21762622946E+04  0.21936196779E+04  0.10100000352E+00 0.  1.
       -3    1    3    3    0  502  0.67894880234E+02 -0.26690820728E+03  0.13731387041E+04  0.14004854932E+04  0.10100000352E+00 0. -1.
</event>
<event>
 5   0  0.3378848E-06  0.3283844E+04  0.7818609E-02  0.8167018E-01
        2   -1    0    0  501    0  0.00000000000E+00  0.00000000000E+00  0.25727159325E+04  0.25727159325E+04  0.25500000920E-02 0.  1.
       -2   -1    0    0    0  501  0.00000000000E+00  0.00000000000E+00 -0.10478840284E+04  0.10478840284E+04  0.25500000920E-02 0. -1.
    10030    2    1    2    0    0  0.00000000000E+00  0.00000000000E+00  0.15248319041E+04  0.36205999609E+04  0.32838440495E+04 0.  0.
        1    1    3    3  502    0 -0.13078681370E+04  0.88101962200E+03  0.12666961338E+04  0.20226798396E+04  0.50400001928E-02 0. -1.
       -1    1    3    3    0  502  0.13078681370E+04 -0.88101962200E+03  0.25813577028E+03  0.15979201213E+04  0.50400001928E-02 0.  1.
</event>
<event>
 5   0  0.2565004E-06  0.2106181E+04  0.7818609E-02  0.8558526E-01
        2   -1    0    0  501    0  0.00000000000E+00  0.00000000000E+00  0.18391298003E+04  0.18391298003E+04  0.25500000920E-02 0.  1.
       -2   -1    0    0    0  501  0.00000000000E+00  0.00000000000E+00 -0.60300219703E+03  0.60300219704E+03  0.25500000920E-02 0. -1.
    10030    2    1    2    0    0  0.00000000000E+00  0.00000000000E+00  0.12361276033E+04  0.24421319974E+04  0.21061807237E+04 0.  0.
        3    1    3    3  502    0 -0.85933259094E+03  0.34883943534E+03  0.39635985674E+02  0.92828469505E+03  0.10100000352E+00 0.  1.
       -3    1    3    3    0  502  0.85933259094E+03 -0.34883943534E+03  0.11964916176E+04  0.15138473023E+04  0.10100000352E+00 0. -1.
</event>
<event>
 5   0  0.3041329E-06  0.3380222E+04  0.7818609E-02  0.8142777E-01
        2   -1    0    0  501    0  0.00000000000E+00  0.00000000000E+00  0.11487169156E+04  0.11487169156E+04  0.25500000920E-02 0. -1.
       -2   -1    0    0    0  501  0.00000000000E+00  0.00000000000E+00 -0.24866665811E+04  0.24866665811E+04  0.25500000920E-02 0.  1.
    10030    2    1    2    0    0  0.00000000000E+00  0.00000000000E+00 -0.13379496654E+04  0.36353834967E+04  0.33802224573E+04 0.  0.
        2    1    3    3  502    0 -0.42423700901E+03  0.61807455324E+03  0.96012368744E+03  0.12181258918E+04  0.25500000920E-02 0. -1.
       -2    1    3    3    0  502  0.42423700901E+03 -0.61807455324E+03 -0.22980733529E+04  0.24172576049E+04  0.25500000920E-02 0.  1.
</event>
<event>
 5   0  0.1089337E-06  0.3451532E+04  0.7818609E-02  0.8125373E-01
        1   -1    0    0  501    0  0.00000000000E+00  0.00000000000E+00  0.20325559313E+04  0.20325559314E+04  0.50400001928E-02 0.  1.
       -1   -1    0    0    0  501  0.00000000000E+00  0.00000000000E+00 -0.14652819368E+04  0.14652819368E+04  0.50400001928E-02 0. -1.
    10030    2    1    2    0    0  0.00000000000E+00  0.00000000000E+00  0.56727399452E+03  0.34978378682E+04  0.34515315394E+04 0.  0.
        2    1    3    3  502    0 -0.10645586227E+04  0.10122967099E+03  0.16563334139E+04  0.19715407390E+04  0.25500000920E-02 0.  1.
       -2    1    3    3    0  502  0.10645586227E+04 -0.10122967099E+03 -0.10890594194E+04  0.15262971292E+04  0.25500000920E-02 0. -1.
</event>
<event>
 5   0  0.1908726E-06  0.3368369E+04  0.7818609E-02  0.8145714E-01
        2   -1    0    0  501    0  0.00000000000E+00  0.00000000000E+00  0.20275944899E+04  0.20275944899E+04  0.25500000920E-02 0. -1.
       -2   -1    0    0    0  501  0.00000000000E+00  0.00000000000E+00 -0.13989372190E+04  0.13989372190E+04  0.25500000920E-02 0.  1.
    10030    2    1    2    0    0  0.00000000000E+00  0.00000000000E+00  0.62865727086E+03  0.34265317089E+04  0.33683689804E+04 0.  0.
        5    1    3    3  502    0  0.27473885656E+03 -0.48137071190E+03  0.19321534758E+04  0.20100841638E+04  0.46999998093E+01 0. -1.
       -5    1    3    3    0  502 -0.27473885656E+03  0.48137071190E+03 -0.13034962050E+04  0.14164475451E+04  0.46999998093E+01 0.  1.
</event>
<event>
 5   0  0.1782660E-06  0.2578123E+04  0.7818609E-02  0.8375670E-01
       -2   -1    0    0    0  501  0.00000000000E+00  0.00000000000E+00  0.10768432310E+04  0.10768432311E+04  0.25500000920E-02 0.  1.
        2   -1    0    0  501    0  0.00000000000E+00  0.00000000000E+00 -0.15431029981E+04  0.15431029981E+04  0.25500000920E-02 0. -1.
    10030    2    1    2    0    0  0.00000000000E+00  0.00000000000E+00 -0.46625976703E+03  0.26199462291E+04  0.25781233627E+04 0.  0.
        4    1    3    3  502    0  0.10129182984E+04 -0.33952034672E+03  0.49996077688E+03  0.11795083452E+04  0.12699999809E+01 0.  1.
       -4    1    3    3    0  502 -0.10129182984E+04  0.33952034672E+03 -0.96622054391E+03  0.14404378839E+04  0.12699999809E+01 0. -1.
</event>
<event>
 5   0  0.1782660E-06  0.2481058E+04  0.7818609E-02  0.8409765E-01
       -2   -1    0    0    0  501  0.00000000000E+00  0.00000000000E+00  0.82619294883E+03  0.82619294883E+03  0.25500000920E-02 0.  1.
        2   -1    0    0  501    0  0.00000000000E+00  0.00000000000E+00 -0.18626550677E+04  0.18626550677E+04  0.25500000920E-02 0. -1.
    10030    2    1    2    0    0  0.00000000000E+00  0.00000000000E+00 -0.10364621189E+04  0.26888480165E+04  0.24810582283E+04 0.  0.
        4    1    3    3  502    0 -0.23912049524E+03 -0.91361735205E+03 -0.13899839255E+04  0.16804559510E+04  0.12699999809E+01 0. -1.
       -4    1    3    3    0  502  0.23912049524E+03  0.91361735205E+03  0.35352180661E+03  0.10083920655E+04  0.12699999809E+01 0.  1.
</event>
<event>
 5   0  0.1908726E-06  0.2528751E+04  0.7818609E-02  0.8392814E-01
       -2   -1    0    0    0  501  0.00000000000E+00  0.00000000000E+00  0.11483074622E+04  0.11483074622E+04  0.25500000920E-02 0. -1.
        2   -1    0    0  501    0  0.00000000000E+00  0.00000000000E+00 -0.13921750450E+04  0.13921750450E+04  0.25500000920E-02 0.  1.
    10030    2    1    2    0    0  0.00000000000E+00  0.00000000000E+00 -0.24386758284E+03  0.25404825072E+04  0.25287506740E+04 0.  0.
        5    1    3    3  502    0  0.92019552196E+03 -0.58064656802E+03  0.52503576899E+03  0.12081369477E+04  0.46999998093E+01 0. -1.
       -5    1    3    3    0  502 -0.92019552196E+03  0.58064656802E+03 -0.76890335182E+03  0.13323455595E+04  0.46999998093E+01 0.  1.
</event>
<event>
 5   0  0.1908726E-06  0.2960790E+04  0.7818609E-02  0.8255017E-01
        2   -1    0    0  501    0  0.00000000000E+00  0.00000000000E+00  0.16726907790E+04  0.16726907790E+04  0.25500000920E-02 0.  1.
       -2   -1    0    0    0  501  0.00000000000E+00  0.00000000000E+00 -0.13102063440E+04  0.13102063440E+04  0.25500000920E-02 0. -1.
    10030    2    1    2    0    0  0.00000000000E+00  0.00000000000E+00  0.36248443508E+03  0.29828971230E+04  0.29607904824E+04 0.  0.
        5    1    3    3  502    0 -0.43623875282E+03 -0.75056950382E+03 -0.10268311289E+04  0.13446423639E+04  0.46999998093E+01 0. -1.
       -5    1    3    3    0  502  0.43623875282E+03  0.75056950382E+03  0.13893155639E+04  0.16382547591E+04  0.46999998093E+01 0.  1.
</event>
<event>
 5   0  0.3041329E-06  0.3544642E+04  0.7818609E-02  0.8103291E-01
       -2   -1    0    0    0  501  0.00000000000E+00  0.00000000000E+00  0.16999413035E+04  0.16999413035E+04  0.25500000920E-02 0. -1.
        2   -1    0    0  501    0  0.00000000000E+00  0.00000000000E+00 -0.18477821182E+04  0.18477821182E+04  0.25500000920E-02 0.  1.
    10030    2    1    2    0    0  0.00000000000E+00  0.00000000000E+00 -0.14784081465E+03  0.35477234217E+04  0.35446416702E+04 0.  0.
        2    1    3    3  502    0 -0.54522937632E+03  0.30218899610E+03  0.15865964154E+04  0.17046646144E+04  0.25500000920E-02 0. -1.
       -2    1    3    3    0  502  0.54522937632E+03 -0.30218899610E+03 -0.17344372301E+04  0.18430588073E+04  0.25500000920E-02 0.  1.
</event>
<event>
 5   0  0.3378848E-06  0.3540115E+04  0.7818609E-02  0.8104348E-01
        2   -1    0    0  501    0  0.00000000000E+00  0.00000000000E+00  0.22256639379E+04  0.22256639379E+04  0.25500000920E-02 0. -1.
       -2   -1    0    0    0  501  0.00000000000E+00  0.00000000000E+00 -0.14077166593E+04  0.14077166593E+04  0.25500000920E-02 0.  1.
    10030    2    1    2    0    0  0.00000000000E+00  0.00000000000E+00  0.81794727861E+03  0.36333805973E+04  0.35401153673E+04 0.  0.
        1    1    3    3  502    0 -0.59486131064E+03  0.10814066950E+04  0.17111804110E+04  0.21098433159E+04  0.50400001928E-02 0. -1.
       -1    1    3    3    0  502  0.59486131064E+03 -0.10814066950E+04 -0.89323313238E+03  0.15235372813E+04  0.50400001928E-02 0.  1.
</event>
<event>
 5   0  0.1102175E-06  0.2480492E+04  0.7818609E-02  0.8409968E-01
        1   -1    0    0  501    0  0.00000000000E+00  0.00000000000E+00  0.15637042587E+04  0.15637042588E+04  0.50400001928E-02 0.  1.
       -1   -1    0    0    0  501  0.00000000000E+00  0.00000000000E+00 -0.98369663200E+03  0.98369663201E+03  0.50400001928E-02 0. -1.
    10030    2    1    2    0    0  0.00000000000E+00  0.00000000000E+00  0.58000762675E+03  0.25474008908E+04  0.24804923808E+04 0.  0.
        5    1    3    3  502    0 -0.89958131174E+03  0.66491717409E+03 -0.26000483533E+03  0.11484711530E+04  0.46999998093E+01 0. -1.
       -5    1    3    3    0  502  0.89958131174E+03 -0.66491717409E+03  0.84001246208E+03  0.13989297378E+04  0.46999998093E+01 0.  1.
</event>
<event>
 5   0  0.1130707E-06  0.3592027E+04  0.7818609E-02  0.8092320E-01
        1   -1    0    0  501    0  0.00000000000E+00  0.00000000000E+00  0.10529271659E+04  0.10529271659E+04  0.50400001928E-02 0. -1.
       -1   -1    0    0    0  501  0.00000000000E+00  0.00000000000E+00 -0.30635218026E+04  0.30635218026E+04  0.50400001928E-02 0.  1.
    10030    2    1    2    0    0  0.00000000000E+00  0.00000000000E+00 -0.20105946367E+04  0.41164489685E+04  0.35920274660E+04 0.  0.
        3    1    3    3  502    0 -0.12223229657E+04 -0.79942487763E+03 -0.22031299653E+04  0.26432811469E+04  0.10100000352E+00 0.  1.
       -3    1    3    3    0  502  0.12223229657E+04  0.79942487763E+03  0.19253532860E+03  0.14731678215E+04  0.10100000352E+00 0. -1.
</event>
<event>
 5   0  0.3041329E-06  0.3443001E+04  0.7818609E-02  0.8127433E-01
       -2   -1    0    0    0  501  0.00000000000E+00  0.00000000000E+00  0.15200177255E+04  0.15200177255E+04  0.25500000920E-02 0. -1.
        2   -1    0    0  501    0  0.00000000000E+00  0.00000000000E+00 -0.19496898833E+04  0.19496898833E+04  0.25500000920E-02 0.  1.
    10030    2    1    2    0    0  0.00000000000E+00  0.00000000000E+00 -0.42967215779E+03  0.34697076089E+04  0.34430005414E+04 0.  0.
        2    1    3    3  502    0 -0.19706602008E+03 -0.17068370918E+04 -0.32260157170E+03  0.17481989727E+04  0.25500000920E-02 0. -1.
       -2    1    3    3    0  502  0.19706602008E+03  0.17068370918E+04 -0.10707058609E+03  0.17215086362E+04  0.25500000920E-02 0.  1.
</event>
<event>
 5   0  0.1102175E-06  0.1957422E+04  0.7818609E-02  0.8626790E-01
        1   -1    0    0  501    0  0.00000000000E+00  0.00000000000E+00  0.61020649808E+03  0.61020649810E+03  0.50400001928E-02 0.  1.
       -1   -1    0    0    0  501  0.00000000000E+00  0.00000000000E+00 -0.15697560792E+04  0.15697560792E+04  0.50400001928E-02 0. -1.
    10030    2    1    2    0    0  0.00000000000E+00  0.00000000000E+00 -0.95954958110E+03  0.21799625773E+04  0.19574221414E+04 0.  0.
        5    1    3    3  502    0 -0.84717611049E+03  0.42084422771E+03 -0.20016072384E+03  0.96690414807E+03  0.46999998093E+01 0.  1.
       -5    1    3    3    0  502  0.84717611049E+03 -0.42084422771E+03 -0.75938885726E+03  0.12130584292E+04  0.46999998093E+01 0. -1.
</event>
<event>
 5   0  0.1782660E-06  0.3044332E+04  0.7818609E-02  0.8231184E-01
       -2   -1    0    0    0  501  0.00000000000E+00  0.00000000000E+00  0.14434494941E+04  0.14434494941E+04  0.25500000920E-02 0. -1.
        2   -1    0    0  501    0  0.00000000000E+00  0.00000000000E+00 -0.16051750649E+04  0.16051750649E+04  0.25500000920E-02 0.  1.
    10030    2    1    2    0    0  0.00000000000E+00  0.00000000000E+00 -0.16172557082E+03  0.30486245590E+04  0.30443318711E+04 0.  0.
        4    1    3    3  502    0 -0.13427623886E+04  0.45772217694E+03 -0.63342620934E+03  0.15536250510E+04  0.12699999809E+01 0. -1.
       -4    1    3    3    0  502  0.13427623886E+04 -0.45772217694E+03  0.47170063852E+03  0.14949995080E+04  0.12699999809E+01 0.  1.
</event>
<event>
 5   0  0.1110956E-06  0.2446756E+04  0.7818609E-02  0.8422203E-01
       -1   -1    0    0    0  501  0.00000000000E+00  0.00000000000E+00  0.13449701414E+04  0.13449701414E+04  0.50400001928E-02 0. -1.
        1   -1    0    0  501    0  0.00000000000E+00  0.00000000000E+00 -0.11127787220E+04  0.11127787221E+04  0.50400001928E-02 0.  1.
    10030    2    1    2    0    0  0.00000000000E+00  0.00000000000E+00  0.23219141933E+03  0.24577488634E+04  0.24467563468E+04 0.  0.
        1    1    3    3  502    0 -0.70633535169E+03 -0.97014580957E+03 -0.12279967250E+03  0.12063052186E+04  0.50400001928E-02 0.  1.
       -1    1    3    3    0  502  0.70633535169E+03  0.97014580957E+03  0.35499109182E+03  0.12514436448E+04  0.50400001928E-02 0. -1.
</event>
<event>
 5   0  0.2565004E-06  0.3464283E+04  0.7818609E-02  0.8122307E-01
        2   -1    0    0  501    0  0.00000000000E+00  0.00000000000E+00  0.21311323453E+04  0.21311323453E+04  0.25500000920E-02 0.  1.
       -2   -1    0    0    0  501  0.00000000000E+00  0.00000000000E+00 -0.14078498266E+04  0.14078498266E+04  0.25500000920E-02 0. -1.
    10030    2    1    2    0    0  0.00000000000E+00  0.00000000000E+00  0.72328251870E+03  0.35389821719E+04  0.34642830732E+04 0.  0.
        3    1    3    3  502    0  0.66208945430E+01 -0.76566188612E+02 -0.14061073149E+04  0.14082059539E+04  0.10100000352E+00 0. -1.
       -3    1    3    3    0  502 -0.66208945430E+01  0.76566188612E+02  0.21293898336E+04  0.21307762180E+04  0.10100000352E+00 0.  1.
</event>
<event>
 5   0  0.1782660E-06  0.3288193E+04  0.7818609E-02  0.8165906E-01
        2   -1    0    0  501    0  0.00000000000E+00  0.00000000000E+00  0.19512572719E+04  0.19512572719E+04  0.25500000920E-02 0.  1.
       -2   -1    0    0    0  501  0.00000000000E+00  0.00000000000E+00 -0.13852882495E+04  0.13852882495E+04  0.25500000920E-02 0. -1.
    10030    2    1    2    0    0  0.00000000000E+00  0.00000000000E+00  0.56596902238E+03  0.33365455213E+04  0.32881932853E+04 0.  0.
        4    1    3    3  502    0 -0.10148782291E+03 -0.13333992102E+04 -0.68753113029E+03  0.15036468668E+04  0.12699999809E+01 0. -1.
       -4    1    3    3    0  502  0.10148782291E+03  0.13333992102E+04  0.12535001527E+04  0.18328986545E+04  0.12699999809E+01 0.  1.
</event>
<event>
 5   0  0.3041329E-06  0.3607422E+04  0.7818609E-02  0.8088794E-01
        2   -1    0    0  501    0  0.00000000000E+00  0.00000000000E+00  0.22967458139E+04  0.22967458139E+04  0.25500000920E-02 0.  1.
       -2   -1    0    0    0  501  0.00000000000E+00  0.00000000000E+00 -0.14165141812E+04  0.14165141812E+04  0.25500000920E-02 0. -1.
    10030    2    1    2    0    0  0.00000000000E+00  0.00000000000E+00  0.88023163274E+03  0.37132599951E+04  0.36074218029E+04 0.  0.
        2    1    3    3  502    0  0.76369744485E+03  0.16253807295E+04  0.61320618114E+03  0.18976612247E+04  0.25500000920E-02 0.  1.
       -2    1    3    3    0  502 -0.76369744485E+03 -0.16253807295E+04  0.26702545160E+03  0.18155987704E+04  0.25500000920E-02 0. -1.
</event>
<event>
 5   0  0.1110956E-06  0.3497843E+04  0.7818609E-02  0.8114301E-01
        1   -1    0    0  501    0  0.00000000000E+00  0.00000000000E+00  0.27499118884E+04  0.27499118884E+04  0.50400001928E-02 0. -1.
       -1   -1    0    0    0  501  0.00000000000E+00  0.00000000000E+00 -0.11122995434E+04  0.11122995435E+04  0.50400001928E-02 0.  1.
    10030    2    1    2    0    0  0.00000000000E+00  0.00000000000E+00  0.16376123449E+04  0.38622114318E+04  0.34978426139E+04 0.  0.
        1    1    3    3  502    0 -0.25493534541E+03  0.80085133110E+03 -0.87470737583E+03  0.12130407570E+04  0.50400001928E-02 0.  1.
       -1    1    3    3    0  502  0.25493534541E+03 -0.80085133110E+03  0.25123197208E+04  0.26491706748E+04  0.50400001928E-02 0. -1.
</event>
<event>
 5   0  0.1110956E-06  0.3467535E+04  0.7818609E-02  0.8121527E-01
        1   -1    0    0  501    0  0.00000000000E+00  0.00000000000E+00  0.18964823450E+04  0.18964823450E+04  0.50400001928E-02 0. -1.
       -1   -1    0    0    0  501  0.00000000000E+00  0.00000000000E+00 -0.15850128917E+04  0.15850128917E+04  0.50400001928E-02 0.  1.
    10030    2    1    2    0    0  0.00000000000E+00  0.00000000000E+00  0.31146945331E+03  0.34814952367E+04  0.34675345511E+04 0.  0.
        1    1    3    3  502    0 -0.15489251848E+03  0.14855870893E+04 -0.72814378096E+03  0.16616720669E+04  0.50400001928E-02 0.  1.
       -1    1    3    3    0  502  0.15489251848E+03 -0.14855870893E+04  0.10396132343E+04  0.18198231698E+04  0.50400001928E-02 0. -1.
</event>
<event>
 5   0  0.1782660E-06  0.2340437E+04  0.7818609E-02  0.8462146E-01
       -2   -1    0    0    0  501  0.00000000000E+00  0.00000000000E+00  0.80239336262E+03  0.80239336263E+03  0.25500000920E-02 0. -1.
        2   -1    0    0  501    0  0.00000000000E+00  0.00000000000E+00 -0.17066588527E+04  0.17066588527E+04  0.25500000920E-02 0.  1.
    10030    2    1    2    0    0  0.00000000000E+00  0.00000000000E+00 -0.90426549012E+03  0.25090522154E+04  0.23404373401E+04 0.  0.
        4    1    3    3  502    0 -0.24143077054E+03  0.48560762900E+03 -0.15638102660E+04  0.16551760472E+04  0.12699999809E+01 0.  1.
       -4    1    3    3    0  502  0.24143077054E+03 -0.48560762900E+03  0.65954477587E+03  0.85387616818E+03  0.12699999809E+01 0. -1.
</event>
<event>
 5   0  0.2565004E-06  0.2204921E+04  0.7818609E-02  0.8516383E-01
        2   -1    0    0  501    0  0.00000000000E+00  0.00000000000E+00  0.18907030763E+04  0.18907030763E+04  0.25500000920E-02 0. -1.
       -2   -1    0    0    0  501  0.00000000000E+00  0.00000000000E+00 -0.64283959322E+03  0.64283959323E+03  0.25500000920E-02 0.  1.
    10030    2    1    2    0    0  0.00000000000E+00  0.00000000000E+00  0.12478634831E+04  0.25335426695E+04  0.22049206757E+04 0.  0.
        3    1    3    3  502    0 -0.26130352890E+03  0.66621094970E+03 -0.33968924101E+03  0.79215235553E+03  0.10100000352E+00 0.  1.
       -3    1    3    3    0  502  0.26130352890E+03 -0.66621094970E+03  0.15875527241E+04  0.17413903140E+04  0.10100000352E+00 0. -1.
</event>
<event>
 5   0  0.2565004E-06  0.1779683E+04  0.7818609E-02  0.8717179E-01
        2   -1    0    0  501    0  0.00000000000E+00  0.00000000000E+00  0.67539999149E+03  0.67539999150E+03  0.25500000920E-02 0. -1.
       -2   -1    0    0    0  501  0.00000000000E+00  0.00000000000E+00 -0.11723683833E+04  0.11723683833E+04  0.25500000920E-02 0.  1.
    10030    2    1    2    0    0  0.00000000000E+00  0.00000000000E+00 -0.49696839183E+03  0.18477683748E+04  0.17796826640E+04 0.  0.
        3    1    3    3  502    0 -0.40450940399E+03  0.72320528312E+03 -0.58518037740E+03  0.10144406457E+04  0.10100000352E+00 0.  1.
       -3    1    3    3    0  502  0.40450940399E+03 -0.72320528312E+03  0.88211985566E+02  0.83332772907E+03  0.10100000352E+00 0. -1.
</event>
<event>
 5   0  0.1908726E-06  0.3416461E+04  0.7818609E-02  0.8133878E-01
        2   -1    0    0  501    0  0.00000000000E+00  0.00000000000E+00  0.20071066000E+04  0.20071066000E+04  0.25500000920E-02 0. -1.
       -2   -1    0    0    0  501  0.00000000000E+00  0.00000000000E+00 -0.14538595517E+04  0.14538595517E+04  0.25500000920E-02 0.  1.
    10030    2    1    2    0    0  0.00000000000E+00  0.00000000000E+00  0.55324704833E+03  0.34609661516E+04  0.34164608012E+04 0.  0.
        5    1    3    3  502    0 -0.68291149982E+03  0.56745838952E+03  0.17549665533E+04  0.19668011678E+04  0.46999998093E+01 0. -1.
       -5    1    3    3    0  502  0.68291149982E+03 -0.56745838952E+03 -0.12017195050E+04  0.14941649839E+04  0.46999998093E+01 0.  1.
</event>
<event>
 5   0  0.1908726E-06  0.1747134E+04  0.7818609E-02  0.8734929E-01
       -2   -1    0    0    0  501  0.00000000000E+00  0.00000000000E+00  0.43186255777E+03  0.43186255777E+03  0.25500000920E-02 0.  1.
        2   -1    0    0  501    0  0.00000000000E+00  0.00000000000E+00 -0.17670418990E+04  0.17670418990E+04  0.25500000920E-02 0. -1.
    10030    2    1    2    0    0  0.00000000000E+00  0.00000000000E+00 -0.13351793412E+04  0.21989044568E+04  0.17471339207E+04 0.  0.
        5    1    3    3  502    0 -0.20134693113E+03  0.13452624816E+03  0.38876097163E+03  0.45803393016E+03  0.46999998093E+01 0.  1.
       -5    1    3    3    0  502  0.20134693113E+03 -0.13452624816E+03 -0.17239403129E+04  0.17408705266E+04  0.46999998093E+01 0. -1.
</event>
<event>
 5   0  0.1908726E-06  0.3470584E+04  0.7818609E-02  0.8120797E-01
       -2   -1    0    0    0  501  0.00000000000E+00  0.00000000000E+00  0.11074192294E+04  0.11074192294E+04  0.25500000920E-02 0. -1.
        2   -1    0    0  501    0  0.00000000000E+00  0.00000000000E+00 -0.27191488342E+04  0.27191488342E+04  0.25500000920E-02 0.  1.
    10030    2    1    2    0    0  0.00000000000E+00  0.00000000000E+00 -0.16117296048E+04  0.38265680636E+04  0.34705836435E+04 0.  0.
        5    1    3    3  502    0 -0.98775196176E+03 -0.12084009031E+04  0.30440856753E+02  0.15610366480E+04  0.46999998093E+01 0. -1.
       -5    1    3    3    0  502  0.98775196176E+03  0.12084009031E+04 -0.16421704615E+04  0.22655314156E+04  0.46999998093E+01 0.  1.
</event>
<event>
 5   0  0.1782660E-06  0.3417594E+04  0.7818609E-02  0.8133602E-01
        2   -1    0    0  501    0  0.00000000000E+00  0.00000000000E+00  0.20079701193E+04  0.20079701193E+04  0.25500000920E-02 0.  1.
       -2   -1    0    0    0  501  0.00000000000E+00  0.00000000000E+00 -0.14541986777E+04  0.14541986777E+04  0.25500000920E-02 0. -1.
    10030    2    1    2    0    0  0.00000000000E+00  0.00000000000E+00  0.55377144166E+03  0.34621687970E+04  0.34175941786E+04 0.  0.
        4    1    3    3  502    0 -0.12895370662E+04  0.10280210918E+04 -0.17644682945E+03  0.16585741789E+04  0.12699999809E+01 0.  1.
       -4    1    3    3    0  502  0.12895370662E+04 -0.10280210918E+04  0.73021827111E+03  0.18035946182E+04  0.12699999809E+01 0. -1.
</event>
<event>
 5   0  0.1102175E-06  0.3563992E+04  0.7818609E-02  0.8098790E-01
        1   -1    0    0  501    0  0.00000000000E+00  0.00000000000E+00  0.14548209214E+04  0.14548209215E+04  0.50400001928E-02 0.  1.
       -1   -1    0    0    0  501  0.00000000000E+00  0.00000000000E+00 -0.21827498345E+04  0.21827498345E+04  0.50400001928E-02 0. -1.
    10030    2    1    2    0    0  0.00000000000E+00  0.00000000000E+00 -0.72792891304E+03  0.36375707559E+04  0.35639922141E+04 0.  0.
        5    1    3    3  502    0  0.17563683048E+04  0.30080825475E+03 -0.35054745166E+03  0.18161004472E+04  0.46999998093E+01 0.  1.
       -5    1    3    3    0  502 -0.17563683048E+04 -0.30080825475E+03 -0.37738146138E+03  0.18214703088E+04  0.46999998093E+01 0. -1.
</event>
<event>
 5   0  0.2565004E-06  0.1927350E+04  0.7818609E-02  0.8641361E-01
       -2   -1    0    0    0  501  0.00000000000E+00  0.00000000000E+00  0.52371987241E+03  0.52371987241E+03  0.25500000920E-02 0. -1.
        2   -1    0    0  501    0  0.00000000000E+00  0.00000000000E+00 -0.17732176466E+04  0.17732176466E+04  0.25500000920E-02 0.  1.
    10030    2    1    2    0    0  0.00000000000E+00  0.00000000000E+00 -0.12494977742E+04  0.22969375190E+04  0.19273498070E+04 0.  0.
        3    1    3    3  502    0 -0.20968479097E-01 -0.83887533531E+03 -0.59501117953E+02  0.84098289036E+03  0.10100000352E+00 0. -1.
       -3    1    3    3    0  502  0.20968479097E-01  0.83887533531E+03 -0.11899966563E+04  0.14559546287E+04  0.10100000352E+00 0.  1.
</event>
<event>
 5   0  0.3378848E-06  0.3324291E+04  0.7818609E-02  0.8156742E-01
       -2   -1    0    0    0  501  0.00000000000E+00  0.00000000000E+00  0.10571426849E+04  0.10571426849E+04  0.25500000920E-02 0. -1.
        2   -1    0    0  501    0  0.00000000000E+00  0.00000000000E+00 -0.26133914371E+04  0.26133914371E+04  0.25500000920E-02 0.  1.
    10030    2    1    2    0    0  0.00000000000E+00  0.00000000000E+00 -0.15562487522E+04  0.36705341220E+04  0.33242909864E+04 0.  0.
        1    1    3    3  502    0 -0.33535540761E+03 -0.15860375401E+04 -0.11834401564E+04  0.20071145786E+04  0.50400001928E-02 0. -1.
       -1    1    3    3    0  502  0.33535540761E+03  0.15860375401E+04 -0.37280859578E+03  0.16634195433E+04  0.50400001928E-02 0.  1.
</event>
<event>
 5   0  0.1089337E-06  0.1972249E+04  0.7818609E-02  0.8619706E-01
       -1   -1    0    0    0  501  0.00000000000E+00  0.00000000000E+00  0.59108152107E+03  0.59108152109E+03  0.50400001928E-02 0. -1.
        1   -1    0    0  501    0  0.00000000000E+00  0.00000000000E+00 -0.16451909760E+04  0.16451909760E+04  0.50400001928E-02 0.  1.
    10030    2    1    2    0    0  0.00000000000E+00  0.00000000000E+00 -0.10541094549E+04  0.22362724971E+04  0.19722494615E+04 0.  0.
        2    1    3    3  502    0  0.72522907572E+03  0.19467144206E+03 -0.12518336832E+04  0.14597745556E+04  0.25500000920E-02 0.  1.
       -2    1    3    3    0  502 -0.72522907572E+03 -0.19467144206E+03  0.19772422835E+03  0.77649794147E+03  0.25500000920E-02 0. -1.
</event>
<event>
 5   0  0.1782660E-06  0.3508606E+04  0.7818609E-02  0.8111753E-01
       -2   -1    0    0    0  501  0.00000000000E+00  0.00000000000E+00  0.13287848761E+04  0.13287848761E+04  0.25500000920E-02 0. -1.
        2   -1    0    0  501    0  0.00000000000E+00  0.00000000000E+00 -0.23160852374E+04  0.23160852374E+04  0.25500000920E-02 0.  1.
    10030    2    1    2    0    0  0.00000000000E+00  0.00000000000E+00 -0.98730036130E+03  0.36448701134E+04  0.35086060110E+04 0.  0.
        4    1    3    3  502    0 -0.70318343378E+03 -0.58638466734E+03  0.10608832081E+04  0.14013524588E+04  0.12699999809E+01 0.  1.
       -4    1    3    3    0  502  0.70318343378E+03  0.58638466734E+03 -0.20481835694E+04  0.22435176546E+04  0.12699999809E+01 0. -1.
</event>
<event>
 5   0  0.1089337E-06  0.2904605E+04  0.7818609E-02  0.8271509E-01
       -1   -1    0    0    0  501  0.00000000000E+00  0.00000000000E+00  0.83565418271E+03  0.83565418272E+03  0.50400001928E-02 0. -1.
        1   -1    0    0  501    0  0.00000000000E+00  0.00000000000E+00 -0.25239888878E+04  0.25239888878E+04  0.50400001928E-02 0.  1.
    10030    2    1    2    0    0  0.00000000000E+00  0.00000000000E+00 -0.16883347051E+04  0.33596430705E+04  0.29046045316E+04 0.  0.
        2    1    3    3  502    0  0.91585649078E+03  0.39548017006E+03 -0.20649705109E+04  0.22933165695E+04  0.25500000920E-02 0.  1.
       -2    1    3    3    0  502 -0.91585649078E+03 -0.39548017006E+03  0.37663580586E+03  0.10663265011E+04  0.25500000920E-02 0. -1.
</event>
<event>
 5   0  0.3378848E-06  0.3758130E+04  0.7818609E-02  0.8055200E-01
       -2   -1    0    0    0  501  0.00000000000E+00  0.00000000000E+00  0.18225669712E+04  0.18225669712E+04  0.25500000920E-02 0. -1.
        2   -1    0    0  501    0  0.00000000000E+00  0.00000000000E+00 -0.19373143279E+04  0.19373143279E+04  0.25500000920E-02 0.  1.
    10030    2    1    2    0    0  0.00000000000E+00  0.00000000000E+00 -0.11474735662E+03  0.37598812991E+04  0.37581299110E+04 0.  0.
        1    1    3    3  502    0 -0.36008665917E+03 -0.97095596260E+03 -0.16260543913E+04  0.19278150240E+04  0.50400001928E-02 0.  1.
       -1    1    3    3    0  502  0.36008665917E+03  0.97095596260E+03  0.15113070346E+04  0.18320662751E+04  0.50400001928E-02 0. -1.
</event>
<event>
 5   0  0.1782660E-06  0.3647578E+04  0.7818609E-02  0.8079680E-01
        2   -1    0    0  501    0  0.00000000000E+00  0.00000000000E+00  0.32316053372E+04  0.32316053372E+04  0.25500000920E-02 0. -1.
       -2   -1    0    0    0  501  0.00000000000E+00  0.00000000000E+00 -0.10292734332E+04  0.10292734332E+04  0.25500000920E-02 0.  1.
    10030    2    1    2    0    0  0.00000000000E+00  0.00000000000E+00  0.22023319040E+04  0.42608787704E+04  0.36475775633E+04 0.  0.
        4    1    3    3  502    0 -0.38790595944E+03 -0.61148713361E+03 -0.85413888953E+03  0.11197956972E+04  0.12699999809E+01 0.  1.
       -4    1    3    3    0  502  0.38790595944E+03  0.61148713361E+03  0.30564707936E+04  0.31410830732E+04  0.12699999809E+01 0. -1.
</event>
<event>
 5   0  0.1125196E-06  0.3639775E+04  0.7818609E-02  0.8081441E-01
       -1   -1    0    0    0  501  0.00000000000E+00  0.00000000000E+00  0.16579384855E+04  0.16579384855E+04  0.50400001928E-02 0. -1.
        1   -1    0    0  501    0  0.00000000000E+00  0.00000000000E+00 -0.19976558091E+04  0.19976558091E+04  0.50400001928E-02 0.  1.
    10030    2    1    2    0    0  0.00000000000E+00  0.00000000000E+00 -0.33971732364E+03  0.36555942946E+04  0.36397749638E+04 0.  0.
        4    1    3    3  502    0 -0.10521866554E+03 -0.18058258092E+04  0.30787027425E+02  0.18091509817E+04  0.12699999809E+01 0. -1.
       -4    1    3    3    0  502  0.10521866554E+03  0.18058258092E+04 -0.37050435107E+03  0.18464433129E+04  0.12699999809E+01 0.  1.
</event>
<event>
 5   0  0.3378848E-06  0.2391714E+04  0.7818609E-02  0.8442612E-01
       -2   -1    0    0    0  501  0.00000000000E+00  0.00000000000E+00  0.11938393090E+04  0.11938393090E+04  0.25500000920E-02 0. -1.
        2   -1    0    0  501    0  0.00000000000E+00  0.00000000000E+00 -0.11978776272E+04  0.11978776272E+04  0.25500000920E-02 0.  1.
    10030    2    1    2    0    0  0.00000000000E+00  0.00000000000E+00 -0.40383182092E+01  0.23917169362E+04  0.23917135269E+04 0.  0.
        1    1    3    3  502    0 -0.89364849567E+03  0.69515437458E+03  0.38298289669E+03  0.11952084076E+04  0.50400001928E-02 0. -1.
       -1    1    3    3    0  502  0.89364849567E+03 -0.69515437458E+03 -0.38702121490E+03  0.11965085286E+04  0.50400001928E-02 0.  1.
</event>
<event>
 5   0  0.1118922E-06  0.1920405E+04  0.7818609E-02  0.8644766E-01
        1   -1    0    0  501    0  0.00000000000E+00  0.00000000000E+00  0.97331148157E+03  0.97331148158E+03  0.50400001928E-02 0. -1.
       -1   -1    0    0    0  501  0.00000000000E+00  0.00000000000E+00 -0.94727004954E+03  0.94727004956E+03  0.50400001928E-02 0.  1.
    10030    2    1    2    0    0  0.00000000000E+00  0.00000000000E+00  0.26041432026E+02  0.19205815311E+04  0.19204049733E+04 0.  0.
        1    1    3    3  502    0  0.32483055678E+03 -0.90161248472E+03  0.72766079059E+02  0.96110086125E+03  0.50400001928E-02 0. -1.
       -1    1    3    3    0  502 -0.32483055678E+03  0.90161248472E+03 -0.46724647033E+02  0.95948066988E+03  0.50400001928E-02 0.  1.
</event>
<event>
 5   0  0.1110956E-06  0.1916117E+04  0.7818609E-02  0.8646875E-01
        1   -1    0    0  501    0  0.00000000000E+00  0.00000000000E+00  0.21589222630E+04  0.21589222630E+04  0.50400001928E-02 0. -1.
       -1   -1    0    0    0  501  0.00000000000E+00  0.00000000000E+00 -0.42515463460E+03  0.42515463463E+03  0.50400001928E-02 0.  1.
    10030    2    1    2    0    0  0.00000000000E+00  0.00000000000E+00  0.17337676284E+04  0.25840768977E+04  0.19161167041E+04 0.  0.
        1    1    3    3  502    0  0.64359401459E+03 -0.43549521767E+03  0.16225896427E+04  0.17990737863E+04  0.50400001928E-02 0. -1.
       -1    1    3    3    0  502 -0.64359401459E+03  0.43549521767E+03  0.11117798576E+03  0.78500311132E+03  0.50400001928E-02 0.  1.
</event>
<event>
 5   0  0.1089337E-06  0.2930775E+04  0.7818609E-02  0.8263779E-01
        1   -1    0    0  501    0  0.00000000000E+00  0.00000000000E+00  0.23255466999E+04  0.23255466999E+04  0.50400001928E-02 0. -1.
       -1   -1    0    0    0  501  0.00000000000E+00  0.00000000000E+00 -0.92337885953E+03  0.92337885954E+03  0.50400001928E-02 0.  1.
    10030    2    1    2    0    0  0.00000000000E+00  0.00000000000E+00  0.14021678404E+04  0.32489255594E+04  0.29307750917E+04 0.  0.
        2    1    3    3  502    0  0.12941609509E+04  0.32881458178E+03  0.31908568496E+02  0.13356607926E+04  0.25500000920E-02 0.  1.
       -2    1    3    3    0  502 -0.12941609509E+04 -0.32881458178E+03  0.13702592719E+04  0.19132647669E+04  0.25500000920E-02 0. -1.
</event>
<event>
 5   0  0.1125196E-06  0.3422201E+04  0.7818609E-02  0.8132479E-01
       -1   -1    0    0    0  501  0.00000000000E+00  0.00000000000E+00  0.18633155607E+04  0.18633155607E+04  0.50400001928E-02 0. -1.
        1   -1    0    0  501    0  0.00000000000E+00  0.00000000000E+00 -0.15713203587E+04  0.15713203587E+04  0.50400001928E-02 0.  1.
    10030    2    1    2    0    0  0.00000000000E+00  0.00000000000E+00  0.29199520193E+03  0.34346359194E+04  0.34222014407E+04 0.  0.
        4    1    3    3  502    0 -0.15588964739E+04  0.63010455428E+03 -0.17244708661E+03  0.16902454190E+04  0.12699999809E+01 0.  1.
       -4    1    3    3    0  502  0.15588964739E+04 -0.63010455428E+03  0.46444228854E+03  0.17443905004E+04  0.12699999809E+01 0. -1.
</event>
<event>
 5   0  0.1042825E-06  0.3532642E+04  0.7818609E-02  0.8106098E-01
       -3   -1    0    0    0  501  0.00000000000E+00  0.00000000000E+00  0.19994086240E+04  0.19994086265E+04  0.10100000352E+00 0.  1.
        3   -1    0    0  501    0  0.00000000000E+00  0.00000000000E+00 -0.15604061603E+04  0.15604061636E+04  0.10100000352E+00 0. -1.
    10030    2    1    2    0    0  0.00000000000E+00  0.00000000000E+00  0.43900246366E+03  0.35598147902E+04  0.35326418127E+04 0.  0.
        1    1    3    3  502    0  0.68124514459E+03  0.14365055107E+04  0.99499632650E+03  0.18755427798E+04  0.50400001928E-02 0.  1.
       -1    1    3    3    0  502 -0.68124514459E+03 -0.14365055107E+04 -0.55599386284E+03  0.16842720103E+04  0.50400001928E-02 0. -1.
</event>
<event>
 5   0  0.1110956E-06  0.3558772E+04  0.7818609E-02  0.8100001E-01
       -1   -1    0    0    0  501  0.00000000000E+00  0.00000000000E+00  0.12927016973E+04  0.12927016973E+04  0.50400001928E-02 0. -1.
        1   -1    0    0  501    0  0.00000000000E+00  0.00000000000E+00 -0.24492996516E+04  0.24492996517E+04  0.50400001928E-02 0.  1.
    10030    2    1    2    0    0  0.00000000000E+00  0.00000000000E+00 -0.11565979544E+04  0.37420013489E+04  0.35587715953E+04 0.  0.
        1    1    3    3  502    0 -0.83792868976E+03 -0.23664120833E+03  0.10534006161E+04  0.13666661658E+04  0.50400001928E-02 0. -1.
       -1    1    3    3    0  502  0.83792868976E+03  0.23664120833E+03 -0.22099985705E+04  0.23753351831E+04  0.50400001928E-02 0.  1.
</event>
<event>
 5   0  0.1089337E-06  0.3493560E+04  0.7818609E-02  0.8115318E-01
       -1   -1    0    0    0  501  0.00000000000E+00  0.00000000000E+00  0.12022509720E+04  0.12022509720E+04  0.50400001928E-02 0.  1.
        1   -1    0    0  501    0  0.00000000000E+00  0.00000000000E+00 -0.25379400233E+04  0.25379400233E+04  0.50400001928E-02 0. -1.
    10030    2    1    2    0    0  0.00000000000E+00  0.00000000000E+00 -0.13356890513E+04  0.37401909954E+04  0.34935602814E+04 0.  0.
        2    1    3    3  502    0 -0.56067690258E+03 -0.11980909563E+04  0.55350792046E+03  0.14339287105E+04  0.25500000920E-02 0.  1.
       -2    1    3    3    0  502  0.56067690258E+03  0.11980909563E+04 -0.18891969717E+04  0.23062622849E+04  0.25500000920E-02 0. -1.
</event>
<event>
 5   0  0.1125196E-06  0.3494556E+04  0.7818609E-02  0.8115081E-01
        1   -1    0    0  501    0  0.00000000000E+00  0.00000000000E+00  0.20407604600E+04  0.20407604600E+04  0.50400001928E-02 0.  1.
       -1   -1    0    0    0  501  0.00000000000E+00  0.00000000000E+00 -0.14960014118E+04  0.14960014118E+04  0.50400001928E-02 0. -1.
    10030    2    1    2    0    0  0.00000000000E+00  0.00000000000E+00  0.54475904817E+03  0.35367618718E+04  0.34945560687E+04 0.  0.
        4    1    3    3  502    0 -0.14315375725E+02  0.52983430570E+03 -0.14126763462E+04  0.15088357742E+04  0.12699999809E+01 0. -1.
       -4    1    3    3    0  502  0.14315375725E+02 -0.52983430570E+03  0.19574353944E+04  0.20279260976E+04  0.12699999809E+01 0.  1.
</event>
<event>
 5   0  0.1125196E-06  0.3566314E+04  0.7818609E-02  0.8098252E-01
        1   -1    0    0  501    0  0.00000000000E+00  0.00000000000E+00  0.17259565111E+04  0.17259565111E+04  0.50400001928E-02 0. -1.
       -1   -1    0    0    0  501  0.00000000000E+00  0.00000000000E+00 -0.18422529456E+04  0.18422529456E+04  0.50400001928E-02 0.  1.
    10030    2    1    2    0    0  0.00000000000E+00  0.00000000000E+00 -0.11629643445E+03  0.35682094567E+04  0.35663137644E+04 0.  0.
        4    1    3    3  502    0 -0.72493151865E+03  0.71881143943E+03 -0.15209209919E+04  0.18317799728E+04  0.12699999809E+01 0.  1.
       -4    1    3    3    0  502  0.72493151865E+03 -0.71881143943E+03  0.14046245575E+04  0.17364294839E+04  0.12699999809E+01 0. -1.
</event>
<event>
 5   0  0.1110956E-06  0.2325236E+04  0.7818609E-02  0.8468037E-01
        1   -1    0    0  501    0  0.00000000000E+00  0.00000000000E+00  0.86014363418E+03  0.86014363419E+03  0.50400001928E-02 0.  1.
       -1   -1    0    0    0  501  0.00000000000E+00  0.00000000000E+00 -0.15714592547E+04  0.15714592548E+04  0.50400001928E-02 0. -1.
    10030    2    1    2    0    0  0.00000000000E+00  0.00000000000E+00 -0.71131562057E+03  0.24316028889E+04  0.23252360520E+04 0.  0.
        1    1    3    3  502    0 -0.82321121362E+03  0.40308571964E+03 -0.11035851456E+04  0.14345922672E+04  0.50400001928E-02 0. -1.
       -1    1    3    3    0  502  0.82321121362E+03 -0.40308571964E+03  0.39226952499E+03  0.99701062174E+03  0.50400001928E-02 0.  1.
</event>
<event>
 5   0  0.1042825E-06  0.3438002E+04  0.7818609E-02  0.8128642E-01
        3   -1    0    0  501    0  0.00000000000E+00  0.00000000000E+00  0.11690422117E+04  0.11690422160E+04  0.10100000352E+00 0.  1.
       -3   -1    0    0    0  501  0.00000000000E+00  0.00000000000E+00 -0.25276805174E+04  0.25276805194E+04  0.10100000352E+00 0. -1.
    10030    2    1    2    0    0  0.00000000000E+00  0.00000000000E+00 -0.13586383057E+04  0.36967227354E+04  0.34380024632E+04 0.  0.
        5    1    3    3  502    0  0.27230900090E+03 -0.14125249596E+03 -0.24980037131E+04  0.25167735496E+04  0.46999998093E+01 0. -1.
       -5    1    3    3    0  502 -0.27230900090E+03  0.14125249596E+03  0.11393654073E+04  0.11799491858E+04  0.46999998093E+01 0.  1.
</event>
<event>
 5   0  0.3378848E-06  0.3372357E+04  0.7818609E-02  0.8144724E-01
       -2   -1    0    0    0  501  0.00000000000E+00  0.00000000000E+00  0.15339949090E+04  0.15339949090E+04  0.25500000920E-02 0.  1.
        2   -1    0    0  501    0  0.00000000000E+00  0.00000000000E+00 -0.18534601231E+04  0.18534601231E+04  0.25500000920E-02 0. -1.
    10030    2    1    2    0    0  0.00000000000E+00  0.00000000000E+00 -0.31946521415E+03  0.33874550321E+04  0.33723572722E+04 0.  0.
        1    1    3    3  502    0  0.15767004688E+04  0.40389116439E+03  0.28279157863E+03  0.16519938008E+04  0.50400001928E-02 0. -1.
       -1    1    3    3    0  502 -0.15767004688E+04 -0.40389116439E+03 -0.60225679279E+03  0.17354612313E+04  0.50400001928E-02 0.  1.
</event>
<event>
 5   0  0.3041329E-06  0.2513269E+04  0.7818609E-02  0.8398274E-01
        2   -1    0    0  501    0  0.00000000000E+00  0.00000000000E+00  0.13690179031E+04  0.13690179031E+04  0.25500000920E-02 0. -1.
       -2   -1    0    0    0  501  0.00000000000E+00  0.00000000000E+00 -0.11534767537E+04  0.11534767537E+04  0.25500000920E-02 0.  1.
    10030    2    1    2    0    0  0.00000000000E+00  0.00000000000E+00  0.21554114946E+03  0.25224946568E+04  0.25132690478E+04 0.  0.
        2    1    3    3  502    0  0.10559580632E+04 -0.64456806678E+03 -0.11352665773E+03  0.12423380079E+04  0.25500000920E-02 0. -1.
       -2    1    3    3    0  502 -0.10559580632E+04  0.64456806678E+03  0.32906780718E+03  0.12801566489E+04  0.25500000920E-02 0.  1.
</event>
<event>
 5   0  0.1130707E-06  0.3485784E+04  0.7818609E-02  0.8117167E-01
        1   -1    0    0  501    0  0.00000000000E+00  0.00000000000E+00  0.17177344035E+04  0.17177344035E+04  0.50400001928E-02 0. -1.
       -1   -1    0    0    0  501  0.00000000000E+00  0.00000000000E+00 -0.17684185314E+04  0.17684185314E+04  0.50400001928E-02 0.  1.
    10030    2    1    2    0    0  0.00000000000E+00  0.00000000000E+00 -0.50684127859E+02  0.34861529350E+04  0.34857844748E+04 0.  0.
        3    1    3    3  502    0 -0.76302393451E+03  0.13332359479E+04 -0.84880612196E+03  0.17550485635E+04  0.10100000352E+00 0.  1.
       -3    1    3    3    0  502  0.76302393451E+03 -0.13332359479E+04  0.79812199410E+03  0.17311043715E+04  0.10100000352E+00 0. -1.
</event>
<event>
 5   0  0.3378848E-06  0.3537168E+04  0.7818609E-02  0.8105038E-01
        2   -1    0    0  501    0  0.00000000000E+00  0.00000000000E+00  0.22728987390E+04  0.22728987390E+04  0.25500000920E-02 0.  1.
       -2   -1    0    0    0  501  0.00000000000E+00  0.00000000000E+00 -0.13761677737E+04  0.13761677737E+04  0.25500000920E-02 0. -1.
    10030    2    1    2    0    0  0.00000000000E+00  0.00000000000E+00  0.89673096528E+03  0.36490665128E+04  0.35371683577E+04 0.  0.
        1    1    3    3  502    0 -0.77603023008E+03 -0.56716829662E+03  0.19799133765E+04  0.22008997645E+04  0.50400001928E-02 0.  1.
       -1    1    3    3    0  502  0.77603023008E+03  0.56716829662E+03 -0.10831824113E+04  0.14481667483E+04  0.50400001928E-02 0. -1.
</event>
<event>
 5   0  0.3378848E-06  0.2370718E+04  0.7818609E-02  0.8450548E-01
        2   -1    0    0  501    0  0.00000000000E+00  0.00000000000E+00  0.10249776768E+04  0.10249776768E+04  0.25500000920E-02 0. -1.
       -2   -1    0    0    0  501  0.00000000000E+00  0.00000000000E+00 -0.13708360431E+04  0.13708360431E+04  0.25500000920E-02 0.  1.
    10030    2    1    2    0    0  0.00000000000E+00  0.00000000000E+00 -0.34585836627E+03  0.23958137199E+04  0.23707183238E+04 0.  0.
        1    1    3    3  502    0 -0.84745721369E+03  0.79328130851E+03 -0.41546420117E+03  0.12329190833E+04  0.50400001928E-02 0.  1.
       -1    1    3    3    0  502  0.84745721369E+03 -0.79328130851E+03  0.69605834891E+02  0.11628946366E+04  0.50400001928E-02 0. -1.
</event>
<event>
 5   0  0.1782660E-06  0.2829939E+04  0.7818609E-02  0.8294033E-01
        2   -1    0    0  501    0  0.00000000000E+00  0.00000000000E+00  0.18672406664E+04  0.18672406664E+04  0.25500000920E-02 0. -1.
       -2   -1    0    0    0  501  0.00000000000E+00  0.00000000000E+00 -0.10722443088E+04  0.10722443088E+04  0.25500000920E-02 0.  1.
    10030    2    1    2    0    0  0.00000000000E+00  0.00000000000E+00  0.79499635759E+03  0.29394849752E+04  0.28299386408E+04 0.  0.
        4    1    3    3  502    0  0.12640276178E+04 -0.52992736679E+03  0.76259799503E+03  0.15684853036E+04  0.12699999809E+01 0. -1.
       -4    1    3    3    0  502 -0.12640276178E+04  0.52992736679E+03  0.32398362563E+02  0.13709996716E+04  0.12699999809E+01 0.  1.
</event>
<event>
 5   0  0.3041329E-06  0.1723577E+04  0.7818609E-02  0.8748030E-01
       -2   -1    0    0    0  501  0.00000000000E+00  0.00000000000E+00  0.85732475731E+03  0.85732475731E+03  0.25500000920E-02 0. -1.
        2   -1    0    0  501    0  0.00000000000E+00  0.00000000000E+00 -0.86627595270E+03  0.86627595270E+03  0.25500000920E-02 0.  1.
    10030    2    1    2    0    0  0.00000000000E+00  0.00000000000E+00 -0.89511953928E+01  0.17236007100E+04  0.17235774667E+04 0.  0.
        2    1    3    3  502    0 -0.87272468826E+02  0.67119541385E+03  0.52897330187E+03  0.85902998870E+03  0.25500000920E-02 0. -1.
       -2    1    3    3    0  502  0.87272468826E+02 -0.67119541385E+03 -0.53792449727E+03  0.86457072131E+03  0.25500000920E-02 0.  1.
</event>
<event>
 5   0  0.1110956E-06  0.3485444E+04  0.7818609E-02  0.8117248E-01
        1   -1    0    0  501    0  0.00000000000E+00  0.00000000000E+00  0.21320974172E+04  0.21320974173E+04  0.50400001928E-02 0. -1.
       -1   -1    0    0    0  501  0.00000000000E+00  0.00000000000E+00 -0.14244560796E+04  0.14244560796E+04  0.50400001928E-02 0.  1.
    10030    2    1    2    0    0  0.00000000000E+00  0.00000000000E+00  0.70764133763E+03  0.35565534969E+04  0.34854435175E+04 0.  0.
        1    1    3    3  502    0 -0.15202106929E+04  0.32206603656E+03  0.11587827077E+04  0.19384386621E+04  0.50400001928E-02 0. -1.
       -1    1    3    3    0  502  0.15202106929E+04 -0.32206603656E+03 -0.45114137010E+03  0.16181148348E+04  0.50400001928E-02 0.  1.
</event>
<event>
 5   0  0.3041329E-06  0.2415631E+04  0.7818609E-02  0.8433675E-01
        2   -1    0    0  501    0  0.00000000000E+00  0.00000000000E+00  0.30528423724E+04  0.30528423724E+04  0.25500000920E-02 0. -1.
       -2   -1    0    0    0  501  0.00000000000E+00  0.00000000000E+00 -0.47785570892E+03  0.47785570893E+03  0.25500000920E-02 0.  1.
    10030    2    1    2    0    0  0.00000000000E+00  0.00000000000E+00  0.25749866635E+04  0.35306980813E+04  0.24156308957E+04 0.  0.
        2    1    3    3  502    0  0.27923715888E+02  0.55192577276E+03 -0.28222980746E+03  0.62052836903E+03  0.25500000920E-02 0.  1.
       -2    1    3    3    0  502 -0.27923715888E+02 -0.55192577276E+03  0.28572164709E+04  0.29101697123E+04  0.25500000920E-02 0. -1.
</event>
<event>
 5   0  0.1110956E-06  0.2247596E+04  0.7818609E-02  0.8498875E-01
       -1   -1    0    0    0  501  0.00000000000E+00  0.00000000000E+00  0.83568135387E+03  0.83568135389E+03  0.50400001928E-02 0.  1.
        1   -1    0    0  501    0  0.00000000000E+00  0.00000000000E+00 -0.15112482661E+04  0.15112482661E+04  0.50400001928E-02 0. -1.
    10030    2    1    2    0    0  0.00000000000E+00  0.00000000000E+00 -0.67556691220E+03  0.23469296200E+04  0.22475960465E+04 0.  0.
        1    1    3    3  502    0 -0.67412450131E+03  0.54978512589E+03 -0.10807154884E+04  0.13873188151E+04  0.50400001928E-02 0. -1.
       -1    1    3    3    0  502  0.67412450131E+03 -0.54978512589E+03  0.40514857621E+03  0.95961080483E+03  0.50400001928E-02 0.  1.
</event>
<event>
 5   0  0.1908726E-06  0.3501017E+04  0.7818609E-02  0.8113549E-01
       -2   -1    0    0    0  501  0.00000000000E+00  0.00000000000E+00  0.20205313089E+04  0.20205313089E+04  0.25500000920E-02 0. -1.
        2   -1    0    0  501    0  0.00000000000E+00  0.00000000000E+00 -0.15165716267E+04  0.15165716267E+04  0.25500000920E-02 0.  1.
    10030    2    1    2    0    0  0.00000000000E+00  0.00000000000E+00  0.50395968228E+03  0.35371029356E+04  0.35010172544E+04 0.  0.
        5    1    3    3  502    0  0.92870514947E+03  0.10293049850E+04 -0.82781896616E+03  0.16147037925E+04  0.46999998093E+01 0.  1.
       -5    1    3    3    0  502 -0.92870514947E+03 -0.10293049850E+04  0.13317786484E+04  0.19223991431E+04  0.46999998093E+01 0. -1.
</event>
<event>
 5   0  0.1908726E-06  0.2593307E+04  0.7818609E-02  0.8370478E-01
        2   -1    0    0  501    0  0.00000000000E+00  0.00000000000E+00  0.19178540820E+04  0.19178540820E+04  0.25500000920E-02 0. -1.
       -2   -1    0    0    0  501  0.00000000000E+00  0.00000000000E+00 -0.87666252010E+03  0.87666252010E+03  0.25500000920E-02 0.  1.
    10030    2    1    2    0    0  0.00000000000E+00  0.00000000000E+00  0.10411915619E+04  0.27945166021E+04  0.25933073807E+04 0.  0.
        5    1    3    3  502    0  0.57232978699E+03  0.54632226189E+03 -0.58636514939E+03  0.98482261211E+03  0.46999998093E+01 0.  1.
       -5    1    3    3    0  502 -0.57232978699E+03 -0.54632226189E+03  0.16275567113E+04  0.18096939900E+04  0.46999998093E+01 0. -1.
</event>
<event>
 5   0  0.1908726E-06  0.3454195E+04  0.7818609E-02  0.8124732E-01
        2   -1    0    0  501    0  0.00000000000E+00  0.00000000000E+00  0.26534409799E+04  0.26534409799E+04  0.25500000920E-02 0.  1.
       -2   -1    0    0    0  501  0.00000000000E+00  0.00000000000E+00 -0.11241499075E+04  0.11241499075E+04  0.25500000920E-02 0. -1.
    10030    2    1    2    0    0  0.00000000000E+00  0.00000000000E+00  0.15292910724E+04  0.37775908874E+04  0.34541948017E+04 0.  0.
        5    1    3    3  502    0  0.28756923270E+03 -0.12348569662E+04 -0.51787095181E+03  0.13695912541E+04  0.46999998093E+01 0. -1.
       -5    1    3    3    0  502 -0.28756923270E+03  0.12348569662E+04  0.20471620242E+04  0.24079996333E+04  0.46999998093E+01 0.  1.
</event>
<event>
 5   0  0.3378848E-06  0.3560234E+04  0.7818609E-02  0.8099662E-01
       -2   -1    0    0    0  501  0.00000000000E+00  0.00000000000E+00  0.14982977591E+04  0.14982977591E+04  0.25500000920E-02 0. -1.
        2   -1    0    0  501    0  0.00000000000E+00  0.00000000000E+00 -0.21149448798E+04  0.21149448798E+04  0.25500000920E-02 0.  1.
    10030    2    1    2    0    0  0.00000000000E+00  0.00000000000E+00 -0.61664712067E+03  0.36132426389E+04  0.35602343597E+04 0.  0.
        1    1    3    3  502    0  0.76008847858E+03 -0.13345787647E+04  0.60506649061E+03  0.16507393593E+04  0.50400001928E-02 0. -1.
       -1    1    3    3    0  502 -0.76008847858E+03  0.13345787647E+04 -0.12217136113E+04  0.19625032796E+04  0.50400001928E-02 0.  1.
</event>
<event>
 5   0  0.1782660E-06  0.3186567E+04  0.7818609E-02  0.8192374E-01
        2   -1    0    0  501    0  0.00000000000E+00  0.00000000000E+00  0.20464454467E+04  0.20464454467E+04  0.25500000920E-02 0. -1.
       -2   -1    0    0    0  501  0.00000000000E+00  0.00000000000E+00 -0.12404692131E+04  0.12404692131E+04  0.25500000920E-02 0.  1.
    10030    2    1    2    0    0  0.00000000000E+00  0.00000000000E+00  0.80597623356E+03  0.32869146598E+04  0.31865671641E+04 0.  0.
        4    1    3    3  502    0  0.58032751808E+03 -0.12175367532E+04 -0.47188098465E+03  0.14289328362E+04  0.12699999809E+01 0.  1.
       -4    1    3    3    0  502 -0.58032751808E+03  0.12175367532E+04  0.12778572182E+04  0.18579818236E+04  0.12699999809E+01 0. -1.
</event>
<event>
 5   0  0.1102175E-06  0.2048135E+04  0.7818609E-02  0.8584441E-01
       -1   -1    0    0    0  501  0.00000000000E+00  0.00000000000E+00  0.65187882912E+03  0.65187882914E+03  0.50400001928E-02 0. -1.
        1   -1    0    0  501    0  0.00000000000E+00  0.00000000000E+00 -0.16087558076E+04  0.16087558076E+04  0.50400001928E-02 0.  1.
    10030    2    1    2    0    0  0.00000000000E+00  0.00000000000E+00 -0.95687697848E+03  0.22606346368E+04  0.20481346169E+04 0.  0.
        5    1    3    3  502    0  0.38701619448E+03  0.83889773654E+03 -0.96604353506E+03  0.13367098222E+04  0.46999998093E+01 0.  1.
       -5    1    3    3    0  502 -0.38701619448E+03 -0.83889773654E+03  0.91665565714E+01  0.92392481454E+03  0.46999998093E+01 0. -1.
</event>
<event>
 5   0  0.1110956E-06  0.3508393E+04  0.7818609E-02  0.8111804E-01
       -1   -1    0    0    0  501  0.00000000000E+00  0.00000000000E+00  0.17153116838E+04  0.17153116838E+04  0.50400001928E-02 0.  1.
        1   -1    0    0  501    0  0.00000000000E+00  0.00000000000E+00 -0.17939630787E+04  0.17939630787E+04  0.50400001928E-02 0. -1.
    10030    2    1    2    0    0  0.00000000000E+00  0.00000000000E+00 -0.78651394903E+02  0.35092747625E+04  0.35083932671E+04 0.  0.
        1    1    3    3  502    0  0.10491407913E+04  0.63424697426E+03  0.12156768405E+04  0.17265097176E+04  0.50400001928E-02 0.  1.
       -1    1    3    3    0  502 -0.10491407913E+04 -0.63424697426E+03 -0.12943282354E+04  0.17827650449E+04  0.50400001928E-02 0. -1.
</event>
<event>
 5   0  0.2565004E-06  0.3545975E+04  0.7818609E-02  0.8102980E-01
       -2   -1    0    0    0  501  0.00000000000E+00  0.00000000000E+00  0.21681503678E+04  0.21681503678E+04  0.25500000920E-02 0. -1.
        2   -1    0    0  501    0  0.00000000000E+00  0.00000000000E+00 -0.14498461654E+04  0.14498461654E+04  0.25500000920E-02 0.  1.
    10030    2    1    2    0    0  0.00000000000E+00  0.00000000000E+00  0.71830420242E+03  0.36179965332E+04  0.35459748994E+04 0.  0.
        3    1    3    3  502    0 -0.93415843089E+02 -0.17634976581E+04  0.51994083822E+03  0.18409206923E+04  0.10100000352E+00 0.  1.
       -3    1    3    3    0  502  0.93415843089E+02  0.17634976581E+04  0.19836336419E+03  0.17770758409E+04  0.10100000352E+00 0. -1.
</event>
<event>
 5   0  0.1125196E-06  0.2981623E+04  0.7818609E-02  0.8248998E-01
       -1   -1    0    0    0  501  0.00000000000E+00  0.00000000000E+00  0.11729326331E+04  0.11729326331E+04  0.50400001928E-02 0. -1.
        1   -1    0    0  501    0  0.00000000000E+00  0.00000000000E+00 -0.18948395589E+04  0.18948395589E+04  0.50400001928E-02 0.  1.
    10030    2    1    2    0    0  0.00000000000E+00  0.00000000000E+00 -0.72190692580E+03  0.30677721921E+04  0.29816231507E+04 0.  0.
        4    1    3    3  502    0  0.98033666265E+03 -0.46988251933E+03  0.68865289314E+03  0.12868931480E+04  0.12699999809E+01 0. -1.
       -4    1    3    3    0  502 -0.98033666265E+03  0.46988251933E+03 -0.14105598189E+04  0.17808790441E+04  0.12699999809E+01 0.  1.
</event>
<event>
 5   0  0.1908726E-06  0.3506875E+04  0.7818609E-02  0.8112163E-01
        2   -1    0    0  501    0  0.00000000000E+00  0.00000000000E+00  0.25615578301E+04  0.25615578301E+04  0.25500000920E-02 0. -1.
       -2   -1    0    0    0  501  0.00000000000E+00  0.00000000000E+00 -0.12002627435E+04  0.12002627435E+04  0.25500000920E-02 0.  1.
    10030    2    1    2    0    0  0.00000000000E+00  0.00000000000E+00  0.13612950867E+04  0.37618205736E+04  0.35068746363E+04 0.  0.
        5    1    3    3  502    0  0.30401002264E+03 -0.66589086830E+02 -0.11703919785E+04  0.12110721175E+04  0.46999998093E+01 0.  1.
       -5    1    3    3    0  502 -0.30401002264E+03  0.66589086830E+02  0.25316870652E+04  0.25507484561E+04  0.46999998093E+01 0. -1.
</event>
<event>
 5   0  0.3041329E-06  0.3510763E+04  0.7818609E-02  0.8111244E-01
        2   -1    0    0  501    0  0.00000000000E+00  0.00000000000E+00  0.24813169359E+04  0.24813169359E+04  0.25500000920E-02 0. -1.
       -2   -1    0    0    0  501  0.00000000000E+00  0.00000000000E+00 -0.12418258868E+04  0.12418258868E+04  0.25500000920E-02 0.  1.
    10030    2    1    2    0    0  0.00000000000E+00  0.00000000000E+00  0.12394910491E+04  0.37231428227E+04  0.35107626546E+04 0.  0.
        2    1    3    3  502    0  0.16140284801E+03 -0.72248827901E+03 -0.10681810270E+04  0.12996349099E+04  0.25500000920E-02 0.  1.
       -2    1    3    3    0  502 -0.16140284801E+03  0.72248827901E+03  0.23076720761E+04  0.24235079128E+04  0.25500000920E-02 0. -1.
</event>
<event>
 5   0  0.1130707E-06  0.2747547E+04  0.7818609E-02  0.8319740E-01
        1   -1    0    0  501    0  0.00000000000E+00  0.00000000000E+00  0.17130514219E+04  0.17130514219E+04  0.50400001928E-02 0. -1.
       -1   -1    0    0    0  501  0.00000000000E+00  0.00000000000E+00 -0.11016912156E+04  0.11016912156E+04  0.50400001928E-02 0.  1.
    10030    2    1    2    0    0  0.00000000000E+00  0.00000000000E+00  0.61136020631E+03  0.28147426375E+04  0.27475470539E+04 0.  0.
        3    1    3    3  502    0  0.53151971025E+03 -0.41413504885E+03 -0.92077569273E+03  0.11409859454E+04  0.10100000352E+00 0.  1.
       -3    1    3    3    0  502 -0.53151971025E+03  0.41413504885E+03  0.15321358990E+04  0.16737566921E+04  0.10100000352E+00 0. -1.
</event>
<event>
 5   0  0.1089337E-06  0.3294330E+04  0.7818609E-02  0.8164340E-01
       -1   -1    0    0    0  501  0.00000000000E+00  0.00000000000E+00  0.18605346693E+04  0.18605346693E+04  0.50400001928E-02 0.  1.
        1   -1    0    0  501    0  0.00000000000E+00  0.00000000000E+00 -0.14582651533E+04  0.14582651533E+04  0.50400001928E-02 0. -1.
    10030    2    1    2    0    0  0.00000000000E+00  0.00000000000E+00  0.40226951600E+03  0.33187998226E+04  0.32943302049E+04 0.  0.
        2    1    3    3  502    0 -0.92564158572E+03  0.11590060027E+04  0.92272710759E+03  0.17468636394E+04  0.25500000920E-02 0.  1.
       -2    1    3    3    0  502  0.92564158572E+03 -0.11590060027E+04 -0.52045759160E+03  0.15719361832E+04  0.25500000920E-02 0. -1.
</event>
<event>
 5   0  0.1782660E-06  0.3388383E+04  0.7818609E-02  0.8140763E-01
        2   -1    0    0  501    0  0.00000000000E+00  0.00000000000E+00  0.14847429160E+04  0.14847429160E+04  0.25500000920E-02 0. -1.
       -2   -1    0    0    0  501  0.00000000000E+00  0.00000000000E+00 -0.19331859951E+04  0.19331859951E+04  0.25500000920E-02 0.  1.
    10030    2    1    2    0    0  0.00000000000E+00  0.00000000000E+00 -0.44844307909E+03  0.34179289111E+04  0.33883826298E+04 0.  0.
        4    1    3    3  502    0  0.11472149661E+04  0.20806704093E+02 -0.14815848991E+04  0.18739345036E+04  0.12699999809E+01 0.  1.
       -4    1    3    3    0  502 -0.11472149661E+04 -0.20806704093E+02  0.10331418200E+04  0.15439944076E+04  0.12699999809E+01 0. -1.
</event>
<event>
 5   0  0.1089337E-06  0.3306582E+04  0.7818609E-02  0.8161223E-01
       -1   -1    0    0    0  501  0.00000000000E+00  0.00000000000E+00  0.14637172374E+04  0.14637172374E+04  0.50400001928E-02 0.  1.
        1   -1    0    0  501    0  0.00000000000E+00  0.00000000000E+00 -0.18674174176E+04  0.18674174176E+04  0.50400001928E-02 0. -1.
    10030    2    1    2    0    0  0.00000000000E+00  0.00000000000E+00 -0.40370018018E+03  0.33311346550E+04  0.33065819594E+04 0.  0.
        2    1    3    3  502    0 -0.34303885802E+03  0.54538958768E+03  0.13320342692E+04  0.14796758952E+04  0.25500000920E-02 0.  1.
       -2    1    3    3    0  502  0.34303885802E+03 -0.54538958768E+03 -0.17357344494E+04  0.18514587598E+04  0.25500000920E-02 0. -1.
</event>
<event>
 5   0  0.1782660E-06  0.3407309E+04  0.7818609E-02  0.8136115E-01
        2   -1    0    0  501    0  0.00000000000E+00  0.00000000000E+00  0.14245063784E+04  0.14245063784E+04  0.25500000920E-02 0.  1.
       -2   -1    0    0    0  501  0.00000000000E+00  0.00000000000E+00 -0.20375048009E+04  0.20375048009E+04  0.25500000920E-02 0. -1.
    10030    2    1    2    0    0  0.00000000000E+00  0.00000000000E+00 -0.61299842250E+03  0.34620111794E+04  0.34073089587E+04 0.  0.
        4    1    3    3  502    0  0.86133555932E+03 -0.13884058132E+04 -0.79680974912E+03  0.18178220587E+04  0.12699999809E+01 0.  1.
       -4    1    3    3    0  502 -0.86133555932E+03  0.13884058132E+04  0.18381132662E+03  0.16441891207E+04  0.12699999809E+01 0. -1.
</event>
<event>
 5   0  0.2565004E-06  0.3548314E+04  0.7818609E-02  0.8102435E-01
        2   -1    0    0  501    0  0.00000000000E+00  0.00000000000E+00  0.20998719219E+04  0.20998719219E+04  0.25500000920E-02 0. -1.
       -2   -1    0    0    0  501  0.00000000000E+00  0.00000000000E+00 -0.14989643911E+04  0.14989643911E+04  0.25500000920E-02 0.  1.
    10030    2    1    2    0    0  0.00000000000E+00  0.00000000000E+00  0.60090753083E+03  0.35988363130E+04  0.35483140993E+04 0.  0.
        3    1    3    3  502    0 -0.48923515458E+03 -0.59160657753E+03 -0.13217836039E+04  0.15285487512E+04  0.10100000352E+00 0.  1.
       -3    1    3    3    0  502  0.48923515458E+03  0.59160657753E+03  0.19226911347E+04  0.20702875618E+04  0.10100000352E+00 0. -1.
</event>
<event>
 5   0  0.1042825E-06  0.1857433E+04  0.7818609E-02  0.8676340E-01
       -4   -1    0    0    0  501  0.00000000000E+00  0.00000000000E+00  0.60550274694E+03  0.60550407881E+03  0.12699999809E+01 0. -1.
        4   -1    0    0  501    0  0.00000000000E+00  0.00000000000E+00 -0.14244570521E+04  0.14244576182E+04  0.12699999809E+01 0.  1.
    10030    2    1    2    0    0  0.00000000000E+00  0.00000000000E+00 -0.81895430516E+03  0.20299616971E+04  0.18574332660E+04 0.  0.
        4    1    3    3  502    0  0.46547914493E+03  0.64681177859E+03  0.11176922004E+03  0.80469266352E+03  0.12699999809E+01 0. -1.
       -4    1    3    3    0  502 -0.46547914493E+03 -0.64681177859E+03 -0.93072352519E+03  0.12252690335E+04  0.12699999809E+01 0.  1.
</event>
<event>
 5   0  0.2565004E-06  0.3558618E+04  0.7818609E-02  0.8100037E-01
       -2   -1    0    0    0  501  0.00000000000E+00  0.00000000000E+00  0.14743389708E+04  0.14743389708E+04  0.25500000920E-02 0. -1.
        2   -1    0    0  501    0  0.00000000000E+00  0.00000000000E+00 -0.21473629048E+04  0.21473629048E+04  0.25500000920E-02 0.  1.
    10030    2    1    2    0    0  0.00000000000E+00  0.00000000000E+00 -0.67302393395E+03  0.36217018756E+04  0.35586181672E+04 0.  0.
        3    1    3    3  502    0 -0.14308742442E+03 -0.17568398132E+04 -0.58367649209E+03  0.18567817313E+04  0.10100000352E+00 0. -1.
       -3    1    3    3    0  502  0.14308742442E+03  0.17568398132E+04 -0.89347441860E+02  0.17649201443E+04  0.10100000352E+00 0.  1.
</event>
<event>
 5   0  0.1908726E-06  0.3008782E+04  0.7818609E-02  0.8241227E-01
        2   -1    0    0  501    0  0.00000000000E+00  0.00000000000E+00  0.14784944419E+04  0.14784944419E+04  0.25500000920E-02 0.  1.
       -2   -1    0    0    0  501  0.00000000000E+00  0.00000000000E+00 -0.15307414639E+04  0.15307414639E+04  0.25500000920E-02 0. -1.
    10030    2    1    2    0    0  0.00000000000E+00  0.00000000000E+00 -0.52247022046E+02  0.30092359058E+04  0.30087823094E+04 0.  0.
        5    1    3    3  502    0 -0.22340627503E+02 -0.12504087120E+04  0.81015420939E+03  0.14900983134E+04  0.46999998093E+01 0.  1.
       -5    1    3    3    0  502  0.22340627503E+02  0.12504087120E+04 -0.86240123143E+03  0.15191375924E+04  0.46999998093E+01 0. -1.
</event>
<event>
 5   0  0.1102175E-06  0.3188090E+04  0.7818609E-02  0.8191970E-01
        1   -1    0    0  501    0  0.00000000000E+00  0.00000000000E+00  0.24181106332E+04  0.24181106332E+04  0.50400001928E-02 0.  1.
       -1   -1    0    0    0  501  0.00000000000E+00  0.00000000000E+00 -0.10508122247E+04  0.10508122247E+04  0.50400001928E-02 0. -1.
    10030    2    1    2    0    0  0.00000000000E+00  0.00000000000E+00  0.13672984085E+04  0.34689228579E+04  0.31880904718E+04 0.  0.
        5    1    3    3  502    0  0.21635727740E+03  0.84426921920E+03 -0.76859450518E+03  0.11620501665E+04  0.46999998093E+01 0. -1.
       -5    1    3    3    0  502 -0.21635727740E+03 -0.84426921920E+03  0.21358929136E+04  0.23068726914E+04  0.46999998093E+01 0.  1.
</event>
<event>
 5   0  0.3041329E-06  0.3219335E+04  0.7818609E-02  0.8183729E-01
        2   -1    0    0  501    0  0.00000000000E+00  0.00000000000E+00  0.18796350984E+04  0.18796350984E+04  0.25500000920E-02 0.  1.
       -2   -1    0    0    0  501  0.00000000000E+00  0.00000000000E+00 -0.13784750523E+04  0.13784750523E+04  0.25500000920E-02 0. -1.
    10030    2    1    2    0    0  0.00000000000E+00  0.00000000000E+00  0.50116004603E+03  0.32581101507E+04  0.32193353914E+04 0.  0.
        2    1    3    3  502    0 -0.45725876269E+03  0.14567123573E+04  0.76655752856E+03  0.17084223461E+04  0.25500000920E-02 0. -1.
       -2    1    3    3    0  502  0.45725876269E+03 -0.14567123573E+04 -0.26539748253E+03  0.15496878046E+04  0.25500000920E-02 0.  1.
</event>
<event>
 5   0  0.1110956E-06  0.3756517E+04  0.7818609E-02  0.8055551E-01
        1   -1    0    0  501    0  0.00000000000E+00  0.00000000000E+00  0.28637509615E+04  0.28637509615E+04  0.50400001928E-02 0. -1.
       -1   -1    0    0    0  501  0.00000000000E+00  0.00000000000E+00 -0.12319002030E+04  0.12319002030E+04  0.50400001928E-02 0.  1.
    10030    2    1    2    0    0  0.00000000000E+00  0.00000000000E+00  0.16318507585E+04  0.40956511645E+04  0.37565172120E+04 0.  0.
        1    1    3    3  502    0  0.11532040845E+03  0.18559927383E+04  0.11040717572E+04  0.21626331834E+04  0.50400001928E-02 0. -1.
       -1    1    3    3    0  502 -0.11532040845E+03 -0.18559927383E+04  0.52777900132E+03  0.19330179811E+04  0.50400001928E-02 0.  1.
</event>
</LesHouchesEvents>
