<LesHouchesEvents version="3.0">
<header>
<!--
#*********************************************************************
#                                                                    *
#                        MadGraph5_aMC@NLO                           *
#                                                                    *
#                           Going Beyond                             *
#                                                                    *
#                   http://madgraph.hep.uiuc.edu                     *
#                   http://madgraph.phys.ucl.ac.be                   *
#                   http://amcatnlo.cern.ch                          *
#                                                                    *
#                     The MadGraph5_aMC@NLO team                     *
#                                                                    *
#....................................................................*
#                                                                    *
# This file contains all the information necessary to reproduce      *
# the events generated:                                              *
#                                                                    *
# 1. software version                                                *
# 2. proc_card          : code generation info including model       *
# 3. param_card         : model primary parameters in the LH format  *
# 4. run_card           : running parameters (collider and cuts)     *
# 5. pythia_card        : present only if pythia has been run        *
# 6. pgs_card           : present only if pgs has been run           *
# 7. delphes_cards      : present only if delphes has been run       *
#                                                                    *
#                                                                    *
#*********************************************************************
-->
<MGVersion>
#5.2.2.3
</MGVersion>
<MG5ProcCard>
#************************************************************
#*                     MadGraph5_aMC@NLO                    *
#*                                                          *
#*                *                       *                 *
#*                  *        * *        *                   *
#*                    * * * * 5 * * * *                     *
#*                  *        * *        *                   *
#*                *                       *                 *
#*                                                          *
#*                                                          *
#*         VERSION 2.2.3                 2015-02-10         *
#*                                                          *
#*    The MadGraph5_aMC@NLO Development Team - Find us at   *
#*    https://server06.fynu.ucl.ac.be/projects/madgraph     *
#*                                                          *
#************************************************************
#*                                                          *
#*               Command File for MadGraph5_aMC@NLO         *
#*                                                          *
#*     run as ./bin/mg5_aMC  filename                       *
#*                                                          *
#************************************************************
set group_subprocesses Auto
set ignore_six_quark_processes False
set loop_optimized_output True
set gauge unitary
set complex_mass_scheme False
import model sm
define p = g u c d s u~ c~ d~ s~
define j = g u c d s u~ c~ d~ s~
define l+ = e+ mu+
define l- = e- mu-
define vl = ve vm vt
define vl~ = ve~ vm~ vt~
import model Zprime_UFO
generate p p > zph, zph > j j
add process p p > zph, zph > b b~
output Dijet_signal
</MG5ProcCard>
<MGProcCard>
#*********************************************************************
#                        MadGraph/MadEvent                           *
#                   http://madgraph.hep.uiuc.edu                     *
#                                                                    *
#                          proc_card.dat                             *
#*********************************************************************
#                                                                    *
#            This Files is generated by MADGRAPH 5                   *
#                                                                    *
# WARNING: This Files is generated for MADEVENT (compatibility issue)*
#          This files is NOT a valid MG4 proc_card.dat               *
#          Running this in MG4 will NEVER reproduce the result of MG5*
#                                                                    *
#*********************************************************************
#*********************************************************************
# Process(es) requested : mg2 input                                  *
#*********************************************************************
# Begin PROCESS # This is TAG. Do not modify this line
p p > zph , zph > j j           #Process
# Be carefull the coupling are here in MG5 convention
          
end_coup           # End the couplings input

done               # this tells MG there are no more procs
# End PROCESS  # This is TAG. Do not modify this line
#*********************************************************************
# Model information                                                  *
#*********************************************************************
# Begin MODEL  # This is TAG. Do not modify this line
Zprime_UFO
# End   MODEL  # This is TAG. Do not modify this line
#*********************************************************************
# Start multiparticle definitions                                    *
#*********************************************************************
# Begin MULTIPARTICLES # This is TAG. Do not modify this line

# End  MULTIPARTICLES # This is TAG. Do not modify this line
</MGProcCard>
<MGRunCard>
#*********************************************************************
#                       MadGraph5_aMC@NLO                            *
#                                                                    *
#                     run_card.dat MadEvent                          *
#                                                                    *
#  This file is used to set the parameters of the run.               *
#                                                                    *
#  Some notation/conventions:                                        *
#                                                                    *
#   Lines starting with a '# ' are info or comments                  *
#                                                                    *
#   mind the format:   value    = variable     ! comment             *
#*********************************************************************
#
#*******************                                                 
# Running parameters
#*******************                                                 
#                                                                    
#*********************************************************************
# Tag name for the run (one word)                                    *
#*********************************************************************
  tag_1     = run_tag ! name of the run 
#*********************************************************************
# Run to generate the grid pack                                      *
#*********************************************************************
  .false.     = gridpack  !True = setting up the grid pack
#*********************************************************************
# Number of events and rnd seed                                      *
# Warning: Do not generate more than 1M events in a single run       *
# If you want to run Pythia, avoid more than 50k events in a run.    *
#*********************************************************************
  2000 = nevents ! Number of unweighted events requested 
 1785 = iseed   ! rnd seed (0=assigned automatically=default))
#*********************************************************************
# Collider type and energy                                           *
# lpp: 0=No PDF, 1=proton, -1=antiproton, 2=photon from proton,      *
#                                         3=photon from electron     *
#*********************************************************************
        1     = lpp1    ! beam 1 type 
        1     = lpp2    ! beam 2 type
     4000     = ebeam1  ! beam 1 total energy in GeV
     4000     = ebeam2  ! beam 2 total energy in GeV
#*********************************************************************
# Beam polarization from -100 (left-handed) to 100 (right-handed)    *
#*********************************************************************
        0     = polbeam1 ! beam polarization for beam 1
        0     = polbeam2 ! beam polarization for beam 2
#*********************************************************************
# PDF CHOICE: this automatically fixes also alpha_s and its evol.    *
#*********************************************************************
 'nn23lo1'    = pdlabel     ! PDF set                                     
 230000    = lhaid     ! if pdlabel=lhapdf, this is the lhapdf number
#*********************************************************************
# Renormalization and factorization scales                           *
#*********************************************************************
 F        = fixed_ren_scale  ! if .true. use fixed ren scale
 F        = fixed_fac_scale  ! if .true. use fixed fac scale
 91.1880  = scale            ! fixed ren scale
 91.1880  = dsqrt_q2fact1    ! fixed fact scale for pdf1
 91.1880  = dsqrt_q2fact2    ! fixed fact scale for pdf2
 1        = scalefact        ! scale factor for event-by-event scales
#*********************************************************************
# Matching - Warning! ickkw > 1 is still beta
#*********************************************************************
 0        = ickkw            ! 0 no matching, 1 MLM, 2 CKKW matching
 1        = highestmult      ! for ickkw=2, highest mult group
 1        = ktscheme         ! for ickkw=1, 1 Durham kT, 2 Pythia pTE
 1        = alpsfact         ! scale factor for QCD emission vx
 F        = chcluster        ! cluster only according to channel diag
 T        = pdfwgt           ! for ickkw=1, perform pdf reweighting
 5        = asrwgtflavor     ! highest quark flavor for a_s reweight
 T        = clusinfo         ! include clustering tag in output
 3.0      = lhe_version       ! Change the way clustering information pass to shower.        
#*********************************************************************
#**********************************************************
#
#**********************************************************
# Automatic ptj and mjj cuts if xqcut > 0
# (turn off for VBF and single top processes)
#**********************************************************
   T  = auto_ptj_mjj  ! Automatic setting of ptj and mjj
#**********************************************************
#                                                                    
#**********************************
# BW cutoff (M+/-bwcutoff*Gamma)
#**********************************
  15  = bwcutoff      ! (M+/-bwcutoff*Gamma)
#**********************************************************
# Apply pt/E/eta/dr/mij cuts on decay products or not
# (note that etmiss/ptll/ptheavy/ht/sorted cuts always apply)
#**********************************************************
   T  = cut_decays    ! Cut decay products 
#*************************************************************
# Number of helicities to sum per event (0 = all helicities)
# 0 gives more stable result, but longer run time (needed for
# long decay chains e.g.).
# Use >=2 if most helicities contribute, e.g. pure QCD.
#*************************************************************
   0  = nhel          ! Number of helicities used per event
#*******************                                                 
# Standard Cuts
#*******************                                                 
#                                                                    
#*********************************************************************
# Minimum and maximum pt's (for max, -1 means no cut)                *
#*********************************************************************
 20  = ptj       ! minimum pt for the jets 
  0  = ptb       ! minimum pt for the b 
 10  = pta       ! minimum pt for the photons 
 10  = ptl       ! minimum pt for the charged leptons 
  0  = misset    ! minimum missing Et (sum of neutrino's momenta)
  0  = ptheavy   ! minimum pt for one heavy final state
 1.0 = ptonium   ! minimum pt for the quarkonium states
 -1  = ptjmax    ! maximum pt for the jets
 -1  = ptbmax    ! maximum pt for the b
 -1  = ptamax    ! maximum pt for the photons
 -1  = ptlmax    ! maximum pt for the charged leptons
 -1  = missetmax ! maximum missing Et (sum of neutrino's momenta)
#*********************************************************************
# Minimum and maximum E's (in the center of mass frame)              *
#*********************************************************************
  0  = ej     ! minimum E for the jets 
  0  = eb     ! minimum E for the b 
  0  = ea     ! minimum E for the photons 
  0  = el     ! minimum E for the charged leptons 
 -1   = ejmax ! maximum E for the jets
 -1   = ebmax ! maximum E for the b
 -1   = eamax ! maximum E for the photons
 -1   = elmax ! maximum E for the charged leptons
#*********************************************************************
# Maximum and minimum absolute rapidity (for max, -1 means no cut)   *
#*********************************************************************
   5  = etaj    ! max rap for the jets 
  -1  = etab    ! max rap for the b
 2.5  = etaa    ! max rap for the photons 
 2.5  = etal    ! max rap for the charged leptons 
 0.6  = etaonium ! max rap for the quarkonium states
   0  = etajmin ! min rap for the jets
   0  = etabmin ! min rap for the b
   0  = etaamin ! min rap for the photons
   0  = etalmin ! main rap for the charged leptons
#*********************************************************************
# Minimum and maximum DeltaR distance                                *
#*********************************************************************
 0.4 = drjj    ! min distance between jets 
 0   = drbb    ! min distance between b's 
 0.4 = drll    ! min distance between leptons 
 0.4 = draa    ! min distance between gammas 
 0   = drbj    ! min distance between b and jet 
 0.4 = draj    ! min distance between gamma and jet 
 0.4 = drjl    ! min distance between jet and lepton 
 0   = drab    ! min distance between gamma and b 
 0   = drbl    ! min distance between b and lepton 
 0.4 = dral    ! min distance between gamma and lepton 
 -1  = drjjmax ! max distance between jets
 -1  = drbbmax ! max distance between b's
 -1  = drllmax ! max distance between leptons
 -1  = draamax ! max distance between gammas
 -1  = drbjmax ! max distance between b and jet
 -1  = drajmax ! max distance between gamma and jet
 -1  = drjlmax ! max distance between jet and lepton
 -1  = drabmax ! max distance between gamma and b
 -1  = drblmax ! max distance between b and lepton
 -1  = dralmax ! maxdistance between gamma and lepton
#*********************************************************************
# Minimum and maximum invariant mass for pairs                       *
# WARNING: for four lepton final state mmll cut require to have      *
#          different lepton masses for each flavor!                  *           
#*********************************************************************
 0   = mmjj    ! min invariant mass of a jet pair 
 0   = mmbb    ! min invariant mass of a b pair 
 0   = mmaa    ! min invariant mass of gamma gamma pair
 0   = mmll    ! min invariant mass of l+l- (same flavour) lepton pair
 -1  = mmjjmax ! max invariant mass of a jet pair
 -1  = mmbbmax ! max invariant mass of a b pair
 -1  = mmaamax ! max invariant mass of gamma gamma pair
 -1  = mmllmax ! max invariant mass of l+l- (same flavour) lepton pair
#*********************************************************************
# Minimum and maximum invariant mass for all letpons                 *
#*********************************************************************
 0   = mmnl    ! min invariant mass for all letpons (l+- and vl) 
 -1  = mmnlmax ! max invariant mass for all letpons (l+- and vl) 
#*********************************************************************
# Minimum and maximum pt for 4-momenta sum of leptons                *
#*********************************************************************
 0   = ptllmin  ! Minimum pt for 4-momenta sum of leptons(l and vl)
 -1  = ptllmax  ! Maximum pt for 4-momenta sum of leptons(l and vl)
#*********************************************************************
# Inclusive cuts                                                     *
#*********************************************************************
 0  = xptj ! minimum pt for at least one jet  
 0  = xptb ! minimum pt for at least one b 
 0  = xpta ! minimum pt for at least one photon 
 0  = xptl ! minimum pt for at least one charged lepton 
#*********************************************************************
# Control the pt's of the jets sorted by pt                          *
#*********************************************************************
 0   = ptj1min ! minimum pt for the leading jet in pt
 0   = ptj2min ! minimum pt for the second jet in pt
 0   = ptj3min ! minimum pt for the third jet in pt
 0   = ptj4min ! minimum pt for the fourth jet in pt
 -1  = ptj1max ! maximum pt for the leading jet in pt 
 -1  = ptj2max ! maximum pt for the second jet in pt
 -1  = ptj3max ! maximum pt for the third jet in pt
 -1  = ptj4max ! maximum pt for the fourth jet in pt
 0   = cutuse  ! reject event if fails any (0) / all (1) jet pt cuts
#*********************************************************************
# Control the pt's of leptons sorted by pt                           *
#*********************************************************************
 0   = ptl1min ! minimum pt for the leading lepton in pt
 0   = ptl2min ! minimum pt for the second lepton in pt
 0   = ptl3min ! minimum pt for the third lepton in pt
 0   = ptl4min ! minimum pt for the fourth lepton in pt
 -1  = ptl1max ! maximum pt for the leading lepton in pt 
 -1  = ptl2max ! maximum pt for the second lepton in pt
 -1  = ptl3max ! maximum pt for the third lepton in pt
 -1  = ptl4max ! maximum pt for the fourth lepton in pt
#*********************************************************************
# Control the Ht(k)=Sum of k leading jets                            *
#*********************************************************************
 0   = htjmin ! minimum jet HT=Sum(jet pt)
 -1  = htjmax ! maximum jet HT=Sum(jet pt)
 0   = ihtmin  !inclusive Ht for all partons (including b)
 -1  = ihtmax  !inclusive Ht for all partons (including b)
 0   = ht2min ! minimum Ht for the two leading jets
 0   = ht3min ! minimum Ht for the three leading jets
 0   = ht4min ! minimum Ht for the four leading jets
 -1  = ht2max ! maximum Ht for the two leading jets
 -1  = ht3max ! maximum Ht for the three leading jets
 -1  = ht4max ! maximum Ht for the four leading jets
#***********************************************************************
# Photon-isolation cuts, according to hep-ph/9801442                   *
# When ptgmin=0, all the other parameters are ignored                  *
# When ptgmin>0, pta and draj are not going to be used                 *
#***********************************************************************
   0 = ptgmin ! Min photon transverse momentum
 0.4 = R0gamma ! Radius of isolation code
 1.0 = xn ! n parameter of eq.(3.4) in hep-ph/9801442
 1.0 = epsgamma ! epsilon_gamma parameter of eq.(3.4) in hep-ph/9801442
 .true. = isoEM ! isolate photons from EM energy (photons and leptons)
#*********************************************************************
# WBF cuts                                                           *
#*********************************************************************
 0   = xetamin ! minimum rapidity for two jets in the WBF case  
 0   = deltaeta ! minimum rapidity for two jets in the WBF case 
#*********************************************************************
# KT DURHAM CUT                                                      *
#*********************************************************************
 -1    =  ktdurham        
 0.4  =  dparameter 
#*********************************************************************
# maximal pdg code for quark to be considered as a light jet         *
# (otherwise b cuts are applied)                                     *
#*********************************************************************
 4 = maxjetflavor    ! Maximum jet pdg code
#*********************************************************************
# Jet measure cuts                                                   *
#*********************************************************************
 0   = xqcut   ! minimum kt jet measure between partons
#*********************************************************************
#
#*********************************************************************
# Store info for systematics studies                                 *
# WARNING: If use_syst is T, matched Pythia output is                *
#          meaningful ONLY if plotted taking matchscale              *
#          reweighting into account!                                 *
#*********************************************************************
   F  = use_syst      ! Enable systematics studies
#
#**************************************
# Parameter of the systematics study
#  will be used by SysCalc (if installed)
#**************************************                                  
#
0.5 1 2 = sys_scalefact  # factorization/renormalization scale factor
0.5 1 2 = sys_alpsfact  # \alpha_s emission scale factors
30 50 = sys_matchscale # variation of merging scale
# PDF sets and number of members (0 or none for all members).
CT10nlo.LHgrid = sys_pdf # matching scales
# MSTW2008nlo68cl.LHgrid 1  = sys_pdf
</MGRunCard>
<slha>
######################################################################
## PARAM_CARD AUTOMATICALY GENERATED BY MG5 FOLLOWING UFO MODEL   ####
######################################################################
##                                                                  ##
##  Width set on Auto will be computed following the information    ##
##        present in the decay.py files of the model.               ##
##        See  arXiv:1402.1178 for more details.                    ##
##                                                                  ##
######################################################################

###################################
## INFORMATION FOR CKMBLOCK
###################################
Block ckmblock 
    1 2.277360e-01 # cabi 

###################################
## INFORMATION FOR FRBLOCK
###################################
Block frblock 
    1 8.000000e-01 # gz 

###################################
## INFORMATION FOR MASS
###################################
Block mass 
    1 5.040000e-03 # MD 
    2 2.550000e-03 # MU 
    3 1.010000e-01 # MS 
    4 1.270000e+00 # MC 
    5 4.700000e+00 # MB 
    6 1.720000e+02 # MT 
   11 5.110000e-04 # Me 
   13 1.056600e-01 # MM 
   15 1.777000e+00 # MTA 
   23 9.118760e+01 # MZ 
   25 1.200000e+02 # MH 
  10030 4.000000e+03 # MZph 
  10031 3.000000e+02 # MZpl 
## Dependent parameters, given by model restrictions.
## Those values should be edited following the 
## analytical expression. MG5 ignores those values 
## but they are important for interfacing the output of MG5
## to external program such as Pythia.
  12 0.000000 # ve : 0.0 
  14 0.000000 # vm : 0.0 
  16 0.000000 # vt : 0.0 
  21 0.000000 # g : 0.0 
  22 0.000000 # a : 0.0 
  24 79.824360 # w+ : cmath.sqrt(MZ__exp__2/2. + cmath.sqrt(MZ__exp__4/4. - (aEW*cmath.pi*MZ__exp__2)/(Gf*sqrt__2))) 

###################################
## INFORMATION FOR SMINPUTS
###################################
Block sminputs 
    1 1.279000e+02 # aEWM1 
    2 1.166370e-05 # Gf 
    3 1.184000e-01 # aS 

###################################
## INFORMATION FOR YUKAWA
###################################
Block yukawa 
    1 5.040000e-03 # ymdo 
    2 2.550000e-03 # ymup 
    3 1.010000e-01 # yms 
    4 1.270000e+00 # ymc 
    5 4.700000e+00 # ymb 
    6 1.720000e+02 # ymt 
   11 5.110000e-04 # yme 
   13 1.056600e-01 # ymm 
   15 1.777000e+00 # ymtau 

###################################
## INFORMATION FOR DECAY
###################################
DECAY   6 1.508336e+00 # WT 
DECAY  23 2.495200e+00 # WZ 
DECAY  24 2.085000e+00 # WW 
DECAY  25 5.753088e-03 # WH 
## Dependent parameters, given by model restrictions.
## Those values should be edited following the 
## analytical expression. MG5 ignores those values 
## but they are important for interfacing the output of MG5
## to external program such as Pythia.
DECAY  1 0.000000 # d : 0.0 
DECAY  2 0.000000 # u : 0.0 
DECAY  3 0.000000 # s : 0.0 
DECAY  4 0.000000 # c : 0.0 
DECAY  5 0.000000 # b : 0.0 
DECAY  11 0.000000 # e- : 0.0 
DECAY  12 0.000000 # ve : 0.0 
DECAY  13 0.000000 # mu- : 0.0 
DECAY  14 0.000000 # vm : 0.0 
DECAY  15 0.000000 # ta- : 0.0 
DECAY  16 0.000000 # vt : 0.0 
DECAY  21 0.000000 # g : 0.0 
DECAY  22 0.000000 # a : 0.0 
DECAY  10030 0.308725 # zph : (gz__exp__2*MZph*(5 + cmath.sqrt(1 - (4*MT__exp__2)/MZph__exp__2)))/(144.*cmath.pi) 
DECAY  10031 0.132629 # zpl : (5*gz__exp__2*MZpl)/(144.*cmath.pi) 
#===========================================================
# QUANTUM NUMBERS OF NEW STATE(S) (NON SM PDG CODE)
#===========================================================

Block QNUMBERS 10030  # zph 
        1 0  # 3 times electric charge
        2 3  # number of spin states (2S+1)
        3 1  # colour rep (1: singlet, 3: triplet, 8: octet)
        4 0  # Particle/Antiparticle distinction (0=own anti)
Block QNUMBERS 10031  # zpl 
        1 0  # 3 times electric charge
        2 3  # number of spin states (2S+1)
        3 1  # colour rep (1: singlet, 3: triplet, 8: octet)
        4 0  # Particle/Antiparticle distinction (0=own anti)
</slha>
## END BANNER##
<MGGenerationInfo>
#  Number of Events        :         3801
#  Integrated weight (pb)  :  0.27196E-04
#  Max wgt                 :  0.11015E-07
#  Average wgt             :  0.71550E-08
</MGGenerationInfo>
</header>
<init>
     2212     2212  0.40000000000E+04  0.40000000000E+04 0 0  247000  247000 2   1
  0.27228197940E-04  0.57089509595E-07  0.11014740000E-07   0
</init>
<event>
 5   0  0.1073271E-07  0.3999947E+04  0.7818609E-02  0.8004557E-01
        2   -1    0    0  501    0  0.00000000000E+00  0.00000000000E+00  0.28596492882E+04  0.28596492882E+04  0.25500000920E-02 0.  1.
       -2   -1    0    0    0  501  0.00000000000E+00  0.00000000000E+00 -0.13987357551E+04  0.13987357551E+04  0.25500000920E-02 0. -1.
    10030    2    1    2    0    0  0.00000000000E+00  0.00000000000E+00  0.14609135331E+04  0.42583850433E+04  0.39999468528E+04 0.  0.
        1    1    3    3  502    0 -0.12105224488E+04 -0.12383778933E+04 -0.33465883734E+03  0.17637859686E+04  0.50400001928E-02 0. -1.
       -1    1    3    3    0  502  0.12105224488E+04  0.12383778933E+04  0.17955723705E+04  0.24945990747E+04  0.50400001928E-02 0.  1.
</event>
<event>
 5   0  0.1073271E-07  0.4013194E+04  0.7818609E-02  0.8001890E-01
        2   -1    0    0  501    0  0.00000000000E+00  0.00000000000E+00  0.25244186257E+04  0.25244186257E+04  0.25500000920E-02 0.  1.
       -2   -1    0    0    0  501  0.00000000000E+00  0.00000000000E+00 -0.15949936895E+04  0.15949936895E+04  0.25500000920E-02 0. -1.
    10030    2    1    2    0    0  0.00000000000E+00  0.00000000000E+00  0.92942493623E+03  0.41194123152E+04  0.40131941282E+04 0.  0.
        1    1    3    3  502    0  0.18106907315E+04  0.86477037231E+03  0.46650673670E+03  0.20601109818E+04  0.50400001928E-02 0. -1.
       -1    1    3    3    0  502 -0.18106907315E+04 -0.86477037231E+03  0.46291819953E+03  0.20593013334E+04  0.50400001928E-02 0.  1.
</event>
<event>
 5   0  0.1095903E-07  0.3998106E+04  0.7818609E-02  0.8004929E-01
        2   -1    0    0  501    0  0.00000000000E+00  0.00000000000E+00  0.18144609933E+04  0.18144609933E+04  0.25500000920E-02 0.  1.
       -2   -1    0    0    0  501  0.00000000000E+00  0.00000000000E+00 -0.22024240296E+04  0.22024240296E+04  0.25500000920E-02 0. -1.
    10030    2    1    2    0    0  0.00000000000E+00  0.00000000000E+00 -0.38796303629E+03  0.40168850229E+04  0.39981057977E+04 0.  0.
        3    1    3    3  502    0 -0.18480144065E+04  0.72790206765E+03 -0.42134917474E+03  0.20304023749E+04  0.10100000352E+00 0.  1.
       -3    1    3    3    0  502  0.18480144065E+04 -0.72790206765E+03  0.33386138447E+02  0.19864826481E+04  0.10100000352E+00 0. -1.
</event>
<event>
 5   0  0.1073271E-07  0.4003642E+04  0.7818609E-02  0.8003812E-01
        2   -1    0    0  501    0  0.00000000000E+00  0.00000000000E+00  0.29193052087E+04  0.29193052087E+04  0.25500000920E-02 0. -1.
       -2   -1    0    0    0  501  0.00000000000E+00  0.00000000000E+00 -0.13726850052E+04  0.13726850052E+04  0.25500000920E-02 0.  1.
    10030    2    1    2    0    0  0.00000000000E+00  0.00000000000E+00  0.15466202035E+04  0.42919902138E+04  0.40036415851E+04 0.  0.
        1    1    3    3  502    0 -0.11392392754E+04 -0.11783894737E+04 -0.45873078526E+03  0.17020287341E+04  0.50400001928E-02 0.  1.
       -1    1    3    3    0  502  0.11392392754E+04  0.11783894737E+04  0.20053509888E+04  0.25899614797E+04  0.50400001928E-02 0. -1.
</event>
<event>
 5   0  0.1095903E-07  0.3533594E+04  0.7818609E-02  0.8105874E-01
       -2   -1    0    0    0  501  0.00000000000E+00  0.00000000000E+00  0.23389903281E+04  0.23389903281E+04  0.25500000920E-02 0.  1.
        2   -1    0    0  501    0  0.00000000000E+00  0.00000000000E+00 -0.13345810798E+04  0.13345810798E+04  0.25500000920E-02 0. -1.
    10030    2    1    2    0    0  0.00000000000E+00  0.00000000000E+00  0.10044092482E+04  0.36735714079E+04  0.35335943388E+04 0.  0.
        3    1    3    3  502    0 -0.27721223573E+03 -0.15923322669E+03  0.23086714524E+04  0.23307006950E+04  0.10100000352E+00 0.  1.
       -3    1    3    3    0  502  0.27721223573E+03  0.15923322669E+03 -0.13042622042E+04  0.13428707129E+04  0.10100000352E+00 0. -1.
</event>
<event>
 5   0  0.3399500E-08  0.3967254E+04  0.7818609E-02  0.8011185E-01
       -1   -1    0    0    0  501  0.00000000000E+00  0.00000000000E+00  0.26796884654E+04  0.26796884654E+04  0.50400001928E-02 0. -1.
        1   -1    0    0  501    0  0.00000000000E+00  0.00000000000E+00 -0.14683706952E+04  0.14683706952E+04  0.50400001928E-02 0.  1.
    10030    2    1    2    0    0  0.00000000000E+00  0.00000000000E+00  0.12113177702E+04  0.41480591606E+04  0.39672539696E+04 0.  0.
        1    1    3    3  502    0 -0.35841345698E+02 -0.58374856032E+03 -0.13761746368E+04  0.14952938222E+04  0.50400001928E-02 0.  1.
       -1    1    3    3    0  502  0.35841345698E+02  0.58374856032E+03  0.25874924071E+04  0.26527653384E+04  0.50400001928E-02 0. -1.
</event>
<event>
 5   0  0.3399500E-08  0.3985563E+04  0.7818609E-02  0.8007465E-01
        1   -1    0    0  501    0  0.00000000000E+00  0.00000000000E+00  0.24630623826E+04  0.24630623826E+04  0.50400001928E-02 0.  1.
       -1   -1    0    0    0  501  0.00000000000E+00  0.00000000000E+00 -0.16122925904E+04  0.16122925904E+04  0.50400001928E-02 0. -1.
    10030    2    1    2    0    0  0.00000000000E+00  0.00000000000E+00  0.85076979225E+03  0.40753549730E+04  0.39855625597E+04 0.  0.
        3    1    3    3  502    0 -0.12748596610E+03  0.54074432998E+02 -0.16073666869E+04  0.16133209204E+04  0.10100000352E+00 0. -1.
       -3    1    3    3    0  502  0.12748596610E+03 -0.54074432998E+02  0.24581364792E+04  0.24620340526E+04  0.10100000352E+00 0.  1.
</event>
<event>
 5   0  0.1073271E-07  0.4030572E+04  0.7818609E-02  0.7998407E-01
       -2   -1    0    0    0  501  0.00000000000E+00  0.00000000000E+00  0.19674747958E+04  0.19674747958E+04  0.25500000920E-02 0.  1.
        2   -1    0    0  501    0  0.00000000000E+00  0.00000000000E+00 -0.20642591978E+04  0.20642591978E+04  0.25500000920E-02 0. -1.
    10030    2    1    2    0    0  0.00000000000E+00  0.00000000000E+00 -0.96784401982E+02  0.40317339936E+04  0.40305721399E+04 0.  0.
        1    1    3    3  502    0  0.70775401185E+03 -0.10721408503E+04 -0.16015716424E+04  0.20531520815E+04  0.50400001928E-02 0. -1.
       -1    1    3    3    0  502 -0.70775401185E+03  0.10721408503E+04  0.15047872404E+04  0.19785819121E+04  0.50400001928E-02 0.  1.
</event>
<event>
 5   0  0.3399500E-08  0.3998150E+04  0.7818609E-02  0.8004920E-01
       -1   -1    0    0    0  501  0.00000000000E+00  0.00000000000E+00  0.14840495060E+04  0.14840495060E+04  0.50400001928E-02 0.  1.
        1   -1    0    0  501    0  0.00000000000E+00  0.00000000000E+00 -0.26928359042E+04  0.26928359042E+04  0.50400001928E-02 0. -1.
    10030    2    1    2    0    0  0.00000000000E+00  0.00000000000E+00 -0.12087863982E+04  0.41768854102E+04  0.39981504691E+04 0.  0.
        2    1    3    3  502    0  0.17321409061E+03 -0.15440524408E+04 -0.19184804954E+04  0.24687382349E+04  0.25500000920E-02 0. -1.
       -2    1    3    3    0  502 -0.17321409061E+03  0.15440524408E+04  0.70969409720E+03  0.17081471754E+04  0.25500000920E-02 0.  1.
</event>
<event>
 5   0  0.1073271E-07  0.3985379E+04  0.7818609E-02  0.8007503E-01
        2   -1    0    0  501    0  0.00000000000E+00  0.00000000000E+00  0.22442722680E+04  0.22442722680E+04  0.25500000920E-02 0. -1.
       -2   -1    0    0    0  501  0.00000000000E+00  0.00000000000E+00 -0.17693088837E+04  0.17693088837E+04  0.25500000920E-02 0.  1.
    10030    2    1    2    0    0  0.00000000000E+00  0.00000000000E+00  0.47496338428E+03  0.40135811517E+04  0.39853787079E+04 0.  0.
        1    1    3    3  502    0 -0.11374700194E+04 -0.16357217433E+04  0.27499031856E+03  0.20112293111E+04  0.50400001928E-02 0.  1.
       -1    1    3    3    0  502  0.11374700194E+04  0.16357217433E+04  0.19997306572E+03  0.20023518406E+04  0.50400001928E-02 0. -1.
</event>
<event>
 5   0  0.3399500E-08  0.4024862E+04  0.7818609E-02  0.7999550E-01
       -1   -1    0    0    0  501  0.00000000000E+00  0.00000000000E+00  0.12112607464E+04  0.12112607464E+04  0.50400001928E-02 0.  1.
        1   -1    0    0  501    0  0.00000000000E+00  0.00000000000E+00 -0.33435240186E+04  0.33435240186E+04  0.50400001928E-02 0. -1.
    10030    2    1    2    0    0  0.00000000000E+00  0.00000000000E+00 -0.21322632722E+04  0.45547847651E+04  0.40248624317E+04 0.  0.
        2    1    3    3  502    0 -0.18896016015E+04  0.40794245971E+03 -0.43314070848E+03  0.19810659091E+04  0.25500000920E-02 0.  1.
       -2    1    3    3    0  502  0.18896016015E+04 -0.40794245971E+03 -0.16991225638E+04  0.25737188560E+04  0.25500000920E-02 0. -1.
</event>
<event>
 5   0  0.1101474E-07  0.3965429E+04  0.7818609E-02  0.8011557E-01
       -2   -1    0    0    0  501  0.00000000000E+00  0.00000000000E+00  0.17187037654E+04  0.17187037654E+04  0.25500000920E-02 0. -1.
        2   -1    0    0  501    0  0.00000000000E+00  0.00000000000E+00 -0.22872798500E+04  0.22872798500E+04  0.25500000920E-02 0.  1.
    10030    2    1    2    0    0  0.00000000000E+00  0.00000000000E+00 -0.56857608458E+03  0.40059836153E+04  0.39654288498E+04 0.  0.
        5    1    3    3  502    0  0.54333850230E+03  0.17370500843E+04 -0.10788267786E+04  0.21157620452E+04  0.46999998093E+01 0. -1.
       -5    1    3    3    0  502 -0.54333850230E+03 -0.17370500843E+04  0.51025069402E+03  0.18902215702E+04  0.46999998093E+01 0.  1.
</event>
<event>
 5   0  0.3399500E-08  0.4004012E+04  0.7818609E-02  0.8003738E-01
       -1   -1    0    0    0  501  0.00000000000E+00  0.00000000000E+00  0.16429235949E+04  0.16429235950E+04  0.50400001928E-02 0.  1.
        1   -1    0    0  501    0  0.00000000000E+00  0.00000000000E+00 -0.24395700270E+04  0.24395700270E+04  0.50400001928E-02 0. -1.
    10030    2    1    2    0    0  0.00000000000E+00  0.00000000000E+00 -0.79664643209E+03  0.40824936220E+04  0.40040115679E+04 0.  0.
        5    1    3    3  502    0  0.14646228010E+04 -0.13486356872E+04 -0.18428739862E+03  0.19994804579E+04  0.46999998093E+01 0.  1.
       -5    1    3    3    0  502 -0.14646228010E+04  0.13486356872E+04 -0.61235903348E+03  0.20830131641E+04  0.46999998093E+01 0. -1.
</event>
<event>
 5   0  0.3399500E-08  0.3542629E+04  0.7818609E-02  0.8103761E-01
       -1   -1    0    0    0  501  0.00000000000E+00  0.00000000000E+00  0.15069502441E+04  0.15069502441E+04  0.50400001928E-02 0. -1.
        1   -1    0    0  501    0  0.00000000000E+00  0.00000000000E+00 -0.20820561784E+04  0.20820561784E+04  0.50400001928E-02 0.  1.
    10030    2    1    2    0    0  0.00000000000E+00  0.00000000000E+00 -0.57510593424E+03  0.35890064225E+04  0.35426290047E+04 0.  0.
        1    1    3    3  502    0  0.74848211533E+03  0.75063994246E+03 -0.17252394798E+04  0.20248795181E+04  0.50400001928E-02 0.  1.
       -1    1    3    3    0  502 -0.74848211533E+03 -0.75063994246E+03  0.11501335456E+04  0.15641269044E+04  0.50400001928E-02 0. -1.
</event>
<event>
 5   0  0.3399500E-08  0.3995320E+04  0.7818609E-02  0.8005491E-01
        1   -1    0    0  501    0  0.00000000000E+00  0.00000000000E+00  0.15493909075E+04  0.15493909075E+04  0.50400001928E-02 0. -1.
       -1   -1    0    0    0  501  0.00000000000E+00  0.00000000000E+00 -0.25756218404E+04  0.25756218404E+04  0.50400001928E-02 0.  1.
    10030    2    1    2    0    0  0.00000000000E+00  0.00000000000E+00 -0.10262309329E+04  0.41250127478E+04  0.39953197922E+04 0.  0.
        3    1    3    3  502    0 -0.16316649353E+03 -0.49611783627E+03  0.14776584808E+04  0.15672366790E+04  0.10100000352E+00 0. -1.
       -3    1    3    3    0  502  0.16316649353E+03  0.49611783627E+03 -0.25038894137E+04  0.25577760688E+04  0.10100000352E+00 0.  1.
</event>
<event>
 5   0  0.3399500E-08  0.3968200E+04  0.7818609E-02  0.8010993E-01
        1   -1    0    0  501    0  0.00000000000E+00  0.00000000000E+00  0.16848145621E+04  0.16848145621E+04  0.50400001928E-02 0. -1.
       -1   -1    0    0    0  501  0.00000000000E+00  0.00000000000E+00 -0.23365491780E+04  0.23365491780E+04  0.50400001928E-02 0.  1.
    10030    2    1    2    0    0  0.00000000000E+00  0.00000000000E+00 -0.65173461596E+03  0.40213637401E+04  0.39681996321E+04 0.  0.
        3    1    3    3  502    0 -0.24682163072E+03 -0.18124960043E+04  0.45292681288E+03  0.18844642185E+04  0.10100000352E+00 0.  1.
       -3    1    3    3    0  502  0.24682163072E+03  0.18124960043E+04 -0.11046614288E+04  0.21368995216E+04  0.10100000352E+00 0. -1.
</event>
<event>
 5   0  0.1073271E-07  0.3975899E+04  0.7818609E-02  0.8009426E-01
       -2   -1    0    0    0  501  0.00000000000E+00  0.00000000000E+00  0.19019716617E+04  0.19019716617E+04  0.25500000920E-02 0.  1.
        2   -1    0    0  501    0  0.00000000000E+00  0.00000000000E+00 -0.20778141055E+04  0.20778141055E+04  0.25500000920E-02 0. -1.
    10030    2    1    2    0    0  0.00000000000E+00  0.00000000000E+00 -0.17584244380E+03  0.39797857673E+04  0.39758991673E+04 0.  0.
        1    1    3    3  502    0 -0.41920376064E+03  0.98717433812E+03 -0.17633849791E+04  0.20639214014E+04  0.50400001928E-02 0. -1.
       -1    1    3    3    0  502  0.41920376064E+03 -0.98717433812E+03  0.15875425353E+04  0.19158643658E+04  0.50400001928E-02 0.  1.
</event>
<event>
 5   0  0.3399500E-08  0.4004709E+04  0.7818609E-02  0.8003597E-01
        1   -1    0    0  501    0  0.00000000000E+00  0.00000000000E+00  0.24413008889E+04  0.24413008889E+04  0.50400001928E-02 0. -1.
       -1   -1    0    0    0  501  0.00000000000E+00  0.00000000000E+00 -0.16423311169E+04  0.16423311170E+04  0.50400001928E-02 0.  1.
    10030    2    1    2    0    0  0.00000000000E+00  0.00000000000E+00  0.79896977191E+03  0.40836320058E+04  0.40047094355E+04 0.  0.
        4    1    3    3  502    0  0.20018027022E+04 -0.43523325108E+02  0.41756749839E+03  0.20453538978E+04  0.12699999809E+01 0.  1.
       -4    1    3    3    0  502 -0.20018027022E+04  0.43523325108E+02  0.38140227351E+03  0.20382781080E+04  0.12699999809E+01 0. -1.
</event>
<event>
 5   0  0.3399500E-08  0.4031019E+04  0.7818609E-02  0.7998318E-01
       -1   -1    0    0    0  501  0.00000000000E+00  0.00000000000E+00  0.17313348385E+04  0.17313348385E+04  0.50400001928E-02 0. -1.
        1   -1    0    0  501    0  0.00000000000E+00  0.00000000000E+00 -0.23463272408E+04  0.23463272408E+04  0.50400001928E-02 0.  1.
    10030    2    1    2    0    0  0.00000000000E+00  0.00000000000E+00 -0.61499240227E+03  0.40776620793E+04  0.40310187767E+04 0.  0.
        1    1    3    3  502    0 -0.88396493477E+03  0.61636211549E+03  0.14154388874E+04  0.17789782200E+04  0.50400001928E-02 0. -1.
       -1    1    3    3    0  502  0.88396493477E+03 -0.61636211549E+03 -0.20304312896E+04  0.22986838593E+04  0.50400001928E-02 0.  1.
</event>
<event>
 5   0  0.1087688E-07  0.3999048E+04  0.7818609E-02  0.8004739E-01
        2   -1    0    0  501    0  0.00000000000E+00  0.00000000000E+00  0.12344501380E+04  0.12344501380E+04  0.25500000920E-02 0. -1.
       -2   -1    0    0    0  501  0.00000000000E+00  0.00000000000E+00 -0.32387668419E+04  0.32387668419E+04  0.25500000920E-02 0.  1.
    10030    2    1    2    0    0  0.00000000000E+00  0.00000000000E+00 -0.20043167039E+04  0.44732169799E+04  0.39990479742E+04 0.  0.
        2    1    3    3  502    0 -0.50858769084E+03  0.14378637687E+04 -0.24485277243E+04  0.28846839815E+04  0.25500000920E-02 0.  1.
       -2    1    3    3    0  502  0.50858769084E+03 -0.14378637687E+04  0.44421102039E+03  0.15885329984E+04  0.25500000920E-02 0. -1.
</event>
<event>
 5   0  0.3399500E-08  0.4000372E+04  0.7818609E-02  0.8004471E-01
       -1   -1    0    0    0  501  0.00000000000E+00  0.00000000000E+00  0.18869696716E+04  0.18869696716E+04  0.50400001928E-02 0. -1.
        1   -1    0    0  501    0  0.00000000000E+00  0.00000000000E+00 -0.21201956143E+04  0.21201956143E+04  0.50400001928E-02 0.  1.
    10030    2    1    2    0    0  0.00000000000E+00  0.00000000000E+00 -0.23322594274E+03  0.40071652859E+04  0.40003723937E+04 0.  0.
        3    1    3    3  502    0 -0.38157417301E+03  0.15675484015E+04 -0.13009649381E+04  0.20725145647E+04  0.10100000352E+00 0.  1.
       -3    1    3    3    0  502  0.38157417301E+03 -0.15675484015E+04  0.10677389954E+04  0.19346507212E+04  0.10100000352E+00 0. -1.
</event>
<event>
 5   0  0.1095903E-07  0.3984249E+04  0.7818609E-02  0.8007732E-01
        2   -1    0    0  501    0  0.00000000000E+00  0.00000000000E+00  0.20529436197E+04  0.20529436197E+04  0.25500000920E-02 0.  1.
       -2   -1    0    0    0  501  0.00000000000E+00  0.00000000000E+00 -0.19331072074E+04  0.19331072074E+04  0.25500000920E-02 0. -1.
    10030    2    1    2    0    0  0.00000000000E+00  0.00000000000E+00  0.11983641236E+03  0.39860508271E+04  0.39842490422E+04 0.  0.
        3    1    3    3  502    0  0.84403139910E+03 -0.20698937320E+02 -0.17452654365E+04  0.19387544720E+04  0.10100000352E+00 0. -1.
       -3    1    3    3    0  502 -0.84403139910E+03  0.20698937320E+02  0.18651018489E+04  0.20472963551E+04  0.10100000352E+00 0.  1.
</event>
<event>
 5   0  0.3399500E-08  0.3970028E+04  0.7818609E-02  0.8010620E-01
       -1   -1    0    0    0  501  0.00000000000E+00  0.00000000000E+00  0.19492287916E+04  0.19492287916E+04  0.50400001928E-02 0. -1.
        1   -1    0    0  501    0  0.00000000000E+00  0.00000000000E+00 -0.20214563852E+04  0.20214563852E+04  0.50400001928E-02 0.  1.
    10030    2    1    2    0    0  0.00000000000E+00  0.00000000000E+00 -0.72227593600E+02  0.39706851767E+04  0.39700282049E+04 0.  0.
        1    1    3    3  502    0  0.15646962534E+04  0.11609690489E+04  0.34362980634E+03  0.19784349728E+04  0.50400001928E-02 0. -1.
       -1    1    3    3    0  502 -0.15646962534E+04 -0.11609690489E+04 -0.41585739994E+03  0.19922502039E+04  0.50400001928E-02 0.  1.
</event>
<event>
 5   0  0.1087688E-07  0.4005471E+04  0.7818609E-02  0.8003444E-01
       -2   -1    0    0    0  501  0.00000000000E+00  0.00000000000E+00  0.20269589185E+04  0.20269589185E+04  0.25500000920E-02 0. -1.
        2   -1    0    0  501    0  0.00000000000E+00  0.00000000000E+00 -0.19788019616E+04  0.19788019617E+04  0.25500000920E-02 0.  1.
    10030    2    1    2    0    0  0.00000000000E+00  0.00000000000E+00  0.48156956823E+02  0.40057608801E+04  0.40054714000E+04 0.  0.
        2    1    3    3  502    0 -0.23110930720E+03  0.19734514492E+04 -0.22699374277E+03  0.19998620687E+04  0.25500000920E-02 0.  1.
       -2    1    3    3    0  502  0.23110930720E+03 -0.19734514492E+04  0.27515069959E+03  0.20058988115E+04  0.25500000920E-02 0. -1.
</event>
<event>
 5   0  0.3399500E-08  0.3998225E+04  0.7818609E-02  0.8004905E-01
        1   -1    0    0  501    0  0.00000000000E+00  0.00000000000E+00  0.18943272002E+04  0.18943272002E+04  0.50400001928E-02 0. -1.
       -1   -1    0    0    0  501  0.00000000000E+00  0.00000000000E+00 -0.21096940179E+04  0.21096940179E+04  0.50400001928E-02 0.  1.
    10030    2    1    2    0    0  0.00000000000E+00  0.00000000000E+00 -0.21536681767E+03  0.40040212181E+04  0.39982249873E+04 0.  0.
        2    1    3    3  502    0 -0.14674287570E+04 -0.11814912662E+04  0.56200270683E+03  0.19659897791E+04  0.25500000920E-02 0. -1.
       -2    1    3    3    0  502  0.14674287570E+04  0.11814912662E+04 -0.77736952450E+03  0.20380314391E+04  0.25500000920E-02 0.  1.
</event>
<event>
 5   0  0.1095903E-07  0.4021212E+04  0.7818609E-02  0.8000281E-01
        2   -1    0    0  501    0  0.00000000000E+00  0.00000000000E+00  0.23326991376E+04  0.23326991376E+04  0.25500000920E-02 0. -1.
       -2   -1    0    0    0  501  0.00000000000E+00  0.00000000000E+00 -0.17329868503E+04  0.17329868503E+04  0.25500000920E-02 0.  1.
    10030    2    1    2    0    0  0.00000000000E+00  0.00000000000E+00  0.59971228727E+03  0.40656859879E+04  0.40212122208E+04 0.  0.
        3    1    3    3  502    0  0.27060250040E+02  0.20089909107E+04  0.37659141593E+03  0.20441618921E+04  0.10100000352E+00 0. -1.
       -3    1    3    3    0  502 -0.27060250040E+02 -0.20089909107E+04  0.22312087135E+03  0.20215240958E+04  0.10100000352E+00 0.  1.
</event>
<event>
 5   0  0.1101474E-07  0.4002803E+04  0.7818609E-02  0.8003981E-01
        2   -1    0    0  501    0  0.00000000000E+00  0.00000000000E+00  0.22430488879E+04  0.22430488879E+04  0.25500000920E-02 0.  1.
       -2   -1    0    0    0  501  0.00000000000E+00  0.00000000000E+00 -0.17857872116E+04  0.17857872116E+04  0.25500000920E-02 0. -1.
    10030    2    1    2    0    0  0.00000000000E+00  0.00000000000E+00  0.45726167628E+03  0.40288360995E+04  0.40028030274E+04 0.  0.
        5    1    3    3  502    0  0.62382368738E+02 -0.13462829840E+04 -0.12605921662E+04  0.18453953865E+04  0.46999998093E+01 0. -1.
       -5    1    3    3    0  502 -0.62382368738E+02  0.13462829840E+04  0.17178538425E+04  0.21834407130E+04  0.46999998093E+01 0.  1.
</event>
<event>
 5   0  0.3399500E-08  0.3812071E+04  0.7818609E-02  0.8043569E-01
        1   -1    0    0  501    0  0.00000000000E+00  0.00000000000E+00  0.14847979692E+04  0.14847979692E+04  0.50400001928E-02 0. -1.
       -1   -1    0    0    0  501  0.00000000000E+00  0.00000000000E+00 -0.24467783544E+04  0.24467783544E+04  0.50400001928E-02 0.  1.
    10030    2    1    2    0    0  0.00000000000E+00  0.00000000000E+00 -0.96198038526E+03  0.39315763236E+04  0.38120711072E+04 0.  0.
        2    1    3    3  502    0  0.14865428212E+03  0.98250097515E+03  0.11965191916E+04  0.15553341884E+04  0.25500000920E-02 0. -1.
       -2    1    3    3    0  502 -0.14865428212E+03 -0.98250097515E+03 -0.21584995768E+04  0.23762421352E+04  0.25500000920E-02 0.  1.
</event>
<event>
 5   0  0.1095903E-07  0.3995223E+04  0.7818609E-02  0.8005511E-01
       -2   -1    0    0    0  501  0.00000000000E+00  0.00000000000E+00  0.24264846226E+04  0.24264846226E+04  0.25500000920E-02 0.  1.
        2   -1    0    0  501    0  0.00000000000E+00  0.00000000000E+00 -0.16445404949E+04  0.16445404949E+04  0.25500000920E-02 0. -1.
    10030    2    1    2    0    0  0.00000000000E+00  0.00000000000E+00  0.78194412769E+03  0.40710251175E+04  0.39952232589E+04 0.  0.
        3    1    3    3  502    0 -0.95473970844E+03 -0.43077761845E+03 -0.13422874221E+04  0.17025959007E+04  0.10100000352E+00 0. -1.
       -3    1    3    3    0  502  0.95473970844E+03  0.43077761845E+03  0.21242315498E+04  0.23684292168E+04  0.10100000352E+00 0.  1.
</event>
<event>
 5   0  0.1073271E-07  0.4010666E+04  0.7818609E-02  0.8002398E-01
        2   -1    0    0  501    0  0.00000000000E+00  0.00000000000E+00  0.13278804000E+04  0.13278804000E+04  0.25500000920E-02 0. -1.
       -2   -1    0    0    0  501  0.00000000000E+00  0.00000000000E+00 -0.30284049646E+04  0.30284049646E+04  0.25500000920E-02 0.  1.
    10030    2    1    2    0    0  0.00000000000E+00  0.00000000000E+00 -0.17005245646E+04  0.43562853647E+04  0.40106655786E+04 0.  0.
        1    1    3    3  502    0  0.94004601824E+03 -0.14939114030E+04 -0.18840715748E+04  0.25817016666E+04  0.50400001928E-02 0.  1.
       -1    1    3    3    0  502 -0.94004601824E+03  0.14939114030E+04  0.18354701021E+03  0.17745836980E+04  0.50400001928E-02 0. -1.
</event>
<event>
 5   0  0.3399500E-08  0.3578195E+04  0.7818609E-02  0.8095505E-01
        1   -1    0    0  501    0  0.00000000000E+00  0.00000000000E+00  0.18623217752E+04  0.18623217752E+04  0.50400001928E-02 0.  1.
       -1   -1    0    0    0  501  0.00000000000E+00  0.00000000000E+00 -0.17187522630E+04  0.17187522630E+04  0.50400001928E-02 0. -1.
    10030    2    1    2    0    0  0.00000000000E+00  0.00000000000E+00  0.14356951224E+03  0.35810740382E+04  0.35781949447E+04 0.  0.
        5    1    3    3  502    0 -0.12004902681E+04 -0.76814787034E+03  0.11541444934E+04  0.18339301067E+04  0.46999998093E+01 0.  1.
       -5    1    3    3    0  502  0.12004902681E+04  0.76814787034E+03 -0.10105749812E+04  0.17471439315E+04  0.46999998093E+01 0. -1.
</event>
<event>
 5   0  0.1095903E-07  0.4039778E+04  0.7818609E-02  0.7996570E-01
       -2   -1    0    0    0  501  0.00000000000E+00  0.00000000000E+00  0.19728239057E+04  0.19728239057E+04  0.25500000920E-02 0. -1.
        2   -1    0    0  501    0  0.00000000000E+00  0.00000000000E+00 -0.20680769383E+04  0.20680769383E+04  0.25500000920E-02 0.  1.
    10030    2    1    2    0    0  0.00000000000E+00  0.00000000000E+00 -0.95253032564E+02  0.40409008440E+04  0.40397780249E+04 0.  0.
        3    1    3    3  502    0  0.13580482120E+04 -0.11055792695E+03  0.14439061681E+04  0.19852916747E+04  0.10100000352E+00 0. -1.
       -3    1    3    3    0  502 -0.13580482120E+04  0.11055792695E+03 -0.15391592007E+04  0.20556091692E+04  0.10100000352E+00 0.  1.
</event>
<event>
 5   0  0.3399500E-08  0.4002751E+04  0.7818609E-02  0.8003992E-01
       -1   -1    0    0    0  501  0.00000000000E+00  0.00000000000E+00  0.17750078400E+04  0.17750078400E+04  0.50400001928E-02 0.  1.
        1   -1    0    0  501    0  0.00000000000E+00  0.00000000000E+00 -0.22566122152E+04  0.22566122152E+04  0.50400001928E-02 0. -1.
    10030    2    1    2    0    0  0.00000000000E+00  0.00000000000E+00 -0.48160437517E+03  0.40316200552E+04  0.40027512407E+04 0.  0.
        4    1    3    3  502    0  0.49091826543E+03 -0.30349857854E+03  0.16893672356E+04  0.17852381914E+04  0.12699999809E+01 0.  1.
       -4    1    3    3    0  502 -0.49091826543E+03  0.30349857854E+03 -0.21709716107E+04  0.22463818638E+04  0.12699999809E+01 0. -1.
</event>
<event>
 5   0  0.3399500E-08  0.4001690E+04  0.7818609E-02  0.8004206E-01
        1   -1    0    0  501    0  0.00000000000E+00  0.00000000000E+00  0.20550645317E+04  0.20550645317E+04  0.50400001928E-02 0.  1.
       -1   -1    0    0    0  501  0.00000000000E+00  0.00000000000E+00 -0.19480561205E+04  0.19480561205E+04  0.50400001928E-02 0. -1.
    10030    2    1    2    0    0  0.00000000000E+00  0.00000000000E+00  0.10700841123E+03  0.40031206522E+04  0.40016901624E+04 0.  0.
        1    1    3    3  502    0 -0.18736710804E+04 -0.66627955509E+02  0.75253754159E+03  0.20202463596E+04  0.50400001928E-02 0. -1.
       -1    1    3    3    0  502  0.18736710804E+04  0.66627955509E+02 -0.64552913035E+03  0.19828742926E+04  0.50400001928E-02 0.  1.
</event>
<event>
 5   0  0.3399500E-08  0.4010064E+04  0.7818609E-02  0.8002519E-01
       -1   -1    0    0    0  501  0.00000000000E+00  0.00000000000E+00  0.17447845425E+04  0.17447845425E+04  0.50400001928E-02 0.  1.
        1   -1    0    0  501    0  0.00000000000E+00  0.00000000000E+00 -0.23040971588E+04  0.23040971588E+04  0.50400001928E-02 0. -1.
    10030    2    1    2    0    0  0.00000000000E+00  0.00000000000E+00 -0.55931261632E+03  0.40488817014E+04  0.40100638934E+04 0.  0.
        5    1    3    3  502    0 -0.19350823968E+03 -0.75481270344E+03  0.15856421706E+04  0.17667684736E+04  0.46999998093E+01 0.  1.
       -5    1    3    3    0  502  0.19350823968E+03  0.75481270344E+03 -0.21449547870E+04  0.22821132277E+04  0.46999998093E+01 0. -1.
</event>
<event>
 5   0  0.1095109E-07  0.4001316E+04  0.7818609E-02  0.8004281E-01
        2   -1    0    0  501    0  0.00000000000E+00  0.00000000000E+00  0.23823813097E+04  0.23823813097E+04  0.25500000920E-02 0.  1.
       -2   -1    0    0    0  501  0.00000000000E+00  0.00000000000E+00 -0.16800973953E+04  0.16800973953E+04  0.25500000920E-02 0. -1.
    10030    2    1    2    0    0  0.00000000000E+00  0.00000000000E+00  0.70228391431E+03  0.40624787050E+04  0.40013161000E+04 0.  0.
        4    1    3    3  502    0  0.61828627055E+03  0.18810232904E+04  0.64206068983E+03  0.20815307044E+04  0.12699999809E+01 0.  1.
       -4    1    3    3    0  502 -0.61828627055E+03 -0.18810232904E+04  0.60223224473E+02  0.19809480006E+04  0.12699999809E+01 0. -1.
</event>
<event>
 5   0  0.1095109E-07  0.3968923E+04  0.7818609E-02  0.8010845E-01
       -2   -1    0    0    0  501  0.00000000000E+00  0.00000000000E+00  0.29741599078E+04  0.29741599078E+04  0.25500000920E-02 0.  1.
        2   -1    0    0  501    0  0.00000000000E+00  0.00000000000E+00 -0.13241008737E+04  0.13241008737E+04  0.25500000920E-02 0. -1.
    10030    2    1    2    0    0  0.00000000000E+00  0.00000000000E+00  0.16500590341E+04  0.42982607815E+04  0.39689231449E+04 0.  0.
        4    1    3    3  502    0  0.18044758329E+04  0.25492040990E+03 -0.25621897314E+02  0.18225738782E+04  0.12699999809E+01 0.  1.
       -4    1    3    3    0  502 -0.18044758329E+04 -0.25492040990E+03  0.16756809314E+04  0.24756869034E+04  0.12699999809E+01 0. -1.
</event>
<event>
 5   0  0.3399500E-08  0.3986162E+04  0.7818609E-02  0.8007344E-01
        1   -1    0    0  501    0  0.00000000000E+00  0.00000000000E+00  0.25906104687E+04  0.25906104687E+04  0.50400001928E-02 0. -1.
       -1   -1    0    0    0  501  0.00000000000E+00  0.00000000000E+00 -0.15333727448E+04  0.15333727448E+04  0.50400001928E-02 0.  1.
    10030    2    1    2    0    0  0.00000000000E+00  0.00000000000E+00  0.10572377239E+04  0.41239832136E+04  0.39861618057E+04 0.  0.
        2    1    3    3  502    0 -0.14711652406E+04 -0.88607876711E+03  0.15749771284E+04  0.23302394087E+04  0.25500000920E-02 0. -1.
       -2    1    3    3    0  502  0.14711652406E+04  0.88607876711E+03 -0.51773940446E+03  0.17937438049E+04  0.25500000920E-02 0.  1.
</event>
<event>
 5   0  0.3399500E-08  0.3990220E+04  0.7818609E-02  0.8006522E-01
       -1   -1    0    0    0  501  0.00000000000E+00  0.00000000000E+00  0.28821240586E+04  0.28821240586E+04  0.50400001928E-02 0.  1.
        1   -1    0    0  501    0  0.00000000000E+00  0.00000000000E+00 -0.13810866197E+04  0.13810866197E+04  0.50400001928E-02 0. -1.
    10030    2    1    2    0    0  0.00000000000E+00  0.00000000000E+00  0.15010374389E+04  0.42632106784E+04  0.39902195297E+04 0.  0.
        5    1    3    3  502    0 -0.19278973399E+04  0.41123946405E+03  0.42201829295E+03  0.20159433473E+04  0.46999998093E+01 0.  1.
       -5    1    3    3    0  502  0.19278973399E+04 -0.41123946405E+03  0.10790191460E+04  0.22472673311E+04  0.46999998093E+01 0. -1.
</event>
<event>
 5   0  0.3399500E-08  0.3988865E+04  0.7818609E-02  0.8006797E-01
        1   -1    0    0  501    0  0.00000000000E+00  0.00000000000E+00  0.25345501632E+04  0.25345501632E+04  0.50400001928E-02 0. -1.
       -1   -1    0    0    0  501  0.00000000000E+00  0.00000000000E+00 -0.15694151894E+04  0.15694151894E+04  0.50400001928E-02 0.  1.
    10030    2    1    2    0    0  0.00000000000E+00  0.00000000000E+00  0.96513497379E+03  0.41039653526E+04  0.39888652644E+04 0.  0.
        5    1    3    3  502    0 -0.13583396072E+04 -0.13503435857E+04 -0.89558560817E+02  0.19174350350E+04  0.46999998093E+01 0.  1.
       -5    1    3    3    0  502  0.13583396072E+04  0.13503435857E+04  0.10546935346E+04  0.21865303176E+04  0.46999998093E+01 0. -1.
</event>
<event>
 5   0  0.1087688E-07  0.3990323E+04  0.7818609E-02  0.8006502E-01
       -2   -1    0    0    0  501  0.00000000000E+00  0.00000000000E+00  0.21107068509E+04  0.21107068509E+04  0.25500000920E-02 0. -1.
        2   -1    0    0  501    0  0.00000000000E+00  0.00000000000E+00 -0.18859416052E+04  0.18859416052E+04  0.25500000920E-02 0.  1.
    10030    2    1    2    0    0  0.00000000000E+00  0.00000000000E+00  0.22476524567E+03  0.39966484561E+04  0.39903232283E+04 0.  0.
        2    1    3    3  502    0 -0.13891158319E+04 -0.58807710462E+03 -0.11955174571E+04  0.19247699773E+04  0.25500000920E-02 0.  1.
       -2    1    3    3    0  502  0.13891158319E+04  0.58807710462E+03  0.14202827027E+04  0.20718784788E+04  0.25500000920E-02 0. -1.
</event>
<event>
 5   0  0.1095903E-07  0.3702811E+04  0.7818609E-02  0.8067339E-01
        2   -1    0    0  501    0  0.00000000000E+00  0.00000000000E+00  0.28105120858E+04  0.28105120858E+04  0.25500000920E-02 0.  1.
       -2   -1    0    0    0  501  0.00000000000E+00  0.00000000000E+00 -0.12196003237E+04  0.12196003237E+04  0.25500000920E-02 0. -1.
    10030    2    1    2    0    0  0.00000000000E+00  0.00000000000E+00  0.15909117621E+04  0.40301124095E+04  0.37028105269E+04 0.  0.
        3    1    3    3  502    0  0.64457566631E+03 -0.41134182518E+03 -0.10397117738E+04  0.12906124397E+04  0.10100000352E+00 0. -1.
       -3    1    3    3    0  502 -0.64457566631E+03  0.41134182518E+03  0.26306235359E+04  0.27394999698E+04  0.10100000352E+00 0.  1.
</event>
<event>
 5   0  0.1073271E-07  0.3948593E+04  0.7818609E-02  0.8014998E-01
       -2   -1    0    0    0  501  0.00000000000E+00  0.00000000000E+00  0.16172316489E+04  0.16172316489E+04  0.25500000920E-02 0.  1.
        2   -1    0    0  501    0  0.00000000000E+00  0.00000000000E+00 -0.24101966481E+04  0.24101966481E+04  0.25500000920E-02 0. -1.
    10030    2    1    2    0    0  0.00000000000E+00  0.00000000000E+00 -0.79296499919E+03  0.40274282970E+04  0.39485928124E+04 0.  0.
        1    1    3    3  502    0  0.10235677496E+04 -0.80557808099E+03 -0.19097480700E+04  0.23116627508E+04  0.50400001928E-02 0. -1.
       -1    1    3    3    0  502 -0.10235677496E+04  0.80557808099E+03  0.11167830708E+04  0.17157655463E+04  0.50400001928E-02 0.  1.
</event>
<event>
 5   0  0.1087688E-07  0.4067781E+04  0.7818609E-02  0.7991011E-01
        2   -1    0    0  501    0  0.00000000000E+00  0.00000000000E+00  0.17695573093E+04  0.17695573093E+04  0.25500000920E-02 0. -1.
       -2   -1    0    0    0  501  0.00000000000E+00  0.00000000000E+00 -0.23377092720E+04  0.23377092720E+04  0.25500000920E-02 0.  1.
    10030    2    1    2    0    0  0.00000000000E+00  0.00000000000E+00 -0.56815196273E+03  0.41072665814E+04  0.40677809820E+04 0.  0.
        2    1    3    3  502    0  0.62235088395E+03 -0.18573925398E+04 -0.83663836425E+03  0.21300684078E+04  0.25500000920E-02 0.  1.
       -2    1    3    3    0  502 -0.62235088395E+03  0.18573925398E+04  0.26848640152E+03  0.19771981735E+04  0.25500000920E-02 0. -1.
</event>
<event>
 5   0  0.1095903E-07  0.3995658E+04  0.7818609E-02  0.8005423E-01
        2   -1    0    0  501    0  0.00000000000E+00  0.00000000000E+00  0.20260084851E+04  0.20260084851E+04  0.25500000920E-02 0.  1.
       -2   -1    0    0    0  501  0.00000000000E+00  0.00000000000E+00 -0.19700416681E+04  0.19700416681E+04  0.25500000920E-02 0. -1.
    10030    2    1    2    0    0  0.00000000000E+00  0.00000000000E+00  0.55966817057E+02  0.39960501532E+04  0.39956582114E+04 0.  0.
        3    1    3    3  502    0  0.53631946016E+01  0.11845602489E+04 -0.15809345970E+04  0.19754913205E+04  0.10100000352E+00 0. -1.
       -3    1    3    3    0  502 -0.53631946016E+01 -0.11845602489E+04  0.16369014140E+04  0.20205588328E+04  0.10100000352E+00 0.  1.
</event>
<event>
 5   0  0.3399500E-08  0.3725761E+04  0.7818609E-02  0.8062277E-01
       -1   -1    0    0    0  501  0.00000000000E+00  0.00000000000E+00  0.19811165338E+04  0.19811165339E+04  0.50400001928E-02 0.  1.
        1   -1    0    0  501    0  0.00000000000E+00  0.00000000000E+00 -0.17517011154E+04  0.17517011154E+04  0.50400001928E-02 0. -1.
    10030    2    1    2    0    0  0.00000000000E+00  0.00000000000E+00  0.22941541844E+03  0.37328176493E+04  0.37257611529E+04 0.  0.
        5    1    3    3  502    0 -0.14491629433E+04  0.28763095562E+03 -0.10221206600E+04  0.17965404355E+04  0.46999998093E+01 0. -1.
       -5    1    3    3    0  502  0.14491629433E+04 -0.28763095562E+03  0.12515360785E+04  0.19362772138E+04  0.46999998093E+01 0.  1.
</event>
<event>
 5   0  0.1101474E-07  0.3974104E+04  0.7818609E-02  0.8009791E-01
        2   -1    0    0  501    0  0.00000000000E+00  0.00000000000E+00  0.20433983703E+04  0.20433983703E+04  0.25500000920E-02 0. -1.
       -2   -1    0    0    0  501  0.00000000000E+00  0.00000000000E+00 -0.19322598362E+04  0.19322598362E+04  0.25500000920E-02 0.  1.
    10030    2    1    2    0    0  0.00000000000E+00  0.00000000000E+00  0.11113853412E+03  0.39756582065E+04  0.39741044779E+04 0.  0.
        5    1    3    3  502    0 -0.65615832022E+03  0.85029872905E+03  0.17279892495E+04  0.20345811870E+04  0.46999998093E+01 0. -1.
       -5    1    3    3    0  502  0.65615832022E+03 -0.85029872905E+03 -0.16168507154E+04  0.19410770195E+04  0.46999998093E+01 0.  1.
</event>
<event>
 5   0  0.3399500E-08  0.3969440E+04  0.7818609E-02  0.8010740E-01
        1   -1    0    0  501    0  0.00000000000E+00  0.00000000000E+00  0.23022972909E+04  0.23022972909E+04  0.50400001928E-02 0.  1.
       -1   -1    0    0    0  501  0.00000000000E+00  0.00000000000E+00 -0.17109494033E+04  0.17109494033E+04  0.50400001928E-02 0. -1.
    10030    2    1    2    0    0  0.00000000000E+00  0.00000000000E+00  0.59134788759E+03  0.40132466942E+04  0.39694403515E+04 0.  0.
        5    1    3    3  502    0  0.16166194754E+04  0.11110593557E+04 -0.96198367514E+01  0.19616386138E+04  0.46999998093E+01 0. -1.
       -5    1    3    3    0  502 -0.16166194754E+04 -0.11110593557E+04  0.60096772434E+03  0.20516080804E+04  0.46999998093E+01 0.  1.
</event>
<event>
 5   0  0.3399500E-08  0.3990352E+04  0.7818609E-02  0.8006496E-01
        1   -1    0    0  501    0  0.00000000000E+00  0.00000000000E+00  0.20280650506E+04  0.20280650506E+04  0.50400001928E-02 0. -1.
       -1   -1    0    0    0  501  0.00000000000E+00  0.00000000000E+00 -0.19628203654E+04  0.19628203654E+04  0.50400001928E-02 0.  1.
    10030    2    1    2    0    0  0.00000000000E+00  0.00000000000E+00  0.65244685141E+02  0.39908854160E+04  0.39903520565E+04 0.  0.
        3    1    3    3  502    0 -0.51665367800E+03  0.17833184428E+04 -0.69793520370E+03  0.19834992438E+04  0.10100000352E+00 0.  1.
       -3    1    3    3    0  502  0.51665367800E+03 -0.17833184428E+04  0.76317988884E+03  0.20073861722E+04  0.10100000352E+00 0. -1.
</event>
<event>
 5   0  0.1095903E-07  0.4005851E+04  0.7818609E-02  0.8003367E-01
       -2   -1    0    0    0  501  0.00000000000E+00  0.00000000000E+00  0.14554626017E+04  0.14554626017E+04  0.25500000920E-02 0. -1.
        2   -1    0    0  501    0  0.00000000000E+00  0.00000000000E+00 -0.27563124760E+04  0.27563124760E+04  0.25500000920E-02 0.  1.
    10030    2    1    2    0    0  0.00000000000E+00  0.00000000000E+00 -0.13008498743E+04  0.42117750777E+04  0.40058505851E+04 0.  0.
        3    1    3    3  502    0 -0.24506496559E+03 -0.13388579116E+04  0.89450236103E+03  0.16287209180E+04  0.10100000352E+00 0. -1.
       -3    1    3    3    0  502  0.24506496559E+03  0.13388579116E+04 -0.21953522353E+04  0.25830541597E+04  0.10100000352E+00 0.  1.
</event>
<event>
 5   0  0.3399500E-08  0.4050759E+04  0.7818609E-02  0.7994384E-01
       -1   -1    0    0    0  501  0.00000000000E+00  0.00000000000E+00  0.29465660977E+04  0.29465660977E+04  0.50400001928E-02 0. -1.
        1   -1    0    0  501    0  0.00000000000E+00  0.00000000000E+00 -0.13921839623E+04  0.13921839623E+04  0.50400001928E-02 0.  1.
    10030    2    1    2    0    0  0.00000000000E+00  0.00000000000E+00  0.15543821354E+04  0.43387500600E+04  0.40507589734E+04 0.  0.
        1    1    3    3  502    0  0.20973143997E+02 -0.19233977357E+04  0.97856898899E+02  0.19259996612E+04  0.50400001928E-02 0.  1.
       -1    1    3    3    0  502 -0.20973143997E+02  0.19233977357E+04  0.14565252365E+04  0.24127503988E+04  0.50400001928E-02 0. -1.
</event>
<event>
 5   0  0.3399500E-08  0.4003171E+04  0.7818609E-02  0.8003907E-01
       -1   -1    0    0    0  501  0.00000000000E+00  0.00000000000E+00  0.16209783512E+04  0.16209783512E+04  0.50400001928E-02 0. -1.
        1   -1    0    0  501    0  0.00000000000E+00  0.00000000000E+00 -0.24715596809E+04  0.24715596809E+04  0.50400001928E-02 0.  1.
    10030    2    1    2    0    0  0.00000000000E+00  0.00000000000E+00 -0.85058132965E+03  0.40925380321E+04  0.40031711112E+04 0.  0.
        5    1    3    3  502    0 -0.28057853737E+03 -0.12016488689E+04  0.11858473562E+04  0.17114147253E+04  0.46999998093E+01 0. -1.
       -5    1    3    3    0  502  0.28057853737E+03  0.12016488689E+04 -0.20364286859E+04  0.23811233068E+04  0.46999998093E+01 0.  1.
</event>
<event>
 5   0  0.3399500E-08  0.4012357E+04  0.7818609E-02  0.8002058E-01
        1   -1    0    0  501    0  0.00000000000E+00  0.00000000000E+00  0.23640999004E+04  0.23640999004E+04  0.50400001928E-02 0.  1.
       -1   -1    0    0    0  501  0.00000000000E+00  0.00000000000E+00 -0.17024455700E+04  0.17024455700E+04  0.50400001928E-02 0. -1.
    10030    2    1    2    0    0  0.00000000000E+00  0.00000000000E+00  0.66165433042E+03  0.40665454705E+04  0.40123566156E+04 0.  0.
        4    1    3    3  502    0 -0.97017062895E+03  0.82579009738E+03 -0.12398086301E+04  0.17777197154E+04  0.12699999809E+01 0. -1.
       -4    1    3    3    0  502  0.97017062895E+03 -0.82579009738E+03  0.19014629605E+04  0.22888257551E+04  0.12699999809E+01 0.  1.
</event>
<event>
 5   0  0.3399500E-08  0.4040928E+04  0.7818609E-02  0.7996341E-01
       -1   -1    0    0    0  501  0.00000000000E+00  0.00000000000E+00  0.13705033553E+04  0.13705033553E+04  0.50400001928E-02 0.  1.
        1   -1    0    0  501    0  0.00000000000E+00  0.00000000000E+00 -0.29786682239E+04  0.29786682239E+04  0.50400001928E-02 0. -1.
    10030    2    1    2    0    0  0.00000000000E+00  0.00000000000E+00 -0.16081648686E+04  0.43491715793E+04  0.40409280099E+04 0.  0.
        5    1    3    3  502    0  0.46421359581E+03 -0.41139918697E+03 -0.28736521312E+04  0.29398371068E+04  0.46999998093E+01 0. -1.
       -5    1    3    3    0  502 -0.46421359581E+03  0.41139918697E+03  0.12654872626E+04  0.14093344725E+04  0.46999998093E+01 0.  1.
</event>
<event>
 5   0  0.1095109E-07  0.3925865E+04  0.7818609E-02  0.8019671E-01
        2   -1    0    0  501    0  0.00000000000E+00  0.00000000000E+00  0.24155316888E+04  0.24155316888E+04  0.25500000920E-02 0. -1.
       -2   -1    0    0    0  501  0.00000000000E+00  0.00000000000E+00 -0.15951366305E+04  0.15951366305E+04  0.25500000920E-02 0.  1.
    10030    2    1    2    0    0  0.00000000000E+00  0.00000000000E+00  0.82039505832E+03  0.40106683193E+04  0.39258645310E+04 0.  0.
        4    1    3    3  502    0 -0.64089769744E+03 -0.73378458099E+03 -0.13306997580E+04  0.16492280403E+04  0.12699999809E+01 0.  1.
       -4    1    3    3    0  502  0.64089769744E+03  0.73378458099E+03  0.21510948163E+04  0.23614402791E+04  0.12699999809E+01 0. -1.
</event>
<event>
 5   0  0.1073271E-07  0.3999107E+04  0.7818609E-02  0.8004727E-01
        2   -1    0    0  501    0  0.00000000000E+00  0.00000000000E+00  0.26115618203E+04  0.26115618203E+04  0.25500000920E-02 0. -1.
       -2   -1    0    0    0  501  0.00000000000E+00  0.00000000000E+00 -0.15309670550E+04  0.15309670550E+04  0.25500000920E-02 0.  1.
    10030    2    1    2    0    0  0.00000000000E+00  0.00000000000E+00  0.10805947653E+04  0.41425288753E+04  0.39991074549E+04 0.  0.
        1    1    3    3  502    0  0.11846501042E+04 -0.14649735009E+04 -0.15355470141E+03  0.18902704235E+04  0.50400001928E-02 0.  1.
       -1    1    3    3    0  502 -0.11846501042E+04  0.14649735009E+04  0.12341494667E+04  0.22522584518E+04  0.50400001928E-02 0. -1.
</event>
<event>
 5   0  0.3399500E-08  0.3990045E+04  0.7818609E-02  0.8006558E-01
        1   -1    0    0  501    0  0.00000000000E+00  0.00000000000E+00  0.12874806916E+04  0.12874806916E+04  0.50400001928E-02 0.  1.
       -1   -1    0    0    0  501  0.00000000000E+00  0.00000000000E+00 -0.30913974012E+04  0.30913974012E+04  0.50400001928E-02 0. -1.
    10030    2    1    2    0    0  0.00000000000E+00  0.00000000000E+00 -0.18039167096E+04  0.43788780927E+04  0.39900448438E+04 0.  0.
        4    1    3    3  502    0  0.15862895047E+04 -0.90840000388E+03 -0.24953053977E+02  0.18281491262E+04  0.12699999809E+01 0.  1.
       -4    1    3    3    0  502 -0.15862895047E+04  0.90840000388E+03 -0.17789636556E+04  0.25507289665E+04  0.12699999809E+01 0. -1.
</event>
<event>
 5   0  0.1087688E-07  0.4026344E+04  0.7818609E-02  0.7999253E-01
        2   -1    0    0  501    0  0.00000000000E+00  0.00000000000E+00  0.13113280915E+04  0.13113280915E+04  0.25500000920E-02 0. -1.
       -2   -1    0    0    0  501  0.00000000000E+00  0.00000000000E+00 -0.30906547370E+04  0.30906547370E+04  0.25500000920E-02 0.  1.
    10030    2    1    2    0    0  0.00000000000E+00  0.00000000000E+00 -0.17793266456E+04  0.44019828285E+04  0.40263444352E+04 0.  0.
        2    1    3    3  502    0  0.82570875809E+03 -0.75319554218E+03  0.94099856395E+03  0.14610190879E+04  0.25500000920E-02 0. -1.
       -2    1    3    3    0  502 -0.82570875809E+03  0.75319554218E+03 -0.27203252095E+04  0.29409637406E+04  0.25500000920E-02 0.  1.
</event>
<event>
 5   0  0.3399500E-08  0.4013861E+04  0.7818609E-02  0.8001756E-01
       -1   -1    0    0    0  501  0.00000000000E+00  0.00000000000E+00  0.26152174172E+04  0.26152174172E+04  0.50400001928E-02 0.  1.
        1   -1    0    0  501    0  0.00000000000E+00  0.00000000000E+00 -0.15401280729E+04  0.15401280729E+04  0.50400001928E-02 0. -1.
    10030    2    1    2    0    0  0.00000000000E+00  0.00000000000E+00  0.10750893444E+04  0.41553454901E+04  0.40138608650E+04 0.  0.
        5    1    3    3  502    0 -0.18189829073E+04  0.38110141155E+03  0.13217487486E+04  0.22805654885E+04  0.46999998093E+01 0. -1.
       -5    1    3    3    0  502  0.18189829073E+04 -0.38110141155E+03 -0.24665940422E+03  0.18747800016E+04  0.46999998093E+01 0.  1.
</event>
<event>
 5   0  0.1087688E-07  0.4006289E+04  0.7818609E-02  0.8003279E-01
       -2   -1    0    0    0  501  0.00000000000E+00  0.00000000000E+00  0.20709006048E+04  0.20709006048E+04  0.25500000920E-02 0. -1.
        2   -1    0    0  501    0  0.00000000000E+00  0.00000000000E+00 -0.19376054281E+04  0.19376054281E+04  0.25500000920E-02 0.  1.
    10030    2    1    2    0    0  0.00000000000E+00  0.00000000000E+00  0.13329517673E+03  0.40085060329E+04  0.40062891823E+04 0.  0.
        2    1    3    3  502    0  0.12959917564E+03  0.14800871572E+04 -0.12776487265E+04  0.19595510219E+04  0.25500000920E-02 0.  1.
       -2    1    3    3    0  502 -0.12959917564E+03 -0.14800871572E+04  0.14109439032E+04  0.20489550110E+04  0.25500000920E-02 0. -1.
</event>
<event>
 5   0  0.3399500E-08  0.3995867E+04  0.7818609E-02  0.8005381E-01
        1   -1    0    0  501    0  0.00000000000E+00  0.00000000000E+00  0.19784969318E+04  0.19784969318E+04  0.50400001928E-02 0. -1.
       -1   -1    0    0    0  501  0.00000000000E+00  0.00000000000E+00 -0.20175614000E+04  0.20175614000E+04  0.50400001928E-02 0.  1.
    10030    2    1    2    0    0  0.00000000000E+00  0.00000000000E+00 -0.39064468171E+02  0.39960583318E+04  0.39958673850E+04 0.  0.
        4    1    3    3  502    0 -0.92790180920E+03 -0.52050467318E+03 -0.17107104829E+04  0.20145617021E+04  0.12699999809E+01 0.  1.
       -4    1    3    3    0  502  0.92790180920E+03  0.52050467318E+03  0.16716460147E+04  0.19814966297E+04  0.12699999809E+01 0. -1.
</event>
<event>
 5   0  0.3399500E-08  0.4014398E+04  0.7818609E-02  0.8001648E-01
       -1   -1    0    0    0  501  0.00000000000E+00  0.00000000000E+00  0.13748091155E+04  0.13748091155E+04  0.50400001928E-02 0. -1.
        1   -1    0    0  501    0  0.00000000000E+00  0.00000000000E+00 -0.29304783233E+04  0.29304783233E+04  0.50400001928E-02 0.  1.
    10030    2    1    2    0    0  0.00000000000E+00  0.00000000000E+00 -0.15556692078E+04  0.43052874387E+04  0.40143982421E+04 0.  0.
        4    1    3    3  502    0 -0.83553316628E+03 -0.88246961716E+03  0.93541324605E+03  0.15335800765E+04  0.12699999809E+01 0. -1.
       -4    1    3    3    0  502  0.83553316628E+03  0.88246961716E+03 -0.24910824539E+04  0.27717073623E+04  0.12699999809E+01 0.  1.
</event>
<event>
 5   0  0.3399500E-08  0.4058413E+04  0.7818609E-02  0.7992865E-01
        1   -1    0    0  501    0  0.00000000000E+00  0.00000000000E+00  0.22772166010E+04  0.22772166010E+04  0.50400001928E-02 0.  1.
       -1   -1    0    0    0  501  0.00000000000E+00  0.00000000000E+00 -0.18082072868E+04  0.18082072868E+04  0.50400001928E-02 0. -1.
    10030    2    1    2    0    0  0.00000000000E+00  0.00000000000E+00  0.46900931420E+03  0.40854238878E+04  0.40584133114E+04 0.  0.
        4    1    3    3  502    0 -0.11571705739E+04 -0.43026119910E+03 -0.13866512394E+04  0.18566021947E+04  0.12699999809E+01 0. -1.
       -4    1    3    3    0  502  0.11571705739E+04  0.43026119910E+03  0.18556605536E+04  0.22288216931E+04  0.12699999809E+01 0.  1.
</event>
<event>
 5   0  0.1087688E-07  0.3962260E+04  0.7818609E-02  0.8012204E-01
        2   -1    0    0  501    0  0.00000000000E+00  0.00000000000E+00  0.15990997805E+04  0.15990997805E+04  0.25500000920E-02 0. -1.
       -2   -1    0    0    0  501  0.00000000000E+00  0.00000000000E+00 -0.24544282377E+04  0.24544282377E+04  0.25500000920E-02 0.  1.
    10030    2    1    2    0    0  0.00000000000E+00  0.00000000000E+00 -0.85532845715E+03  0.40535280182E+04  0.39622597876E+04 0.  0.
        2    1    3    3  502    0 -0.10903832837E+04  0.38033570881E+03 -0.20744905422E+04  0.23742581929E+04  0.25500000920E-02 0.  1.
       -2    1    3    3    0  502  0.10903832837E+04 -0.38033570881E+03  0.12191620850E+04  0.16792698254E+04  0.25500000920E-02 0. -1.
</event>
<event>
 5   0  0.1101474E-07  0.3997799E+04  0.7818609E-02  0.8004991E-01
        2   -1    0    0  501    0  0.00000000000E+00  0.00000000000E+00  0.21991004135E+04  0.21991004135E+04  0.25500000920E-02 0. -1.
       -2   -1    0    0    0  501  0.00000000000E+00  0.00000000000E+00 -0.18169246748E+04  0.18169246748E+04  0.25500000920E-02 0.  1.
    10030    2    1    2    0    0  0.00000000000E+00  0.00000000000E+00  0.38217573871E+03  0.40160250883E+04  0.39977992965E+04 0.  0.
        5    1    3    3  502    0 -0.38453532422E+03  0.18346883802E+04  0.88824660701E+03  0.20743560430E+04  0.46999998093E+01 0. -1.
       -5    1    3    3    0  502  0.38453532422E+03 -0.18346883802E+04 -0.50607086831E+03  0.19416690454E+04  0.46999998093E+01 0.  1.
</event>
<event>
 5   0  0.1101474E-07  0.4005282E+04  0.7818609E-02  0.8003482E-01
        2   -1    0    0  501    0  0.00000000000E+00  0.00000000000E+00  0.18230371710E+04  0.18230371710E+04  0.25500000920E-02 0. -1.
       -2   -1    0    0    0  501  0.00000000000E+00  0.00000000000E+00 -0.21999394964E+04  0.21999394964E+04  0.25500000920E-02 0.  1.
    10030    2    1    2    0    0  0.00000000000E+00  0.00000000000E+00 -0.37690232540E+03  0.40229766674E+04  0.40052822502E+04 0.  0.
        5    1    3    3  502    0  0.15589943154E+04 -0.11028553772E+04 -0.79427090727E+03  0.20682460257E+04  0.46999998093E+01 0.  1.
       -5    1    3    3    0  502 -0.15589943154E+04  0.11028553772E+04  0.41736858187E+03  0.19547306417E+04  0.46999998093E+01 0. -1.
</event>
<event>
 5   0  0.1095109E-07  0.4010170E+04  0.7818609E-02  0.8002498E-01
        2   -1    0    0  501    0  0.00000000000E+00  0.00000000000E+00  0.26963194788E+04  0.26963194788E+04  0.25500000920E-02 0. -1.
       -2   -1    0    0    0  501  0.00000000000E+00  0.00000000000E+00 -0.14910566185E+04  0.14910566185E+04  0.25500000920E-02 0.  1.
    10030    2    1    2    0    0  0.00000000000E+00  0.00000000000E+00  0.12052628604E+04  0.41873760973E+04  0.40101695746E+04 0.  0.
        4    1    3    3  502    0 -0.17855691678E+04 -0.76007638251E+03  0.75972713847E+02  0.19420985625E+04  0.12699999809E+01 0. -1.
       -4    1    3    3    0  502  0.17855691678E+04  0.76007638251E+03  0.11292901465E+04  0.22452775348E+04  0.12699999809E+01 0.  1.
</event>
<event>
 5   0  0.3399500E-08  0.4000942E+04  0.7818609E-02  0.8004356E-01
        1   -1    0    0  501    0  0.00000000000E+00  0.00000000000E+00  0.18590754624E+04  0.18590754624E+04  0.50400001928E-02 0. -1.
       -1   -1    0    0    0  501  0.00000000000E+00  0.00000000000E+00 -0.21526211749E+04  0.21526211749E+04  0.50400001928E-02 0.  1.
    10030    2    1    2    0    0  0.00000000000E+00  0.00000000000E+00 -0.29354571248E+03  0.40116966373E+04  0.40009424920E+04 0.  0.
        1    1    3    3  502    0  0.10890578761E+04 -0.86972361665E+03  0.12921520532E+04  0.19005586430E+04  0.50400001928E-02 0. -1.
       -1    1    3    3    0  502 -0.10890578761E+04  0.86972361665E+03 -0.15856977657E+04  0.21111379943E+04  0.50400001928E-02 0.  1.
</event>
<event>
 5   0  0.3399500E-08  0.3998273E+04  0.7818609E-02  0.8004895E-01
        1   -1    0    0  501    0  0.00000000000E+00  0.00000000000E+00  0.24223083897E+04  0.24223083897E+04  0.50400001928E-02 0. -1.
       -1   -1    0    0    0  501  0.00000000000E+00  0.00000000000E+00 -0.16498920399E+04  0.16498920399E+04  0.50400001928E-02 0.  1.
    10030    2    1    2    0    0  0.00000000000E+00  0.00000000000E+00  0.77241634975E+03  0.40722004296E+04  0.39982732925E+04 0.  0.
        2    1    3    3  502    0  0.16314579090E+04  0.21032674261E+03  0.15432838603E+04  0.22555747207E+04  0.25500000920E-02 0. -1.
       -2    1    3    3    0  502 -0.16314579090E+04 -0.21032674261E+03 -0.77086751054E+03  0.18166257089E+04  0.25500000920E-02 0.  1.
</event>
<event>
 5   0  0.1087688E-07  0.3982879E+04  0.7818609E-02  0.8008009E-01
        2   -1    0    0  501    0  0.00000000000E+00  0.00000000000E+00  0.16274697867E+04  0.16274697867E+04  0.25500000920E-02 0. -1.
       -2   -1    0    0    0  501  0.00000000000E+00  0.00000000000E+00 -0.24368079399E+04  0.24368079399E+04  0.25500000920E-02 0.  1.
    10030    2    1    2    0    0  0.00000000000E+00  0.00000000000E+00 -0.80933815322E+03  0.40642777266E+04  0.39828790080E+04 0.  0.
        2    1    3    3  502    0  0.11130183129E+03 -0.98163858790E+03  0.13597812242E+04  0.16807758305E+04  0.25500000920E-02 0. -1.
       -2    1    3    3    0  502 -0.11130183129E+03  0.98163858790E+03 -0.21691193774E+04  0.23835018960E+04  0.25500000920E-02 0.  1.
</event>
<event>
 5   0  0.3399500E-08  0.3953220E+04  0.7818609E-02  0.8014051E-01
       -1   -1    0    0    0  501  0.00000000000E+00  0.00000000000E+00  0.21693508615E+04  0.21693508615E+04  0.50400001928E-02 0. -1.
        1   -1    0    0  501    0  0.00000000000E+00  0.00000000000E+00 -0.18009936718E+04  0.18009936718E+04  0.50400001928E-02 0.  1.
    10030    2    1    2    0    0  0.00000000000E+00  0.00000000000E+00  0.36835718970E+03  0.39703445333E+04  0.39532200411E+04 0.  0.
        2    1    3    3  502    0 -0.59985590233E+03 -0.15722417915E+03  0.20691251781E+04  0.21600522098E+04  0.25500000920E-02 0. -1.
       -2    1    3    3    0  502  0.59985590233E+03  0.15722417915E+03 -0.17007679884E+04  0.18102923235E+04  0.25500000920E-02 0.  1.
</event>
<event>
 5   0  0.1095903E-07  0.4013305E+04  0.7818609E-02  0.8001868E-01
        2   -1    0    0  501    0  0.00000000000E+00  0.00000000000E+00  0.19262155022E+04  0.19262155022E+04  0.25500000920E-02 0.  1.
       -2   -1    0    0    0  501  0.00000000000E+00  0.00000000000E+00 -0.20904487345E+04  0.20904487345E+04  0.25500000920E-02 0. -1.
    10030    2    1    2    0    0  0.00000000000E+00  0.00000000000E+00 -0.16423323227E+03  0.40166642368E+04  0.40133052508E+04 0.  0.
        3    1    3    3  502    0  0.10565244329E+03  0.44549290052E+03  0.18732402512E+04  0.19283815525E+04  0.10100000352E+00 0.  1.
       -3    1    3    3    0  502 -0.10565244329E+03 -0.44549290052E+03 -0.20374734835E+04  0.20882826842E+04  0.10100000352E+00 0. -1.
</event>
<event>
 5   0  0.1101474E-07  0.3974713E+04  0.7818609E-02  0.8009667E-01
       -2   -1    0    0    0  501  0.00000000000E+00  0.00000000000E+00  0.20661216843E+04  0.20661216843E+04  0.25500000920E-02 0.  1.
        2   -1    0    0  501    0  0.00000000000E+00  0.00000000000E+00 -0.19115942579E+04  0.19115942579E+04  0.25500000920E-02 0. -1.
    10030    2    1    2    0    0  0.00000000000E+00  0.00000000000E+00  0.15452742646E+03  0.39777159422E+04  0.39747132464E+04 0.  0.
        5    1    3    3  502    0 -0.36515471041E+03  0.12841971872E+04 -0.13959434452E+04  0.19316264055E+04  0.46999998093E+01 0. -1.
       -5    1    3    3    0  502  0.36515471041E+03 -0.12841971872E+04  0.15504708717E+04  0.20460895367E+04  0.46999998093E+01 0.  1.
</event>
<event>
 5   0  0.3399500E-08  0.3966976E+04  0.7818609E-02  0.8011242E-01
        1   -1    0    0  501    0  0.00000000000E+00  0.00000000000E+00  0.17983185601E+04  0.17983185601E+04  0.50400001928E-02 0.  1.
       -1   -1    0    0    0  501  0.00000000000E+00  0.00000000000E+00 -0.21877234395E+04  0.21877234395E+04  0.50400001928E-02 0. -1.
    10030    2    1    2    0    0  0.00000000000E+00  0.00000000000E+00 -0.38940487944E+03  0.39860419996E+04  0.39669755057E+04 0.  0.
        5    1    3    3  502    0  0.82742244758E+03 -0.17133959381E+04 -0.75761644445E+03  0.20480132603E+04  0.46999998093E+01 0. -1.
       -5    1    3    3    0  502 -0.82742244758E+03  0.17133959381E+04  0.36821156502E+03  0.19380287393E+04  0.46999998093E+01 0.  1.
</event>
<event>
 5   0  0.3399500E-08  0.4003197E+04  0.7818609E-02  0.8003902E-01
        1   -1    0    0  501    0  0.00000000000E+00  0.00000000000E+00  0.14766244902E+04  0.14766244903E+04  0.50400001928E-02 0.  1.
       -1   -1    0    0    0  501  0.00000000000E+00  0.00000000000E+00 -0.27132124375E+04  0.27132124375E+04  0.50400001928E-02 0. -1.
    10030    2    1    2    0    0  0.00000000000E+00  0.00000000000E+00 -0.12365879472E+04  0.41898369277E+04  0.40031966889E+04 0.  0.
        3    1    3    3  502    0  0.12106652838E+04  0.46076813625E+03  0.97875029741E+03  0.16235670173E+04  0.10100000352E+00 0.  1.
       -3    1    3    3    0  502 -0.12106652838E+04 -0.46076813625E+03 -0.22153382447E+04  0.25662699104E+04  0.10100000352E+00 0. -1.
</event>
<event>
 5   0  0.1095903E-07  0.3997898E+04  0.7818609E-02  0.8004971E-01
        2   -1    0    0  501    0  0.00000000000E+00  0.00000000000E+00  0.24260845653E+04  0.24260845653E+04  0.25500000920E-02 0.  1.
       -2   -1    0    0    0  501  0.00000000000E+00  0.00000000000E+00 -0.16470144148E+04  0.16470144148E+04  0.25500000920E-02 0. -1.
    10030    2    1    2    0    0  0.00000000000E+00  0.00000000000E+00  0.77907015049E+03  0.40730989801E+04  0.39978975728E+04 0.  0.
        3    1    3    3  502    0 -0.14849261162E+03 -0.12931291405E+03  0.24161799860E+04  0.24241900957E+04  0.10100000352E+00 0.  1.
       -3    1    3    3    0  502  0.14849261162E+03  0.12931291405E+03 -0.16371098355E+04  0.16489088844E+04  0.10100000352E+00 0. -1.
</event>
<event>
 5   0  0.1073271E-07  0.3913837E+04  0.7818609E-02  0.8022157E-01
       -2   -1    0    0    0  501  0.00000000000E+00  0.00000000000E+00  0.15901726395E+04  0.15901726395E+04  0.25500000920E-02 0. -1.
        2   -1    0    0  501    0  0.00000000000E+00  0.00000000000E+00 -0.24082484997E+04  0.24082484997E+04  0.25500000920E-02 0.  1.
    10030    2    1    2    0    0  0.00000000000E+00  0.00000000000E+00 -0.81807586023E+03  0.39984211392E+04  0.39138374383E+04 0.  0.
        1    1    3    3  502    0 -0.37910248791E+03  0.17502995286E+04  0.39684693230E+03  0.18343267494E+04  0.50400001928E-02 0. -1.
       -1    1    3    3    0  502  0.37910248791E+03 -0.17502995286E+04 -0.12149227925E+04  0.21640943898E+04  0.50400001928E-02 0.  1.
</event>
<event>
 5   0  0.1073271E-07  0.3945649E+04  0.7818609E-02  0.8015602E-01
       -2   -1    0    0    0  501  0.00000000000E+00  0.00000000000E+00  0.24707441935E+04  0.24707441935E+04  0.25500000920E-02 0.  1.
        2   -1    0    0  501    0  0.00000000000E+00  0.00000000000E+00 -0.15752484654E+04  0.15752484654E+04  0.25500000920E-02 0. -1.
    10030    2    1    2    0    0  0.00000000000E+00  0.00000000000E+00  0.89549572808E+03  0.40459926590E+04  0.39456487423E+04 0.  0.
        1    1    3    3  502    0  0.77395538254E+03 -0.16584694912E+04 -0.30753520379E+03  0.18558302425E+04  0.50400001928E-02 0. -1.
       -1    1    3    3    0  502 -0.77395538254E+03  0.16584694912E+04  0.12030309319E+04  0.21901624165E+04  0.50400001928E-02 0.  1.
</event>
<event>
 5   0  0.1087688E-07  0.4016149E+04  0.7818609E-02  0.8001297E-01
       -2   -1    0    0    0  501  0.00000000000E+00  0.00000000000E+00  0.16299474890E+04  0.16299474890E+04  0.25500000920E-02 0. -1.
        2   -1    0    0  501    0  0.00000000000E+00  0.00000000000E+00 -0.24739225761E+04  0.24739225761E+04  0.25500000920E-02 0.  1.
    10030    2    1    2    0    0  0.00000000000E+00  0.00000000000E+00 -0.84397508714E+03  0.41038700651E+04  0.40161493453E+04 0.  0.
        2    1    3    3  502    0 -0.12839761975E+04  0.77672227850E+03  0.94150027702E+03  0.17715290416E+04  0.25500000920E-02 0. -1.
       -2    1    3    3    0  502  0.12839761975E+04 -0.77672227850E+03 -0.17854753642E+04  0.23323410235E+04  0.25500000920E-02 0.  1.
</event>
<event>
 5   0  0.3399500E-08  0.3986005E+04  0.7818609E-02  0.8007376E-01
       -1   -1    0    0    0  501  0.00000000000E+00  0.00000000000E+00  0.18517282828E+04  0.18517282828E+04  0.50400001928E-02 0.  1.
        1   -1    0    0  501    0  0.00000000000E+00  0.00000000000E+00 -0.21450554111E+04  0.21450554111E+04  0.50400001928E-02 0. -1.
    10030    2    1    2    0    0  0.00000000000E+00  0.00000000000E+00 -0.29332712825E+03  0.39967836939E+04  0.39860054054E+04 0.  0.
        1    1    3    3  502    0  0.21497445782E+03  0.18762898877E+04  0.49175425288E+03  0.19515378565E+04  0.50400001928E-02 0.  1.
       -1    1    3    3    0  502 -0.21497445782E+03 -0.18762898877E+04 -0.78508138114E+03  0.20452458374E+04  0.50400001928E-02 0. -1.
</event>
<event>
 5   0  0.1073271E-07  0.3992878E+04  0.7818609E-02  0.8005985E-01
        2   -1    0    0  501    0  0.00000000000E+00  0.00000000000E+00  0.24241704311E+04  0.24241704311E+04  0.25500000920E-02 0. -1.
       -2   -1    0    0    0  501  0.00000000000E+00  0.00000000000E+00 -0.16441781220E+04  0.16441781220E+04  0.25500000920E-02 0.  1.
    10030    2    1    2    0    0  0.00000000000E+00  0.00000000000E+00  0.77999230910E+03  0.40683485531E+04  0.39928776524E+04 0.  0.
        1    1    3    3  502    0  0.15422886011E+04  0.44091447998E+03  0.16010358980E+04  0.22663573537E+04  0.50400001928E-02 0. -1.
       -1    1    3    3    0  502 -0.15422886011E+04 -0.44091447998E+03 -0.82104358894E+03  0.18019911994E+04  0.50400001928E-02 0.  1.
</event>
<event>
 5   0  0.1095109E-07  0.3861789E+04  0.7818609E-02  0.8033024E-01
        2   -1    0    0  501    0  0.00000000000E+00  0.00000000000E+00  0.22079584280E+04  0.22079584280E+04  0.25500000920E-02 0. -1.
       -2   -1    0    0    0  501  0.00000000000E+00  0.00000000000E+00 -0.16885977506E+04  0.16885977506E+04  0.25500000920E-02 0.  1.
    10030    2    1    2    0    0  0.00000000000E+00  0.00000000000E+00  0.51936067741E+03  0.38965561787E+04  0.38617890336E+04 0.  0.
        4    1    3    3  502    0 -0.18767314274E+04 -0.44274428967E+03  0.15773276761E+03  0.19346897931E+04  0.12699999809E+01 0. -1.
       -4    1    3    3    0  502  0.18767314274E+04  0.44274428967E+03  0.36162790980E+03  0.19618663855E+04  0.12699999809E+01 0.  1.
</event>
<event>
 5   0  0.1095903E-07  0.3892318E+04  0.7818609E-02  0.8026629E-01
        2   -1    0    0  501    0  0.00000000000E+00  0.00000000000E+00  0.12220549845E+04  0.12220549845E+04  0.25500000920E-02 0.  1.
       -2   -1    0    0    0  501  0.00000000000E+00  0.00000000000E+00 -0.30993158199E+04  0.30993158199E+04  0.25500000920E-02 0. -1.
    10030    2    1    2    0    0  0.00000000000E+00  0.00000000000E+00 -0.18772608354E+04  0.43213708044E+04  0.38923177395E+04 0.  0.
        3    1    3    3  502    0  0.52318753013E+03  0.10526501003E+04 -0.26606469384E+04  0.29087522352E+04  0.10100000352E+00 0. -1.
       -3    1    3    3    0  502 -0.52318753013E+03 -0.10526501003E+04  0.78338610299E+03  0.14126185691E+04  0.10100000352E+00 0.  1.
</event>
<event>
 5   0  0.3399500E-08  0.3997871E+04  0.7818609E-02  0.8004976E-01
        1   -1    0    0  501    0  0.00000000000E+00  0.00000000000E+00  0.12833230804E+04  0.12833230804E+04  0.50400001928E-02 0. -1.
       -1   -1    0    0    0  501  0.00000000000E+00  0.00000000000E+00 -0.31135906402E+04  0.31135906402E+04  0.50400001928E-02 0.  1.
    10030    2    1    2    0    0  0.00000000000E+00  0.00000000000E+00 -0.18302675598E+04  0.43969137206E+04  0.39978707991E+04 0.  0.
        5    1    3    3  502    0 -0.15602562505E+04 -0.10039053074E+04 -0.96902417881E+02  0.18578583375E+04  0.46999998093E+01 0. -1.
       -5    1    3    3    0  502  0.15602562505E+04  0.10039053074E+04 -0.17333651420E+04  0.25390553832E+04  0.46999998093E+01 0.  1.
</event>
<event>
 5   0  0.3399500E-08  0.4012089E+04  0.7818609E-02  0.8002112E-01
       -1   -1    0    0    0  501  0.00000000000E+00  0.00000000000E+00  0.14421757603E+04  0.14421757603E+04  0.50400001928E-02 0.  1.
        1   -1    0    0  501    0  0.00000000000E+00  0.00000000000E+00 -0.27903771042E+04  0.27903771042E+04  0.50400001928E-02 0. -1.
    10030    2    1    2    0    0  0.00000000000E+00  0.00000000000E+00 -0.13482013439E+04  0.42325528644E+04  0.40120888433E+04 0.  0.
        2    1    3    3  502    0  0.57687068265E+03 -0.48799396443E+03  0.12863177419E+04  0.14918214461E+04  0.25500000920E-02 0.  1.
       -2    1    3    3    0  502 -0.57687068265E+03  0.48799396443E+03 -0.26345190858E+04  0.27407314183E+04  0.25500000920E-02 0. -1.
</event>
<event>
 5   0  0.1073271E-07  0.4001107E+04  0.7818609E-02  0.8004323E-01
        2   -1    0    0  501    0  0.00000000000E+00  0.00000000000E+00  0.28548285161E+04  0.28548285161E+04  0.25500000920E-02 0. -1.
       -2   -1    0    0    0  501  0.00000000000E+00  0.00000000000E+00 -0.14019105923E+04  0.14019105923E+04  0.25500000920E-02 0.  1.
    10030    2    1    2    0    0  0.00000000000E+00  0.00000000000E+00  0.14529179238E+04  0.42567391084E+04  0.40011070148E+04 0.  0.
        1    1    3    3  502    0 -0.10858846105E+03 -0.16709441241E+04 -0.43818205069E+03  0.17308521685E+04  0.50400001928E-02 0.  1.
       -1    1    3    3    0  502  0.10858846105E+03  0.16709441241E+04  0.18910999745E+04  0.25258869399E+04  0.50400001928E-02 0. -1.
</event>
<event>
 5   0  0.1095109E-07  0.3992266E+04  0.7818609E-02  0.8006109E-01
       -2   -1    0    0    0  501  0.00000000000E+00  0.00000000000E+00  0.18292612794E+04  0.18292612794E+04  0.25500000920E-02 0. -1.
        2   -1    0    0  501    0  0.00000000000E+00  0.00000000000E+00 -0.21782273281E+04  0.21782273281E+04  0.25500000920E-02 0.  1.
    10030    2    1    2    0    0  0.00000000000E+00  0.00000000000E+00 -0.34896604865E+03  0.40074886075E+04  0.39922659776E+04 0.  0.
        4    1    3    3  502    0  0.10553768998E+04  0.16632017411E+04 -0.49895673764E+03  0.20319989841E+04  0.12699999809E+01 0.  1.
       -4    1    3    3    0  502 -0.10553768998E+04 -0.16632017411E+04  0.14999068899E+03  0.19754896234E+04  0.12699999809E+01 0. -1.
</event>
<event>
 5   0  0.1095903E-07  0.3997338E+04  0.7818609E-02  0.8005084E-01
       -2   -1    0    0    0  501  0.00000000000E+00  0.00000000000E+00  0.16517598586E+04  0.16517598586E+04  0.25500000920E-02 0. -1.
        2   -1    0    0  501    0  0.00000000000E+00  0.00000000000E+00 -0.24184368990E+04  0.24184368990E+04  0.25500000920E-02 0.  1.
    10030    2    1    2    0    0  0.00000000000E+00  0.00000000000E+00 -0.76667704041E+03  0.40701967577E+04  0.39973376092E+04 0.  0.
        3    1    3    3  502    0  0.83220753402E+02 -0.13990995437E+04  0.10675086283E+04  0.17618115418E+04  0.10100000352E+00 0. -1.
       -3    1    3    3    0  502 -0.83220753402E+02  0.13990995437E+04 -0.18341856688E+04  0.23083852159E+04  0.10100000352E+00 0.  1.
</event>
<event>
 5   0  0.3399500E-08  0.3986299E+04  0.7818609E-02  0.8007316E-01
        1   -1    0    0  501    0  0.00000000000E+00  0.00000000000E+00  0.21470717092E+04  0.21470717092E+04  0.50400001928E-02 0.  1.
       -1   -1    0    0    0  501  0.00000000000E+00  0.00000000000E+00 -0.18502619972E+04  0.18502619972E+04  0.50400001928E-02 0. -1.
    10030    2    1    2    0    0  0.00000000000E+00  0.00000000000E+00  0.29680971206E+03  0.39973337064E+04  0.39862991302E+04 0.  0.
        3    1    3    3  502    0 -0.12545899816E+04  0.83711445610E+03  0.14550423311E+04  0.20956871976E+04  0.10100000352E+00 0.  1.
       -3    1    3    3    0  502  0.12545899816E+04 -0.83711445610E+03 -0.11582326190E+04  0.19016465088E+04  0.10100000352E+00 0. -1.
</event>
<event>
 5   0  0.1087688E-07  0.3968605E+04  0.7818609E-02  0.8010910E-01
       -2   -1    0    0    0  501  0.00000000000E+00  0.00000000000E+00  0.26497400937E+04  0.26497400937E+04  0.25500000920E-02 0.  1.
        2   -1    0    0  501    0  0.00000000000E+00  0.00000000000E+00 -0.14859784696E+04  0.14859784696E+04  0.25500000920E-02 0. -1.
    10030    2    1    2    0    0  0.00000000000E+00  0.00000000000E+00  0.11637616241E+04  0.41357185633E+04  0.39686051601E+04 0.  0.
        2    1    3    3  502    0  0.12124592721E+04  0.91690559618E+03  0.19110020510E+04  0.24418644921E+04  0.25500000920E-02 0.  1.
       -2    1    3    3    0  502 -0.12124592721E+04 -0.91690559618E+03 -0.74724042689E+03  0.16938540712E+04  0.25500000920E-02 0. -1.
</event>
<event>
 5   0  0.3399500E-08  0.3971949E+04  0.7818609E-02  0.8010229E-01
       -1   -1    0    0    0  501  0.00000000000E+00  0.00000000000E+00  0.22356386500E+04  0.22356386500E+04  0.50400001928E-02 0. -1.
        1   -1    0    0  501    0  0.00000000000E+00  0.00000000000E+00 -0.17641915503E+04  0.17641915503E+04  0.50400001928E-02 0.  1.
    10030    2    1    2    0    0  0.00000000000E+00  0.00000000000E+00  0.47144709976E+03  0.39998302003E+04  0.39719490509E+04 0.  0.
        1    1    3    3  502    0  0.54885538111E+03 -0.88281622306E+03 -0.14683391787E+04  0.17990627162E+04  0.50400001928E-02 0.  1.
       -1    1    3    3    0  502 -0.54885538111E+03  0.88281622306E+03  0.19397862784E+04  0.22007674841E+04  0.50400001928E-02 0. -1.
</event>
<event>
 5   0  0.3399500E-08  0.3814179E+04  0.7818609E-02  0.8043119E-01
        1   -1    0    0  501    0  0.00000000000E+00  0.00000000000E+00  0.21928414575E+04  0.21928414575E+04  0.50400001928E-02 0. -1.
       -1   -1    0    0    0  501  0.00000000000E+00  0.00000000000E+00 -0.16585739275E+04  0.16585739275E+04  0.50400001928E-02 0.  1.
    10030    2    1    2    0    0  0.00000000000E+00  0.00000000000E+00  0.53426752999E+03  0.38514153850E+04  0.38141786369E+04 0.  0.
        2    1    3    3  502    0 -0.11332424886E+04  0.13087670307E+04  0.10748681968E+04  0.20377564425E+04  0.25500000920E-02 0. -1.
       -2    1    3    3    0  502  0.11332424886E+04 -0.13087670307E+04 -0.54060066681E+03  0.18136589425E+04  0.25500000920E-02 0.  1.
</event>
<event>
 5   0  0.1101474E-07  0.3988993E+04  0.7818609E-02  0.8006771E-01
        2   -1    0    0  501    0  0.00000000000E+00  0.00000000000E+00  0.12797784524E+04  0.12797784524E+04  0.25500000920E-02 0. -1.
       -2   -1    0    0    0  501  0.00000000000E+00  0.00000000000E+00 -0.31083636097E+04  0.31083636097E+04  0.25500000920E-02 0.  1.
    10030    2    1    2    0    0  0.00000000000E+00  0.00000000000E+00 -0.18285851573E+04  0.43881420620E+04  0.39889932413E+04 0.  0.
        5    1    3    3  502    0 -0.11601462982E+04 -0.16212678469E+04 -0.97979772767E+03  0.22213677187E+04  0.46999998093E+01 0. -1.
       -5    1    3    3    0  502  0.11601462982E+04  0.16212678469E+04 -0.84878742963E+03  0.21667743434E+04  0.46999998093E+01 0.  1.
</event>
<event>
 5   0  0.3399500E-08  0.3992253E+04  0.7818609E-02  0.8006111E-01
       -1   -1    0    0    0  501  0.00000000000E+00  0.00000000000E+00  0.19566401611E+04  0.19566401611E+04  0.50400001928E-02 0.  1.
        1   -1    0    0  501    0  0.00000000000E+00  0.00000000000E+00 -0.20364092911E+04  0.20364092911E+04  0.50400001928E-02 0. -1.
    10030    2    1    2    0    0  0.00000000000E+00  0.00000000000E+00 -0.79769130047E+02  0.39930494522E+04  0.39922525990E+04 0.  0.
        1    1    3    3  502    0  0.17880172877E+04 -0.62992886121E+03 -0.66507253422E+03  0.20090141032E+04  0.50400001928E-02 0. -1.
       -1    1    3    3    0  502 -0.17880172877E+04  0.62992886121E+03  0.58530340417E+03  0.19840353490E+04  0.50400001928E-02 0.  1.
</event>
<event>
 5   0  0.1095109E-07  0.3959439E+04  0.7818609E-02  0.8012779E-01
       -2   -1    0    0    0  501  0.00000000000E+00  0.00000000000E+00  0.18776311946E+04  0.18776311946E+04  0.25500000920E-02 0.  1.
        2   -1    0    0  501    0  0.00000000000E+00  0.00000000000E+00 -0.20873584942E+04  0.20873584942E+04  0.25500000920E-02 0. -1.
    10030    2    1    2    0    0  0.00000000000E+00  0.00000000000E+00 -0.20972729959E+03  0.39649896888E+04  0.39594390628E+04 0.  0.
        4    1    3    3  502    0  0.20524691778E+03 -0.65503566023E+03  0.17546427720E+04  0.18841366415E+04  0.12699999809E+01 0.  1.
       -4    1    3    3    0  502 -0.20524691778E+03  0.65503566023E+03 -0.19643700716E+04  0.20808530473E+04  0.12699999809E+01 0. -1.
</event>
<event>
 5   0  0.1095903E-07  0.4039504E+04  0.7818609E-02  0.7996625E-01
        2   -1    0    0  501    0  0.00000000000E+00  0.00000000000E+00  0.30651898446E+04  0.30651898446E+04  0.25500000920E-02 0.  1.
       -2   -1    0    0    0  501  0.00000000000E+00  0.00000000000E+00 -0.13308791300E+04  0.13308791300E+04  0.25500000920E-02 0. -1.
    10030    2    1    2    0    0  0.00000000000E+00  0.00000000000E+00  0.17343107146E+04  0.43960689746E+04  0.40395035307E+04 0.  0.
        3    1    3    3  502    0  0.93253077398E+03  0.63448640196E+03  0.26905219737E+04  0.29173781276E+04  0.10100000352E+00 0.  1.
       -3    1    3    3    0  502 -0.93253077398E+03 -0.63448640196E+03 -0.95621125910E+03  0.14786908470E+04  0.10100000352E+00 0. -1.
</event>
<event>
 5   0  0.1095903E-07  0.4014431E+04  0.7818609E-02  0.8001642E-01
       -2   -1    0    0    0  501  0.00000000000E+00  0.00000000000E+00  0.15274137122E+04  0.15274137122E+04  0.25500000920E-02 0. -1.
        2   -1    0    0  501    0  0.00000000000E+00  0.00000000000E+00 -0.26377362773E+04  0.26377362773E+04  0.25500000920E-02 0.  1.
    10030    2    1    2    0    0  0.00000000000E+00  0.00000000000E+00 -0.11103225651E+04  0.41651499895E+04  0.40144312470E+04 0.  0.
        3    1    3    3  502    0 -0.69782467849E+03 -0.18227472364E+04 -0.69010325476E+02  0.19529795710E+04  0.10100000352E+00 0. -1.
       -3    1    3    3    0  502  0.69782467849E+03  0.18227472364E+04 -0.10413122397E+04  0.22121704185E+04  0.10100000352E+00 0.  1.
</event>
<event>
 5   0  0.3399500E-08  0.3981780E+04  0.7818609E-02  0.8008232E-01
       -1   -1    0    0    0  501  0.00000000000E+00  0.00000000000E+00  0.14493429625E+04  0.14493429625E+04  0.50400001928E-02 0. -1.
        1   -1    0    0  501    0  0.00000000000E+00  0.00000000000E+00 -0.27347866558E+04  0.27347866558E+04  0.50400001928E-02 0.  1.
    10030    2    1    2    0    0  0.00000000000E+00  0.00000000000E+00 -0.12854436933E+04  0.41841296183E+04  0.39817804025E+04 0.  0.
        5    1    3    3  502    0  0.18683108756E+04  0.62493945476E+03 -0.94452251264E+03  0.21847836774E+04  0.46999998093E+01 0.  1.
       -5    1    3    3    0  502 -0.18683108756E+04 -0.62493945476E+03 -0.34092118069E+03  0.19993459409E+04  0.46999998093E+01 0. -1.
</event>
<event>
 5   0  0.1087688E-07  0.3996920E+04  0.7818609E-02  0.8005168E-01
        2   -1    0    0  501    0  0.00000000000E+00  0.00000000000E+00  0.13840687196E+04  0.13840687196E+04  0.25500000920E-02 0.  1.
       -2   -1    0    0    0  501  0.00000000000E+00  0.00000000000E+00 -0.28855806387E+04  0.28855806387E+04  0.25500000920E-02 0. -1.
    10030    2    1    2    0    0  0.00000000000E+00  0.00000000000E+00 -0.15015119191E+04  0.42696493582E+04  0.39969197639E+04 0.  0.
        2    1    3    3  502    0 -0.88001525993E+03 -0.44627048600E+03  0.11057176504E+04  0.14819567223E+04  0.25500000920E-02 0.  1.
       -2    1    3    3    0  502  0.88001525993E+03  0.44627048600E+03 -0.26072295695E+04  0.27876926359E+04  0.25500000920E-02 0. -1.
</event>
<event>
 5   0  0.1095109E-07  0.3775201E+04  0.7818609E-02  0.8051498E-01
        2   -1    0    0  501    0  0.00000000000E+00  0.00000000000E+00  0.25310160678E+04  0.25310160678E+04  0.25500000920E-02 0. -1.
       -2   -1    0    0    0  501  0.00000000000E+00  0.00000000000E+00 -0.14077489371E+04  0.14077489372E+04  0.25500000920E-02 0.  1.
    10030    2    1    2    0    0  0.00000000000E+00  0.00000000000E+00  0.11232671307E+04  0.39387650050E+04  0.37752007519E+04 0.  0.
        4    1    3    3  502    0 -0.12404141038E+04 -0.79699543258E+03 -0.66807767137E+03  0.16186902904E+04  0.12699999809E+01 0.  1.
       -4    1    3    3    0  502  0.12404141038E+04  0.79699543258E+03  0.17913448020E+04  0.23200747145E+04  0.12699999809E+01 0. -1.
</event>
<event>
 5   0  0.1095109E-07  0.4018244E+04  0.7818609E-02  0.8000876E-01
        2   -1    0    0  501    0  0.00000000000E+00  0.00000000000E+00  0.31347796917E+04  0.31347796917E+04  0.25500000920E-02 0.  1.
       -2   -1    0    0    0  501  0.00000000000E+00  0.00000000000E+00 -0.12876729214E+04  0.12876729214E+04  0.25500000920E-02 0. -1.
    10030    2    1    2    0    0  0.00000000000E+00  0.00000000000E+00  0.18471067704E+04  0.44224526131E+04  0.40182438569E+04 0.  0.
        4    1    3    3  502    0  0.56839961106E+03  0.11852065545E+04  0.25958675033E+04  0.29096945548E+04  0.12699999809E+01 0.  1.
       -4    1    3    3    0  502 -0.56839961106E+03 -0.11852065545E+04 -0.74876073298E+03  0.15127580583E+04  0.12699999809E+01 0. -1.
</event>
<event>
 5   0  0.3399500E-08  0.3821217E+04  0.7818609E-02  0.8041617E-01
       -1   -1    0    0    0  501  0.00000000000E+00  0.00000000000E+00  0.25112846857E+04  0.25112846857E+04  0.50400001928E-02 0.  1.
        1   -1    0    0  501    0  0.00000000000E+00  0.00000000000E+00 -0.14536088861E+04  0.14536088861E+04  0.50400001928E-02 0. -1.
    10030    2    1    2    0    0  0.00000000000E+00  0.00000000000E+00  0.10576757996E+04  0.39648935718E+04  0.38212174682E+04 0.  0.
        4    1    3    3  502    0 -0.10011249613E+04 -0.15126859210E+04  0.11513580671E+04  0.21485103898E+04  0.12699999809E+01 0. -1.
       -4    1    3    3    0  502  0.10011249613E+04  0.15126859210E+04 -0.93682267546E+02  0.18163831820E+04  0.12699999809E+01 0.  1.
</event>
<event>
 5   0  0.3399500E-08  0.4022661E+04  0.7818609E-02  0.7999991E-01
        1   -1    0    0  501    0  0.00000000000E+00  0.00000000000E+00  0.22328185186E+04  0.22328185186E+04  0.50400001928E-02 0.  1.
       -1   -1    0    0    0  501  0.00000000000E+00  0.00000000000E+00 -0.18118130449E+04  0.18118130449E+04  0.50400001928E-02 0. -1.
    10030    2    1    2    0    0  0.00000000000E+00  0.00000000000E+00  0.42100547370E+03  0.40446315635E+04  0.40226606712E+04 0.  0.
        5    1    3    3  502    0  0.11385783367E+03 -0.20059150734E+04  0.30465574188E+03  0.20321161628E+04  0.46999998093E+01 0.  1.
       -5    1    3    3    0  502 -0.11385783367E+03  0.20059150734E+04  0.11634973183E+03  0.20125154007E+04  0.46999998093E+01 0. -1.
</event>
<event>
 5   0  0.3399500E-08  0.4003951E+04  0.7818609E-02  0.8003750E-01
       -1   -1    0    0    0  501  0.00000000000E+00  0.00000000000E+00  0.15885533143E+04  0.15885533143E+04  0.50400001928E-02 0. -1.
        1   -1    0    0  501    0  0.00000000000E+00  0.00000000000E+00 -0.25229913331E+04  0.25229913331E+04  0.50400001928E-02 0.  1.
    10030    2    1    2    0    0  0.00000000000E+00  0.00000000000E+00 -0.93443801873E+03  0.41115446474E+04  0.40039511706E+04 0.  0.
        1    1    3    3  502    0  0.17027199043E+04 -0.55038829218E+03 -0.13889609758E+04  0.22652582495E+04  0.50400001928E-02 0.  1.
       -1    1    3    3    0  502 -0.17027199043E+04  0.55038829218E+03  0.45452295706E+03  0.18462863979E+04  0.50400001928E-02 0. -1.
</event>
<event>
 5   0  0.3399500E-08  0.4169674E+04  0.7818609E-02  0.7971166E-01
       -1   -1    0    0    0  501  0.00000000000E+00  0.00000000000E+00  0.33597857592E+04  0.33597857592E+04  0.50400001928E-02 0.  1.
        1   -1    0    0  501    0  0.00000000000E+00  0.00000000000E+00 -0.12936974394E+04  0.12936974394E+04  0.50400001928E-02 0. -1.
    10030    2    1    2    0    0  0.00000000000E+00  0.00000000000E+00  0.20660883198E+04  0.46534831986E+04  0.41696744399E+04 0.  0.
        4    1    3    3  502    0  0.76258582746E+03  0.19401479954E+04  0.10008290889E+04  0.23124385109E+04  0.12699999809E+01 0.  1.
       -4    1    3    3    0  502 -0.76258582746E+03 -0.19401479954E+04  0.10652592309E+04  0.23410446878E+04  0.12699999809E+01 0. -1.
</event>
<event>
 5   0  0.3399500E-08  0.4003974E+04  0.7818609E-02  0.8003745E-01
        1   -1    0    0  501    0  0.00000000000E+00  0.00000000000E+00  0.12966700266E+04  0.12966700266E+04  0.50400001928E-02 0.  1.
       -1   -1    0    0    0  501  0.00000000000E+00  0.00000000000E+00 -0.30909579984E+04  0.30909579984E+04  0.50400001928E-02 0. -1.
    10030    2    1    2    0    0  0.00000000000E+00  0.00000000000E+00 -0.17942879719E+04  0.43876280250E+04  0.40039743206E+04 0.  0.
        1    1    3    3  502    0 -0.48045656187E+03 -0.14621150971E+04  0.50590288175E+03  0.16200483915E+04  0.50400001928E-02 0.  1.
       -1    1    3    3    0  502  0.48045656187E+03  0.14621150971E+04 -0.23001908536E+04  0.27675796335E+04  0.50400001928E-02 0. -1.
</event>
<event>
 5   0  0.1087688E-07  0.3992729E+04  0.7818609E-02  0.8006015E-01
       -2   -1    0    0    0  501  0.00000000000E+00  0.00000000000E+00  0.19877545390E+04  0.19877545390E+04  0.25500000920E-02 0.  1.
        2   -1    0    0  501    0  0.00000000000E+00  0.00000000000E+00 -0.20050120190E+04  0.20050120190E+04  0.25500000920E-02 0. -1.
    10030    2    1    2    0    0  0.00000000000E+00  0.00000000000E+00 -0.17257479938E+02  0.39927665580E+04  0.39927292628E+04 0.  0.
        2    1    3    3  502    0  0.50187050238E+03 -0.91197896589E+03  0.16948812595E+04  0.19890203918E+04  0.25500000920E-02 0.  1.
       -2    1    3    3    0  502 -0.50187050238E+03  0.91197896589E+03 -0.17121387394E+04  0.20037461662E+04  0.25500000920E-02 0. -1.
</event>
<event>
 5   0  0.3399500E-08  0.3943020E+04  0.7818609E-02  0.8016141E-01
        1   -1    0    0  501    0  0.00000000000E+00  0.00000000000E+00  0.26273988540E+04  0.26273988540E+04  0.50400001928E-02 0. -1.
       -1   -1    0    0    0  501  0.00000000000E+00  0.00000000000E+00 -0.14793534131E+04  0.14793534131E+04  0.50400001928E-02 0.  1.
    10030    2    1    2    0    0  0.00000000000E+00  0.00000000000E+00  0.11480454409E+04  0.41067522671E+04  0.39430198895E+04 0.  0.
        4    1    3    3  502    0  0.12819127394E+04 -0.44628890290E+03  0.20632120056E+04  0.24696800297E+04  0.12699999809E+01 0. -1.
       -4    1    3    3    0  502 -0.12819127394E+04  0.44628890290E+03 -0.91516656472E+03  0.16370722373E+04  0.12699999809E+01 0.  1.
</event>
<event>
 5   0  0.1087688E-07  0.3785355E+04  0.7818609E-02  0.8049305E-01
       -2   -1    0    0    0  501  0.00000000000E+00  0.00000000000E+00  0.21731073605E+04  0.21731073605E+04  0.25500000920E-02 0.  1.
        2   -1    0    0  501    0  0.00000000000E+00  0.00000000000E+00 -0.16484362629E+04  0.16484362629E+04  0.25500000920E-02 0. -1.
    10030    2    1    2    0    0  0.00000000000E+00  0.00000000000E+00  0.52467109762E+03  0.38215436235E+04  0.37853554530E+04 0.  0.
        2    1    3    3  502    0 -0.13049301676E+02  0.30203629563E+03 -0.16239032620E+04  0.16518044716E+04  0.25500000920E-02 0. -1.
       -2    1    3    3    0  502  0.13049301676E+02 -0.30203629563E+03  0.21485743596E+04  0.21697391518E+04  0.25500000920E-02 0.  1.
</event>
<event>
 5   0  0.3399500E-08  0.4013296E+04  0.7818609E-02  0.8001870E-01
        1   -1    0    0  501    0  0.00000000000E+00  0.00000000000E+00  0.23617430507E+04  0.23617430507E+04  0.50400001928E-02 0.  1.
       -1   -1    0    0    0  501  0.00000000000E+00  0.00000000000E+00 -0.17049428066E+04  0.17049428066E+04  0.50400001928E-02 0. -1.
    10030    2    1    2    0    0  0.00000000000E+00  0.00000000000E+00  0.65680024416E+03  0.40666858573E+04  0.40132963136E+04 0.  0.
        1    1    3    3  502    0  0.18297358430E+04 -0.70488788626E+03  0.76049597255E+03  0.21031296469E+04  0.50400001928E-02 0.  1.
       -1    1    3    3    0  502 -0.18297358430E+04  0.70488788626E+03 -0.10369572839E+03  0.19635562104E+04  0.50400001928E-02 0. -1.
</event>
<event>
 5   0  0.3399500E-08  0.3983262E+04  0.7818609E-02  0.8007932E-01
        1   -1    0    0  501    0  0.00000000000E+00  0.00000000000E+00  0.12683876281E+04  0.12683876281E+04  0.50400001928E-02 0. -1.
       -1   -1    0    0    0  501  0.00000000000E+00  0.00000000000E+00 -0.31272724320E+04  0.31272724320E+04  0.50400001928E-02 0.  1.
    10030    2    1    2    0    0  0.00000000000E+00  0.00000000000E+00 -0.18588848039E+04  0.43956600601E+04  0.39832618103E+04 0.  0.
        5    1    3    3  502    0 -0.45460380282E+03 -0.46210607373E+03  0.11487079166E+04  0.13189990935E+04  0.46999998093E+01 0. -1.
       -5    1    3    3    0  502  0.45460380282E+03  0.46210607373E+03 -0.30075927205E+04  0.30766609666E+04  0.46999998093E+01 0.  1.
</event>
<event>
 5   0  0.1087688E-07  0.3980575E+04  0.7818609E-02  0.8008477E-01
       -2   -1    0    0    0  501  0.00000000000E+00  0.00000000000E+00  0.18087187453E+04  0.18087187453E+04  0.25500000920E-02 0. -1.
        2   -1    0    0  501    0  0.00000000000E+00  0.00000000000E+00 -0.21900835899E+04  0.21900835899E+04  0.25500000920E-02 0.  1.
    10030    2    1    2    0    0  0.00000000000E+00  0.00000000000E+00 -0.38136484458E+03  0.39988023352E+04  0.39805754573E+04 0.  0.
        2    1    3    3  502    0 -0.91214424099E+03  0.10065152684E+04 -0.16520479352E+04  0.21387712552E+04  0.25500000920E-02 0.  1.
       -2    1    3    3    0  502  0.91214424099E+03 -0.10065152684E+04  0.12706830906E+04  0.18600310800E+04  0.25500000920E-02 0. -1.
</event>
<event>
 5   0  0.1073271E-07  0.3985426E+04  0.7818609E-02  0.8007493E-01
       -2   -1    0    0    0  501  0.00000000000E+00  0.00000000000E+00  0.20177470893E+04  0.20177470893E+04  0.25500000920E-02 0. -1.
        2   -1    0    0  501    0  0.00000000000E+00  0.00000000000E+00 -0.19679896456E+04  0.19679896456E+04  0.25500000920E-02 0.  1.
    10030    2    1    2    0    0  0.00000000000E+00  0.00000000000E+00  0.49757443777E+02  0.39857367349E+04  0.39854261399E+04 0.  0.
        1    1    3    3  502    0 -0.17366564813E+03  0.69471991735E+03  0.18846230266E+04  0.20160851850E+04  0.50400001928E-02 0. -1.
       -1    1    3    3    0  502  0.17366564813E+03 -0.69471991735E+03 -0.18348655828E+04  0.19696515499E+04  0.50400001928E-02 0.  1.
</event>
<event>
 5   0  0.1101474E-07  0.3990524E+04  0.7818609E-02  0.8006461E-01
       -2   -1    0    0    0  501  0.00000000000E+00  0.00000000000E+00  0.18709401757E+04  0.18709401757E+04  0.25500000920E-02 0.  1.
        2   -1    0    0  501    0  0.00000000000E+00  0.00000000000E+00 -0.21278453568E+04  0.21278453568E+04  0.25500000920E-02 0. -1.
    10030    2    1    2    0    0  0.00000000000E+00  0.00000000000E+00 -0.25690518110E+03  0.39987855325E+04  0.39905244596E+04 0.  0.
        5    1    3    3  502    0  0.11408209049E+04 -0.16366668471E+04 -0.15849080802E+03  0.20013225956E+04  0.46999998093E+01 0.  1.
       -5    1    3    3    0  502 -0.11408209049E+04  0.16366668471E+04 -0.98414373084E+02  0.19974629369E+04  0.46999998093E+01 0. -1.
</event>
<event>
 5   0  0.3399500E-08  0.3988434E+04  0.7818609E-02  0.8006884E-01
       -1   -1    0    0    0  501  0.00000000000E+00  0.00000000000E+00  0.14752840522E+04  0.14752840522E+04  0.50400001928E-02 0.  1.
        1   -1    0    0  501    0  0.00000000000E+00  0.00000000000E+00 -0.26956854895E+04  0.26956854895E+04  0.50400001928E-02 0. -1.
    10030    2    1    2    0    0  0.00000000000E+00  0.00000000000E+00 -0.12204014373E+04  0.41709695417E+04  0.39884341852E+04 0.  0.
        4    1    3    3  502    0  0.89976345905E+03 -0.50469657600E+03  0.11745417340E+04  0.15632795060E+04  0.12699999809E+01 0.  1.
       -4    1    3    3    0  502 -0.89976345905E+03  0.50469657600E+03 -0.23949431712E+04  0.26076900357E+04  0.12699999809E+01 0. -1.
</event>
<event>
 5   0  0.3399500E-08  0.3953271E+04  0.7818609E-02  0.8014040E-01
        1   -1    0    0  501    0  0.00000000000E+00  0.00000000000E+00  0.17486726944E+04  0.17486726944E+04  0.50400001928E-02 0.  1.
       -1   -1    0    0    0  501  0.00000000000E+00  0.00000000000E+00 -0.22343158273E+04  0.22343158273E+04  0.50400001928E-02 0. -1.
    10030    2    1    2    0    0  0.00000000000E+00  0.00000000000E+00 -0.48564313291E+03  0.39829885218E+04  0.39532705842E+04 0.  0.
        1    1    3    3  502    0 -0.16233670560E+04  0.11270012424E+04 -0.28355666500E+03  0.19964610643E+04  0.50400001928E-02 0.  1.
       -1    1    3    3    0  502  0.16233670560E+04 -0.11270012424E+04 -0.20208646791E+03  0.19865274575E+04  0.50400001928E-02 0. -1.
</event>
<event>
 5   0  0.3399500E-08  0.3992018E+04  0.7818609E-02  0.8006159E-01
       -1   -1    0    0    0  501  0.00000000000E+00  0.00000000000E+00  0.30099529687E+04  0.30099529687E+04  0.50400001928E-02 0.  1.
        1   -1    0    0  501    0  0.00000000000E+00  0.00000000000E+00 -0.13236257664E+04  0.13236257665E+04  0.50400001928E-02 0. -1.
    10030    2    1    2    0    0  0.00000000000E+00  0.00000000000E+00  0.16863272023E+04  0.43335787352E+04  0.39920176879E+04 0.  0.
        5    1    3    3  502    0  0.32201141121E+03 -0.13472974527E+04 -0.71684740825E+03  0.15597416683E+04  0.46999998093E+01 0. -1.
       -5    1    3    3    0  502 -0.32201141121E+03  0.13472974527E+04  0.24031746105E+04  0.27738370669E+04  0.46999998093E+01 0.  1.
</event>
<event>
 5   0  0.1095903E-07  0.4019194E+04  0.7818609E-02  0.8000686E-01
       -2   -1    0    0    0  501  0.00000000000E+00  0.00000000000E+00  0.19375312355E+04  0.19375312355E+04  0.25500000920E-02 0. -1.
        2   -1    0    0  501    0  0.00000000000E+00  0.00000000000E+00 -0.20843431159E+04  0.20843431159E+04  0.25500000920E-02 0.  1.
    10030    2    1    2    0    0  0.00000000000E+00  0.00000000000E+00 -0.14681188039E+03  0.40218743513E+04  0.40191938955E+04 0.  0.
        3    1    3    3  502    0 -0.13434184454E+04  0.32131725676E+03 -0.15339895906E+04  0.20642533694E+04  0.10100000352E+00 0.  1.
       -3    1    3    3    0  502  0.13434184454E+04 -0.32131725676E+03  0.13871777102E+04  0.19576209819E+04  0.10100000352E+00 0. -1.
</event>
<event>
 5   0  0.1087688E-07  0.4096582E+04  0.7818609E-02  0.7985341E-01
        2   -1    0    0  501    0  0.00000000000E+00  0.00000000000E+00  0.12853612539E+04  0.12853612539E+04  0.25500000920E-02 0.  1.
       -2   -1    0    0    0  501  0.00000000000E+00  0.00000000000E+00 -0.32640605751E+04  0.32640605751E+04  0.25500000920E-02 0. -1.
    10030    2    1    2    0    0  0.00000000000E+00  0.00000000000E+00 -0.19786993212E+04  0.45494218289E+04  0.40965824749E+04 0.  0.
        2    1    3    3  502    0  0.50458643539E+03 -0.12870650385E+04 -0.26678294751E+04  0.30047392553E+04  0.25500000920E-02 0. -1.
       -2    1    3    3    0  502 -0.50458643539E+03  0.12870650385E+04  0.68913015397E+03  0.15446825736E+04  0.25500000920E-02 0.  1.
</event>
<event>
 5   0  0.3399500E-08  0.3982930E+04  0.7818609E-02  0.8007999E-01
       -1   -1    0    0    0  501  0.00000000000E+00  0.00000000000E+00  0.13996887738E+04  0.13996887738E+04  0.50400001928E-02 0.  1.
        1   -1    0    0  501    0  0.00000000000E+00  0.00000000000E+00 -0.28334394178E+04  0.28334394178E+04  0.50400001928E-02 0. -1.
    10030    2    1    2    0    0  0.00000000000E+00  0.00000000000E+00 -0.14337506441E+04  0.42331281916E+04  0.39829302501E+04 0.  0.
        2    1    3    3  502    0 -0.11076841300E+04 -0.16149871792E+04 -0.33251484555E+03  0.19863820990E+04  0.25500000920E-02 0.  1.
       -2    1    3    3    0  502  0.11076841300E+04  0.16149871792E+04 -0.11012357985E+04  0.22467460926E+04  0.25500000920E-02 0. -1.
</event>
<event>
 5   0  0.3399500E-08  0.4078572E+04  0.7818609E-02  0.7988881E-01
       -1   -1    0    0    0  501  0.00000000000E+00  0.00000000000E+00  0.14808861898E+04  0.14808861898E+04  0.50400001928E-02 0.  1.
        1   -1    0    0  501    0  0.00000000000E+00  0.00000000000E+00 -0.28082419379E+04  0.28082419379E+04  0.50400001928E-02 0. -1.
    10030    2    1    2    0    0  0.00000000000E+00  0.00000000000E+00 -0.13273557481E+04  0.42891281277E+04  0.40785716634E+04 0.  0.
        2    1    3    3  502    0 -0.39640036861E+02 -0.96163250830E+03 -0.25543752131E+04  0.27296778460E+04  0.25500000920E-02 0. -1.
       -2    1    3    3    0  502  0.39640036861E+02  0.96163250830E+03  0.12270194650E+04  0.15594502817E+04  0.25500000920E-02 0.  1.
</event>
<event>
 5   0  0.1095109E-07  0.4071448E+04  0.7818609E-02  0.7990286E-01
        2   -1    0    0  501    0  0.00000000000E+00  0.00000000000E+00  0.21635737072E+04  0.21635737072E+04  0.25500000920E-02 0.  1.
       -2   -1    0    0    0  501  0.00000000000E+00  0.00000000000E+00 -0.19154288583E+04  0.19154288583E+04  0.25500000920E-02 0. -1.
    10030    2    1    2    0    0  0.00000000000E+00  0.00000000000E+00  0.24814484890E+03  0.40790025655E+04  0.40714476618E+04 0.  0.
        4    1    3    3  502    0  0.66869285554E+03  0.26346113326E+03 -0.17840898159E+04  0.19234188280E+04  0.12699999809E+01 0. -1.
       -4    1    3    3    0  502 -0.66869285554E+03 -0.26346113326E+03  0.20322346648E+04  0.21555837375E+04  0.12699999809E+01 0.  1.
</event>
<event>
 5   0  0.3399500E-08  0.4039747E+04  0.7818609E-02  0.7996576E-01
       -1   -1    0    0    0  501  0.00000000000E+00  0.00000000000E+00  0.20522391458E+04  0.20522391458E+04  0.50400001928E-02 0. -1.
        1   -1    0    0  501    0  0.00000000000E+00  0.00000000000E+00 -0.19880183330E+04  0.19880183330E+04  0.50400001928E-02 0.  1.
    10030    2    1    2    0    0  0.00000000000E+00  0.00000000000E+00  0.64220812846E+02  0.40402574788E+04  0.40397470443E+04 0.  0.
        3    1    3    3  502    0 -0.16020010963E+04  0.43182540587E+03 -0.11199936280E+04  0.20018157834E+04  0.10100000352E+00 0.  1.
       -3    1    3    3    0  502  0.16020010963E+04 -0.43182540587E+03  0.11842144409E+04  0.20384416954E+04  0.10100000352E+00 0. -1.
</event>
<event>
 5   0  0.1073271E-07  0.4000440E+04  0.7818609E-02  0.8004458E-01
       -2   -1    0    0    0  501  0.00000000000E+00  0.00000000000E+00  0.18291504249E+04  0.18291504249E+04  0.25500000920E-02 0. -1.
        2   -1    0    0  501    0  0.00000000000E+00  0.00000000000E+00 -0.21872887855E+04  0.21872887855E+04  0.25500000920E-02 0.  1.
    10030    2    1    2    0    0  0.00000000000E+00  0.00000000000E+00 -0.35813836056E+03  0.40164392104E+04  0.40004400815E+04 0.  0.
        1    1    3    3  502    0 -0.11550606843E+04  0.11493690288E+04  0.98559855889E+03  0.19043683646E+04  0.50400001928E-02 0. -1.
       -1    1    3    3    0  502  0.11550606843E+04 -0.11493690288E+04 -0.13437369195E+04  0.21120708458E+04  0.50400001928E-02 0.  1.
</event>
<event>
 5   0  0.3399500E-08  0.4013345E+04  0.7818609E-02  0.8001860E-01
        1   -1    0    0  501    0  0.00000000000E+00  0.00000000000E+00  0.17192547545E+04  0.17192547545E+04  0.50400001928E-02 0.  1.
       -1   -1    0    0    0  501  0.00000000000E+00  0.00000000000E+00 -0.23421394846E+04  0.23421394846E+04  0.50400001928E-02 0. -1.
    10030    2    1    2    0    0  0.00000000000E+00  0.00000000000E+00 -0.62288473014E+03  0.40613942392E+04  0.40133449614E+04 0.  0.
        2    1    3    3  502    0  0.14708735978E+04 -0.67803181378E+03 -0.15103363216E+04  0.22145681487E+04  0.25500000920E-02 0. -1.
       -2    1    3    3    0  502 -0.14708735978E+04  0.67803181378E+03  0.88745159143E+03  0.18468260904E+04  0.25500000920E-02 0.  1.
</event>
<event>
 5   0  0.3399500E-08  0.3966041E+04  0.7818609E-02  0.8011432E-01
        1   -1    0    0  501    0  0.00000000000E+00  0.00000000000E+00  0.27915282602E+04  0.27915282602E+04  0.50400001928E-02 0. -1.
       -1   -1    0    0    0  501  0.00000000000E+00  0.00000000000E+00 -0.14086801803E+04  0.14086801804E+04  0.50400001928E-02 0.  1.
    10030    2    1    2    0    0  0.00000000000E+00  0.00000000000E+00  0.13828480799E+04  0.42002084406E+04  0.39660411158E+04 0.  0.
        4    1    3    3  502    0 -0.15393901513E+04  0.10251778744E+04  0.14489598707E+04  0.23495101686E+04  0.12699999809E+01 0. -1.
       -4    1    3    3    0  502  0.15393901513E+04 -0.10251778744E+04 -0.66111790870E+02  0.18506982720E+04  0.12699999809E+01 0.  1.
</event>
<event>
 5   0  0.1095109E-07  0.4035178E+04  0.7818609E-02  0.7997487E-01
        2   -1    0    0  501    0  0.00000000000E+00  0.00000000000E+00  0.21074741926E+04  0.21074741926E+04  0.25500000920E-02 0. -1.
       -2   -1    0    0    0  501  0.00000000000E+00  0.00000000000E+00 -0.19315378733E+04  0.19315378733E+04  0.25500000920E-02 0.  1.
    10030    2    1    2    0    0  0.00000000000E+00  0.00000000000E+00  0.17593631928E+03  0.40390120660E+04  0.40351784199E+04 0.  0.
        4    1    3    3  502    0  0.12652269722E+04 -0.89624924589E+03 -0.12042279717E+04  0.19632189441E+04  0.12699999809E+01 0.  1.
       -4    1    3    3    0  502 -0.12652269722E+04  0.89624924589E+03  0.13801642909E+04  0.20757931219E+04  0.12699999809E+01 0. -1.
</event>
<event>
 5   0  0.1087688E-07  0.4002287E+04  0.7818609E-02  0.8004085E-01
        2   -1    0    0  501    0  0.00000000000E+00  0.00000000000E+00  0.26223460901E+04  0.26223460901E+04  0.25500000920E-02 0.  1.
       -2   -1    0    0    0  501  0.00000000000E+00  0.00000000000E+00 -0.15270963138E+04  0.15270963138E+04  0.25500000920E-02 0. -1.
    10030    2    1    2    0    0  0.00000000000E+00  0.00000000000E+00  0.10952497763E+04  0.41494424038E+04  0.40022868701E+04 0.  0.
        2    1    3    3  502    0 -0.17306818702E+04  0.98547411489E+03  0.75014278350E+03  0.21281760178E+04  0.25500000920E-02 0.  1.
       -2    1    3    3    0  502  0.17306818702E+04 -0.98547411489E+03  0.34510699277E+03  0.20212663861E+04  0.25500000920E-02 0. -1.
</event>
<event>
 5   0  0.3399500E-08  0.3981888E+04  0.7818609E-02  0.8008210E-01
        1   -1    0    0  501    0  0.00000000000E+00  0.00000000000E+00  0.22358836277E+04  0.22358836277E+04  0.50400001928E-02 0. -1.
       -1   -1    0    0    0  501  0.00000000000E+00  0.00000000000E+00 -0.17728374630E+04  0.17728374630E+04  0.50400001928E-02 0.  1.
    10030    2    1    2    0    0  0.00000000000E+00  0.00000000000E+00  0.46304616479E+03  0.40087210907E+04  0.39818881240E+04 0.  0.
        5    1    3    3  502    0  0.57379416147E+03 -0.19060516510E+04  0.27133106777E+03  0.20089587537E+04  0.46999998093E+01 0.  1.
       -5    1    3    3    0  502 -0.57379416147E+03  0.19060516510E+04  0.19171509702E+03  0.19997623370E+04  0.46999998093E+01 0. -1.
</event>
<event>
 5   0  0.1101474E-07  0.3994400E+04  0.7818609E-02  0.8005677E-01
       -2   -1    0    0    0  501  0.00000000000E+00  0.00000000000E+00  0.16290252166E+04  0.16290252166E+04  0.25500000920E-02 0. -1.
        2   -1    0    0  501    0  0.00000000000E+00  0.00000000000E+00 -0.24485852340E+04  0.24485852340E+04  0.25500000920E-02 0.  1.
    10030    2    1    2    0    0  0.00000000000E+00  0.00000000000E+00 -0.81956001740E+03  0.40776104505E+04  0.39943996250E+04 0.  0.
        5    1    3    3  502    0 -0.60473414679E+03  0.14001047325E+04 -0.17261340406E+04  0.23033795750E+04  0.46999998093E+01 0.  1.
       -5    1    3    3    0  502  0.60473414679E+03 -0.14001047325E+04  0.90657402320E+03  0.17742308756E+04  0.46999998093E+01 0. -1.
</event>
<event>
 5   0  0.1087688E-07  0.4008989E+04  0.7818609E-02  0.8002736E-01
       -2   -1    0    0    0  501  0.00000000000E+00  0.00000000000E+00  0.16264894868E+04  0.16264894868E+04  0.25500000920E-02 0. -1.
        2   -1    0    0  501    0  0.00000000000E+00  0.00000000000E+00 -0.24703501036E+04  0.24703501036E+04  0.25500000920E-02 0.  1.
    10030    2    1    2    0    0  0.00000000000E+00  0.00000000000E+00 -0.84386061687E+03  0.40968395904E+04  0.40089891355E+04 0.  0.
        2    1    3    3  502    0 -0.91442050747E+03  0.17666343732E+04 -0.67398602102E+03  0.21003378370E+04  0.25500000920E-02 0.  1.
       -2    1    3    3    0  502  0.91442050747E+03 -0.17666343732E+04 -0.16987459585E+03  0.19965017534E+04  0.25500000920E-02 0. -1.
</event>
<event>
 5   0  0.3399500E-08  0.3969980E+04  0.7818609E-02  0.8010630E-01
        4   -1    0    0  501    0  0.00000000000E+00  0.00000000000E+00  0.26624551068E+04  0.26624554097E+04  0.12699999809E+01 0.  1.
       -4   -1    0    0    0  501  0.00000000000E+00  0.00000000000E+00 -0.14799061580E+04  0.14799067030E+04  0.12699999809E+01 0. -1.
    10030    2    1    2    0    0  0.00000000000E+00  0.00000000000E+00  0.11825489487E+04  0.41423621126E+04  0.39699800826E+04 0.  0.
        5    1    3    3  502    0 -0.19729014482E+04  0.14099663412E+03  0.76569508094E+03  0.21209741211E+04  0.46999998093E+01 0. -1.
       -5    1    3    3    0  502  0.19729014482E+04 -0.14099663412E+03  0.41685386780E+03  0.20213879916E+04  0.46999998093E+01 0.  1.
</event>
<event>
 5   0  0.3399500E-08  0.4003956E+04  0.7818609E-02  0.8003749E-01
       -1   -1    0    0    0  501  0.00000000000E+00  0.00000000000E+00  0.15681984716E+04  0.15681984716E+04  0.50400001928E-02 0. -1.
        1   -1    0    0  501    0  0.00000000000E+00  0.00000000000E+00 -0.25557447882E+04  0.25557447882E+04  0.50400001928E-02 0.  1.
    10030    2    1    2    0    0  0.00000000000E+00  0.00000000000E+00 -0.98754631662E+03  0.41239432598E+04  0.40039555795E+04 0.  0.
        3    1    3    3  502    0  0.25301692467E+03  0.19842734223E+04 -0.41037453839E+03  0.20420004531E+04  0.10100000352E+00 0.  1.
       -3    1    3    3    0  502 -0.25301692467E+03 -0.19842734223E+04 -0.57717177823E+03  0.20819428067E+04  0.10100000352E+00 0. -1.
</event>
<event>
 5   0  0.1073271E-07  0.3819175E+04  0.7818609E-02  0.8042053E-01
       -2   -1    0    0    0  501  0.00000000000E+00  0.00000000000E+00  0.13769510660E+04  0.13769510660E+04  0.25500000920E-02 0. -1.
        2   -1    0    0  501    0  0.00000000000E+00  0.00000000000E+00 -0.26482593180E+04  0.26482593180E+04  0.25500000920E-02 0.  1.
    10030    2    1    2    0    0  0.00000000000E+00  0.00000000000E+00 -0.12713082520E+04  0.40252103839E+04  0.38191745133E+04 0.  0.
        1    1    3    3  502    0 -0.38557117041E+03  0.88927512157E+03  0.10984176470E+04  0.14649220787E+04  0.50400001928E-02 0. -1.
       -1    1    3    3    0  502  0.38557117041E+03 -0.88927512157E+03 -0.23697258991E+04  0.25602883052E+04  0.50400001928E-02 0.  1.
</event>
<event>
 5   0  0.3399500E-08  0.3860752E+04  0.7818609E-02  0.8033242E-01
        1   -1    0    0  501    0  0.00000000000E+00  0.00000000000E+00  0.26449972717E+04  0.26449972717E+04  0.50400001928E-02 0.  1.
       -1   -1    0    0    0  501  0.00000000000E+00  0.00000000000E+00 -0.14088303524E+04  0.14088303524E+04  0.50400001928E-02 0. -1.
    10030    2    1    2    0    0  0.00000000000E+00  0.00000000000E+00  0.12361669194E+04  0.40538276241E+04  0.38607524854E+04 0.  0.
        3    1    3    3  502    0  0.92723636003E+02  0.39342202888E+03 -0.13638982224E+04  0.14225318754E+04  0.10100000352E+00 0. -1.
       -3    1    3    3    0  502 -0.92723636003E+02 -0.39342202888E+03  0.26000651417E+04  0.26312957487E+04  0.10100000352E+00 0.  1.
</event>
<event>
 5   0  0.1087688E-07  0.4006244E+04  0.7818609E-02  0.8003288E-01
        2   -1    0    0  501    0  0.00000000000E+00  0.00000000000E+00  0.26757444337E+04  0.26757444337E+04  0.25500000920E-02 0.  1.
       -2   -1    0    0    0  501  0.00000000000E+00  0.00000000000E+00 -0.14995818722E+04  0.14995818722E+04  0.25500000920E-02 0. -1.
    10030    2    1    2    0    0  0.00000000000E+00  0.00000000000E+00  0.11761625615E+04  0.41753263059E+04  0.40062440501E+04 0.  0.
        2    1    3    3  502    0 -0.12282616821E+04 -0.96426463261E+03  0.18956494030E+04  0.24559966817E+04  0.25500000920E-02 0.  1.
       -2    1    3    3    0  502  0.12282616821E+04  0.96426463261E+03 -0.71948684148E+03  0.17193296242E+04  0.25500000920E-02 0. -1.
</event>
<event>
 5   0  0.1095903E-07  0.3987821E+04  0.7818609E-02  0.8007008E-01
        2   -1    0    0  501    0  0.00000000000E+00  0.00000000000E+00  0.16542623520E+04  0.16542623520E+04  0.25500000920E-02 0.  1.
       -2   -1    0    0    0  501  0.00000000000E+00  0.00000000000E+00 -0.24032940756E+04  0.24032940756E+04  0.25500000920E-02 0. -1.
    10030    2    1    2    0    0  0.00000000000E+00  0.00000000000E+00 -0.74903172356E+03  0.40575564276E+04  0.39878209138E+04 0.  0.
        3    1    3    3  502    0  0.24942365595E+03  0.13735579909E+04 -0.18230706462E+04  0.22961838571E+04  0.10100000352E+00 0. -1.
       -3    1    3    3    0  502 -0.24942365595E+03 -0.13735579909E+04  0.10740389227E+04  0.17613725705E+04  0.10100000352E+00 0.  1.
</event>
<event>
 5   0  0.1073271E-07  0.4005113E+04  0.7818609E-02  0.8003516E-01
       -2   -1    0    0    0  501  0.00000000000E+00  0.00000000000E+00  0.25884807253E+04  0.25884807253E+04  0.25500000920E-02 0. -1.
        2   -1    0    0  501    0  0.00000000000E+00  0.00000000000E+00 -0.15492614490E+04  0.15492614490E+04  0.25500000920E-02 0.  1.
    10030    2    1    2    0    0  0.00000000000E+00  0.00000000000E+00  0.10392192763E+04  0.41377421743E+04  0.40051134312E+04 0.  0.
        1    1    3    3  502    0  0.12990437125E+03 -0.11286078152E+04 -0.11841225699E+04  0.16409683137E+04  0.50400001928E-02 0.  1.
       -1    1    3    3    0  502 -0.12990437125E+03  0.11286078152E+04  0.22233418461E+04  0.24967738606E+04  0.50400001928E-02 0. -1.
</event>
<event>
 5   0  0.1101474E-07  0.3996367E+04  0.7818609E-02  0.8005280E-01
        2   -1    0    0  501    0  0.00000000000E+00  0.00000000000E+00  0.24625351806E+04  0.24625351806E+04  0.25500000920E-02 0. -1.
       -2   -1    0    0    0  501  0.00000000000E+00  0.00000000000E+00 -0.16213931509E+04  0.16213931509E+04  0.25500000920E-02 0.  1.
    10030    2    1    2    0    0  0.00000000000E+00  0.00000000000E+00  0.84114202972E+03  0.40839283315E+04  0.39963671881E+04 0.  0.
        5    1    3    3  502    0  0.15344110108E+03  0.19690802057E+04  0.73035404486E+03  0.21057683037E+04  0.46999998093E+01 0.  1.
       -5    1    3    3    0  502 -0.15344110108E+03 -0.19690802057E+04  0.11078798486E+03  0.19781600278E+04  0.46999998093E+01 0. -1.
</event>
<event>
 5   0  0.3399500E-08  0.4011199E+04  0.7818609E-02  0.8002291E-01
        1   -1    0    0  501    0  0.00000000000E+00  0.00000000000E+00  0.21790563396E+04  0.21790563397E+04  0.50400001928E-02 0. -1.
       -1   -1    0    0    0  501  0.00000000000E+00  0.00000000000E+00 -0.18459497342E+04  0.18459497343E+04  0.50400001928E-02 0.  1.
    10030    2    1    2    0    0  0.00000000000E+00  0.00000000000E+00  0.33310660540E+03  0.40250060739E+04  0.40111985596E+04 0.  0.
        4    1    3    3  502    0 -0.11007458290E+04 -0.92097894711E+03 -0.12391912982E+04  0.18961646257E+04  0.12699999809E+01 0.  1.
       -4    1    3    3    0  502  0.11007458290E+04  0.92097894711E+03  0.15722979036E+04  0.21288414482E+04  0.12699999809E+01 0. -1.
</event>
<event>
 5   0  0.3399500E-08  0.3965684E+04  0.7818609E-02  0.8011505E-01
        1   -1    0    0  501    0  0.00000000000E+00  0.00000000000E+00  0.18772430869E+04  0.18772430869E+04  0.50400001928E-02 0. -1.
       -1   -1    0    0    0  501  0.00000000000E+00  0.00000000000E+00 -0.20943806979E+04  0.20943806979E+04  0.50400001928E-02 0.  1.
    10030    2    1    2    0    0  0.00000000000E+00  0.00000000000E+00 -0.21713761101E+03  0.39716237848E+04  0.39656836417E+04 0.  0.
        5    1    3    3  502    0  0.57820313448E+03 -0.17557827393E+04 -0.82696307496E+03  0.20250881240E+04  0.46999998093E+01 0.  1.
       -5    1    3    3    0  502 -0.57820313448E+03  0.17557827393E+04  0.60982546395E+03  0.19465356608E+04  0.46999998093E+01 0. -1.
</event>
<event>
 5   0  0.1095109E-07  0.3968873E+04  0.7818609E-02  0.8010855E-01
       -2   -1    0    0    0  501  0.00000000000E+00  0.00000000000E+00  0.18483547447E+04  0.18483547447E+04  0.25500000920E-02 0.  1.
        2   -1    0    0  501    0  0.00000000000E+00  0.00000000000E+00 -0.21305367697E+04  0.21305367697E+04  0.25500000920E-02 0. -1.
    10030    2    1    2    0    0  0.00000000000E+00  0.00000000000E+00 -0.28218202498E+03  0.39788915145E+04  0.39688727604E+04 0.  0.
        4    1    3    3  502    0  0.75053244761E+03  0.90143215855E+03 -0.17457899842E+04  0.21032506206E+04  0.12699999809E+01 0. -1.
       -4    1    3    3    0  502 -0.75053244761E+03 -0.90143215855E+03  0.14636079592E+04  0.18756408938E+04  0.12699999809E+01 0.  1.
</event>
<event>
 5   0  0.3399500E-08  0.3985663E+04  0.7818609E-02  0.8007445E-01
        1   -1    0    0  501    0  0.00000000000E+00  0.00000000000E+00  0.17911989391E+04  0.17911989391E+04  0.50400001928E-02 0.  1.
       -1   -1    0    0    0  501  0.00000000000E+00  0.00000000000E+00 -0.22171612188E+04  0.22171612188E+04  0.50400001928E-02 0. -1.
    10030    2    1    2    0    0  0.00000000000E+00  0.00000000000E+00 -0.42596227971E+03  0.40083601578E+04  0.39856627167E+04 0.  0.
        4    1    3    3  502    0  0.18037829956E+04  0.55562908807E+03 -0.85616869356E+03  0.20725306327E+04  0.12699999809E+01 0. -1.
       -4    1    3    3    0  502 -0.18037829956E+04 -0.55562908807E+03  0.43020641385E+03  0.19358295251E+04  0.12699999809E+01 0.  1.
</event>
<event>
 5   0  0.3399500E-08  0.4011775E+04  0.7818609E-02  0.8002175E-01
        1   -1    0    0  501    0  0.00000000000E+00  0.00000000000E+00  0.21041827030E+04  0.21041827030E+04  0.50400001928E-02 0. -1.
       -1   -1    0    0    0  501  0.00000000000E+00  0.00000000000E+00 -0.19121845047E+04  0.19121845047E+04  0.50400001928E-02 0.  1.
    10030    2    1    2    0    0  0.00000000000E+00  0.00000000000E+00  0.19199819834E+03  0.40163672077E+04  0.40117754472E+04 0.  0.
        3    1    3    3  502    0 -0.11507141703E+04  0.12212483172E+04 -0.10043471416E+04  0.19555827123E+04  0.10100000352E+00 0.  1.
       -3    1    3    3    0  502  0.11507141703E+04 -0.12212483172E+04  0.11963453399E+04  0.20607844954E+04  0.10100000352E+00 0. -1.
</event>
<event>
 5   0  0.1073271E-07  0.4001668E+04  0.7818609E-02  0.8004210E-01
        2   -1    0    0  501    0  0.00000000000E+00  0.00000000000E+00  0.25434103682E+04  0.25434103682E+04  0.25500000920E-02 0. -1.
       -2   -1    0    0    0  501  0.00000000000E+00  0.00000000000E+00 -0.15740031975E+04  0.15740031975E+04  0.25500000920E-02 0.  1.
    10030    2    1    2    0    0  0.00000000000E+00  0.00000000000E+00  0.96940717075E+03  0.41174135657E+04  0.40016676784E+04 0.  0.
        1    1    3    3  502    0 -0.55014552235E+03 -0.18988125549E+04  0.16725607809E+03  0.19839666857E+04  0.50400001928E-02 0. -1.
       -1    1    3    3    0  502  0.55014552235E+03  0.18988125549E+04  0.80215109267E+03  0.21334468800E+04  0.50400001928E-02 0.  1.
</event>
<event>
 5   0  0.3399500E-08  0.3983949E+04  0.7818609E-02  0.8007792E-01
        1   -1    0    0  501    0  0.00000000000E+00  0.00000000000E+00  0.20252086826E+04  0.20252086826E+04  0.50400001928E-02 0.  1.
       -1   -1    0    0    0  501  0.00000000000E+00  0.00000000000E+00 -0.19592855833E+04  0.19592855833E+04  0.50400001928E-02 0. -1.
    10030    2    1    2    0    0  0.00000000000E+00  0.00000000000E+00  0.65923099341E+02  0.39844942659E+04  0.39839488827E+04 0.  0.
        5    1    3    3  502    0  0.17768728505E+04  0.21348603455E+03  0.90777362029E+03  0.20067208200E+04  0.46999998093E+01 0. -1.
       -5    1    3    3    0  502 -0.17768728505E+04 -0.21348603455E+03 -0.84185052095E+03  0.19777734459E+04  0.46999998093E+01 0.  1.
</event>
<event>
 5   0  0.1095109E-07  0.4007126E+04  0.7818609E-02  0.8003110E-01
        2   -1    0    0  501    0  0.00000000000E+00  0.00000000000E+00  0.25443250613E+04  0.25443250613E+04  0.25500000920E-02 0.  1.
       -2   -1    0    0    0  501  0.00000000000E+00  0.00000000000E+00 -0.15777329616E+04  0.15777329617E+04  0.25500000920E-02 0. -1.
    10030    2    1    2    0    0  0.00000000000E+00  0.00000000000E+00  0.96659209966E+03  0.41220580230E+04  0.40071264090E+04 0.  0.
        4    1    3    3  502    0  0.94723124065E+03  0.12003874761E+04  0.18150662989E+04  0.23733192787E+04  0.12699999809E+01 0.  1.
       -4    1    3    3    0  502 -0.94723124065E+03 -0.12003874761E+04 -0.84847419928E+03  0.17487387443E+04  0.12699999809E+01 0. -1.
</event>
<event>
 5   0  0.1073271E-07  0.3825629E+04  0.7818609E-02  0.8040677E-01
       -2   -1    0    0    0  501  0.00000000000E+00  0.00000000000E+00  0.18333837175E+04  0.18333837175E+04  0.25500000920E-02 0. -1.
        2   -1    0    0  501    0  0.00000000000E+00  0.00000000000E+00 -0.19956870147E+04  0.19956870147E+04  0.25500000920E-02 0.  1.
    10030    2    1    2    0    0  0.00000000000E+00  0.00000000000E+00 -0.16230329719E+03  0.38290707322E+04  0.38256294008E+04 0.  0.
        1    1    3    3  502    0  0.11474038145E+04  0.11031477180E+04  0.98064648100E+03  0.18695287968E+04  0.50400001928E-02 0. -1.
       -1    1    3    3    0  502 -0.11474038145E+04 -0.11031477180E+04 -0.11429497782E+04  0.19595419354E+04  0.50400001928E-02 0.  1.
</event>
<event>
 5   0  0.1095903E-07  0.3950896E+04  0.7818609E-02  0.8014526E-01
        2   -1    0    0  501    0  0.00000000000E+00  0.00000000000E+00  0.22626019038E+04  0.22626019038E+04  0.25500000920E-02 0.  1.
       -2   -1    0    0    0  501  0.00000000000E+00  0.00000000000E+00 -0.17247373290E+04  0.17247373290E+04  0.25500000920E-02 0. -1.
    10030    2    1    2    0    0  0.00000000000E+00  0.00000000000E+00  0.53786457478E+03  0.39873392329E+04  0.39508955766E+04 0.  0.
        3    1    3    3  502    0 -0.88353764390E+03 -0.16795366936E+04  0.82254640666E+03  0.20683483446E+04  0.10100000352E+00 0. -1.
       -3    1    3    3    0  502  0.88353764390E+03  0.16795366936E+04 -0.28468183188E+03  0.19189908882E+04  0.10100000352E+00 0.  1.
</event>
<event>
 5   0  0.1087688E-07  0.4002750E+04  0.7818609E-02  0.8003992E-01
       -2   -1    0    0    0  501  0.00000000000E+00  0.00000000000E+00  0.17518046205E+04  0.17518046205E+04  0.25500000920E-02 0. -1.
        2   -1    0    0  501    0  0.00000000000E+00  0.00000000000E+00 -0.22865006698E+04  0.22865006698E+04  0.25500000920E-02 0.  1.
    10030    2    1    2    0    0  0.00000000000E+00  0.00000000000E+00 -0.53469604939E+03  0.40383052903E+04  0.40027502736E+04 0.  0.
        2    1    3    3  502    0 -0.16586106189E+04 -0.13009412063E+03 -0.13896993726E+04  0.21677587531E+04  0.25500000920E-02 0.  1.
       -2    1    3    3    0  502  0.16586106189E+04  0.13009412063E+03  0.85500332319E+03  0.18705465372E+04  0.25500000920E-02 0. -1.
</event>
<event>
 5   0  0.1073271E-07  0.3998572E+04  0.7818609E-02  0.8004835E-01
        2   -1    0    0  501    0  0.00000000000E+00  0.00000000000E+00  0.19807287590E+04  0.19807287590E+04  0.25500000920E-02 0.  1.
       -2   -1    0    0    0  501  0.00000000000E+00  0.00000000000E+00 -0.20180174027E+04  0.20180174027E+04  0.25500000920E-02 0. -1.
    10030    2    1    2    0    0  0.00000000000E+00  0.00000000000E+00 -0.37288643763E+02  0.39987461617E+04  0.39985722980E+04 0.  0.
        1    1    3    3  502    0  0.83844510755E+03  0.12712048352E+03 -0.18292465311E+04  0.20162570985E+04  0.50400001928E-02 0. -1.
       -1    1    3    3    0  502 -0.83844510755E+03 -0.12712048352E+03  0.17919578873E+04  0.19824890632E+04  0.50400001928E-02 0.  1.
</event>
<event>
 5   0  0.1101474E-07  0.4023977E+04  0.7818609E-02  0.7999727E-01
        2   -1    0    0  501    0  0.00000000000E+00  0.00000000000E+00  0.21316861910E+04  0.21316861910E+04  0.25500000920E-02 0. -1.
       -2   -1    0    0    0  501  0.00000000000E+00  0.00000000000E+00 -0.18990116240E+04  0.18990116240E+04  0.25500000920E-02 0.  1.
    10030    2    1    2    0    0  0.00000000000E+00  0.00000000000E+00  0.23267456698E+03  0.40306978150E+04  0.40239765683E+04 0.  0.
        5    1    3    3  502    0 -0.43729041632E+03  0.19637018256E+04  0.14334520840E+03  0.20169079570E+04  0.46999998093E+01 0.  1.
       -5    1    3    3    0  502  0.43729041632E+03 -0.19637018256E+04  0.89329358576E+02  0.20137898581E+04  0.46999998093E+01 0. -1.
</event>
<event>
 5   0  0.1087688E-07  0.3980124E+04  0.7818609E-02  0.8008568E-01
        2   -1    0    0  501    0  0.00000000000E+00  0.00000000000E+00  0.23838970942E+04  0.23838970942E+04  0.25500000920E-02 0.  1.
       -2   -1    0    0    0  501  0.00000000000E+00  0.00000000000E+00 -0.16612911769E+04  0.16612911769E+04  0.25500000920E-02 0. -1.
    10030    2    1    2    0    0  0.00000000000E+00  0.00000000000E+00  0.72260591728E+03  0.40451882711E+04  0.39801242238E+04 0.  0.
        2    1    3    3  502    0  0.12131356913E+04  0.14486597567E+04 -0.27343328495E+03  0.19092090136E+04  0.25500000920E-02 0. -1.
       -2    1    3    3    0  502 -0.12131356913E+04 -0.14486597567E+04  0.99603920223E+03  0.21359792575E+04  0.25500000920E-02 0.  1.
</event>
<event>
 5   0  0.3399500E-08  0.4008859E+04  0.7818609E-02  0.8002762E-01
        1   -1    0    0  501    0  0.00000000000E+00  0.00000000000E+00  0.24716504738E+04  0.24716504738E+04  0.50400001928E-02 0.  1.
       -1   -1    0    0    0  501  0.00000000000E+00  0.00000000000E+00 -0.16255281732E+04  0.16255281732E+04  0.50400001928E-02 0. -1.
    10030    2    1    2    0    0  0.00000000000E+00  0.00000000000E+00  0.84612230063E+03  0.40971786470E+04  0.40088589296E+04 0.  0.
        3    1    3    3  502    0 -0.53412459831E+03 -0.21140712783E+03  0.23857216462E+04  0.24539050193E+04  0.10100000352E+00 0.  1.
       -3    1    3    3    0  502  0.53412459831E+03  0.21140712783E+03 -0.15395993456E+04  0.16432736277E+04  0.10100000352E+00 0. -1.
</event>
<event>
 5   0  0.3399500E-08  0.3761713E+04  0.7818609E-02  0.8054422E-01
        1   -1    0    0  501    0  0.00000000000E+00  0.00000000000E+00  0.14960861326E+04  0.14960861326E+04  0.50400001928E-02 0.  1.
       -1   -1    0    0    0  501  0.00000000000E+00  0.00000000000E+00 -0.23645833705E+04  0.23645833705E+04  0.50400001928E-02 0. -1.
    10030    2    1    2    0    0  0.00000000000E+00  0.00000000000E+00 -0.86849723795E+03  0.38606695031E+04  0.37617125833E+04 0.  0.
        1    1    3    3  502    0 -0.17697135082E+04 -0.63318938229E+03 -0.36310186066E+03  0.19143295579E+04  0.50400001928E-02 0. -1.
       -1    1    3    3    0  502  0.17697135082E+04  0.63318938229E+03 -0.50539537729E+03  0.19463399452E+04  0.50400001928E-02 0.  1.
</event>
<event>
 5   0  0.1087688E-07  0.3985138E+04  0.7818609E-02  0.8007551E-01
        2   -1    0    0  501    0  0.00000000000E+00  0.00000000000E+00  0.16409752998E+04  0.16409752998E+04  0.25500000920E-02 0.  1.
       -2   -1    0    0    0  501  0.00000000000E+00  0.00000000000E+00 -0.24194947760E+04  0.24194947760E+04  0.25500000920E-02 0. -1.
    10030    2    1    2    0    0  0.00000000000E+00  0.00000000000E+00 -0.77851947618E+03  0.40604700759E+04  0.39851379728E+04 0.  0.
        2    1    3    3  502    0  0.60769955340E+03  0.85667016241E+03  0.13360141814E+04  0.16994459118E+04  0.25500000920E-02 0.  1.
       -2    1    3    3    0  502 -0.60769955340E+03 -0.85667016241E+03 -0.21145336576E+04  0.23610241641E+04  0.25500000920E-02 0. -1.
</event>
<event>
 5   0  0.1101474E-07  0.4009984E+04  0.7818609E-02  0.8002536E-01
       -2   -1    0    0    0  501  0.00000000000E+00  0.00000000000E+00  0.14846929580E+04  0.14846929580E+04  0.25500000920E-02 0. -1.
        2   -1    0    0  501    0  0.00000000000E+00  0.00000000000E+00 -0.27076253377E+04  0.27076253377E+04  0.25500000920E-02 0.  1.
    10030    2    1    2    0    0  0.00000000000E+00  0.00000000000E+00 -0.12229323798E+04  0.41923182957E+04  0.40099836767E+04 0.  0.
        5    1    3    3  502    0  0.26861448034E+02 -0.57315754388E+03 -0.26199499061E+04  0.26820497214E+04  0.46999998093E+01 0.  1.
       -5    1    3    3    0  502 -0.26861448034E+02  0.57315754388E+03  0.13970175264E+04  0.15102685743E+04  0.46999998093E+01 0. -1.
</event>
<event>
 5   0  0.1101474E-07  0.3987815E+04  0.7818609E-02  0.8007009E-01
        2   -1    0    0  501    0  0.00000000000E+00  0.00000000000E+00  0.23825735303E+04  0.23825735303E+04  0.25500000920E-02 0. -1.
       -2   -1    0    0    0  501  0.00000000000E+00  0.00000000000E+00 -0.16686440420E+04  0.16686440420E+04  0.25500000920E-02 0.  1.
    10030    2    1    2    0    0  0.00000000000E+00  0.00000000000E+00  0.71392948828E+03  0.40512175722E+04  0.39878150037E+04 0.  0.
        5    1    3    3  502    0  0.14424253267E+04 -0.13737851104E+04  0.26742326338E+03  0.20098292575E+04  0.46999998093E+01 0.  1.
       -5    1    3    3    0  502 -0.14424253267E+04  0.13737851104E+04  0.44650622491E+03  0.20413883147E+04  0.46999998093E+01 0. -1.
</event>
<event>
 5   0  0.3399500E-08  0.4018664E+04  0.7818609E-02  0.8000792E-01
        1   -1    0    0  501    0  0.00000000000E+00  0.00000000000E+00  0.16358154178E+04  0.16358154178E+04  0.50400001928E-02 0.  1.
       -1   -1    0    0    0  501  0.00000000000E+00  0.00000000000E+00 -0.24681356249E+04  0.24681356249E+04  0.50400001928E-02 0. -1.
    10030    2    1    2    0    0  0.00000000000E+00  0.00000000000E+00 -0.83232020708E+03  0.41039510427E+04  0.40186636129E+04 0.  0.
        4    1    3    3  502    0 -0.70391705415E+03 -0.17981133477E+04 -0.98356116429E+03  0.21670498396E+04  0.12699999809E+01 0.  1.
       -4    1    3    3    0  502  0.70391705415E+03  0.17981133477E+04  0.15124095721E+03  0.19369012031E+04  0.12699999809E+01 0. -1.
</event>
<event>
 5   0  0.3399500E-08  0.3997382E+04  0.7818609E-02  0.8005075E-01
       -3   -1    0    0    0  501  0.00000000000E+00  0.00000000000E+00  0.13054565189E+04  0.13054565229E+04  0.10100000352E+00 0.  1.
        3   -1    0    0  501    0  0.00000000000E+00  0.00000000000E+00 -0.30600532909E+04  0.30600532926E+04  0.10100000352E+00 0. -1.
    10030    2    1    2    0    0  0.00000000000E+00  0.00000000000E+00 -0.17545967720E+04  0.43655098155E+04  0.39973824081E+04 0.  0.
        5    1    3    3  502    0 -0.24799467836E+03  0.82149639838E+02  0.12867241030E+04  0.13129855030E+04  0.46999998093E+01 0.  1.
       -5    1    3    3    0  502  0.24799467836E+03 -0.82149639838E+02 -0.30413208750E+04  0.30525243125E+04  0.46999998093E+01 0. -1.
</event>
<event>
 5   0  0.1073271E-07  0.3917260E+04  0.7818609E-02  0.8021449E-01
        2   -1    0    0  501    0  0.00000000000E+00  0.00000000000E+00  0.22208703919E+04  0.22208703919E+04  0.25500000920E-02 0.  1.
       -2   -1    0    0    0  501  0.00000000000E+00  0.00000000000E+00 -0.17273546286E+04  0.17273546286E+04  0.25500000920E-02 0. -1.
    10030    2    1    2    0    0  0.00000000000E+00  0.00000000000E+00  0.49351576330E+03  0.39482250205E+04  0.39172596294E+04 0.  0.
        1    1    3    3  502    0 -0.80465135885E+03  0.17599095807E+04  0.55161404720E+03  0.20122185763E+04  0.50400001928E-02 0.  1.
       -1    1    3    3    0  502  0.80465135885E+03 -0.17599095807E+04 -0.58098283902E+02  0.19360064443E+04  0.50400001928E-02 0. -1.
</event>
<event>
 5   0  0.1095109E-07  0.4002780E+04  0.7818609E-02  0.8003986E-01
        2   -1    0    0  501    0  0.00000000000E+00  0.00000000000E+00  0.17685991422E+04  0.17685991422E+04  0.25500000920E-02 0.  1.
       -2   -1    0    0    0  501  0.00000000000E+00  0.00000000000E+00 -0.22648219190E+04  0.22648219190E+04  0.25500000920E-02 0. -1.
    10030    2    1    2    0    0  0.00000000000E+00  0.00000000000E+00 -0.49622277683E+03  0.40334210612E+04  0.40027800855E+04 0.  0.
        4    1    3    3  502    0  0.53419496320E+03 -0.18201213134E+04  0.39501771484E+03  0.19375877947E+04  0.12699999809E+01 0. -1.
       -4    1    3    3    0  502 -0.53419496320E+03  0.18201213134E+04 -0.89124049168E+03  0.20958332665E+04  0.12699999809E+01 0.  1.
</event>
<event>
 5   0  0.1087688E-07  0.3993657E+04  0.7818609E-02  0.8005827E-01
       -2   -1    0    0    0  501  0.00000000000E+00  0.00000000000E+00  0.17410462777E+04  0.17410462777E+04  0.25500000920E-02 0. -1.
        2   -1    0    0  501    0  0.00000000000E+00  0.00000000000E+00 -0.22901887480E+04  0.22901887480E+04  0.25500000920E-02 0.  1.
    10030    2    1    2    0    0  0.00000000000E+00  0.00000000000E+00 -0.54914247035E+03  0.40312350257E+04  0.39936572687E+04 0.  0.
        2    1    3    3  502    0 -0.94885323150E+03  0.15110816102E+04  0.63032048764E+03  0.18923514485E+04  0.25500000920E-02 0. -1.
       -2    1    3    3    0  502  0.94885323150E+03 -0.15110816102E+04 -0.11794629580E+04  0.21388835772E+04  0.25500000920E-02 0.  1.
</event>
<event>
 5   0  0.1087688E-07  0.3859286E+04  0.7818609E-02  0.8033551E-01
       -2   -1    0    0    0  501  0.00000000000E+00  0.00000000000E+00  0.25850612469E+04  0.25850612469E+04  0.25500000920E-02 0.  1.
        2   -1    0    0  501    0  0.00000000000E+00  0.00000000000E+00 -0.14403997410E+04  0.14403997410E+04  0.25500000920E-02 0. -1.
    10030    2    1    2    0    0  0.00000000000E+00  0.00000000000E+00  0.11446615059E+04  0.40254609878E+04  0.38592857113E+04 0.  0.
        2    1    3    3  502    0 -0.10068183760E+04  0.84465405476E+03  0.20461093181E+04  0.24318073641E+04  0.25500000920E-02 0.  1.
       -2    1    3    3    0  502  0.10068183760E+04 -0.84465405476E+03 -0.90144781216E+03  0.15936536238E+04  0.25500000920E-02 0. -1.
</event>
<event>
 5   0  0.3399500E-08  0.3985351E+04  0.7818609E-02  0.8007508E-01
        1   -1    0    0  501    0  0.00000000000E+00  0.00000000000E+00  0.15519079435E+04  0.15519079435E+04  0.50400001928E-02 0.  1.
       -1   -1    0    0    0  501  0.00000000000E+00  0.00000000000E+00 -0.25586278884E+04  0.25586278884E+04  0.50400001928E-02 0. -1.
    10030    2    1    2    0    0  0.00000000000E+00  0.00000000000E+00 -0.10067199449E+04  0.41105358319E+04  0.39853506468E+04 0.  0.
        2    1    3    3  502    0 -0.15751636245E+04  0.20352096929E+02  0.75530010246E+03  0.17470068393E+04  0.25500000920E-02 0.  1.
       -2    1    3    3    0  502  0.15751636245E+04 -0.20352096929E+02 -0.17620200473E+04  0.23635289926E+04  0.25500000920E-02 0. -1.
</event>
<event>
 5   0  0.3399500E-08  0.3984650E+04  0.7818609E-02  0.8007650E-01
        1   -1    0    0  501    0  0.00000000000E+00  0.00000000000E+00  0.18938323730E+04  0.18938323730E+04  0.50400001928E-02 0.  1.
       -1   -1    0    0    0  501  0.00000000000E+00  0.00000000000E+00 -0.20959397771E+04  0.20959397772E+04  0.50400001928E-02 0. -1.
    10030    2    1    2    0    0  0.00000000000E+00  0.00000000000E+00 -0.20210740412E+03  0.39897721502E+04  0.39846498476E+04 0.  0.
        3    1    3    3  502    0  0.37237203762E+03 -0.17196625490E+04 -0.10368450759E+04  0.20422898762E+04  0.10100000352E+00 0. -1.
       -3    1    3    3    0  502 -0.37237203762E+03  0.17196625490E+04  0.83473767179E+03  0.19474822740E+04  0.10100000352E+00 0.  1.
</event>
<event>
 5   0  0.1101474E-07  0.4035641E+04  0.7818609E-02  0.7997395E-01
       -2   -1    0    0    0  501  0.00000000000E+00  0.00000000000E+00  0.29967747918E+04  0.29967747918E+04  0.25500000920E-02 0. -1.
        2   -1    0    0  501    0  0.00000000000E+00  0.00000000000E+00 -0.13586601871E+04  0.13586601871E+04  0.25500000920E-02 0.  1.
    10030    2    1    2    0    0  0.00000000000E+00  0.00000000000E+00  0.16381146047E+04  0.43554349789E+04  0.40356405189E+04 0.  0.
        5    1    3    3  502    0 -0.20977300107E+03 -0.14291299144E+04 -0.70154891697E+03  0.16058050931E+04  0.46999998093E+01 0.  1.
       -5    1    3    3    0  502  0.20977300107E+03  0.14291299144E+04  0.23396635217E+04  0.27496298858E+04  0.46999998093E+01 0. -1.
</event>
<event>
 5   0  0.1073271E-07  0.4026956E+04  0.7818609E-02  0.7999131E-01
        2   -1    0    0  501    0  0.00000000000E+00  0.00000000000E+00  0.17143558895E+04  0.17143558895E+04  0.25500000920E-02 0. -1.
       -2   -1    0    0    0  501  0.00000000000E+00  0.00000000000E+00 -0.23647911540E+04  0.23647911540E+04  0.25500000920E-02 0.  1.
    10030    2    1    2    0    0  0.00000000000E+00  0.00000000000E+00 -0.65043526455E+03  0.40791470435E+04  0.40269559930E+04 0.  0.
        1    1    3    3  502    0 -0.59389663137E+03  0.39785417874E+03 -0.22319235819E+04  0.23436049223E+04  0.50400001928E-02 0.  1.
       -1    1    3    3    0  502  0.59389663137E+03 -0.39785417874E+03  0.15814883174E+04  0.17355421212E+04  0.50400001928E-02 0. -1.
</event>
<event>
 5   0  0.3399500E-08  0.4011771E+04  0.7818609E-02  0.8002176E-01
       -1   -1    0    0    0  501  0.00000000000E+00  0.00000000000E+00  0.22757328241E+04  0.22757328241E+04  0.50400001928E-02 0.  1.
        1   -1    0    0  501    0  0.00000000000E+00  0.00000000000E+00 -0.17680352476E+04  0.17680352476E+04  0.50400001928E-02 0. -1.
    10030    2    1    2    0    0  0.00000000000E+00  0.00000000000E+00  0.50769757649E+03  0.40437680717E+04  0.40117706052E+04 0.  0.
        4    1    3    3  502    0  0.50210772777E+03 -0.44529695642E+03  0.21592092533E+04  0.22611032179E+04  0.12699999809E+01 0.  1.
       -4    1    3    3    0  502 -0.50210772777E+03  0.44529695642E+03 -0.16515116768E+04  0.17826648538E+04  0.12699999809E+01 0. -1.
</event>
<event>
 5   0  0.3399500E-08  0.3962676E+04  0.7818609E-02  0.8012119E-01
        1   -1    0    0  501    0  0.00000000000E+00  0.00000000000E+00  0.16413658770E+04  0.16413658770E+04  0.50400001928E-02 0. -1.
       -1   -1    0    0    0  501  0.00000000000E+00  0.00000000000E+00 -0.23917274357E+04  0.23917274357E+04  0.50400001928E-02 0.  1.
    10030    2    1    2    0    0  0.00000000000E+00  0.00000000000E+00 -0.75036155875E+03  0.40330933127E+04  0.39626757627E+04 0.  0.
        3    1    3    3  502    0  0.73523377933E+03  0.14580304069E+04  0.76693625997E+03  0.18040544933E+04  0.10100000352E+00 0. -1.
       -3    1    3    3    0  502 -0.73523377933E+03 -0.14580304069E+04 -0.15172978187E+04  0.22290388194E+04  0.10100000352E+00 0.  1.
</event>
<event>
 5   0  0.1101474E-07  0.3990105E+04  0.7818609E-02  0.8006546E-01
        2   -1    0    0  501    0  0.00000000000E+00  0.00000000000E+00  0.24392917588E+04  0.24392917588E+04  0.25500000920E-02 0.  1.
       -2   -1    0    0    0  501  0.00000000000E+00  0.00000000000E+00 -0.16317170865E+04  0.16317170865E+04  0.25500000920E-02 0. -1.
    10030    2    1    2    0    0  0.00000000000E+00  0.00000000000E+00  0.80757467234E+03  0.40710088453E+04  0.39901047814E+04 0.  0.
        5    1    3    3  502    0 -0.10477845827E+04  0.14104683238E+04  0.13679016402E+04  0.22267578251E+04  0.46999998093E+01 0.  1.
       -5    1    3    3    0  502  0.10477845827E+04 -0.14104683238E+04 -0.56032696789E+03  0.18442510201E+04  0.46999998093E+01 0. -1.
</event>
<event>
 5   0  0.1101474E-07  0.3977938E+04  0.7818609E-02  0.8009012E-01
       -2   -1    0    0    0  501  0.00000000000E+00  0.00000000000E+00  0.26203124621E+04  0.26203124621E+04  0.25500000920E-02 0.  1.
        2   -1    0    0  501    0  0.00000000000E+00  0.00000000000E+00 -0.15097429235E+04  0.15097429235E+04  0.25500000920E-02 0. -1.
    10030    2    1    2    0    0  0.00000000000E+00  0.00000000000E+00  0.11105695386E+04  0.41300553856E+04  0.39779382585E+04 0.  0.
        5    1    3    3  502    0  0.64735089013E+03  0.46877148115E+03  0.24462409079E+04  0.25735047204E+04  0.46999998093E+01 0.  1.
       -5    1    3    3    0  502 -0.64735089013E+03 -0.46877148115E+03 -0.13356713693E+04  0.15565506652E+04  0.46999998093E+01 0. -1.
</event>
<event>
 5   0  0.1087688E-07  0.3988670E+04  0.7818609E-02  0.8006836E-01
        2   -1    0    0  501    0  0.00000000000E+00  0.00000000000E+00  0.13248210082E+04  0.13248210082E+04  0.25500000920E-02 0. -1.
       -2   -1    0    0    0  501  0.00000000000E+00  0.00000000000E+00 -0.30021959604E+04  0.30021959604E+04  0.25500000920E-02 0.  1.
    10030    2    1    2    0    0  0.00000000000E+00  0.00000000000E+00 -0.16773749522E+04  0.43270169686E+04  0.39886700937E+04 0.  0.
        2    1    3    3  502    0 -0.26891432793E+03  0.57437900170E+03 -0.28898845108E+04  0.29586582498E+04  0.25500000920E-02 0.  1.
       -2    1    3    3    0  502  0.26891432793E+03 -0.57437900170E+03  0.12125095587E+04  0.13683587188E+04  0.25500000920E-02 0. -1.
</event>
<event>
 5   0  0.1095109E-07  0.3959388E+04  0.7818609E-02  0.8012790E-01
       -2   -1    0    0    0  501  0.00000000000E+00  0.00000000000E+00  0.14157725118E+04  0.14157725118E+04  0.25500000920E-02 0. -1.
        2   -1    0    0  501    0  0.00000000000E+00  0.00000000000E+00 -0.27682324112E+04  0.27682324112E+04  0.25500000920E-02 0.  1.
    10030    2    1    2    0    0  0.00000000000E+00  0.00000000000E+00 -0.13524598995E+04  0.41840049230E+04  0.39593875051E+04 0.  0.
        4    1    3    3  502    0  0.98785295365E+03 -0.58233930450E+03 -0.23815364521E+04  0.26432347624E+04  0.12699999809E+01 0.  1.
       -4    1    3    3    0  502 -0.98785295365E+03  0.58233930450E+03  0.10290765526E+04  0.15407701606E+04  0.12699999809E+01 0. -1.
</event>
<event>
 5   0  0.3399500E-08  0.4000532E+04  0.7818609E-02  0.8004439E-01
        1   -1    0    0  501    0  0.00000000000E+00  0.00000000000E+00  0.14467036321E+04  0.14467036321E+04  0.50400001928E-02 0. -1.
       -1   -1    0    0    0  501  0.00000000000E+00  0.00000000000E+00 -0.27656411607E+04  0.27656411607E+04  0.50400001928E-02 0.  1.
    10030    2    1    2    0    0  0.00000000000E+00  0.00000000000E+00 -0.13189375286E+04  0.42123447929E+04  0.40005315209E+04 0.  0.
        1    1    3    3  502    0 -0.18170646706E+04 -0.77513661570E+03 -0.98993679304E+03  0.22096460451E+04  0.50400001928E-02 0.  1.
       -1    1    3    3    0  502  0.18170646706E+04  0.77513661570E+03 -0.32900073557E+03  0.20026987478E+04  0.50400001928E-02 0. -1.
</event>
<event>
 5   0  0.3399500E-08  0.4018485E+04  0.7818609E-02  0.8000828E-01
        1   -1    0    0  501    0  0.00000000000E+00  0.00000000000E+00  0.13087913818E+04  0.13087913818E+04  0.50400001928E-02 0.  1.
       -1   -1    0    0    0  501  0.00000000000E+00  0.00000000000E+00 -0.30845679159E+04  0.30845679159E+04  0.50400001928E-02 0. -1.
    10030    2    1    2    0    0  0.00000000000E+00  0.00000000000E+00 -0.17757765341E+04  0.43933592977E+04  0.40184852394E+04 0.  0.
        1    1    3    3  502    0 -0.77581834269E+03 -0.10791203444E+04 -0.25353316693E+04  0.28625690371E+04  0.50400001928E-02 0. -1.
       -1    1    3    3    0  502  0.77581834269E+03  0.10791203444E+04  0.75955513523E+03  0.15307902606E+04  0.50400001928E-02 0.  1.
</event>
<event>
 5   0  0.3399500E-08  0.4003823E+04  0.7818609E-02  0.8003776E-01
       -1   -1    0    0    0  501  0.00000000000E+00  0.00000000000E+00  0.26434391917E+04  0.26434391917E+04  0.50400001928E-02 0. -1.
        1   -1    0    0  501    0  0.00000000000E+00  0.00000000000E+00 -0.15160743329E+04  0.15160743329E+04  0.50400001928E-02 0.  1.
    10030    2    1    2    0    0  0.00000000000E+00  0.00000000000E+00  0.11273648588E+04  0.41595135246E+04  0.40038233274E+04 0.  0.
        5    1    3    3  502    0 -0.71446185662E+03 -0.18451511576E+04  0.24756464660E+03  0.19940784546E+04  0.46999998093E+01 0.  1.
       -5    1    3    3    0  502  0.71446185662E+03  0.18451511576E+04  0.87980021217E+03  0.21654350700E+04  0.46999998093E+01 0. -1.
</event>
<event>
 5   0  0.1073271E-07  0.4095402E+04  0.7818609E-02  0.7985573E-01
        2   -1    0    0  501    0  0.00000000000E+00  0.00000000000E+00  0.23979667899E+04  0.23979667899E+04  0.25500000920E-02 0. -1.
       -2   -1    0    0    0  501  0.00000000000E+00  0.00000000000E+00 -0.17485977350E+04  0.17485977350E+04  0.25500000920E-02 0.  1.
    10030    2    1    2    0    0  0.00000000000E+00  0.00000000000E+00  0.64936905485E+03  0.41465645249E+04  0.40954019571E+04 0.  0.
        1    1    3    3  502    0  0.10992005199E+04 -0.14293085462E+04  0.13073318098E+04  0.22271688674E+04  0.50400001928E-02 0. -1.
       -1    1    3    3    0  502 -0.10992005199E+04  0.14293085462E+04 -0.65796275492E+03  0.19193956575E+04  0.50400001928E-02 0.  1.
</event>
<event>
 5   0  0.1095109E-07  0.4021957E+04  0.7818609E-02  0.8000132E-01
        2   -1    0    0  501    0  0.00000000000E+00  0.00000000000E+00  0.15191855605E+04  0.15191855605E+04  0.25500000920E-02 0.  1.
       -2   -1    0    0    0  501  0.00000000000E+00  0.00000000000E+00 -0.26619748735E+04  0.26619748735E+04  0.25500000920E-02 0. -1.
    10030    2    1    2    0    0  0.00000000000E+00  0.00000000000E+00 -0.11427893130E+04  0.41811604340E+04  0.40219566334E+04 0.  0.
        4    1    3    3  502    0  0.61975519432E+03  0.11336699402E+04  0.10306196793E+04  0.16527197495E+04  0.12699999809E+01 0.  1.
       -4    1    3    3    0  502 -0.61975519432E+03 -0.11336699402E+04 -0.21734089922E+04  0.25284406844E+04  0.12699999809E+01 0. -1.
</event>
<event>
 5   0  0.3399500E-08  0.3991202E+04  0.7818609E-02  0.8006324E-01
        1   -1    0    0  501    0  0.00000000000E+00  0.00000000000E+00  0.24686700655E+04  0.24686700655E+04  0.50400001928E-02 0.  1.
       -1   -1    0    0    0  501  0.00000000000E+00  0.00000000000E+00 -0.16131861451E+04  0.16131861451E+04  0.50400001928E-02 0. -1.
    10030    2    1    2    0    0  0.00000000000E+00  0.00000000000E+00  0.85548392038E+03  0.40818562107E+04  0.39912024988E+04 0.  0.
        4    1    3    3  502    0  0.17644257365E+04 -0.56098454763E+03 -0.33383341931E+03  0.18813155522E+04  0.12699999809E+01 0.  1.
       -4    1    3    3    0  502 -0.17644257365E+04  0.56098454763E+03  0.11893173397E+04  0.22005406585E+04  0.12699999809E+01 0. -1.
</event>
<event>
 5   0  0.3399500E-08  0.4008684E+04  0.7818609E-02  0.8002797E-01
       -3   -1    0    0    0  501  0.00000000000E+00  0.00000000000E+00  0.13289528917E+04  0.13289528956E+04  0.10100000352E+00 0.  1.
        3   -1    0    0  501    0  0.00000000000E+00  0.00000000000E+00 -0.30229717700E+04  0.30229717716E+04  0.10100000352E+00 0. -1.
    10030    2    1    2    0    0  0.00000000000E+00  0.00000000000E+00 -0.16940188782E+04  0.43519246672E+04  0.40086841169E+04 0.  0.
        3    1    3    3  502    0 -0.12535795596E+04  0.17259686844E+03  0.84047661975E+03  0.15190958988E+04  0.10100000352E+00 0.  1.
       -3    1    3    3    0  502  0.12535795596E+04 -0.17259686844E+03 -0.25344954980E+04  0.28328287684E+04  0.10100000352E+00 0. -1.
</event>
<event>
 5   0  0.1073271E-07  0.3986720E+04  0.7818609E-02  0.8007231E-01
       -2   -1    0    0    0  501  0.00000000000E+00  0.00000000000E+00  0.19507576348E+04  0.19507576348E+04  0.25500000920E-02 0. -1.
        2   -1    0    0  501    0  0.00000000000E+00  0.00000000000E+00 -0.20368929340E+04  0.20368929340E+04  0.25500000920E-02 0.  1.
    10030    2    1    2    0    0  0.00000000000E+00  0.00000000000E+00 -0.86135299204E+02  0.39876505688E+04  0.39867201770E+04 0.  0.
        1    1    3    3  502    0  0.24591112765E+03  0.10377782360E+04 -0.17275118756E+04  0.20302101444E+04  0.50400001928E-02 0.  1.
       -1    1    3    3    0  502 -0.24591112765E+03 -0.10377782360E+04  0.16413765764E+04  0.19574404245E+04  0.50400001928E-02 0. -1.
</event>
<event>
 5   0  0.3399500E-08  0.4001152E+04  0.7818609E-02  0.8004314E-01
        1   -1    0    0  501    0  0.00000000000E+00  0.00000000000E+00  0.22894876041E+04  0.22894876041E+04  0.50400001928E-02 0.  1.
       -1   -1    0    0    0  501  0.00000000000E+00  0.00000000000E+00 -0.17481220138E+04  0.17481220139E+04  0.50400001928E-02 0. -1.
    10030    2    1    2    0    0  0.00000000000E+00  0.00000000000E+00  0.54136559025E+03  0.40376096180E+04  0.40011516748E+04 0.  0.
        5    1    3    3  502    0 -0.97419676349E+03 -0.17423386467E+04  0.13727264455E+03  0.20009170804E+04  0.46999998093E+01 0. -1.
       -5    1    3    3    0  502  0.97419676349E+03  0.17423386467E+04  0.40409294571E+03  0.20366925376E+04  0.46999998093E+01 0.  1.
</event>
<event>
 5   0  0.1087688E-07  0.4002030E+04  0.7818609E-02  0.8004137E-01
       -2   -1    0    0    0  501  0.00000000000E+00  0.00000000000E+00  0.23928481627E+04  0.23928481627E+04  0.25500000920E-02 0. -1.
        2   -1    0    0  501    0  0.00000000000E+00  0.00000000000E+00 -0.16733453735E+04  0.16733453735E+04  0.25500000920E-02 0.  1.
    10030    2    1    2    0    0  0.00000000000E+00  0.00000000000E+00  0.71950278916E+03  0.40661935362E+04  0.40020301861E+04 0.  0.
        2    1    3    3  502    0  0.16367658242E+04  0.69322760406E+02  0.15271961323E+04  0.22396731982E+04  0.25500000920E-02 0. -1.
       -2    1    3    3    0  502 -0.16367658242E+04 -0.69322760406E+02 -0.80769334314E+03  0.18265203380E+04  0.25500000920E-02 0.  1.
</event>
<event>
 5   0  0.1087688E-07  0.4091120E+04  0.7818609E-02  0.7986413E-01
        2   -1    0    0  501    0  0.00000000000E+00  0.00000000000E+00  0.30623068245E+04  0.30623068245E+04  0.25500000920E-02 0. -1.
       -2   -1    0    0    0  501  0.00000000000E+00  0.00000000000E+00 -0.13663935074E+04  0.13663935074E+04  0.25500000920E-02 0.  1.
    10030    2    1    2    0    0  0.00000000000E+00  0.00000000000E+00  0.16959133171E+04  0.44287003319E+04  0.40911202195E+04 0.  0.
        2    1    3    3  502    0 -0.11936673863E+04 -0.62021546225E+03 -0.82024375188E+03  0.15755344684E+04  0.25500000920E-02 0.  1.
       -2    1    3    3    0  502  0.11936673863E+04  0.62021546225E+03  0.25161570689E+04  0.28531658634E+04  0.25500000920E-02 0. -1.
</event>
<event>
 5   0  0.1095109E-07  0.4071936E+04  0.7818609E-02  0.7990190E-01
       -2   -1    0    0    0  501  0.00000000000E+00  0.00000000000E+00  0.14544426620E+04  0.14544426620E+04  0.25500000920E-02 0. -1.
        2   -1    0    0  501    0  0.00000000000E+00  0.00000000000E+00 -0.28500025164E+04  0.28500025164E+04  0.25500000920E-02 0.  1.
    10030    2    1    2    0    0  0.00000000000E+00  0.00000000000E+00 -0.13955598543E+04  0.43044451784E+04  0.40719357788E+04 0.  0.
        4    1    3    3  502    0 -0.46215597437E+03 -0.64243269461E+03  0.12851939426E+04  0.15093154060E+04  0.12699999809E+01 0. -1.
       -4    1    3    3    0  502  0.46215597437E+03  0.64243269461E+03 -0.26807537970E+04  0.27951297724E+04  0.12699999809E+01 0.  1.
</event>
<event>
 5   0  0.1095903E-07  0.3996000E+04  0.7818609E-02  0.8005354E-01
       -2   -1    0    0    0  501  0.00000000000E+00  0.00000000000E+00  0.31782903907E+04  0.31782903907E+04  0.25500000920E-02 0. -1.
        2   -1    0    0  501    0  0.00000000000E+00  0.00000000000E+00 -0.12560225810E+04  0.12560225810E+04  0.25500000920E-02 0.  1.
    10030    2    1    2    0    0  0.00000000000E+00  0.00000000000E+00  0.19222678097E+04  0.44343129717E+04  0.39960002501E+04 0.  0.
        3    1    3    3  502    0  0.14682256169E+04 -0.28238349996E+03 -0.50960135307E+03  0.15795950280E+04  0.10100000352E+00 0.  1.
       -3    1    3    3    0  502 -0.14682256169E+04  0.28238349996E+03  0.24318691627E+04  0.28547179437E+04  0.10100000352E+00 0. -1.
</event>
<event>
 5   0  0.1073271E-07  0.3999804E+04  0.7818609E-02  0.8004586E-01
        2   -1    0    0  501    0  0.00000000000E+00  0.00000000000E+00  0.25412127396E+04  0.25412127396E+04  0.25500000920E-02 0.  1.
       -2   -1    0    0    0  501  0.00000000000E+00  0.00000000000E+00 -0.15738969970E+04  0.15738969970E+04  0.25500000920E-02 0. -1.
    10030    2    1    2    0    0  0.00000000000E+00  0.00000000000E+00  0.96731574269E+03  0.41151097366E+04  0.39998035449E+04 0.  0.
        1    1    3    3  502    0 -0.38113281826E+03  0.14634851848E+04 -0.86271437084E+03  0.17410707041E+04  0.50400001928E-02 0. -1.
       -1    1    3    3    0  502  0.38113281826E+03 -0.14634851848E+04  0.18300301135E+04  0.23740390325E+04  0.50400001928E-02 0.  1.
</event>
<event>
 5   0  0.1101474E-07  0.4014777E+04  0.7818609E-02  0.8001572E-01
        2   -1    0    0  501    0  0.00000000000E+00  0.00000000000E+00  0.17152315630E+04  0.17152315630E+04  0.25500000920E-02 0.  1.
       -2   -1    0    0    0  501  0.00000000000E+00  0.00000000000E+00 -0.23493086954E+04  0.23493086954E+04  0.25500000920E-02 0. -1.
    10030    2    1    2    0    0  0.00000000000E+00  0.00000000000E+00 -0.63407713242E+03  0.40645402584E+04  0.40147769181E+04 0.  0.
        5    1    3    3  502    0 -0.87768908637E+03  0.90045758690E+03  0.12671006845E+04  0.17851409560E+04  0.46999998093E+01 0.  1.
       -5    1    3    3    0  502  0.87768908637E+03 -0.90045758690E+03 -0.19011778169E+04  0.22793993024E+04  0.46999998093E+01 0. -1.
</event>
<event>
 5   0  0.3399500E-08  0.3995922E+04  0.7818609E-02  0.8005370E-01
        1   -1    0    0  501    0  0.00000000000E+00  0.00000000000E+00  0.19947788782E+04  0.19947788782E+04  0.50400001928E-02 0.  1.
       -1   -1    0    0    0  501  0.00000000000E+00  0.00000000000E+00 -0.20011485678E+04  0.20011485678E+04  0.50400001928E-02 0. -1.
    10030    2    1    2    0    0  0.00000000000E+00  0.00000000000E+00 -0.63696895890E+01  0.39959274461E+04  0.39959223693E+04 0.  0.
        4    1    3    3  502    0  0.15787612887E+04 -0.93014413069E+03 -0.79954756567E+03  0.19992331613E+04  0.12699999809E+01 0. -1.
       -4    1    3    3    0  502 -0.15787612887E+04  0.93014413069E+03  0.79317787608E+03  0.19966942847E+04  0.12699999809E+01 0.  1.
</event>
<event>
 5   0  0.3399500E-08  0.4002766E+04  0.7818609E-02  0.8003989E-01
       -1   -1    0    0    0  501  0.00000000000E+00  0.00000000000E+00  0.18238790103E+04  0.18238790103E+04  0.50400001928E-02 0. -1.
        1   -1    0    0  501    0  0.00000000000E+00  0.00000000000E+00 -0.21961618404E+04  0.21961618404E+04  0.50400001928E-02 0.  1.
    10030    2    1    2    0    0  0.00000000000E+00  0.00000000000E+00 -0.37228283009E+03  0.40200408508E+04  0.40027657858E+04 0.  0.
        5    1    3    3  502    0  0.18120183507E+04 -0.76981414554E+03  0.17525471103E+03  0.19765527126E+04  0.46999998093E+01 0.  1.
       -5    1    3    3    0  502 -0.18120183507E+04  0.76981414554E+03 -0.54753754111E+03  0.20434881382E+04  0.46999998093E+01 0. -1.
</event>
<event>
 5   0  0.1095109E-07  0.3977951E+04  0.7818609E-02  0.8009009E-01
       -2   -1    0    0    0  501  0.00000000000E+00  0.00000000000E+00  0.12798667212E+04  0.12798667212E+04  0.25500000920E-02 0.  1.
        2   -1    0    0  501    0  0.00000000000E+00  0.00000000000E+00 -0.30909657708E+04  0.30909657708E+04  0.25500000920E-02 0. -1.
    10030    2    1    2    0    0  0.00000000000E+00  0.00000000000E+00 -0.18110990496E+04  0.43708324921E+04  0.39779513454E+04 0.  0.
        4    1    3    3  502    0 -0.18664123201E+04  0.70417874655E+02 -0.15422503500E+03  0.18740972760E+04  0.12699999809E+01 0. -1.
       -4    1    3    3    0  502  0.18664123201E+04 -0.70417874655E+02 -0.16568740146E+04  0.24967352160E+04  0.12699999809E+01 0.  1.
</event>
<event>
 5   0  0.1087688E-07  0.3983245E+04  0.7818609E-02  0.8007935E-01
        2   -1    0    0  501    0  0.00000000000E+00  0.00000000000E+00  0.17903240589E+04  0.17903240589E+04  0.25500000920E-02 0.  1.
       -2   -1    0    0    0  501  0.00000000000E+00  0.00000000000E+00 -0.22155545447E+04  0.22155545447E+04  0.25500000920E-02 0. -1.
    10030    2    1    2    0    0  0.00000000000E+00  0.00000000000E+00 -0.42523048580E+03  0.40058786036E+04  0.39832452122E+04 0.  0.
        2    1    3    3  502    0 -0.17258177446E+04 -0.65021998157E+03  0.54353983231E+03  0.19226722189E+04  0.25500000920E-02 0.  1.
       -2    1    3    3    0  502  0.17258177446E+04  0.65021998157E+03 -0.96877031811E+03  0.20832063847E+04  0.25500000920E-02 0. -1.
</event>
<event>
 5   0  0.3399500E-08  0.3945846E+04  0.7818609E-02  0.8015561E-01
        1   -1    0    0  501    0  0.00000000000E+00  0.00000000000E+00  0.18685327645E+04  0.18685327645E+04  0.50400001928E-02 0. -1.
       -1   -1    0    0    0  501  0.00000000000E+00  0.00000000000E+00 -0.20831448492E+04  0.20831448492E+04  0.50400001928E-02 0.  1.
    10030    2    1    2    0    0  0.00000000000E+00  0.00000000000E+00 -0.21461208472E+03  0.39516776137E+04  0.39458456147E+04 0.  0.
        5    1    3    3  502    0  0.68660206034E+03  0.10664602929E+02 -0.19595980852E+04  0.20764351347E+04  0.46999998093E+01 0.  1.
       -5    1    3    3    0  502 -0.68660206034E+03 -0.10664602929E+02  0.17449860005E+04  0.18752424790E+04  0.46999998093E+01 0. -1.
</event>
<event>
 5   0  0.3399500E-08  0.4020733E+04  0.7818609E-02  0.8000377E-01
        1   -1    0    0  501    0  0.00000000000E+00  0.00000000000E+00  0.15837885520E+04  0.15837885520E+04  0.50400001928E-02 0.  1.
       -1   -1    0    0    0  501  0.00000000000E+00  0.00000000000E+00 -0.25518395317E+04  0.25518395317E+04  0.50400001928E-02 0. -1.
    10030    2    1    2    0    0  0.00000000000E+00  0.00000000000E+00 -0.96805097970E+03  0.41356280836E+04  0.40207333842E+04 0.  0.
        4    1    3    3  502    0 -0.69657727126E+03 -0.12416836696E+04  0.97589046449E+03  0.17260828607E+04  0.12699999809E+01 0.  1.
       -4    1    3    3    0  502  0.69657727126E+03  0.12416836696E+04 -0.19439414442E+04  0.24095452230E+04  0.12699999809E+01 0. -1.
</event>
<event>
 5   0  0.1101474E-07  0.3853933E+04  0.7818609E-02  0.8034679E-01
       -2   -1    0    0    0  501  0.00000000000E+00  0.00000000000E+00  0.18795681352E+04  0.18795681352E+04  0.25500000920E-02 0. -1.
        2   -1    0    0  501    0  0.00000000000E+00  0.00000000000E+00 -0.19755603344E+04  0.19755603344E+04  0.25500000920E-02 0.  1.
    10030    2    1    2    0    0  0.00000000000E+00  0.00000000000E+00 -0.95992199238E+02  0.38551284696E+04  0.38539331876E+04 0.  0.
        5    1    3    3  502    0  0.16358214022E+04 -0.99181410774E+03 -0.27952258732E+03  0.19333292143E+04  0.46999998093E+01 0. -1.
       -5    1    3    3    0  502 -0.16358214022E+04  0.99181410774E+03  0.18353038808E+03  0.19217992552E+04  0.46999998093E+01 0.  1.
</event>
<event>
 5   0  0.3399500E-08  0.4016631E+04  0.7818609E-02  0.8001200E-01
        1   -1    0    0  501    0  0.00000000000E+00  0.00000000000E+00  0.16735781728E+04  0.16735781728E+04  0.50400001928E-02 0.  1.
       -1   -1    0    0    0  501  0.00000000000E+00  0.00000000000E+00 -0.24100050811E+04  0.24100050811E+04  0.50400001928E-02 0. -1.
    10030    2    1    2    0    0  0.00000000000E+00  0.00000000000E+00 -0.73642690835E+03  0.40835832539E+04  0.40166313747E+04 0.  0.
        2    1    3    3  502    0 -0.11880142470E+04 -0.15502750924E+04  0.10712800581E+03  0.19560693042E+04  0.25500000920E-02 0.  1.
       -2    1    3    3    0  502  0.11880142470E+04  0.15502750924E+04 -0.84355491417E+03  0.21275139497E+04  0.25500000920E-02 0. -1.
</event>
<event>
 5   0  0.3399500E-08  0.3985490E+04  0.7818609E-02  0.8007480E-01
       -1   -1    0    0    0  501  0.00000000000E+00  0.00000000000E+00  0.32953269966E+04  0.32953269966E+04  0.50400001928E-02 0.  1.
        1   -1    0    0  501    0  0.00000000000E+00  0.00000000000E+00 -0.12050496820E+04  0.12050496820E+04  0.50400001928E-02 0. -1.
    10030    2    1    2    0    0  0.00000000000E+00  0.00000000000E+00  0.20902773146E+04  0.45003766786E+04  0.39854900574E+04 0.  0.
        3    1    3    3  502    0  0.13322709021E+04  0.85919981310E+02 -0.62541613514E+03  0.14742704474E+04  0.10100000352E+00 0. -1.
       -3    1    3    3    0  502 -0.13322709021E+04 -0.85919981310E+02  0.27156934497E+04  0.30261062312E+04  0.10100000352E+00 0.  1.
</event>
<event>
 5   0  0.3399500E-08  0.3998930E+04  0.7818609E-02  0.8004762E-01
        1   -1    0    0  501    0  0.00000000000E+00  0.00000000000E+00  0.23660497410E+04  0.23660497410E+04  0.50400001928E-02 0.  1.
       -1   -1    0    0    0  501  0.00000000000E+00  0.00000000000E+00 -0.16896773189E+04  0.16896773189E+04  0.50400001928E-02 0. -1.
    10030    2    1    2    0    0  0.00000000000E+00  0.00000000000E+00  0.67637242210E+03  0.40557270598E+04  0.39989301483E+04 0.  0.
        1    1    3    3  502    0 -0.77644407990E+03 -0.16589621577E+04  0.11513466811E+04  0.21634740650E+04  0.50400001928E-02 0.  1.
       -1    1    3    3    0  502  0.77644407990E+03  0.16589621577E+04 -0.47497425895E+03  0.18922529949E+04  0.50400001928E-02 0. -1.
</event>
<event>
 5   0  0.1073271E-07  0.3937965E+04  0.7818609E-02  0.8017179E-01
        2   -1    0    0  501    0  0.00000000000E+00  0.00000000000E+00  0.16798237096E+04  0.16798237096E+04  0.25500000920E-02 0.  1.
       -2   -1    0    0    0  501  0.00000000000E+00  0.00000000000E+00 -0.23079157713E+04  0.23079157713E+04  0.25500000920E-02 0. -1.
    10030    2    1    2    0    0  0.00000000000E+00  0.00000000000E+00 -0.62809206175E+03  0.39877394809E+04  0.39379647700E+04 0.  0.
        1    1    3    3  502    0 -0.51678007330E+03  0.13709379592E+04 -0.16461038380E+04  0.22036765592E+04  0.50400001928E-02 0. -1.
       -1    1    3    3    0  502  0.51678007330E+03 -0.13709379592E+04  0.10180117762E+04  0.17840629217E+04  0.50400001928E-02 0.  1.
</event>
<event>
 5   0  0.1095903E-07  0.3983626E+04  0.7818609E-02  0.8007858E-01
       -2   -1    0    0    0  501  0.00000000000E+00  0.00000000000E+00  0.17676156457E+04  0.17676156457E+04  0.25500000920E-02 0.  1.
        2   -1    0    0  501    0  0.00000000000E+00  0.00000000000E+00 -0.22444468312E+04  0.22444468312E+04  0.25500000920E-02 0. -1.
    10030    2    1    2    0    0  0.00000000000E+00  0.00000000000E+00 -0.47683118556E+03  0.40120624769E+04  0.39836261546E+04 0.  0.
        3    1    3    3  502    0 -0.79821633869E+03  0.70250693921E+03  0.14578439169E+04  0.18044318273E+04  0.10100000352E+00 0.  1.
       -3    1    3    3    0  502  0.79821633869E+03 -0.70250693921E+03 -0.19346751025E+04  0.22076306497E+04  0.10100000352E+00 0. -1.
</event>
<event>
 5   0  0.1101474E-07  0.4030742E+04  0.7818609E-02  0.7998374E-01
        2   -1    0    0  501    0  0.00000000000E+00  0.00000000000E+00  0.23460555689E+04  0.23460555689E+04  0.25500000920E-02 0.  1.
       -2   -1    0    0    0  501  0.00000000000E+00  0.00000000000E+00 -0.17312972411E+04  0.17312972411E+04  0.25500000920E-02 0. -1.
    10030    2    1    2    0    0  0.00000000000E+00  0.00000000000E+00  0.61475832784E+03  0.40773528100E+04  0.40307416359E+04 0.  0.
        5    1    3    3  502    0 -0.36743387628E+03  0.19352571573E+03 -0.16875412200E+04  0.17378945064E+04  0.46999998093E+01 0. -1.
       -5    1    3    3    0  502  0.36743387628E+03 -0.19352571573E+03  0.23022995479E+04  0.23394583036E+04  0.46999998093E+01 0.  1.
</event>
<event>
 5   0  0.1095109E-07  0.4056000E+04  0.7818609E-02  0.7993344E-01
       -2   -1    0    0    0  501  0.00000000000E+00  0.00000000000E+00  0.16769822896E+04  0.16769822896E+04  0.25500000920E-02 0. -1.
        2   -1    0    0  501    0  0.00000000000E+00  0.00000000000E+00 -0.24524912067E+04  0.24524912067E+04  0.25500000920E-02 0.  1.
    10030    2    1    2    0    0  0.00000000000E+00  0.00000000000E+00 -0.77550891710E+03  0.41294734963E+04  0.40560001573E+04 0.  0.
        4    1    3    3  502    0  0.12544327820E+04 -0.13448885880E+04 -0.12579035820E+04  0.22281494459E+04  0.12699999809E+01 0.  1.
       -4    1    3    3    0  502 -0.12544327820E+04  0.13448885880E+04  0.48239466490E+03  0.19013240504E+04  0.12699999809E+01 0. -1.
</event>
<event>
 5   0  0.1073271E-07  0.3878446E+04  0.7818609E-02  0.8029527E-01
       -2   -1    0    0    0  501  0.00000000000E+00  0.00000000000E+00  0.16673638805E+04  0.16673638805E+04  0.25500000920E-02 0.  1.
        2   -1    0    0  501    0  0.00000000000E+00  0.00000000000E+00 -0.22554082261E+04  0.22554082261E+04  0.25500000920E-02 0. -1.
    10030    2    1    2    0    0  0.00000000000E+00  0.00000000000E+00 -0.58804434560E+03  0.39227721066E+04  0.38784461899E+04 0.  0.
        1    1    3    3  502    0 -0.21750227331E+03  0.21970197513E+03  0.16422789221E+04  0.16711242488E+04  0.50400001928E-02 0.  1.
       -1    1    3    3    0  502  0.21750227331E+03 -0.21970197513E+03 -0.22303232677E+04  0.22516478578E+04  0.50400001928E-02 0. -1.
</event>
<event>
 5   0  0.3399500E-08  0.4001632E+04  0.7818609E-02  0.8004218E-01
       -1   -1    0    0    0  501  0.00000000000E+00  0.00000000000E+00  0.24873732445E+04  0.24873732445E+04  0.50400001928E-02 0.  1.
        1   -1    0    0  501    0  0.00000000000E+00  0.00000000000E+00 -0.16094342664E+04  0.16094342664E+04  0.50400001928E-02 0. -1.
    10030    2    1    2    0    0  0.00000000000E+00  0.00000000000E+00  0.87793897811E+03  0.40968075108E+04  0.40016315337E+04 0.  0.
        2    1    3    3  502    0 -0.57198621220E+03  0.82754346185E+03  0.22096331556E+04  0.24278540093E+04  0.25500000920E-02 0.  1.
       -2    1    3    3    0  502  0.57198621220E+03 -0.82754346185E+03 -0.13316941774E+04  0.16689535016E+04  0.25500000920E-02 0. -1.
</event>
<event>
 5   0  0.3399500E-08  0.4225144E+04  0.7818609E-02  0.7960607E-01
       -1   -1    0    0    0  501  0.00000000000E+00  0.00000000000E+00  0.18837809156E+04  0.18837809156E+04  0.50400001928E-02 0. -1.
        1   -1    0    0  501    0  0.00000000000E+00  0.00000000000E+00 -0.23691502524E+04  0.23691502524E+04  0.50400001928E-02 0.  1.
    10030    2    1    2    0    0  0.00000000000E+00  0.00000000000E+00 -0.48536933686E+03  0.42529311680E+04  0.42251437995E+04 0.  0.
        3    1    3    3  502    0  0.28389154294E+02 -0.12946321920E+04 -0.19228180969E+04  0.23182122208E+04  0.10100000352E+00 0.  1.
       -3    1    3    3    0  502 -0.28389154294E+02  0.12946321920E+04  0.14374487601E+04  0.19347189472E+04  0.10100000352E+00 0. -1.
</event>
<event>
 5   0  0.1095903E-07  0.4011059E+04  0.7818609E-02  0.8002319E-01
        2   -1    0    0  501    0  0.00000000000E+00  0.00000000000E+00  0.15758854359E+04  0.15758854359E+04  0.25500000920E-02 0. -1.
       -2   -1    0    0    0  501  0.00000000000E+00  0.00000000000E+00 -0.25523108323E+04  0.25523108323E+04  0.25500000920E-02 0.  1.
    10030    2    1    2    0    0  0.00000000000E+00  0.00000000000E+00 -0.97642539643E+03  0.41281962683E+04  0.40110594454E+04 0.  0.
        3    1    3    3  502    0 -0.14567037737E+04  0.12364161933E+04 -0.11154685742E+04  0.22124604037E+04  0.10100000352E+00 0. -1.
       -3    1    3    3    0  502  0.14567037737E+04 -0.12364161933E+04  0.13904317779E+03  0.19157358646E+04  0.10100000352E+00 0.  1.
</event>
<event>
 5   0  0.1095903E-07  0.4027272E+04  0.7818609E-02  0.7999067E-01
        2   -1    0    0  501    0  0.00000000000E+00  0.00000000000E+00  0.20165915849E+04  0.20165915849E+04  0.25500000920E-02 0.  1.
       -2   -1    0    0    0  501  0.00000000000E+00  0.00000000000E+00 -0.20106852036E+04  0.20106852036E+04  0.25500000920E-02 0. -1.
    10030    2    1    2    0    0  0.00000000000E+00  0.00000000000E+00  0.59063813520E+01  0.40272767885E+04  0.40272724573E+04 0.  0.
        3    1    3    3  502    0  0.12774754915E+04 -0.15465380401E+04  0.17904230740E+03  0.20138966455E+04  0.10100000352E+00 0.  1.
       -3    1    3    3    0  502 -0.12774754915E+04  0.15465380401E+04 -0.17313592605E+03  0.20133801429E+04  0.10100000352E+00 0. -1.
</event>
<event>
 5   0  0.3399500E-08  0.3975658E+04  0.7818609E-02  0.8009475E-01
        1   -1    0    0  501    0  0.00000000000E+00  0.00000000000E+00  0.26147673085E+04  0.26147673085E+04  0.50400001928E-02 0.  1.
       -1   -1    0    0    0  501  0.00000000000E+00  0.00000000000E+00 -0.15112103822E+04  0.15112103822E+04  0.50400001928E-02 0. -1.
    10030    2    1    2    0    0  0.00000000000E+00  0.00000000000E+00  0.11035569262E+04  0.41259776907E+04  0.39756576833E+04 0.  0.
        4    1    3    3  502    0  0.29129516982E+03 -0.40108063891E+03 -0.14460378744E+04  0.15286417834E+04  0.12699999809E+01 0. -1.
       -4    1    3    3    0  502 -0.29129516982E+03  0.40108063891E+03  0.25495948006E+04  0.25973359073E+04  0.12699999809E+01 0.  1.
</event>
<event>
 5   0  0.3399500E-08  0.4011686E+04  0.7818609E-02  0.8002193E-01
        1   -1    0    0  501    0  0.00000000000E+00  0.00000000000E+00  0.21024168260E+04  0.21024168260E+04  0.50400001928E-02 0. -1.
       -1   -1    0    0    0  501  0.00000000000E+00  0.00000000000E+00 -0.19137055704E+04  0.19137055704E+04  0.50400001928E-02 0.  1.
    10030    2    1    2    0    0  0.00000000000E+00  0.00000000000E+00  0.18871125553E+03  0.40161223964E+04  0.40116863244E+04 0.  0.
        1    1    3    3  502    0  0.13646688070E+04 -0.80051511840E+03  0.13287078524E+04  0.20660614619E+04  0.50400001928E-02 0. -1.
       -1    1    3    3    0  502 -0.13646688070E+04  0.80051511840E+03 -0.11399965968E+04  0.19500609345E+04  0.50400001928E-02 0.  1.
</event>
<event>
 5   0  0.1101474E-07  0.4060650E+04  0.7818609E-02  0.7992422E-01
       -2   -1    0    0    0  501  0.00000000000E+00  0.00000000000E+00  0.28510817829E+04  0.28510817829E+04  0.25500000920E-02 0. -1.
        2   -1    0    0  501    0  0.00000000000E+00  0.00000000000E+00 -0.14458441317E+04  0.14458441317E+04  0.25500000920E-02 0.  1.
    10030    2    1    2    0    0  0.00000000000E+00  0.00000000000E+00  0.14052376512E+04  0.42969259145E+04  0.40606501276E+04 0.  0.
        5    1    3    3  502    0 -0.13154578682E+03  0.20190683388E+04  0.88049658894E+03  0.22066349005E+04  0.46999998093E+01 0.  1.
       -5    1    3    3    0  502  0.13154578682E+03 -0.20190683388E+04  0.52474106227E+03  0.20902910140E+04  0.46999998093E+01 0. -1.
</event>
<event>
 5   0  0.3399500E-08  0.3973602E+04  0.7818609E-02  0.8009893E-01
        1   -1    0    0  501    0  0.00000000000E+00  0.00000000000E+00  0.29599646687E+04  0.29599646687E+04  0.50400001928E-02 0. -1.
       -1   -1    0    0    0  501  0.00000000000E+00  0.00000000000E+00 -0.13335898931E+04  0.13335898931E+04  0.50400001928E-02 0.  1.
    10030    2    1    2    0    0  0.00000000000E+00  0.00000000000E+00  0.16263747755E+04  0.42935545618E+04  0.39736023788E+04 0.  0.
        1    1    3    3  502    0 -0.94803798386E+03 -0.15310147451E+04  0.17201782502E+04  0.24903404147E+04  0.50400001928E-02 0. -1.
       -1    1    3    3    0  502  0.94803798386E+03  0.15310147451E+04 -0.93803474672E+02  0.18032141471E+04  0.50400001928E-02 0.  1.
</event>
<event>
 5   0  0.3399500E-08  0.4017236E+04  0.7818609E-02  0.8001078E-01
        1   -1    0    0  501    0  0.00000000000E+00  0.00000000000E+00  0.17745935297E+04  0.17745935297E+04  0.50400001928E-02 0.  1.
       -1   -1    0    0    0  501  0.00000000000E+00  0.00000000000E+00 -0.22735049675E+04  0.22735049675E+04  0.50400001928E-02 0. -1.
    10030    2    1    2    0    0  0.00000000000E+00  0.00000000000E+00 -0.49891143781E+03  0.40480984971E+04  0.40172364655E+04 0.  0.
        1    1    3    3  502    0 -0.17485437783E+03 -0.25198957156E+03 -0.22497685945E+04  0.22705795574E+04  0.50400001928E-02 0. -1.
       -1    1    3    3    0  502  0.17485437783E+03  0.25198957156E+03  0.17508571567E+04  0.17775189397E+04  0.50400001928E-02 0.  1.
</event>
<event>
 5   0  0.1095109E-07  0.3995916E+04  0.7818609E-02  0.8005371E-01
        2   -1    0    0  501    0  0.00000000000E+00  0.00000000000E+00  0.13067552128E+04  0.13067552128E+04  0.25500000920E-02 0. -1.
       -2   -1    0    0    0  501  0.00000000000E+00  0.00000000000E+00 -0.30547702758E+04  0.30547702758E+04  0.25500000920E-02 0.  1.
    10030    2    1    2    0    0  0.00000000000E+00  0.00000000000E+00 -0.17480150630E+04  0.43615254885E+04  0.39959164064E+04 0.  0.
        4    1    3    3  502    0  0.34438653149E+03 -0.13679476286E+03  0.12689185921E+04  0.13219193986E+04  0.12699999809E+01 0. -1.
       -4    1    3    3    0  502 -0.34438653149E+03  0.13679476286E+03 -0.30169336550E+04  0.30396060899E+04  0.12699999809E+01 0.  1.
</event>
<event>
 5   0  0.3399500E-08  0.4069176E+04  0.7818609E-02  0.7990735E-01
       -1   -1    0    0    0  501  0.00000000000E+00  0.00000000000E+00  0.14974796212E+04  0.14974796212E+04  0.50400001928E-02 0.  1.
        1   -1    0    0  501    0  0.00000000000E+00  0.00000000000E+00 -0.27643441866E+04  0.27643441866E+04  0.50400001928E-02 0. -1.
    10030    2    1    2    0    0  0.00000000000E+00  0.00000000000E+00 -0.12668645654E+04  0.42618238079E+04  0.40691763715E+04 0.  0.
        3    1    3    3  502    0 -0.14362863228E+04  0.13187705337E+04 -0.12418610648E+04  0.23117727042E+04  0.10100000352E+00 0. -1.
       -3    1    3    3    0  502  0.14362863228E+04 -0.13187705337E+04 -0.25003500574E+02  0.19500511036E+04  0.10100000352E+00 0.  1.
</event>
<event>
 5   0  0.3399500E-08  0.3988357E+04  0.7818609E-02  0.8006899E-01
       -1   -1    0    0    0  501  0.00000000000E+00  0.00000000000E+00  0.21115655648E+04  0.21115655648E+04  0.50400001928E-02 0. -1.
        1   -1    0    0  501    0  0.00000000000E+00  0.00000000000E+00 -0.18833175728E+04  0.18833175728E+04  0.50400001928E-02 0.  1.
    10030    2    1    2    0    0  0.00000000000E+00  0.00000000000E+00  0.22824799193E+03  0.39948831376E+04  0.39883573232E+04 0.  0.
        3    1    3    3  502    0 -0.46002071410E+03  0.17814518954E+03 -0.18212367020E+04  0.18868645687E+04  0.10100000352E+00 0.  1.
       -3    1    3    3    0  502  0.46002071410E+03 -0.17814518954E+03  0.20494846939E+04  0.21080185689E+04  0.10100000352E+00 0. -1.
</event>
<event>
 5   0  0.3399500E-08  0.3971749E+04  0.7818609E-02  0.8010270E-01
       -1   -1    0    0    0  501  0.00000000000E+00  0.00000000000E+00  0.17653243650E+04  0.17653243650E+04  0.50400001928E-02 0.  1.
        1   -1    0    0  501    0  0.00000000000E+00  0.00000000000E+00 -0.22339789268E+04  0.22339789268E+04  0.50400001928E-02 0. -1.
    10030    2    1    2    0    0  0.00000000000E+00  0.00000000000E+00 -0.46865456182E+03  0.39993032918E+04  0.39717489500E+04 0.  0.
        3    1    3    3  502    0  0.20290382618E+03 -0.11815565659E+04 -0.18284883803E+04  0.21864619018E+04  0.10100000352E+00 0. -1.
       -3    1    3    3    0  502 -0.20290382618E+03  0.11815565659E+04  0.13598338185E+04  0.18128413900E+04  0.10100000352E+00 0.  1.
</event>
<event>
 5   0  0.3399500E-08  0.3973353E+04  0.7818609E-02  0.8009944E-01
        1   -1    0    0  501    0  0.00000000000E+00  0.00000000000E+00  0.13714185305E+04  0.13714185305E+04  0.50400001928E-02 0. -1.
       -1   -1    0    0    0  501  0.00000000000E+00  0.00000000000E+00 -0.28779571337E+04  0.28779571337E+04  0.50400001928E-02 0.  1.
    10030    2    1    2    0    0  0.00000000000E+00  0.00000000000E+00 -0.15065386033E+04  0.42493756642E+04  0.39733531145E+04 0.  0.
        5    1    3    3  502    0  0.16182467013E+04  0.70303004415E+03  0.22334219369E+03  0.17784480467E+04  0.46999998093E+01 0. -1.
       -5    1    3    3    0  502 -0.16182467013E+04 -0.70303004415E+03 -0.17298807970E+04  0.24709276175E+04  0.46999998093E+01 0.  1.
</event>
<event>
 5   0  0.3399500E-08  0.3958695E+04  0.7818609E-02  0.8012931E-01
       -1   -1    0    0    0  501  0.00000000000E+00  0.00000000000E+00  0.23996686508E+04  0.23996686508E+04  0.50400001928E-02 0. -1.
        1   -1    0    0  501    0  0.00000000000E+00  0.00000000000E+00 -0.16326492989E+04  0.16326492989E+04  0.50400001928E-02 0.  1.
    10030    2    1    2    0    0  0.00000000000E+00  0.00000000000E+00  0.76701935193E+03  0.40323179497E+04  0.39586954115E+04 0.  0.
        5    1    3    3  502    0 -0.19085453645E+04  0.40355515055E+03  0.42024015058E+02  0.19512022642E+04  0.46999998093E+01 0.  1.
       -5    1    3    3    0  502  0.19085453645E+04 -0.40355515055E+03  0.72499533688E+03  0.20811156855E+04  0.46999998093E+01 0. -1.
</event>
<event>
 5   0  0.3399500E-08  0.4029916E+04  0.7818609E-02  0.7998539E-01
        1   -1    0    0  501    0  0.00000000000E+00  0.00000000000E+00  0.18524531931E+04  0.18524531931E+04  0.50400001928E-02 0.  1.
       -1   -1    0    0    0  501  0.00000000000E+00  0.00000000000E+00 -0.21917180492E+04  0.21917180492E+04  0.50400001928E-02 0. -1.
    10030    2    1    2    0    0  0.00000000000E+00  0.00000000000E+00 -0.33926485617E+03  0.40441712423E+04  0.40299156808E+04 0.  0.
        2    1    3    3  502    0 -0.10879720426E+04 -0.79419219410E+03  0.13342114249E+04  0.18959284092E+04  0.25500000920E-02 0.  1.
       -2    1    3    3    0  502  0.10879720426E+04  0.79419219410E+03 -0.16734762811E+04  0.21482428331E+04  0.25500000920E-02 0. -1.
</event>
<event>
 5   0  0.3399500E-08  0.4000708E+04  0.7818609E-02  0.8004404E-01
        1   -1    0    0  501    0  0.00000000000E+00  0.00000000000E+00  0.16140792043E+04  0.16140792043E+04  0.50400001928E-02 0. -1.
       -1   -1    0    0    0  501  0.00000000000E+00  0.00000000000E+00 -0.24790710341E+04  0.24790710341E+04  0.50400001928E-02 0.  1.
    10030    2    1    2    0    0  0.00000000000E+00  0.00000000000E+00 -0.86499182981E+03  0.40931502385E+04  0.40007084384E+04 0.  0.
        2    1    3    3  502    0  0.17448645126E+04 -0.90581896342E+03 -0.54698268339E+02  0.19667363988E+04  0.25500000920E-02 0.  1.
       -2    1    3    3    0  502 -0.17448645126E+04  0.90581896342E+03 -0.81029356147E+03  0.21264138397E+04  0.25500000920E-02 0. -1.
</event>
<event>
 5   0  0.3399500E-08  0.4005197E+04  0.7818609E-02  0.8003499E-01
        1   -1    0    0  501    0  0.00000000000E+00  0.00000000000E+00  0.16456780625E+04  0.16456780625E+04  0.50400001928E-02 0.  1.
       -1   -1    0    0    0  501  0.00000000000E+00  0.00000000000E+00 -0.24369293224E+04  0.24369293224E+04  0.50400001928E-02 0. -1.
    10030    2    1    2    0    0  0.00000000000E+00  0.00000000000E+00 -0.79125125991E+03  0.40826073849E+04  0.40051971865E+04 0.  0.
        2    1    3    3  502    0 -0.19694233161E+04 -0.25427427490E+03 -0.13154796737E+03  0.19901227280E+04  0.25500000920E-02 0.  1.
       -2    1    3    3    0  502  0.19694233161E+04  0.25427427490E+03 -0.65970329255E+03  0.20924846568E+04  0.25500000920E-02 0. -1.
</event>
<event>
 5   0  0.1101474E-07  0.3998962E+04  0.7818609E-02  0.8004756E-01
       -2   -1    0    0    0  501  0.00000000000E+00  0.00000000000E+00  0.32141017734E+04  0.32141017734E+04  0.25500000920E-02 0.  1.
        2   -1    0    0  501    0  0.00000000000E+00  0.00000000000E+00 -0.12438697587E+04  0.12438697587E+04  0.25500000920E-02 0. -1.
    10030    2    1    2    0    0  0.00000000000E+00  0.00000000000E+00  0.19702320147E+04  0.44579715321E+04  0.39989618639E+04 0.  0.
        5    1    3    3  502    0 -0.10753443302E+04  0.23074260934E+03  0.28466001282E+04  0.30516818249E+04  0.46999998093E+01 0.  1.
       -5    1    3    3    0  502  0.10753443302E+04 -0.23074260934E+03 -0.87636811348E+03  0.14062897072E+04  0.46999998093E+01 0. -1.
</event>
<event>
 5   0  0.3399500E-08  0.3934516E+04  0.7818609E-02  0.8017889E-01
       -1   -1    0    0    0  501  0.00000000000E+00  0.00000000000E+00  0.19428178922E+04  0.19428178922E+04  0.50400001928E-02 0. -1.
        1   -1    0    0  501    0  0.00000000000E+00  0.00000000000E+00 -0.19920058097E+04  0.19920058097E+04  0.50400001928E-02 0.  1.
    10030    2    1    2    0    0  0.00000000000E+00  0.00000000000E+00 -0.49187917490E+02  0.39348237020E+04  0.39345162491E+04 0.  0.
        3    1    3    3  502    0  0.11393326882E+04  0.80664379551E+03  0.13616425367E+04  0.19500829713E+04  0.10100000352E+00 0. -1.
       -3    1    3    3    0  502 -0.11393326882E+04 -0.80664379551E+03 -0.14108304542E+04  0.19847407306E+04  0.10100000352E+00 0.  1.
</event>
<event>
 5   0  0.1095903E-07  0.4019741E+04  0.7818609E-02  0.8000576E-01
        2   -1    0    0  501    0  0.00000000000E+00  0.00000000000E+00  0.31323444713E+04  0.31323444713E+04  0.25500000920E-02 0. -1.
       -2   -1    0    0    0  501  0.00000000000E+00  0.00000000000E+00 -0.12896345566E+04  0.12896345566E+04  0.25500000920E-02 0.  1.
    10030    2    1    2    0    0  0.00000000000E+00  0.00000000000E+00  0.18427099147E+04  0.44219790279E+04  0.40197411227E+04 0.  0.
        3    1    3    3  502    0 -0.17684890417E+04  0.40646374371E+03 -0.29303779778E+02  0.18148346997E+04  0.10100000352E+00 0. -1.
       -3    1    3    3    0  502  0.17684890417E+04 -0.40646374371E+03  0.18720136945E+04  0.26071443282E+04  0.10100000352E+00 0.  1.
</event>
<event>
 5   0  0.3399500E-08  0.4085739E+04  0.7818609E-02  0.7987470E-01
        1   -1    0    0  501    0  0.00000000000E+00  0.00000000000E+00  0.28259572732E+04  0.28259572732E+04  0.50400001928E-02 0.  1.
       -1   -1    0    0    0  501  0.00000000000E+00  0.00000000000E+00 -0.14767795491E+04  0.14767795491E+04  0.50400001928E-02 0. -1.
    10030    2    1    2    0    0  0.00000000000E+00  0.00000000000E+00  0.13491777241E+04  0.43027368223E+04  0.40857390556E+04 0.  0.
        4    1    3    3  502    0 -0.57769516021E+03 -0.19043150739E+04  0.11608099986E+04  0.23038292177E+04  0.12699999809E+01 0.  1.
       -4    1    3    3    0  502  0.57769516021E+03  0.19043150739E+04  0.18836772551E+03  0.19989076046E+04  0.12699999809E+01 0. -1.
</event>
<event>
 5   0  0.1095109E-07  0.3974117E+04  0.7818609E-02  0.8009788E-01
        2   -1    0    0  501    0  0.00000000000E+00  0.00000000000E+00  0.23846167532E+04  0.23846167532E+04  0.25500000920E-02 0. -1.
       -2   -1    0    0    0  501  0.00000000000E+00  0.00000000000E+00 -0.16557800014E+04  0.16557800014E+04  0.25500000920E-02 0.  1.
    10030    2    1    2    0    0  0.00000000000E+00  0.00000000000E+00  0.72883675178E+03  0.40403967545E+04  0.39741166218E+04 0.  0.
        4    1    3    3  502    0  0.54516208496E+03  0.16415255173E+04  0.13587852342E+04  0.21995696507E+04  0.12699999809E+01 0. -1.
       -4    1    3    3    0  502 -0.54516208496E+03 -0.16415255173E+04 -0.62994848245E+03  0.18408271038E+04  0.12699999809E+01 0.  1.
</event>
<event>
 5   0  0.1073271E-07  0.4018229E+04  0.7818609E-02  0.8000879E-01
       -2   -1    0    0    0  501  0.00000000000E+00  0.00000000000E+00  0.14149047593E+04  0.14149047593E+04  0.25500000920E-02 0.  1.
        2   -1    0    0  501    0  0.00000000000E+00  0.00000000000E+00 -0.28528716274E+04  0.28528716274E+04  0.25500000920E-02 0. -1.
    10030    2    1    2    0    0  0.00000000000E+00  0.00000000000E+00 -0.14379668681E+04  0.42677763867E+04  0.40182292833E+04 0.  0.
        1    1    3    3  502    0  0.17238610305E+04 -0.79546115174E+03 -0.20827853736E+02  0.18986545489E+04  0.50400001928E-02 0.  1.
       -1    1    3    3    0  502 -0.17238610305E+04  0.79546115174E+03 -0.14171390144E+04  0.23691218379E+04  0.50400001928E-02 0. -1.
</event>
<event>
 5   0  0.3399500E-08  0.4204652E+04  0.7818609E-02  0.7964488E-01
       -1   -1    0    0    0  501  0.00000000000E+00  0.00000000000E+00  0.22361049106E+04  0.22361049106E+04  0.50400001928E-02 0.  1.
        1   -1    0    0  501    0  0.00000000000E+00  0.00000000000E+00 -0.19765503043E+04  0.19765503043E+04  0.50400001928E-02 0. -1.
    10030    2    1    2    0    0  0.00000000000E+00  0.00000000000E+00  0.25955460634E+03  0.42126552149E+04  0.42046516343E+04 0.  0.
        3    1    3    3  502    0  0.16931867337E+04  0.90818862450E+03 -0.72512643918E+03  0.20536543662E+04  0.10100000352E+00 0. -1.
       -3    1    3    3    0  502 -0.16931867337E+04 -0.90818862450E+03  0.98468104551E+03  0.21590008487E+04  0.10100000352E+00 0.  1.
</event>
<event>
 5   0  0.1095903E-07  0.3815423E+04  0.7818609E-02  0.8042853E-01
       -2   -1    0    0    0  501  0.00000000000E+00  0.00000000000E+00  0.16369943411E+04  0.16369943411E+04  0.25500000920E-02 0.  1.
        2   -1    0    0  501    0  0.00000000000E+00  0.00000000000E+00 -0.22231983905E+04  0.22231983905E+04  0.25500000920E-02 0. -1.
    10030    2    1    2    0    0  0.00000000000E+00  0.00000000000E+00 -0.58620404945E+03  0.38601927316E+04  0.38154230090E+04 0.  0.
        3    1    3    3  502    0  0.49807533722E+03 -0.11549827604E+04 -0.17442610162E+04  0.21504675587E+04  0.10100000352E+00 0. -1.
       -3    1    3    3    0  502 -0.49807533722E+03  0.11549827604E+04  0.11580569667E+04  0.17097251729E+04  0.10100000352E+00 0.  1.
</event>
<event>
 5   0  0.3399500E-08  0.3993223E+04  0.7818609E-02  0.8005915E-01
        1   -1    0    0  501    0  0.00000000000E+00  0.00000000000E+00  0.21515575681E+04  0.21515575681E+04  0.50400001928E-02 0.  1.
       -1   -1    0    0    0  501  0.00000000000E+00  0.00000000000E+00 -0.18528238988E+04  0.18528238988E+04  0.50400001928E-02 0. -1.
    10030    2    1    2    0    0  0.00000000000E+00  0.00000000000E+00  0.29873366930E+03  0.40043814669E+04  0.39932228998E+04 0.  0.
        1    1    3    3  502    0  0.33522335239E+03 -0.75801136050E+02  0.21216716175E+04  0.21493280253E+04  0.50400001928E-02 0.  1.
       -1    1    3    3    0  502 -0.33522335239E+03  0.75801136050E+02 -0.18229379482E+04  0.18550534416E+04  0.50400001928E-02 0. -1.
</event>
<event>
 5   0  0.1087688E-07  0.3939091E+04  0.7818609E-02  0.8016948E-01
        2   -1    0    0  501    0  0.00000000000E+00  0.00000000000E+00  0.29554685313E+04  0.29554685313E+04  0.25500000920E-02 0. -1.
       -2   -1    0    0    0  501  0.00000000000E+00  0.00000000000E+00 -0.13125195402E+04  0.13125195402E+04  0.25500000920E-02 0.  1.
    10030    2    1    2    0    0  0.00000000000E+00  0.00000000000E+00  0.16429489911E+04  0.42679880715E+04  0.39390913661E+04 0.  0.
        2    1    3    3  502    0 -0.18112640999E+04  0.76979616189E+03  0.73862833021E+03  0.21021026571E+04  0.25500000920E-02 0.  1.
       -2    1    3    3    0  502  0.18112640999E+04 -0.76979616189E+03  0.90432066093E+03  0.21658854144E+04  0.25500000920E-02 0. -1.
</event>
<event>
 5   0  0.3399500E-08  0.4013830E+04  0.7818609E-02  0.8001762E-01
        1   -1    0    0  501    0  0.00000000000E+00  0.00000000000E+00  0.23970245628E+04  0.23970245628E+04  0.50400001928E-02 0. -1.
       -1   -1    0    0    0  501  0.00000000000E+00  0.00000000000E+00 -0.16802943777E+04  0.16802943777E+04  0.50400001928E-02 0.  1.
    10030    2    1    2    0    0  0.00000000000E+00  0.00000000000E+00  0.71673018509E+03  0.40773189405E+04  0.40138295410E+04 0.  0.
        4    1    3    3  502    0 -0.64926612563E+03  0.31983981135E+02  0.22871179138E+04  0.23777046582E+04  0.12699999809E+01 0. -1.
       -4    1    3    3    0  502  0.64926612563E+03 -0.31983981135E+02 -0.15703877288E+04  0.16996142823E+04  0.12699999809E+01 0.  1.
</event>
<event>
 5   0  0.3399500E-08  0.4011293E+04  0.7818609E-02  0.8002272E-01
        1   -1    0    0  501    0  0.00000000000E+00  0.00000000000E+00  0.15587037642E+04  0.15587037642E+04  0.50400001928E-02 0. -1.
       -1   -1    0    0    0  501  0.00000000000E+00  0.00000000000E+00 -0.25807460359E+04  0.25807460359E+04  0.50400001928E-02 0.  1.
    10030    2    1    2    0    0  0.00000000000E+00  0.00000000000E+00 -0.10220422717E+04  0.41394498001E+04  0.40112933379E+04 0.  0.
        1    1    3    3  502    0  0.30044226383E+03 -0.87674003056E+03  0.13244791960E+04  0.16165344957E+04  0.50400001928E-02 0. -1.
       -1    1    3    3    0  502 -0.30044226383E+03  0.87674003056E+03 -0.23465214677E+04  0.25229153044E+04  0.50400001928E-02 0.  1.
</event>
<event>
 5   0  0.3399500E-08  0.4011727E+04  0.7818609E-02  0.8002185E-01
       -1   -1    0    0    0  501  0.00000000000E+00  0.00000000000E+00  0.22219904437E+04  0.22219904437E+04  0.50400001928E-02 0.  1.
        1   -1    0    0  501    0  0.00000000000E+00  0.00000000000E+00 -0.18107589560E+04  0.18107589560E+04  0.50400001928E-02 0. -1.
    10030    2    1    2    0    0  0.00000000000E+00  0.00000000000E+00  0.41123148772E+03  0.40327493997E+04  0.40117273567E+04 0.  0.
        2    1    3    3  502    0 -0.17892549977E+04 -0.70629502150E+03  0.77710426470E+03  0.20746510893E+04  0.25500000920E-02 0.  1.
       -2    1    3    3    0  502  0.17892549977E+04  0.70629502150E+03 -0.36587277698E+03  0.19580983104E+04  0.25500000920E-02 0. -1.
</event>
<event>
 5   0  0.1087688E-07  0.3979529E+04  0.7818609E-02  0.8008689E-01
        2   -1    0    0  501    0  0.00000000000E+00  0.00000000000E+00  0.29865756817E+04  0.29865756817E+04  0.25500000920E-02 0.  1.
       -2   -1    0    0    0  501  0.00000000000E+00  0.00000000000E+00 -0.13256528383E+04  0.13256528383E+04  0.25500000920E-02 0. -1.
    10030    2    1    2    0    0  0.00000000000E+00  0.00000000000E+00  0.16609228434E+04  0.43122285201E+04  0.39795288814E+04 0.  0.
        2    1    3    3  502    0  0.36755540142E+03 -0.16867288599E+04 -0.24170934310E+03  0.17431507756E+04  0.25500000920E-02 0. -1.
       -2    1    3    3    0  502 -0.36755540142E+03  0.16867288599E+04  0.19026321865E+04  0.25690777445E+04  0.25500000920E-02 0.  1.
</event>
<event>
 5   0  0.1073271E-07  0.3913174E+04  0.7818609E-02  0.8022295E-01
       -2   -1    0    0    0  501  0.00000000000E+00  0.00000000000E+00  0.21739514252E+04  0.21739514252E+04  0.25500000920E-02 0.  1.
        2   -1    0    0  501    0  0.00000000000E+00  0.00000000000E+00 -0.17609563549E+04  0.17609563549E+04  0.25500000920E-02 0. -1.
    10030    2    1    2    0    0  0.00000000000E+00  0.00000000000E+00  0.41299507030E+03  0.39349077802E+04  0.39131744544E+04 0.  0.
        1    1    3    3  502    0 -0.42022056078E+03  0.68480165171E+03  0.20004166469E+04  0.21557377816E+04  0.50400001928E-02 0.  1.
       -1    1    3    3    0  502  0.42022056078E+03 -0.68480165171E+03 -0.15874215766E+04  0.17791699986E+04  0.50400001928E-02 0. -1.
</event>
<event>
 5   0  0.1101474E-07  0.3976288E+04  0.7818609E-02  0.8009347E-01
        2   -1    0    0  501    0  0.00000000000E+00  0.00000000000E+00  0.24024033952E+04  0.24024033952E+04  0.25500000920E-02 0.  1.
       -2   -1    0    0    0  501  0.00000000000E+00  0.00000000000E+00 -0.16453173963E+04  0.16453173963E+04  0.25500000920E-02 0. -1.
    10030    2    1    2    0    0  0.00000000000E+00  0.00000000000E+00  0.75708599890E+03  0.40477207914E+04  0.39762877657E+04 0.  0.
        5    1    3    3  502    0  0.21101322507E+03  0.10269927221E+04  0.20981061549E+04  0.23454876166E+04  0.46999998093E+01 0.  1.
       -5    1    3    3    0  502 -0.21101322507E+03 -0.10269927221E+04 -0.13410201560E+04  0.17022331748E+04  0.46999998093E+01 0. -1.
</event>
<event>
 5   0  0.1073271E-07  0.3996598E+04  0.7818609E-02  0.8005233E-01
       -2   -1    0    0    0  501  0.00000000000E+00  0.00000000000E+00  0.12871519043E+04  0.12871519043E+04  0.25500000920E-02 0.  1.
        2   -1    0    0  501    0  0.00000000000E+00  0.00000000000E+00 -0.31023531589E+04  0.31023531589E+04  0.25500000920E-02 0. -1.
    10030    2    1    2    0    0  0.00000000000E+00  0.00000000000E+00 -0.18152012547E+04  0.43895050632E+04  0.39965984418E+04 0.  0.
        1    1    3    3  502    0  0.16234514692E+03  0.15792712644E+04  0.42527301763E+03  0.16435664917E+04  0.50400001928E-02 0.  1.
       -1    1    3    3    0  502 -0.16234514692E+03 -0.15792712644E+04 -0.22404742723E+04  0.27459385714E+04  0.50400001928E-02 0. -1.
</event>
<event>
 5   0  0.3399500E-08  0.4004290E+04  0.7818609E-02  0.8003682E-01
        1   -1    0    0  501    0  0.00000000000E+00  0.00000000000E+00  0.12631346979E+04  0.12631346979E+04  0.50400001928E-02 0. -1.
       -1   -1    0    0    0  501  0.00000000000E+00  0.00000000000E+00 -0.31735205744E+04  0.31735205745E+04  0.50400001928E-02 0.  1.
    10030    2    1    2    0    0  0.00000000000E+00  0.00000000000E+00 -0.19103858766E+04  0.44366552723E+04  0.40042896759E+04 0.  0.
        1    1    3    3  502    0  0.41288832538E+03  0.16251200166E+04 -0.21674479352E+04  0.27403142867E+04  0.50400001928E-02 0.  1.
       -1    1    3    3    0  502 -0.41288832538E+03 -0.16251200166E+04  0.25706205869E+03  0.16963409857E+04  0.50400001928E-02 0. -1.
</event>
<event>
 5   0  0.1101474E-07  0.3553691E+04  0.7818609E-02  0.8101182E-01
       -2   -1    0    0    0  501  0.00000000000E+00  0.00000000000E+00  0.12571988840E+04  0.12571988840E+04  0.25500000920E-02 0.  1.
        2   -1    0    0  501    0  0.00000000000E+00  0.00000000000E+00 -0.25112818497E+04  0.25112818497E+04  0.25500000920E-02 0. -1.
    10030    2    1    2    0    0  0.00000000000E+00  0.00000000000E+00 -0.12540829656E+04  0.37684807337E+04  0.35536914547E+04 0.  0.
        5    1    3    3  502    0 -0.10113179789E+04 -0.12213304581E+04  0.22312982444E+03  0.16013185664E+04  0.46999998093E+01 0.  1.
       -5    1    3    3    0  502  0.10113179789E+04  0.12213304581E+04 -0.14772127901E+04  0.21671621674E+04  0.46999998093E+01 0. -1.
</event>
<event>
 5   0  0.1095109E-07  0.3999372E+04  0.7818609E-02  0.8004673E-01
       -2   -1    0    0    0  501  0.00000000000E+00  0.00000000000E+00  0.24454182893E+04  0.24454182893E+04  0.25500000920E-02 0. -1.
        2   -1    0    0  501    0  0.00000000000E+00  0.00000000000E+00 -0.16351981833E+04  0.16351981833E+04  0.25500000920E-02 0.  1.
    10030    2    1    2    0    0  0.00000000000E+00  0.00000000000E+00  0.81022010594E+03  0.40806164726E+04  0.39993717227E+04 0.  0.
        4    1    3    3  502    0 -0.15895857213E+04  0.27135189895E+03 -0.80142078623E+03  0.18007474859E+04  0.12699999809E+01 0.  1.
       -4    1    3    3    0  502  0.15895857213E+04 -0.27135189895E+03  0.16116408922E+04  0.22798689867E+04  0.12699999809E+01 0. -1.
</event>
<event>
 5   0  0.1095109E-07  0.4011669E+04  0.7818609E-02  0.8002197E-01
       -2   -1    0    0    0  501  0.00000000000E+00  0.00000000000E+00  0.19056113059E+04  0.19056113059E+04  0.25500000920E-02 0. -1.
        2   -1    0    0  501    0  0.00000000000E+00  0.00000000000E+00 -0.21113284068E+04  0.21113284068E+04  0.25500000920E-02 0.  1.
    10030    2    1    2    0    0  0.00000000000E+00  0.00000000000E+00 -0.20571710089E+03  0.40169397127E+04  0.40116686216E+04 0.  0.
        4    1    3    3  502    0  0.13956772456E+04 -0.12079288007E+04  0.68326071479E+03  0.19682108065E+04  0.12699999809E+01 0. -1.
       -4    1    3    3    0  502 -0.13956772456E+04  0.12079288007E+04 -0.88897781567E+03  0.20487289062E+04  0.12699999809E+01 0.  1.
</event>
<event>
 5   0  0.3399500E-08  0.4002016E+04  0.7818609E-02  0.8004140E-01
       -1   -1    0    0    0  501  0.00000000000E+00  0.00000000000E+00  0.14527086227E+04  0.14527086227E+04  0.50400001928E-02 0. -1.
        1   -1    0    0  501    0  0.00000000000E+00  0.00000000000E+00 -0.27562533624E+04  0.27562533624E+04  0.50400001928E-02 0.  1.
    10030    2    1    2    0    0  0.00000000000E+00  0.00000000000E+00 -0.13035447397E+04  0.42089619851E+04  0.40020160049E+04 0.  0.
        2    1    3    3  502    0 -0.71086581240E+03  0.66180084809E+03  0.11881866796E+04  0.15346329044E+04  0.25500000920E-02 0. -1.
       -2    1    3    3    0  502  0.71086581240E+03 -0.66180084809E+03 -0.24917314193E+04  0.26743290807E+04  0.25500000920E-02 0.  1.
</event>
<event>
 5   0  0.3399500E-08  0.4015802E+04  0.7818609E-02  0.8001366E-01
       -1   -1    0    0    0  501  0.00000000000E+00  0.00000000000E+00  0.16749318679E+04  0.16749318679E+04  0.50400001928E-02 0. -1.
        1   -1    0    0  501    0  0.00000000000E+00  0.00000000000E+00 -0.24070624727E+04  0.24070624727E+04  0.50400001928E-02 0.  1.
    10030    2    1    2    0    0  0.00000000000E+00  0.00000000000E+00 -0.73213060474E+03  0.40819943406E+04  0.40158016105E+04 0.  0.
        3    1    3    3  502    0  0.41986429866E+03  0.19548243262E+04 -0.17852084876E+03  0.20073599276E+04  0.10100000352E+00 0. -1.
       -3    1    3    3    0  502 -0.41986429866E+03 -0.19548243262E+04 -0.55360975598E+03  0.20746344130E+04  0.10100000352E+00 0.  1.
</event>
<event>
 5   0  0.3399500E-08  0.3974138E+04  0.7818609E-02  0.8009784E-01
       -1   -1    0    0    0  501  0.00000000000E+00  0.00000000000E+00  0.35058263487E+04  0.35058263487E+04  0.50400001928E-02 0.  1.
        1   -1    0    0  501    0  0.00000000000E+00  0.00000000000E+00 -0.11262520319E+04  0.11262520319E+04  0.50400001928E-02 0. -1.
    10030    2    1    2    0    0  0.00000000000E+00  0.00000000000E+00  0.23795743168E+04  0.46320783806E+04  0.39741384216E+04 0.  0.
        5    1    3    3  502    0 -0.14419736382E+03 -0.19193227013E+04  0.61424652980E+03  0.20203745694E+04  0.46999998093E+01 0.  1.
       -5    1    3    3    0  502  0.14419736382E+03  0.19193227013E+04  0.17653277870E+04  0.26117038111E+04  0.46999998093E+01 0. -1.
</event>
<event>
 5   0  0.1095109E-07  0.3859914E+04  0.7818609E-02  0.8033418E-01
       -2   -1    0    0    0  501  0.00000000000E+00  0.00000000000E+00  0.13246748723E+04  0.13246748723E+04  0.25500000920E-02 0.  1.
        2   -1    0    0  501    0  0.00000000000E+00  0.00000000000E+00 -0.28118094566E+04  0.28118094566E+04  0.25500000920E-02 0. -1.
    10030    2    1    2    0    0  0.00000000000E+00  0.00000000000E+00 -0.14871345843E+04  0.41364843290E+04  0.38599136431E+04 0.  0.
        4    1    3    3  502    0 -0.16251399876E+04 -0.98556744015E+03 -0.11027043558E+04  0.21973578834E+04  0.12699999809E+01 0. -1.
       -4    1    3    3    0  502  0.16251399876E+04  0.98556744015E+03 -0.38443022857E+03  0.19391264456E+04  0.12699999809E+01 0.  1.
</event>
<event>
 5   0  0.1101474E-07  0.4002943E+04  0.7818609E-02  0.8003953E-01
        2   -1    0    0  501    0  0.00000000000E+00  0.00000000000E+00  0.19693342015E+04  0.19693342015E+04  0.25500000920E-02 0.  1.
       -2   -1    0    0    0  501  0.00000000000E+00  0.00000000000E+00 -0.20341334664E+04  0.20341334664E+04  0.25500000920E-02 0. -1.
    10030    2    1    2    0    0  0.00000000000E+00  0.00000000000E+00 -0.64799264907E+02  0.40034676680E+04  0.40029432201E+04 0.  0.
        5    1    3    3  502    0  0.81459112708E+03  0.14230067841E+04 -0.11803128329E+04  0.20203137097E+04  0.46999998093E+01 0. -1.
       -5    1    3    3    0  502 -0.81459112708E+03 -0.14230067841E+04  0.11155135680E+04  0.19831539583E+04  0.46999998093E+01 0.  1.
</event>
<event>
 5   0  0.1073271E-07  0.3985471E+04  0.7818609E-02  0.8007484E-01
        2   -1    0    0  501    0  0.00000000000E+00  0.00000000000E+00  0.23299228860E+04  0.23299228860E+04  0.25500000920E-02 0. -1.
       -2   -1    0    0    0  501  0.00000000000E+00  0.00000000000E+00 -0.17043458424E+04  0.17043458424E+04  0.25500000920E-02 0.  1.
    10030    2    1    2    0    0  0.00000000000E+00  0.00000000000E+00  0.62557704355E+03  0.40342687284E+04  0.39854708047E+04 0.  0.
        1    1    3    3  502    0 -0.46759226398E+03  0.18569395399E+04  0.87101826020E+03  0.21036966963E+04  0.50400001928E-02 0. -1.
       -1    1    3    3    0  502  0.46759226398E+03 -0.18569395399E+04 -0.24544121665E+03  0.19305720321E+04  0.50400001928E-02 0.  1.
</event>
<event>
 5   0  0.1073271E-07  0.3997524E+04  0.7818609E-02  0.8005046E-01
       -2   -1    0    0    0  501  0.00000000000E+00  0.00000000000E+00  0.14501433217E+04  0.14501433217E+04  0.25500000920E-02 0. -1.
        2   -1    0    0  501    0  0.00000000000E+00  0.00000000000E+00 -0.27549345586E+04  0.27549345586E+04  0.25500000920E-02 0.  1.
    10030    2    1    2    0    0  0.00000000000E+00  0.00000000000E+00 -0.13047912369E+04  0.42050778802E+04  0.39975242097E+04 0.  0.
        1    1    3    3  502    0  0.47865675053E+03  0.18788247405E+04 -0.14142282838E+03  0.19439894821E+04  0.50400001928E-02 0. -1.
       -1    1    3    3    0  502 -0.47865675053E+03 -0.18788247405E+04 -0.11633684085E+04  0.22610883981E+04  0.50400001928E-02 0.  1.
</event>
<event>
 5   0  0.1095109E-07  0.3946603E+04  0.7818609E-02  0.8015406E-01
       -2   -1    0    0    0  501  0.00000000000E+00  0.00000000000E+00  0.19979461204E+04  0.19979461204E+04  0.25500000920E-02 0. -1.
        2   -1    0    0  501    0  0.00000000000E+00  0.00000000000E+00 -0.19489612038E+04  0.19489612038E+04  0.25500000920E-02 0.  1.
    10030    2    1    2    0    0  0.00000000000E+00  0.00000000000E+00  0.48984916598E+02  0.39469073241E+04  0.39466033375E+04 0.  0.
        4    1    3    3  502    0  0.12224309732E+04 -0.11458830233E+03  0.15694253195E+04  0.19926277650E+04  0.12699999809E+01 0. -1.
       -4    1    3    3    0  502 -0.12224309732E+04  0.11458830233E+03 -0.15204404029E+04  0.19542795591E+04  0.12699999809E+01 0.  1.
</event>
<event>
 5   0  0.3399500E-08  0.3966435E+04  0.7818609E-02  0.8011352E-01
       -1   -1    0    0    0  501  0.00000000000E+00  0.00000000000E+00  0.17460776731E+04  0.17460776731E+04  0.50400001928E-02 0.  1.
        1   -1    0    0  501    0  0.00000000000E+00  0.00000000000E+00 -0.22525637409E+04  0.22525637410E+04  0.50400001928E-02 0. -1.
    10030    2    1    2    0    0  0.00000000000E+00  0.00000000000E+00 -0.50648606783E+03  0.39986414141E+04  0.39664347998E+04 0.  0.
        4    1    3    3  502    0 -0.89389641559E+03  0.10737375896E+04 -0.16722182567E+04  0.21790545482E+04  0.12699999809E+01 0. -1.
       -4    1    3    3    0  502  0.89389641559E+03 -0.10737375896E+04  0.11657321889E+04  0.18195868658E+04  0.12699999809E+01 0.  1.
</event>
<event>
 5   0  0.1095109E-07  0.3970084E+04  0.7818609E-02  0.8010609E-01
       -2   -1    0    0    0  501  0.00000000000E+00  0.00000000000E+00  0.23159238522E+04  0.23159238522E+04  0.25500000920E-02 0. -1.
        2   -1    0    0  501    0  0.00000000000E+00  0.00000000000E+00 -0.17014343153E+04  0.17014343153E+04  0.25500000920E-02 0.  1.
    10030    2    1    2    0    0  0.00000000000E+00  0.00000000000E+00  0.61448953698E+03  0.40173581675E+04  0.39700842882E+04 0.  0.
        4    1    3    3  502    0  0.10135825695E+04 -0.16307433199E+04  0.81694621524E+03  0.20866423106E+04  0.12699999809E+01 0. -1.
       -4    1    3    3    0  502 -0.10135825695E+04  0.16307433199E+04 -0.20245667826E+03  0.19307158569E+04  0.12699999809E+01 0.  1.
</event>
<event>
 5   0  0.3399500E-08  0.4008168E+04  0.7818609E-02  0.8002901E-01
        1   -1    0    0  501    0  0.00000000000E+00  0.00000000000E+00  0.14568888855E+04  0.14568888855E+04  0.50400001928E-02 0. -1.
       -1   -1    0    0    0  501  0.00000000000E+00  0.00000000000E+00 -0.27568010996E+04  0.27568010996E+04  0.50400001928E-02 0.  1.
    10030    2    1    2    0    0  0.00000000000E+00  0.00000000000E+00 -0.12999122140E+04  0.42136899851E+04  0.40081681011E+04 0.  0.
        3    1    3    3  502    0 -0.36753249349E+03  0.16438228938E+04 -0.17915075231E+04  0.24590105847E+04  0.10100000352E+00 0. -1.
       -3    1    3    3    0  502  0.36753249349E+03 -0.16438228938E+04  0.49159530910E+03  0.17546794004E+04  0.10100000352E+00 0.  1.
</event>
<event>
 5   0  0.3399500E-08  0.4005901E+04  0.7818609E-02  0.8003357E-01
        1   -1    0    0  501    0  0.00000000000E+00  0.00000000000E+00  0.18608426673E+04  0.18608426673E+04  0.50400001928E-02 0. -1.
       -1   -1    0    0    0  501  0.00000000000E+00  0.00000000000E+00 -0.21559104420E+04  0.21559104420E+04  0.50400001928E-02 0.  1.
    10030    2    1    2    0    0  0.00000000000E+00  0.00000000000E+00 -0.29506777464E+03  0.40167531093E+04  0.40059007164E+04 0.  0.
        4    1    3    3  502    0 -0.17217089083E+04 -0.99979574144E+03  0.72000872571E+02  0.19922496902E+04  0.12699999809E+01 0. -1.
       -4    1    3    3    0  502  0.17217089083E+04  0.99979574144E+03 -0.36706864722E+03  0.20245034192E+04  0.12699999809E+01 0.  1.
</event>
<event>
 5   0  0.3399500E-08  0.3895134E+04  0.7818609E-02  0.8026042E-01
        1   -1    0    0  501    0  0.00000000000E+00  0.00000000000E+00  0.22777034237E+04  0.22777034237E+04  0.50400001928E-02 0. -1.
       -1   -1    0    0    0  501  0.00000000000E+00  0.00000000000E+00 -0.16652814224E+04  0.16652814224E+04  0.50400001928E-02 0.  1.
    10030    2    1    2    0    0  0.00000000000E+00  0.00000000000E+00  0.61242200132E+03  0.39429848461E+04  0.38951339886E+04 0.  0.
        2    1    3    3  502    0 -0.12055145755E+04 -0.15128392238E+04  0.53497232873E+03  0.20070234930E+04  0.25500000920E-02 0. -1.
       -2    1    3    3    0  502  0.12055145755E+04  0.15128392238E+04  0.77449672592E+02  0.19359613531E+04  0.25500000920E-02 0.  1.
</event>
<event>
 5   0  0.1073271E-07  0.3892627E+04  0.7818609E-02  0.8026564E-01
        2   -1    0    0  501    0  0.00000000000E+00  0.00000000000E+00  0.18650966515E+04  0.18650966515E+04  0.25500000920E-02 0. -1.
       -2   -1    0    0    0  501  0.00000000000E+00  0.00000000000E+00 -0.20310667443E+04  0.20310667443E+04  0.25500000920E-02 0.  1.
    10030    2    1    2    0    0  0.00000000000E+00  0.00000000000E+00 -0.16597009281E+03  0.38961633959E+04  0.38926267655E+04 0.  0.
        1    1    3    3  502    0 -0.20537475422E+03  0.61701472457E+03 -0.19191134651E+04  0.20262977205E+04  0.50400001928E-02 0.  1.
       -1    1    3    3    0  502  0.20537475422E+03 -0.61701472457E+03  0.17531433723E+04  0.18698656754E+04  0.50400001928E-02 0. -1.
</event>
<event>
 5   0  0.3399500E-08  0.4008070E+04  0.7818609E-02  0.8002921E-01
        1   -1    0    0  501    0  0.00000000000E+00  0.00000000000E+00  0.12354462533E+04  0.12354462533E+04  0.50400001928E-02 0. -1.
       -1   -1    0    0    0  501  0.00000000000E+00  0.00000000000E+00 -0.32507733988E+04  0.32507733988E+04  0.50400001928E-02 0.  1.
    10030    2    1    2    0    0  0.00000000000E+00  0.00000000000E+00 -0.20153271455E+04  0.44862196521E+04  0.40080697677E+04 0.  0.
        3    1    3    3  502    0  0.87108535716E+03 -0.14314491401E+04  0.22270759876E+03  0.16903949317E+04  0.10100000352E+00 0. -1.
       -3    1    3    3    0  502 -0.87108535716E+03  0.14314491401E+04 -0.22380347443E+04  0.27958247204E+04  0.10100000352E+00 0.  1.
</event>
<event>
 5   0  0.1073271E-07  0.4000432E+04  0.7818609E-02  0.8004459E-01
        2   -1    0    0  501    0  0.00000000000E+00  0.00000000000E+00  0.30203049539E+04  0.30203049539E+04  0.25500000920E-02 0.  1.
       -2   -1    0    0    0  501  0.00000000000E+00  0.00000000000E+00 -0.13246557608E+04  0.13246557608E+04  0.25500000920E-02 0. -1.
    10030    2    1    2    0    0  0.00000000000E+00  0.00000000000E+00  0.16956491932E+04  0.43449607147E+04  0.40004321549E+04 0.  0.
        1    1    3    3  502    0 -0.12848301753E+04 -0.10509172444E+04  0.20600314588E+04  0.26455519736E+04  0.50400001928E-02 0.  1.
       -1    1    3    3    0  502  0.12848301753E+04  0.10509172444E+04 -0.36438226568E+03  0.16994087411E+04  0.50400001928E-02 0. -1.
</event>
<event>
 5   0  0.1087688E-07  0.3993810E+04  0.7818609E-02  0.8005796E-01
       -2   -1    0    0    0  501  0.00000000000E+00  0.00000000000E+00  0.14425514377E+04  0.14425514377E+04  0.25500000920E-02 0. -1.
        2   -1    0    0  501    0  0.00000000000E+00  0.00000000000E+00 -0.27642894170E+04  0.27642894170E+04  0.25500000920E-02 0.  1.
    10030    2    1    2    0    0  0.00000000000E+00  0.00000000000E+00 -0.13217379793E+04  0.42068408546E+04  0.39938100468E+04 0.  0.
        2    1    3    3  502    0  0.92710026991E+03 -0.67382321651E+03  0.10616167492E+04  0.15622364609E+04  0.25500000920E-02 0. -1.
       -2    1    3    3    0  502 -0.92710026991E+03  0.67382321651E+03 -0.23833547285E+04  0.26446043937E+04  0.25500000920E-02 0.  1.
</event>
<event>
 5   0  0.1095109E-07  0.4018523E+04  0.7818609E-02  0.8000820E-01
       -2   -1    0    0    0  501  0.00000000000E+00  0.00000000000E+00  0.13615702997E+04  0.13615702997E+04  0.25500000920E-02 0. -1.
        2   -1    0    0  501    0  0.00000000000E+00  0.00000000000E+00 -0.29650562100E+04  0.29650562100E+04  0.25500000920E-02 0.  1.
    10030    2    1    2    0    0  0.00000000000E+00  0.00000000000E+00 -0.16034859103E+04  0.43266265097E+04  0.40185233469E+04 0.  0.
        4    1    3    3  502    0  0.98927214074E+03  0.11983896378E+04  0.56962189865E+03  0.16550733557E+04  0.12699999809E+01 0. -1.
       -4    1    3    3    0  502 -0.98927214074E+03 -0.11983896378E+04 -0.21731078089E+04  0.26715531540E+04  0.12699999809E+01 0.  1.
</event>
<event>
 5   0  0.3399500E-08  0.4007674E+04  0.7818609E-02  0.8003000E-01
        1   -1    0    0  501    0  0.00000000000E+00  0.00000000000E+00  0.29184197187E+04  0.29184197187E+04  0.50400001928E-02 0.  1.
       -1   -1    0    0    0  501  0.00000000000E+00  0.00000000000E+00 -0.13758686749E+04  0.13758686749E+04  0.50400001928E-02 0. -1.
    10030    2    1    2    0    0  0.00000000000E+00  0.00000000000E+00  0.15425510438E+04  0.42942883936E+04  0.40076737747E+04 0.  0.
        4    1    3    3  502    0 -0.81532935324E+02  0.18192007068E+04  0.16672720628E+04  0.24689950537E+04  0.12699999809E+01 0.  1.
       -4    1    3    3    0  502  0.81532935324E+02 -0.18192007068E+04 -0.12472101896E+03  0.18252933398E+04  0.12699999809E+01 0. -1.
</event>
<event>
 5   0  0.3399500E-08  0.4002485E+04  0.7818609E-02  0.8004046E-01
        1   -1    0    0  501    0  0.00000000000E+00  0.00000000000E+00  0.21523666213E+04  0.21523666213E+04  0.50400001928E-02 0. -1.
       -1   -1    0    0    0  501  0.00000000000E+00  0.00000000000E+00 -0.18607288484E+04  0.18607288484E+04  0.50400001928E-02 0.  1.
    10030    2    1    2    0    0  0.00000000000E+00  0.00000000000E+00  0.29163777283E+03  0.40130954697E+04  0.40024845607E+04 0.  0.
        1    1    3    3  502    0  0.91033105242E+03 -0.82052090136E+02  0.19308575858E+04  0.21362692216E+04  0.50400001928E-02 0. -1.
       -1    1    3    3    0  502 -0.91033105242E+03  0.82052090136E+02 -0.16392198129E+04  0.18768262481E+04  0.50400001928E-02 0.  1.
</event>
<event>
 5   0  0.1095109E-07  0.3995995E+04  0.7818609E-02  0.8005355E-01
       -2   -1    0    0    0  501  0.00000000000E+00  0.00000000000E+00  0.15886852377E+04  0.15886852377E+04  0.25500000920E-02 0. -1.
        2   -1    0    0  501    0  0.00000000000E+00  0.00000000000E+00 -0.25127663799E+04  0.25127663799E+04  0.25500000920E-02 0.  1.
    10030    2    1    2    0    0  0.00000000000E+00  0.00000000000E+00 -0.92408114225E+03  0.41014516176E+04  0.39959954221E+04 0.  0.
        4    1    3    3  502    0 -0.10749482937E+04 -0.16758111732E+04 -0.28987502488E+03  0.20119358999E+04  0.12699999809E+01 0. -1.
       -4    1    3    3    0  502  0.10749482937E+04  0.16758111732E+04 -0.63420611737E+03  0.20895157177E+04  0.12699999809E+01 0.  1.
</event>
<event>
 5   0  0.1101474E-07  0.3999396E+04  0.7818609E-02  0.8004668E-01
       -2   -1    0    0    0  501  0.00000000000E+00  0.00000000000E+00  0.20103706749E+04  0.20103706749E+04  0.25500000920E-02 0.  1.
        2   -1    0    0  501    0  0.00000000000E+00  0.00000000000E+00 -0.19890820998E+04  0.19890820998E+04  0.25500000920E-02 0. -1.
    10030    2    1    2    0    0  0.00000000000E+00  0.00000000000E+00  0.21288575122E+02  0.39994527747E+04  0.39993961161E+04 0.  0.
        5    1    3    3  502    0 -0.74332057563E+03 -0.13705551383E+04 -0.12415009878E+04  0.19930613783E+04  0.46999998093E+01 0. -1.
       -5    1    3    3    0  502  0.74332057563E+03  0.13705551383E+04  0.12627895629E+04  0.20063913963E+04  0.46999998093E+01 0.  1.
</event>
<event>
 5   0  0.3399500E-08  0.4004055E+04  0.7818609E-02  0.8003729E-01
        1   -1    0    0  501    0  0.00000000000E+00  0.00000000000E+00  0.28252233287E+04  0.28252233287E+04  0.50400001928E-02 0. -1.
       -1   -1    0    0    0  501  0.00000000000E+00  0.00000000000E+00 -0.14186891755E+04  0.14186891756E+04  0.50400001928E-02 0.  1.
    10030    2    1    2    0    0  0.00000000000E+00  0.00000000000E+00  0.14065341531E+04  0.42439125042E+04  0.40040548222E+04 0.  0.
        2    1    3    3  502    0 -0.12397082950E+04 -0.68199242613E+03 -0.79795599921E+03  0.16244150032E+04  0.25500000920E-02 0. -1.
       -2    1    3    3    0  502  0.12397082950E+04  0.68199242613E+03  0.22044901523E+04  0.26194975010E+04  0.25500000920E-02 0.  1.
</event>
<event>
 5   0  0.3399500E-08  0.4099617E+04  0.7818609E-02  0.7984747E-01
       -1   -1    0    0    0  501  0.00000000000E+00  0.00000000000E+00  0.23010949692E+04  0.23010949692E+04  0.50400001928E-02 0. -1.
        1   -1    0    0  501    0  0.00000000000E+00  0.00000000000E+00 -0.18259628537E+04  0.18259628537E+04  0.50400001928E-02 0.  1.
    10030    2    1    2    0    0  0.00000000000E+00  0.00000000000E+00  0.47513211551E+03  0.41270578228E+04  0.40996165364E+04 0.  0.
        3    1    3    3  502    0  0.99736952000E+03  0.64948806424E+03 -0.14424765816E+04  0.18701121366E+04  0.10100000352E+00 0.  1.
       -3    1    3    3    0  502 -0.99736952000E+03 -0.64948806424E+03  0.19176086971E+04  0.22569456862E+04  0.10100000352E+00 0. -1.
</event>
<event>
 5   0  0.1087688E-07  0.3998295E+04  0.7818609E-02  0.8004891E-01
       -2   -1    0    0    0  501  0.00000000000E+00  0.00000000000E+00  0.23439014103E+04  0.23439014103E+04  0.25500000920E-02 0. -1.
        2   -1    0    0  501    0  0.00000000000E+00  0.00000000000E+00 -0.17051020412E+04  0.17051020412E+04  0.25500000920E-02 0.  1.
    10030    2    1    2    0    0  0.00000000000E+00  0.00000000000E+00  0.63879936914E+03  0.40490034516E+04  0.39982951763E+04 0.  0.
        2    1    3    3  502    0  0.39458391362E+03 -0.42106859042E+03 -0.16189274415E+04  0.17186975544E+04  0.25500000920E-02 0.  1.
       -2    1    3    3    0  502 -0.39458391362E+03  0.42106859042E+03  0.22577268106E+04  0.23303058971E+04  0.25500000920E-02 0. -1.
</event>
<event>
 5   0  0.1095109E-07  0.4018479E+04  0.7818609E-02  0.8000829E-01
       -2   -1    0    0    0  501  0.00000000000E+00  0.00000000000E+00  0.22600857601E+04  0.22600857601E+04  0.25500000920E-02 0. -1.
        2   -1    0    0  501    0  0.00000000000E+00  0.00000000000E+00 -0.17862343595E+04  0.17862343595E+04  0.25500000920E-02 0.  1.
    10030    2    1    2    0    0  0.00000000000E+00  0.00000000000E+00  0.47385140055E+03  0.40463201196E+04  0.40184787371E+04 0.  0.
        4    1    3    3  502    0 -0.72196685267E+03  0.34816305141E+03 -0.16182800116E+04  0.18059029474E+04  0.12699999809E+01 0.  1.
       -4    1    3    3    0  502  0.72196685267E+03 -0.34816305141E+03  0.20921314121E+04  0.22404171721E+04  0.12699999809E+01 0. -1.
</event>
<event>
 5   0  0.3399500E-08  0.3989533E+04  0.7818609E-02  0.8006661E-01
       -1   -1    0    0    0  501  0.00000000000E+00  0.00000000000E+00  0.17350238914E+04  0.17350238914E+04  0.50400001928E-02 0.  1.
        1   -1    0    0  501    0  0.00000000000E+00  0.00000000000E+00 -0.22933939971E+04  0.22933939971E+04  0.50400001928E-02 0. -1.
    10030    2    1    2    0    0  0.00000000000E+00  0.00000000000E+00 -0.55837010567E+03  0.40284178884E+04  0.39895329939E+04 0.  0.
        1    1    3    3  502    0 -0.10442551149E+04 -0.14819198302E+04 -0.11194850015E+04  0.21306810641E+04  0.50400001928E-02 0. -1.
       -1    1    3    3    0  502  0.10442551149E+04  0.14819198302E+04  0.56111489583E+03  0.18977368244E+04  0.50400001928E-02 0.  1.
</event>
<event>
 5   0  0.3399500E-08  0.4052425E+04  0.7818609E-02  0.7994053E-01
        1   -1    0    0  501    0  0.00000000000E+00  0.00000000000E+00  0.16469116649E+04  0.16469116649E+04  0.50400001928E-02 0. -1.
       -1   -1    0    0    0  501  0.00000000000E+00  0.00000000000E+00 -0.24928703312E+04  0.24928703312E+04  0.50400001928E-02 0.  1.
    10030    2    1    2    0    0  0.00000000000E+00  0.00000000000E+00 -0.84595866634E+03  0.41397819961E+04  0.40524250653E+04 0.  0.
        1    1    3    3  502    0  0.10821846455E+03  0.62302865573E+03 -0.23894856178E+04  0.24717438095E+04  0.50400001928E-02 0.  1.
       -1    1    3    3    0  502 -0.10821846455E+03 -0.62302865573E+03  0.15435269515E+04  0.16680381866E+04  0.50400001928E-02 0. -1.
</event>
<event>
 5   0  0.1095903E-07  0.3973917E+04  0.7818609E-02  0.8009829E-01
       -2   -1    0    0    0  501  0.00000000000E+00  0.00000000000E+00  0.18803761421E+04  0.18803761421E+04  0.25500000920E-02 0.  1.
        2   -1    0    0  501    0  0.00000000000E+00  0.00000000000E+00 -0.20995817062E+04  0.20995817062E+04  0.25500000920E-02 0. -1.
    10030    2    1    2    0    0  0.00000000000E+00  0.00000000000E+00 -0.21920556415E+03  0.39799578483E+04  0.39739166316E+04 0.  0.
        3    1    3    3  502    0  0.82609602441E+03  0.16607065359E+04 -0.82316221531E+03  0.20292798927E+04  0.10100000352E+00 0. -1.
       -3    1    3    3    0  502 -0.82609602441E+03 -0.16607065359E+04  0.60395665116E+03  0.19506779556E+04  0.10100000352E+00 0.  1.
</event>
<event>
 5   0  0.3399500E-08  0.4003901E+04  0.7818609E-02  0.8003760E-01
       -1   -1    0    0    0  501  0.00000000000E+00  0.00000000000E+00  0.29642775728E+04  0.29642775728E+04  0.50400001928E-02 0.  1.
        1   -1    0    0  501    0  0.00000000000E+00  0.00000000000E+00 -0.13520345067E+04  0.13520345067E+04  0.50400001928E-02 0. -1.
    10030    2    1    2    0    0  0.00000000000E+00  0.00000000000E+00  0.16122430661E+04  0.43163120796E+04  0.40039008809E+04 0.  0.
        1    1    3    3  502    0  0.24870777137E+03  0.13798875822E+04  0.23465535247E+04  0.27335432573E+04  0.50400001928E-02 0.  1.
       -1    1    3    3    0  502 -0.24870777137E+03 -0.13798875822E+04 -0.73431045863E+03  0.15827688223E+04  0.50400001928E-02 0. -1.
</event>
<event>
 5   0  0.3399500E-08  0.3763007E+04  0.7818609E-02  0.8054140E-01
       -1   -1    0    0    0  501  0.00000000000E+00  0.00000000000E+00  0.16576260715E+04  0.16576260715E+04  0.50400001928E-02 0.  1.
        1   -1    0    0  501    0  0.00000000000E+00  0.00000000000E+00 -0.21356181481E+04  0.21356181481E+04  0.50400001928E-02 0. -1.
    10030    2    1    2    0    0  0.00000000000E+00  0.00000000000E+00 -0.47799207668E+03  0.37932442196E+04  0.37630074786E+04 0.  0.
        3    1    3    3  502    0 -0.49949322033E+03 -0.11207245899E+04  0.11988379885E+04  0.17154386076E+04  0.10100000352E+00 0.  1.
       -3    1    3    3    0  502  0.49949322033E+03  0.11207245899E+04 -0.16768300652E+04  0.20778056120E+04  0.10100000352E+00 0. -1.
</event>
<event>
 5   0  0.3399500E-08  0.3990947E+04  0.7818609E-02  0.8006375E-01
        1   -1    0    0  501    0  0.00000000000E+00  0.00000000000E+00  0.24619103488E+04  0.24619103488E+04  0.50400001928E-02 0. -1.
       -1   -1    0    0    0  501  0.00000000000E+00  0.00000000000E+00 -0.16174085770E+04  0.16174085770E+04  0.50400001928E-02 0.  1.
    10030    2    1    2    0    0  0.00000000000E+00  0.00000000000E+00  0.84450177176E+03  0.40793189258E+04  0.39909472129E+04 0.  0.
        1    1    3    3  502    0  0.19799571556E+04  0.14798247154E+03  0.62613131051E+03  0.20818668468E+04  0.50400001928E-02 0. -1.
       -1    1    3    3    0  502 -0.19799571556E+04 -0.14798247154E+03  0.21837046125E+03  0.19974520791E+04  0.50400001928E-02 0.  1.
</event>
<event>
 5   0  0.3399500E-08  0.3543648E+04  0.7818609E-02  0.8103523E-01
        1   -1    0    0  501    0  0.00000000000E+00  0.00000000000E+00  0.24589504406E+04  0.24589504406E+04  0.50400001928E-02 0. -1.
       -1   -1    0    0    0  501  0.00000000000E+00  0.00000000000E+00 -0.12767077781E+04  0.12767077781E+04  0.50400001928E-02 0.  1.
    10030    2    1    2    0    0  0.00000000000E+00  0.00000000000E+00  0.11822426625E+04  0.37356582187E+04  0.35436484890E+04 0.  0.
        3    1    3    3  502    0  0.83148430699E+03 -0.12596384294E+04  0.15694735633E+04  0.21774531916E+04  0.10100000352E+00 0.  1.
       -3    1    3    3    0  502 -0.83148430699E+03  0.12596384294E+04 -0.38723090079E+03  0.15582050271E+04  0.10100000352E+00 0. -1.
</event>
<event>
 5   0  0.1101474E-07  0.4011907E+04  0.7818609E-02  0.8002149E-01
        2   -1    0    0  501    0  0.00000000000E+00  0.00000000000E+00  0.21655068665E+04  0.21655068665E+04  0.25500000920E-02 0.  1.
       -2   -1    0    0    0  501  0.00000000000E+00  0.00000000000E+00 -0.18581559795E+04  0.18581559795E+04  0.25500000920E-02 0. -1.
    10030    2    1    2    0    0  0.00000000000E+00  0.00000000000E+00  0.30735088691E+03  0.40236628460E+04  0.40119070441E+04 0.  0.
        5    1    3    3  502    0  0.19697602709E+04 -0.22353105014E+03  0.46101389596E+03  0.20353077304E+04  0.46999998093E+01 0.  1.
       -5    1    3    3    0  502 -0.19697602709E+04  0.22353105014E+03 -0.15366300905E+03  0.19883551156E+04  0.46999998093E+01 0. -1.
</event>
<event>
 5   0  0.3399500E-08  0.3985371E+04  0.7818609E-02  0.8007504E-01
       -1   -1    0    0    0  501  0.00000000000E+00  0.00000000000E+00  0.19871030537E+04  0.19871030537E+04  0.50400001928E-02 0. -1.
        1   -1    0    0  501    0  0.00000000000E+00  0.00000000000E+00 -0.19982833960E+04  0.19982833960E+04  0.50400001928E-02 0.  1.
    10030    2    1    2    0    0  0.00000000000E+00  0.00000000000E+00 -0.11180342282E+02  0.39853864496E+04  0.39853707673E+04 0.  0.
        4    1    3    3  502    0  0.24576752101E+03 -0.11168978340E+01 -0.19830686863E+04  0.19982407136E+04  0.12699999809E+01 0.  1.
       -4    1    3    3    0  502 -0.24576752101E+03  0.11168978340E+01  0.19718883441E+04  0.19871457360E+04  0.12699999809E+01 0. -1.
</event>
<event>
 5   0  0.3399500E-08  0.3994098E+04  0.7818609E-02  0.8005738E-01
       -1   -1    0    0    0  501  0.00000000000E+00  0.00000000000E+00  0.20443540466E+04  0.20443540466E+04  0.50400001928E-02 0.  1.
        1   -1    0    0  501    0  0.00000000000E+00  0.00000000000E+00 -0.19508381587E+04  0.19508381587E+04  0.50400001928E-02 0. -1.
    10030    2    1    2    0    0  0.00000000000E+00  0.00000000000E+00  0.93515887938E+02  0.39951922053E+04  0.39940975872E+04 0.  0.
        1    1    3    3  502    0 -0.43083878658E+03  0.90174670290E+02 -0.19017107994E+04  0.19519880880E+04  0.50400001928E-02 0. -1.
       -1    1    3    3    0  502  0.43083878658E+03 -0.90174670290E+02  0.19952266873E+04  0.20432041173E+04  0.50400001928E-02 0.  1.
</event>
<event>
 5   0  0.3399500E-08  0.3969006E+04  0.7818609E-02  0.8010828E-01
        1   -1    0    0  501    0  0.00000000000E+00  0.00000000000E+00  0.14283517642E+04  0.14283517642E+04  0.50400001928E-02 0. -1.
       -1   -1    0    0    0  501  0.00000000000E+00  0.00000000000E+00 -0.27572009763E+04  0.27572009763E+04  0.50400001928E-02 0.  1.
    10030    2    1    2    0    0  0.00000000000E+00  0.00000000000E+00 -0.13288492121E+04  0.41855527405E+04  0.39690063637E+04 0.  0.
        3    1    3    3  502    0  0.22763085044E+02  0.12794782802E+04 -0.22639759758E+04  0.26006095548E+04  0.10100000352E+00 0.  1.
       -3    1    3    3    0  502 -0.22763085044E+02 -0.12794782802E+04  0.93512676363E+03  0.15849431857E+04  0.10100000352E+00 0. -1.
</event>
<event>
 5   0  0.1101474E-07  0.3967649E+04  0.7818609E-02  0.8011105E-01
       -2   -1    0    0    0  501  0.00000000000E+00  0.00000000000E+00  0.21031661423E+04  0.21031661423E+04  0.25500000920E-02 0. -1.
        2   -1    0    0  501    0  0.00000000000E+00  0.00000000000E+00 -0.18712544590E+04  0.18712544590E+04  0.25500000920E-02 0.  1.
    10030    2    1    2    0    0  0.00000000000E+00  0.00000000000E+00  0.23191168333E+03  0.39744206014E+04  0.39676486850E+04 0.  0.
        5    1    3    3  502    0  0.19098686540E+04  0.40978993031E+03 -0.23106128207E+03  0.19669614812E+04  0.46999998093E+01 0.  1.
       -5    1    3    3    0  502 -0.19098686540E+04 -0.40978993031E+03  0.46297296540E+03  0.20074591202E+04  0.46999998093E+01 0. -1.
</event>
<event>
 5   0  0.1095109E-07  0.3662863E+04  0.7818609E-02  0.8076242E-01
        2   -1    0    0  501    0  0.00000000000E+00  0.00000000000E+00  0.28408352791E+04  0.28408352791E+04  0.25500000920E-02 0.  1.
       -2   -1    0    0    0  501  0.00000000000E+00  0.00000000000E+00 -0.11806884645E+04  0.11806884645E+04  0.25500000920E-02 0. -1.
    10030    2    1    2    0    0  0.00000000000E+00  0.00000000000E+00  0.16601468146E+04  0.40215237437E+04  0.36628630571E+04 0.  0.
        4    1    3    3  502    0  0.19579341893E+03 -0.14303286567E+04 -0.40720028886E+03  0.14999962724E+04  0.12699999809E+01 0. -1.
       -4    1    3    3    0  502 -0.19579341893E+03  0.14303286567E+04  0.20673471034E+04  0.25215274712E+04  0.12699999809E+01 0.  1.
</event>
<event>
 5   0  0.3399500E-08  0.3822859E+04  0.7818609E-02  0.8041267E-01
        3   -1    0    0  501    0  0.00000000000E+00  0.00000000000E+00  0.24505510011E+04  0.24505510032E+04  0.10100000352E+00 0. -1.
       -3   -1    0    0    0  501  0.00000000000E+00  0.00000000000E+00 -0.14909149240E+04  0.14909149274E+04  0.10100000352E+00 0.  1.
    10030    2    1    2    0    0  0.00000000000E+00  0.00000000000E+00  0.95963607713E+03  0.39414659305E+04  0.38228591762E+04 0.  0.
        3    1    3    3  502    0  0.13563256971E+04  0.73050351172E+03 -0.68679480771E+03  0.16866955551E+04  0.10100000352E+00 0.  1.
       -3    1    3    3    0  502 -0.13563256971E+04 -0.73050351172E+03  0.16464308848E+04  0.22547703755E+04  0.10100000352E+00 0. -1.
</event>
<event>
 5   0  0.1095109E-07  0.3894963E+04  0.7818609E-02  0.8026078E-01
        2   -1    0    0  501    0  0.00000000000E+00  0.00000000000E+00  0.23991320951E+04  0.23991320951E+04  0.25500000920E-02 0. -1.
       -2   -1    0    0    0  501  0.00000000000E+00  0.00000000000E+00 -0.15808569586E+04  0.15808569586E+04  0.25500000920E-02 0.  1.
    10030    2    1    2    0    0  0.00000000000E+00  0.00000000000E+00  0.81827513652E+03  0.39799890537E+04  0.38949632435E+04 0.  0.
        4    1    3    3  502    0  0.14277150834E+04  0.13032580514E+04  0.16769336291E+03  0.19403542421E+04  0.12699999809E+01 0. -1.
       -4    1    3    3    0  502 -0.14277150834E+04 -0.13032580514E+04  0.65058177361E+03  0.20396348116E+04  0.12699999809E+01 0.  1.
</event>
<event>
 5   0  0.3399500E-08  0.3999733E+04  0.7818609E-02  0.8004600E-01
        1   -1    0    0  501    0  0.00000000000E+00  0.00000000000E+00  0.19488366180E+04  0.19488366180E+04  0.50400001928E-02 0. -1.
       -1   -1    0    0    0  501  0.00000000000E+00  0.00000000000E+00 -0.20522322856E+04  0.20522322856E+04  0.50400001928E-02 0.  1.
    10030    2    1    2    0    0  0.00000000000E+00  0.00000000000E+00 -0.10339566764E+03  0.40010689036E+04  0.39997327045E+04 0.  0.
        5    1    3    3  502    0  0.35249378642E+03 -0.73967548436E+03 -0.18766075983E+04  0.20476937905E+04  0.46999998093E+01 0.  1.
       -5    1    3    3    0  502 -0.35249378642E+03  0.73967548436E+03  0.17732119307E+04  0.19533751131E+04  0.46999998093E+01 0. -1.
</event>
<event>
 5   0  0.1087688E-07  0.3988520E+04  0.7818609E-02  0.8006867E-01
       -2   -1    0    0    0  501  0.00000000000E+00  0.00000000000E+00  0.15311037503E+04  0.15311037503E+04  0.25500000920E-02 0.  1.
        2   -1    0    0  501    0  0.00000000000E+00  0.00000000000E+00 -0.25975196450E+04  0.25975196450E+04  0.25500000920E-02 0. -1.
    10030    2    1    2    0    0  0.00000000000E+00  0.00000000000E+00 -0.10664158947E+04  0.41286233953E+04  0.39885195599E+04 0.  0.
        2    1    3    3  502    0 -0.15655902964E+04 -0.11584748081E+04 -0.89266204593E+02  0.19496423550E+04  0.25500000920E-02 0.  1.
       -2    1    3    3    0  502  0.15655902964E+04  0.11584748081E+04 -0.97714969014E+03  0.21789810403E+04  0.25500000920E-02 0. -1.
</event>
<event>
 5   0  0.1073271E-07  0.4000502E+04  0.7818609E-02  0.8004445E-01
        2   -1    0    0  501    0  0.00000000000E+00  0.00000000000E+00  0.25775166908E+04  0.25775166908E+04  0.25500000920E-02 0. -1.
       -2   -1    0    0    0  501  0.00000000000E+00  0.00000000000E+00 -0.15522706953E+04  0.15522706953E+04  0.25500000920E-02 0.  1.
    10030    2    1    2    0    0  0.00000000000E+00  0.00000000000E+00  0.10252459955E+04  0.41297873862E+04  0.40005017815E+04 0.  0.
        1    1    3    3  502    0  0.13844440271E+04  0.11594532532E+04 -0.37540187109E+03  0.18444358691E+04  0.50400001928E-02 0.  1.
       -1    1    3    3    0  502 -0.13844440271E+04 -0.11594532532E+04  0.14006478666E+04  0.22853515171E+04  0.50400001928E-02 0. -1.
</event>
<event>
 5   0  0.3399500E-08  0.3987010E+04  0.7818609E-02  0.8007172E-01
        1   -1    0    0  501    0  0.00000000000E+00  0.00000000000E+00  0.26059119617E+04  0.26059119617E+04  0.50400001928E-02 0. -1.
       -1   -1    0    0    0  501  0.00000000000E+00  0.00000000000E+00 -0.15250174548E+04  0.15250174548E+04  0.50400001928E-02 0.  1.
    10030    2    1    2    0    0  0.00000000000E+00  0.00000000000E+00  0.10808945068E+04  0.41309294165E+04  0.39870095196E+04 0.  0.
        4    1    3    3  502    0 -0.17226201288E+04 -0.96509418820E+02 -0.49426347026E+03  0.17947234235E+04  0.12699999809E+01 0.  1.
       -4    1    3    3    0  502  0.17226201288E+04  0.96509418820E+02  0.15751579771E+04  0.23362059930E+04  0.12699999809E+01 0. -1.
</event>
<event>
 5   0  0.1073271E-07  0.3978652E+04  0.7818609E-02  0.8008867E-01
        2   -1    0    0  501    0  0.00000000000E+00  0.00000000000E+00  0.23572682026E+04  0.23572682026E+04  0.25500000920E-02 0.  1.
       -2   -1    0    0    0  501  0.00000000000E+00  0.00000000000E+00 -0.16788150052E+04  0.16788150052E+04  0.25500000920E-02 0. -1.
    10030    2    1    2    0    0  0.00000000000E+00  0.00000000000E+00  0.67845319746E+03  0.40360832078E+04  0.39786516459E+04 0.  0.
        1    1    3    3  502    0  0.10861935050E+04  0.16469101642E+04  0.59842973191E+03  0.20616128549E+04  0.50400001928E-02 0.  1.
       -1    1    3    3    0  502 -0.10861935050E+04 -0.16469101642E+04  0.80023465551E+02  0.19744703529E+04  0.50400001928E-02 0. -1.
</event>
<event>
 5   0  0.3399500E-08  0.3955383E+04  0.7818609E-02  0.8013608E-01
        1   -1    0    0  501    0  0.00000000000E+00  0.00000000000E+00  0.15592376058E+04  0.15592376058E+04  0.50400001928E-02 0.  1.
       -1   -1    0    0    0  501  0.00000000000E+00  0.00000000000E+00 -0.25084460907E+04  0.25084460907E+04  0.50400001928E-02 0. -1.
    10030    2    1    2    0    0  0.00000000000E+00  0.00000000000E+00 -0.94920848492E+03  0.40676836964E+04  0.39553829026E+04 0.  0.
        2    1    3    3  502    0  0.77669910161E+03  0.12735198857E+04  0.86078117119E+03  0.17222249036E+04  0.25500000920E-02 0.  1.
       -2    1    3    3    0  502 -0.77669910161E+03 -0.12735198857E+04 -0.18099896561E+04  0.23454587929E+04  0.25500000920E-02 0. -1.
</event>
<event>
 5   0  0.1095109E-07  0.3978296E+04  0.7818609E-02  0.8008939E-01
        2   -1    0    0  501    0  0.00000000000E+00  0.00000000000E+00  0.23054122564E+04  0.23054122564E+04  0.25500000920E-02 0.  1.
       -2   -1    0    0    0  501  0.00000000000E+00  0.00000000000E+00 -0.17162699598E+04  0.17162699598E+04  0.25500000920E-02 0. -1.
    10030    2    1    2    0    0  0.00000000000E+00  0.00000000000E+00  0.58914229653E+03  0.40216822162E+04  0.39782960175E+04 0.  0.
        4    1    3    3  502    0 -0.10229831836E+04  0.37709330908E+03  0.19764504074E+04  0.22572221387E+04  0.12699999809E+01 0.  1.
       -4    1    3    3    0  502  0.10229831836E+04 -0.37709330908E+03 -0.13873081109E+04  0.17644600775E+04  0.12699999809E+01 0. -1.
</event>
<event>
 5   0  0.1095903E-07  0.3996642E+04  0.7818609E-02  0.8005224E-01
       -2   -1    0    0    0  501  0.00000000000E+00  0.00000000000E+00  0.13781442984E+04  0.13781442984E+04  0.25500000920E-02 0.  1.
        2   -1    0    0  501    0  0.00000000000E+00  0.00000000000E+00 -0.28975819568E+04  0.28975819568E+04  0.25500000920E-02 0. -1.
    10030    2    1    2    0    0  0.00000000000E+00  0.00000000000E+00 -0.15194376584E+04  0.42757262552E+04  0.39966416166E+04 0.  0.
        3    1    3    3  502    0  0.12178936549E+04 -0.69937283024E+03  0.76113320158E+03  0.15974076095E+04  0.10100000352E+00 0.  1.
       -3    1    3    3    0  502 -0.12178936549E+04  0.69937283024E+03 -0.22805708600E+04  0.26783186457E+04  0.10100000352E+00 0. -1.
</event>
<event>
 5   0  0.3399500E-08  0.3989913E+04  0.7818609E-02  0.8006584E-01
        1   -1    0    0  501    0  0.00000000000E+00  0.00000000000E+00  0.19018751359E+04  0.19018751359E+04  0.50400001928E-02 0.  1.
       -1   -1    0    0    0  501  0.00000000000E+00  0.00000000000E+00 -0.20925939390E+04  0.20925939390E+04  0.50400001928E-02 0. -1.
    10030    2    1    2    0    0  0.00000000000E+00  0.00000000000E+00 -0.19071880304E+03  0.39944690749E+04  0.39899134738E+04 0.  0.
        2    1    3    3  502    0 -0.50517780133E+03 -0.18895132621E+04 -0.48872965651E+03  0.20160162836E+04  0.25500000920E-02 0.  1.
       -2    1    3    3    0  502  0.50517780133E+03  0.18895132621E+04  0.29801085347E+03  0.19784527913E+04  0.25500000920E-02 0. -1.
</event>
<event>
 5   0  0.3399500E-08  0.4011497E+04  0.7818609E-02  0.8002231E-01
       -1   -1    0    0    0  501  0.00000000000E+00  0.00000000000E+00  0.19518061522E+04  0.19518061522E+04  0.50400001928E-02 0. -1.
        1   -1    0    0  501    0  0.00000000000E+00  0.00000000000E+00 -0.20611814911E+04  0.20611814911E+04  0.50400001928E-02 0.  1.
    10030    2    1    2    0    0  0.00000000000E+00  0.00000000000E+00 -0.10937533889E+03  0.40129876433E+04  0.40114968354E+04 0.  0.
        4    1    3    3  502    0  0.69228773354E+03  0.76070681590E+03 -0.17772706717E+04  0.20534434054E+04  0.12699999809E+01 0.  1.
       -4    1    3    3    0  502 -0.69228773354E+03 -0.76070681590E+03  0.16678953328E+04  0.19595442378E+04  0.12699999809E+01 0. -1.
</event>
<event>
 5   0  0.3399500E-08  0.4021565E+04  0.7818609E-02  0.8000210E-01
       -1   -1    0    0    0  501  0.00000000000E+00  0.00000000000E+00  0.25643218339E+04  0.25643218339E+04  0.50400001928E-02 0. -1.
        1   -1    0    0  501    0  0.00000000000E+00  0.00000000000E+00 -0.15767310160E+04  0.15767310160E+04  0.50400001928E-02 0.  1.
    10030    2    1    2    0    0  0.00000000000E+00  0.00000000000E+00  0.98759081782E+03  0.41410528499E+04  0.40215647555E+04 0.  0.
        5    1    3    3  502    0  0.11128206558E+04  0.62022235619E+03  0.20957100480E+04  0.24525636135E+04  0.46999998093E+01 0. -1.
       -5    1    3    3    0  502 -0.11128206558E+04 -0.62022235619E+03 -0.11081192301E+04  0.16884892364E+04  0.46999998093E+01 0.  1.
</event>
<event>
 5   0  0.3399500E-08  0.4038679E+04  0.7818609E-02  0.7996789E-01
       -1   -1    0    0    0  501  0.00000000000E+00  0.00000000000E+00  0.34717783973E+04  0.34717783973E+04  0.50400001928E-02 0.  1.
        1   -1    0    0  501    0  0.00000000000E+00  0.00000000000E+00 -0.11745369128E+04  0.11745369128E+04  0.50400001928E-02 0. -1.
    10030    2    1    2    0    0  0.00000000000E+00  0.00000000000E+00  0.22972414845E+04  0.46463153100E+04  0.40386789328E+04 0.  0.
        3    1    3    3  502    0 -0.97542161507E+03 -0.10067204195E+04 -0.52361843483E+03  0.14963654653E+04  0.10100000352E+00 0. -1.
       -3    1    3    3    0  502  0.97542161507E+03  0.10067204195E+04  0.28208599193E+04  0.31499498448E+04  0.10100000352E+00 0.  1.
</event>
<event>
 5   0  0.1073271E-07  0.3992345E+04  0.7818609E-02  0.8006093E-01
        2   -1    0    0  501    0  0.00000000000E+00  0.00000000000E+00  0.14445580641E+04  0.14445580641E+04  0.25500000920E-02 0. -1.
       -2   -1    0    0    0  501  0.00000000000E+00  0.00000000000E+00 -0.27584249606E+04  0.27584249606E+04  0.25500000920E-02 0.  1.
    10030    2    1    2    0    0  0.00000000000E+00  0.00000000000E+00 -0.13138668965E+04  0.42029830247E+04  0.39923451860E+04 0.  0.
        1    1    3    3  502    0  0.16500506331E+04 -0.10134644785E+04 -0.11671994662E+04  0.22610024182E+04  0.50400001928E-02 0.  1.
       -1    1    3    3    0  502 -0.16500506331E+04  0.10134644785E+04 -0.14666743033E+03  0.19419806066E+04  0.50400001928E-02 0. -1.
</event>
<event>
 5   0  0.1101474E-07  0.3985389E+04  0.7818609E-02  0.8007501E-01
        2   -1    0    0  501    0  0.00000000000E+00  0.00000000000E+00  0.23396250611E+04  0.23396250611E+04  0.25500000920E-02 0.  1.
       -2   -1    0    0    0  501  0.00000000000E+00  0.00000000000E+00 -0.16972083789E+04  0.16972083789E+04  0.25500000920E-02 0. -1.
    10030    2    1    2    0    0  0.00000000000E+00  0.00000000000E+00  0.64241668226E+03  0.40368334400E+04  0.39853889432E+04 0.  0.
        5    1    3    3  502    0 -0.21376952278E+03 -0.19303187157E+04 -0.13062302433E+03  0.19465128352E+04  0.46999998093E+01 0. -1.
       -5    1    3    3    0  502  0.21376952278E+03  0.19303187157E+04  0.77303970659E+03  0.20903206048E+04  0.46999998093E+01 0.  1.
</event>
<event>
 5   0  0.1087688E-07  0.3935205E+04  0.7818609E-02  0.8017747E-01
       -2   -1    0    0    0  501  0.00000000000E+00  0.00000000000E+00  0.12497030435E+04  0.12497030435E+04  0.25500000920E-02 0.  1.
        2   -1    0    0  501    0  0.00000000000E+00  0.00000000000E+00 -0.30979043316E+04  0.30979043316E+04  0.25500000920E-02 0. -1.
    10030    2    1    2    0    0  0.00000000000E+00  0.00000000000E+00 -0.18482012881E+04  0.43476073751E+04  0.39352054440E+04 0.  0.
        2    1    3    3  502    0  0.11597083641E+04  0.93212620335E+03  0.49833608247E+03  0.15691149097E+04  0.25500000920E-02 0.  1.
       -2    1    3    3    0  502 -0.11597083641E+04 -0.93212620335E+03 -0.23465373706E+04  0.27784924654E+04  0.25500000920E-02 0. -1.
</event>
<event>
 5   0  0.3399500E-08  0.4000792E+04  0.7818609E-02  0.8004387E-01
        1   -1    0    0  501    0  0.00000000000E+00  0.00000000000E+00  0.22047589642E+04  0.22047589642E+04  0.50400001928E-02 0. -1.
       -1   -1    0    0    0  501  0.00000000000E+00  0.00000000000E+00 -0.18149761933E+04  0.18149761933E+04  0.50400001928E-02 0.  1.
    10030    2    1    2    0    0  0.00000000000E+00  0.00000000000E+00  0.38978277086E+03  0.40197351575E+04  0.40007924375E+04 0.  0.
        3    1    3    3  502    0 -0.27162405026E+03  0.19360675385E+04 -0.23072720561E+03  0.19685965031E+04  0.10100000352E+00 0.  1.
       -3    1    3    3    0  502  0.27162405026E+03 -0.19360675385E+04  0.62050997647E+03  0.20511386544E+04  0.10100000352E+00 0. -1.
</event>
<event>
 5   0  0.1087688E-07  0.4002357E+04  0.7818609E-02  0.8004071E-01
        2   -1    0    0  501    0  0.00000000000E+00  0.00000000000E+00  0.19168078551E+04  0.19168078551E+04  0.25500000920E-02 0. -1.
       -2   -1    0    0    0  501  0.00000000000E+00  0.00000000000E+00 -0.20892631975E+04  0.20892631975E+04  0.25500000920E-02 0.  1.
    10030    2    1    2    0    0  0.00000000000E+00  0.00000000000E+00 -0.17245534248E+03  0.40060710526E+04  0.40023573595E+04 0.  0.
        2    1    3    3  502    0  0.10074225541E+04 -0.20483319394E+03  0.16322985301E+04  0.19290555542E+04  0.25500000920E-02 0. -1.
       -2    1    3    3    0  502 -0.10074225541E+04  0.20483319394E+03 -0.18047538726E+04  0.20770154984E+04  0.25500000920E-02 0.  1.
</event>
<event>
 5   0  0.3399500E-08  0.4021040E+04  0.7818609E-02  0.8000316E-01
        1   -1    0    0  501    0  0.00000000000E+00  0.00000000000E+00  0.17024348045E+04  0.17024348046E+04  0.50400001928E-02 0. -1.
       -1   -1    0    0    0  501  0.00000000000E+00  0.00000000000E+00 -0.23743583285E+04  0.23743583285E+04  0.50400001928E-02 0.  1.
    10030    2    1    2    0    0  0.00000000000E+00  0.00000000000E+00 -0.67192352394E+03  0.40767931331E+04  0.40210397943E+04 0.  0.
        1    1    3    3  502    0 -0.16085836047E+04 -0.11741586021E+04 -0.56457217459E+02  0.19923295544E+04  0.50400001928E-02 0. -1.
       -1    1    3    3    0  502  0.16085836047E+04  0.11741586021E+04 -0.61546630648E+03  0.20844635786E+04  0.50400001928E-02 0.  1.
</event>
<event>
 5   0  0.3399500E-08  0.3794386E+04  0.7818609E-02  0.8047361E-01
       -3   -1    0    0    0  501  0.00000000000E+00  0.00000000000E+00  0.20508841409E+04  0.20508841434E+04  0.10100000352E+00 0.  1.
        3   -1    0    0  501    0  0.00000000000E+00  0.00000000000E+00 -0.17550192366E+04  0.17550192395E+04  0.10100000352E+00 0. -1.
    10030    2    1    2    0    0  0.00000000000E+00  0.00000000000E+00  0.29586490428E+03  0.38059033829E+04  0.37943859212E+04 0.  0.
        5    1    3    3  502    0 -0.12643835363E+04 -0.90379948717E+03 -0.94339577891E+03  0.18181135624E+04  0.46999998093E+01 0. -1.
       -5    1    3    3    0  502  0.12643835363E+04  0.90379948717E+03  0.12392606832E+04  0.19877898206E+04  0.46999998093E+01 0.  1.
</event>
<event>
 5   0  0.1095109E-07  0.4030215E+04  0.7818609E-02  0.7998479E-01
       -2   -1    0    0    0  501  0.00000000000E+00  0.00000000000E+00  0.17030985978E+04  0.17030985978E+04  0.25500000920E-02 0.  1.
        2   -1    0    0  501    0  0.00000000000E+00  0.00000000000E+00 -0.23842764694E+04  0.23842764694E+04  0.25500000920E-02 0. -1.
    10030    2    1    2    0    0  0.00000000000E+00  0.00000000000E+00 -0.68117787161E+03  0.40873750673E+04  0.40302148389E+04 0.  0.
        4    1    3    3  502    0  0.19406404327E+04  0.44893814298E+03 -0.64991564795E+03  0.20952381029E+04  0.12699999809E+01 0.  1.
       -4    1    3    3    0  502 -0.19406404327E+04 -0.44893814298E+03 -0.31262223658E+02  0.19921369644E+04  0.12699999809E+01 0. -1.
</event>
<event>
 5   0  0.3399500E-08  0.3991856E+04  0.7818609E-02  0.8006192E-01
       -1   -1    0    0    0  501  0.00000000000E+00  0.00000000000E+00  0.14697564649E+04  0.14697564649E+04  0.50400001928E-02 0.  1.
        1   -1    0    0  501    0  0.00000000000E+00  0.00000000000E+00 -0.27104680469E+04  0.27104680469E+04  0.50400001928E-02 0. -1.
    10030    2    1    2    0    0  0.00000000000E+00  0.00000000000E+00 -0.12407115820E+04  0.41802245118E+04  0.39918556761E+04 0.  0.
        3    1    3    3  502    0 -0.15494118396E+04  0.54631919748E+03  0.56652309544E+03  0.17378406550E+04  0.10100000352E+00 0.  1.
       -3    1    3    3    0  502  0.15494118396E+04 -0.54631919748E+03 -0.18072346775E+04  0.24423838568E+04  0.10100000352E+00 0. -1.
</event>
<event>
 5   0  0.3399500E-08  0.3989074E+04  0.7818609E-02  0.8006754E-01
        1   -1    0    0  501    0  0.00000000000E+00  0.00000000000E+00  0.24511940354E+04  0.24511940354E+04  0.50400001928E-02 0.  1.
       -1   -1    0    0    0  501  0.00000000000E+00  0.00000000000E+00 -0.16229548155E+04  0.16229548155E+04  0.50400001928E-02 0. -1.
    10030    2    1    2    0    0  0.00000000000E+00  0.00000000000E+00  0.82823921991E+03  0.40741488509E+04  0.39890736586E+04 0.  0.
        1    1    3    3  502    0  0.13296766433E+04  0.11389813497E+04 -0.56169341221E+03  0.18387000788E+04  0.50400001928E-02 0.  1.
       -1    1    3    3    0  502 -0.13296766433E+04 -0.11389813497E+04  0.13899326321E+04  0.22354487720E+04  0.50400001928E-02 0. -1.
</event>
<event>
 5   0  0.3399500E-08  0.3993379E+04  0.7818609E-02  0.8005883E-01
        1   -1    0    0  501    0  0.00000000000E+00  0.00000000000E+00  0.24987654033E+04  0.24987654033E+04  0.50400001928E-02 0. -1.
       -1   -1    0    0    0  501  0.00000000000E+00  0.00000000000E+00 -0.15954957443E+04  0.15954957443E+04  0.50400001928E-02 0.  1.
    10030    2    1    2    0    0  0.00000000000E+00  0.00000000000E+00  0.90326965903E+03  0.40942611477E+04  0.39933793043E+04 0.  0.
        2    1    3    3  502    0  0.25214457264E+03 -0.16475215688E+04  0.15788944337E+04  0.22958248710E+04  0.25500000920E-02 0. -1.
       -2    1    3    3    0  502 -0.25214457264E+03  0.16475215688E+04 -0.67562477472E+03  0.17984362767E+04  0.25500000920E-02 0.  1.
</event>
<event>
 5   0  0.3399500E-08  0.3984015E+04  0.7818609E-02  0.8007779E-01
       -1   -1    0    0    0  501  0.00000000000E+00  0.00000000000E+00  0.24576563748E+04  0.24576563748E+04  0.50400001928E-02 0.  1.
        1   -1    0    0  501    0  0.00000000000E+00  0.00000000000E+00 -0.16145845299E+04  0.16145845299E+04  0.50400001928E-02 0. -1.
    10030    2    1    2    0    0  0.00000000000E+00  0.00000000000E+00  0.84307184490E+03  0.40722409047E+04  0.39840150414E+04 0.  0.
        4    1    3    3  502    0  0.30951838889E+03  0.18660400721E+04  0.10600167635E+04  0.21683044840E+04  0.12699999809E+01 0.  1.
       -4    1    3    3    0  502 -0.30951838889E+03 -0.18660400721E+04 -0.21694491858E+03  0.19039364207E+04  0.12699999809E+01 0. -1.
</event>
<event>
 5   0  0.1073271E-07  0.4002670E+04  0.7818609E-02  0.8004008E-01
        2   -1    0    0  501    0  0.00000000000E+00  0.00000000000E+00  0.18753188503E+04  0.18753188503E+04  0.25500000920E-02 0.  1.
       -2   -1    0    0    0  501  0.00000000000E+00  0.00000000000E+00 -0.21358195451E+04  0.21358195451E+04  0.25500000920E-02 0. -1.
    10030    2    1    2    0    0  0.00000000000E+00  0.00000000000E+00 -0.26050069483E+03  0.40111383954E+04  0.40026704355E+04 0.  0.
        1    1    3    3  502    0  0.14676420081E+04  0.86930506308E+03 -0.11792113505E+04  0.20736932670E+04  0.50400001928E-02 0. -1.
       -1    1    3    3    0  502 -0.14676420081E+04 -0.86930506308E+03  0.91871065566E+03  0.19374451284E+04  0.50400001928E-02 0.  1.
</event>
<event>
 5   0  0.3399500E-08  0.3983908E+04  0.7818609E-02  0.8007801E-01
       -1   -1    0    0    0  501  0.00000000000E+00  0.00000000000E+00  0.18240067343E+04  0.18240067343E+04  0.50400001928E-02 0. -1.
        1   -1    0    0  501    0  0.00000000000E+00  0.00000000000E+00 -0.21753654037E+04  0.21753654037E+04  0.50400001928E-02 0.  1.
    10030    2    1    2    0    0  0.00000000000E+00  0.00000000000E+00 -0.35135866943E+03  0.39993721380E+04  0.39839082047E+04 0.  0.
        2    1    3    3  502    0  0.10776459818E+04 -0.11749647920E+04 -0.13744745492E+04  0.21050043732E+04  0.25500000920E-02 0. -1.
       -2    1    3    3    0  502 -0.10776459818E+04  0.11749647920E+04  0.10231158798E+04  0.18943677648E+04  0.25500000920E-02 0.  1.
</event>
<event>
 5   0  0.1095903E-07  0.3986182E+04  0.7818609E-02  0.8007340E-01
       -2   -1    0    0    0  501  0.00000000000E+00  0.00000000000E+00  0.16781777136E+04  0.16781777136E+04  0.25500000920E-02 0.  1.
        2   -1    0    0  501    0  0.00000000000E+00  0.00000000000E+00 -0.23670982774E+04  0.23670982774E+04  0.25500000920E-02 0. -1.
    10030    2    1    2    0    0  0.00000000000E+00  0.00000000000E+00 -0.68892056379E+03  0.40452759910E+04  0.39861819201E+04 0.  0.
        3    1    3    3  502    0 -0.72633006151E+03  0.18558088920E+04 -0.31523116562E+03  0.20176602043E+04  0.10100000352E+00 0. -1.
       -3    1    3    3    0  502  0.72633006151E+03 -0.18558088920E+04 -0.37368939818E+03  0.20276157867E+04  0.10100000352E+00 0.  1.
</event>
<event>
 5   0  0.3399500E-08  0.4077208E+04  0.7818609E-02  0.7989150E-01
        1   -1    0    0  501    0  0.00000000000E+00  0.00000000000E+00  0.28794766502E+04  0.28794766502E+04  0.50400001928E-02 0.  1.
       -1   -1    0    0    0  501  0.00000000000E+00  0.00000000000E+00 -0.14432855730E+04  0.14432855731E+04  0.50400001928E-02 0. -1.
    10030    2    1    2    0    0  0.00000000000E+00  0.00000000000E+00  0.14361910771E+04  0.43227622232E+04  0.40772084112E+04 0.  0.
        1    1    3    3  502    0  0.36611283184E+03  0.19903803998E+04  0.97834671093E+03  0.22478467538E+04  0.50400001928E-02 0.  1.
       -1    1    3    3    0  502 -0.36611283184E+03 -0.19903803998E+04  0.45784436620E+03  0.20749154694E+04  0.50400001928E-02 0. -1.
</event>
<event>
 5   0  0.1073271E-07  0.4078445E+04  0.7818609E-02  0.7988906E-01
       -2   -1    0    0    0  501  0.00000000000E+00  0.00000000000E+00  0.18792570068E+04  0.18792570068E+04  0.25500000920E-02 0. -1.
        2   -1    0    0  501    0  0.00000000000E+00  0.00000000000E+00 -0.22128049699E+04  0.22128049699E+04  0.25500000920E-02 0.  1.
    10030    2    1    2    0    0  0.00000000000E+00  0.00000000000E+00 -0.33354796309E+03  0.40920619767E+04  0.40784454119E+04 0.  0.
        1    1    3    3  502    0 -0.19946950101E+04  0.19193957449E+03 -0.54589829264E+03  0.20769337807E+04  0.50400001928E-02 0. -1.
       -1    1    3    3    0  502  0.19946950101E+04 -0.19193957449E+03  0.21235032955E+03  0.20151281960E+04  0.50400001928E-02 0.  1.
</event>
<event>
 5   0  0.3399500E-08  0.4021315E+04  0.7818609E-02  0.8000260E-01
        1   -1    0    0  501    0  0.00000000000E+00  0.00000000000E+00  0.34783702262E+04  0.34783702262E+04  0.50400001928E-02 0.  1.
       -1   -1    0    0    0  501  0.00000000000E+00  0.00000000000E+00 -0.11622522793E+04  0.11622522793E+04  0.50400001928E-02 0. -1.
    10030    2    1    2    0    0  0.00000000000E+00  0.00000000000E+00  0.23161179470E+04  0.46406225055E+04  0.40213150703E+04 0.  0.
        3    1    3    3  502    0  0.15679659564E+04  0.72196121802E+03  0.23478603326E+04  0.29141368178E+04  0.10100000352E+00 0.  1.
       -3    1    3    3    0  502 -0.15679659564E+04 -0.72196121802E+03 -0.31742385689E+02  0.17264856878E+04  0.10100000352E+00 0. -1.
</event>
<event>
 5   0  0.1095109E-07  0.4071574E+04  0.7818609E-02  0.7990261E-01
        2   -1    0    0  501    0  0.00000000000E+00  0.00000000000E+00  0.17647491549E+04  0.17647491549E+04  0.25500000920E-02 0. -1.
       -2   -1    0    0    0  501  0.00000000000E+00  0.00000000000E+00 -0.23484518030E+04  0.23484518030E+04  0.25500000920E-02 0.  1.
    10030    2    1    2    0    0  0.00000000000E+00  0.00000000000E+00 -0.58370264812E+03  0.41132009579E+04  0.40715738160E+04 0.  0.
        4    1    3    3  502    0 -0.18297010545E+03 -0.77268541689E+03 -0.21855578667E+04  0.23253355919E+04  0.12699999809E+01 0.  1.
       -4    1    3    3    0  502  0.18297010545E+03  0.77268541689E+03  0.16018552186E+04  0.17878653661E+04  0.12699999809E+01 0. -1.
</event>
<event>
 5   0  0.1095109E-07  0.4000375E+04  0.7818609E-02  0.8004471E-01
       -2   -1    0    0    0  501  0.00000000000E+00  0.00000000000E+00  0.24787105011E+04  0.24787105011E+04  0.25500000920E-02 0.  1.
        2   -1    0    0  501    0  0.00000000000E+00  0.00000000000E+00 -0.16140445217E+04  0.16140445217E+04  0.25500000920E-02 0. -1.
    10030    2    1    2    0    0  0.00000000000E+00  0.00000000000E+00  0.86466597938E+03  0.40927550228E+04  0.40003745350E+04 0.  0.
        4    1    3    3  502    0 -0.11231429755E+04 -0.97300960832E+03  0.18021125865E+04  0.23357673747E+04  0.12699999809E+01 0.  1.
       -4    1    3    3    0  502  0.11231429755E+04  0.97300960832E+03 -0.93744660711E+03  0.17569876481E+04  0.12699999809E+01 0. -1.
</event>
<event>
 5   0  0.1101474E-07  0.3999582E+04  0.7818609E-02  0.8004631E-01
        2   -1    0    0  501    0  0.00000000000E+00  0.00000000000E+00  0.17935542218E+04  0.17935542218E+04  0.25500000920E-02 0. -1.
       -2   -1    0    0    0  501  0.00000000000E+00  0.00000000000E+00 -0.22297424060E+04  0.22297424060E+04  0.25500000920E-02 0.  1.
    10030    2    1    2    0    0  0.00000000000E+00  0.00000000000E+00 -0.43618818421E+03  0.40232966278E+04  0.39995819310E+04 0.  0.
        5    1    3    3  502    0  0.98359898536E+03  0.91622511556E+03 -0.17074832057E+04  0.21731213528E+04  0.46999998093E+01 0.  1.
       -5    1    3    3    0  502 -0.98359898536E+03 -0.91622511556E+03  0.12712950215E+04  0.18501752749E+04  0.46999998093E+01 0. -1.
</event>
<event>
 5   0  0.1087688E-07  0.3514529E+04  0.7818609E-02  0.8110355E-01
       -2   -1    0    0    0  501  0.00000000000E+00  0.00000000000E+00  0.15451577174E+04  0.15451577174E+04  0.25500000920E-02 0. -1.
        2   -1    0    0  501    0  0.00000000000E+00  0.00000000000E+00 -0.19984870908E+04  0.19984870908E+04  0.25500000920E-02 0.  1.
    10030    2    1    2    0    0  0.00000000000E+00  0.00000000000E+00 -0.45332937337E+03  0.35436448082E+04  0.35145285610E+04 0.  0.
        2    1    3    3  502    0  0.16554871557E+04 -0.34204286334E+02  0.36657183740E+03  0.16959311802E+04  0.25500000920E-02 0. -1.
       -2    1    3    3    0  502 -0.16554871557E+04  0.34204286334E+02 -0.81990121077E+03  0.18477136280E+04  0.25500000920E-02 0.  1.
</event>
<event>
 5   0  0.1095903E-07  0.3982398E+04  0.7818609E-02  0.8008107E-01
       -2   -1    0    0    0  501  0.00000000000E+00  0.00000000000E+00  0.23611724837E+04  0.23611724837E+04  0.25500000920E-02 0. -1.
        2   -1    0    0  501    0  0.00000000000E+00  0.00000000000E+00 -0.16791966769E+04  0.16791966769E+04  0.25500000920E-02 0.  1.
    10030    2    1    2    0    0  0.00000000000E+00  0.00000000000E+00  0.68197580679E+03  0.40403691606E+04  0.39823977643E+04 0.  0.
        3    1    3    3  502    0  0.61574836242E+02  0.76115609416E+03  0.22067034158E+04  0.23350995772E+04  0.10100000352E+00 0. -1.
       -3    1    3    3    0  502 -0.61574836242E+02 -0.76115609416E+03 -0.15247276090E+04  0.17052695834E+04  0.10100000352E+00 0.  1.
</event>
<event>
 5   0  0.1095903E-07  0.3970455E+04  0.7818609E-02  0.8010533E-01
        2   -1    0    0  501    0  0.00000000000E+00  0.00000000000E+00  0.24533692158E+04  0.24533692158E+04  0.25500000920E-02 0. -1.
       -2   -1    0    0    0  501  0.00000000000E+00  0.00000000000E+00 -0.16064146335E+04  0.16064146335E+04  0.25500000920E-02 0.  1.
    10030    2    1    2    0    0  0.00000000000E+00  0.00000000000E+00  0.84695458224E+03  0.40597838493E+04  0.39704549914E+04 0.  0.
        3    1    3    3  502    0 -0.17197805088E+03 -0.98889960522E+03 -0.13278416834E+04  0.16645306923E+04  0.10100000352E+00 0.  1.
       -3    1    3    3    0  502  0.17197805088E+03  0.98889960522E+03  0.21747962656E+04  0.23952531571E+04  0.10100000352E+00 0. -1.
</event>
<event>
 5   0  0.1087688E-07  0.3999169E+04  0.7818609E-02  0.8004714E-01
       -2   -1    0    0    0  501  0.00000000000E+00  0.00000000000E+00  0.27186654394E+04  0.27186654394E+04  0.25500000920E-02 0. -1.
        2   -1    0    0  501    0  0.00000000000E+00  0.00000000000E+00 -0.14706985632E+04  0.14706985632E+04  0.25500000920E-02 0.  1.
    10030    2    1    2    0    0  0.00000000000E+00  0.00000000000E+00  0.12479668762E+04  0.41893640026E+04  0.39991685913E+04 0.  0.
        2    1    3    3  502    0  0.37808134534E+03 -0.14582264388E+03 -0.14272338365E+04  0.14836462419E+04  0.25500000920E-02 0.  1.
       -2    1    3    3    0  502 -0.37808134534E+03  0.14582264388E+03  0.26752007127E+04  0.27057177606E+04  0.25500000920E-02 0. -1.
</event>
<event>
 5   0  0.3399500E-08  0.4000458E+04  0.7818609E-02  0.8004454E-01
        4   -1    0    0  501    0  0.00000000000E+00  0.00000000000E+00  0.16556541039E+04  0.16556545910E+04  0.12699999809E+01 0.  1.
       -4   -1    0    0    0  501  0.00000000000E+00  0.00000000000E+00 -0.24165152701E+04  0.24165156038E+04  0.12699999809E+01 0. -1.
    10030    2    1    2    0    0  0.00000000000E+00  0.00000000000E+00 -0.76086116624E+03  0.40721701948E+04  0.40004575215E+04 0.  0.
        2    1    3    3  502    0  0.13974036423E+04  0.11702216656E+04  0.45820674483E+03  0.18793906213E+04  0.25500000920E-02 0.  1.
       -2    1    3    3    0  502 -0.13974036423E+04 -0.11702216656E+04 -0.12190679111E+04  0.21927795735E+04  0.25500000920E-02 0. -1.
</event>
<event>
 5   0  0.1095903E-07  0.4020618E+04  0.7818609E-02  0.8000400E-01
       -2   -1    0    0    0  501  0.00000000000E+00  0.00000000000E+00  0.29919496763E+04  0.29919496763E+04  0.25500000920E-02 0.  1.
        2   -1    0    0  501    0  0.00000000000E+00  0.00000000000E+00 -0.13507384561E+04  0.13507384561E+04  0.25500000920E-02 0. -1.
    10030    2    1    2    0    0  0.00000000000E+00  0.00000000000E+00  0.16412112202E+04  0.43426881324E+04  0.40206176075E+04 0.  0.
        3    1    3    3  502    0  0.11667397012E+04 -0.35985115665E+03  0.25455863389E+04  0.28232577290E+04  0.10100000352E+00 0.  1.
       -3    1    3    3    0  502 -0.11667397012E+04  0.35985115665E+03 -0.90437511867E+03  0.15194304034E+04  0.10100000352E+00 0. -1.
</event>
<event>
 5   0  0.3399500E-08  0.3998458E+04  0.7818609E-02  0.8004858E-01
        1   -1    0    0  501    0  0.00000000000E+00  0.00000000000E+00  0.30907352597E+04  0.30907352597E+04  0.50400001928E-02 0.  1.
       -1   -1    0    0    0  501  0.00000000000E+00  0.00000000000E+00 -0.12931928126E+04  0.12931928126E+04  0.50400001928E-02 0. -1.
    10030    2    1    2    0    0  0.00000000000E+00  0.00000000000E+00  0.17975424471E+04  0.43839280723E+04  0.39984580145E+04 0.  0.
        1    1    3    3  502    0 -0.12430670983E+04  0.15212763206E+04  0.49233300503E+03  0.20253121345E+04  0.50400001928E-02 0.  1.
       -1    1    3    3    0  502  0.12430670983E+04 -0.15212763206E+04  0.13052094420E+04  0.23586159378E+04  0.50400001928E-02 0. -1.
</event>
<event>
 5   0  0.1073271E-07  0.4039007E+04  0.7818609E-02  0.7996724E-01
        2   -1    0    0  501    0  0.00000000000E+00  0.00000000000E+00  0.20616578487E+04  0.20616578487E+04  0.25500000920E-02 0. -1.
       -2   -1    0    0    0  501  0.00000000000E+00  0.00000000000E+00 -0.19782107834E+04  0.19782107834E+04  0.25500000920E-02 0.  1.
    10030    2    1    2    0    0  0.00000000000E+00  0.00000000000E+00  0.83447065301E+02  0.40398686321E+04  0.40390067036E+04 0.  0.
        1    1    3    3  502    0 -0.12297011099E+04 -0.15433706277E+04 -0.38759536365E+03  0.20110663539E+04  0.50400001928E-02 0. -1.
       -1    1    3    3    0  502  0.12297011099E+04  0.15433706277E+04  0.47104242895E+03  0.20288022781E+04  0.50400001928E-02 0.  1.
</event>
<event>
 5   0  0.1087688E-07  0.3996926E+04  0.7818609E-02  0.8005167E-01
        2   -1    0    0  501    0  0.00000000000E+00  0.00000000000E+00  0.22449033365E+04  0.22449033365E+04  0.25500000920E-02 0. -1.
       -2   -1    0    0    0  501  0.00000000000E+00  0.00000000000E+00 -0.17790762928E+04  0.17790762928E+04  0.25500000920E-02 0.  1.
    10030    2    1    2    0    0  0.00000000000E+00  0.00000000000E+00  0.46582704369E+03  0.40239796293E+04  0.39969259716E+04 0.  0.
        2    1    3    3  502    0 -0.17347609997E+04 -0.74625820570E+03  0.89121801083E+03  0.20881969683E+04  0.25500000920E-02 0. -1.
       -2    1    3    3    0  502  0.17347609997E+04  0.74625820570E+03 -0.42539096714E+03  0.19357826610E+04  0.25500000920E-02 0.  1.
</event>
<event>
 5   0  0.3399500E-08  0.4022797E+04  0.7818609E-02  0.7999963E-01
       -1   -1    0    0    0  501  0.00000000000E+00  0.00000000000E+00  0.18919491646E+04  0.18919491646E+04  0.50400001928E-02 0.  1.
        1   -1    0    0  501    0  0.00000000000E+00  0.00000000000E+00 -0.21383889897E+04  0.21383889897E+04  0.50400001928E-02 0. -1.
    10030    2    1    2    0    0  0.00000000000E+00  0.00000000000E+00 -0.24643982510E+03  0.40303381543E+04  0.40227966703E+04 0.  0.
        2    1    3    3  502    0 -0.18247778084E+04  0.58351410095E+03 -0.73708424422E+03  0.20527045426E+04  0.25500000920E-02 0. -1.
       -2    1    3    3    0  502  0.18247778084E+04 -0.58351410095E+03  0.49064441912E+03  0.19776336117E+04  0.25500000920E-02 0.  1.
</event>
<event>
 5   0  0.1101474E-07  0.4008405E+04  0.7818609E-02  0.8002853E-01
        2   -1    0    0  501    0  0.00000000000E+00  0.00000000000E+00  0.30582702993E+04  0.30582702993E+04  0.25500000920E-02 0.  1.
       -2   -1    0    0    0  501  0.00000000000E+00  0.00000000000E+00 -0.13134313794E+04  0.13134313794E+04  0.25500000920E-02 0. -1.
    10030    2    1    2    0    0  0.00000000000E+00  0.00000000000E+00  0.17448389199E+04  0.43717016787E+04  0.40084052578E+04 0.  0.
        5    1    3    3  502    0  0.99527846392E+03 -0.14258642862E+04 -0.21446573757E+03  0.17520518902E+04  0.46999998093E+01 0. -1.
       -5    1    3    3    0  502 -0.99527846392E+03  0.14258642862E+04  0.19593046574E+04  0.26196497885E+04  0.46999998093E+01 0.  1.
</event>
<event>
 5   0  0.3399500E-08  0.3999297E+04  0.7818609E-02  0.8004688E-01
        1   -1    0    0  501    0  0.00000000000E+00  0.00000000000E+00  0.22616669277E+04  0.22616669277E+04  0.50400001928E-02 0. -1.
       -1   -1    0    0    0  501  0.00000000000E+00  0.00000000000E+00 -0.17679855977E+04  0.17679855977E+04  0.50400001928E-02 0.  1.
    10030    2    1    2    0    0  0.00000000000E+00  0.00000000000E+00  0.49368133002E+03  0.40296525254E+04  0.39992972157E+04 0.  0.
        5    1    3    3  502    0 -0.10334191787E+04  0.73919297622E+03  0.18026496045E+04  0.22054317359E+04  0.46999998093E+01 0. -1.
       -5    1    3    3    0  502  0.10334191787E+04 -0.73919297622E+03 -0.13089682745E+04  0.18242207895E+04  0.46999998093E+01 0.  1.
</event>
<event>
 5   0  0.3399500E-08  0.3998772E+04  0.7818609E-02  0.8004794E-01
        1   -1    0    0  501    0  0.00000000000E+00  0.00000000000E+00  0.15389480261E+04  0.15389480261E+04  0.50400001928E-02 0.  1.
       -1   -1    0    0    0  501  0.00000000000E+00  0.00000000000E+00 -0.25975828236E+04  0.25975828236E+04  0.50400001928E-02 0. -1.
    10030    2    1    2    0    0  0.00000000000E+00  0.00000000000E+00 -0.10586347975E+04  0.41365308497E+04  0.39987722910E+04 0.  0.
        5    1    3    3  502    0  0.96796050681E+03 -0.14723795194E+04  0.44804585444E+03  0.18181353552E+04  0.46999998093E+01 0.  1.
       -5    1    3    3    0  502 -0.96796050681E+03  0.14723795194E+04 -0.15066806519E+04  0.23183954945E+04  0.46999998093E+01 0. -1.
</event>
<event>
 5   0  0.3399500E-08  0.3987403E+04  0.7818609E-02  0.8007093E-01
       -1   -1    0    0    0  501  0.00000000000E+00  0.00000000000E+00  0.19286480439E+04  0.19286480439E+04  0.50400001928E-02 0.  1.
        1   -1    0    0  501    0  0.00000000000E+00  0.00000000000E+00 -0.20609495599E+04  0.20609495599E+04  0.50400001928E-02 0. -1.
    10030    2    1    2    0    0  0.00000000000E+00  0.00000000000E+00 -0.13230151599E+03  0.39895976039E+04  0.39874033342E+04 0.  0.
        4    1    3    3  502    0 -0.17911666500E+04  0.46886963391E+03  0.67366673140E+03  0.19702652562E+04  0.12699999809E+01 0.  1.
       -4    1    3    3    0  502  0.17911666500E+04 -0.46886963391E+03 -0.80596824739E+03  0.20193323477E+04  0.12699999809E+01 0. -1.
</event>
<event>
 5   0  0.1095109E-07  0.4001937E+04  0.7818609E-02  0.8004156E-01
       -2   -1    0    0    0  501  0.00000000000E+00  0.00000000000E+00  0.15104966089E+04  0.15104966089E+04  0.25500000920E-02 0.  1.
        2   -1    0    0  501    0  0.00000000000E+00  0.00000000000E+00 -0.26507014949E+04  0.26507014949E+04  0.25500000920E-02 0. -1.
    10030    2    1    2    0    0  0.00000000000E+00  0.00000000000E+00 -0.11402048860E+04  0.41611981038E+04  0.40019373404E+04 0.  0.
        4    1    3    3  502    0 -0.40283947737E+03  0.74173040807E+03 -0.24565313511E+04  0.25974971674E+04  0.12699999809E+01 0. -1.
       -4    1    3    3    0  502  0.40283947737E+03 -0.74173040807E+03  0.13163264651E+04  0.15637009364E+04  0.12699999809E+01 0.  1.
</event>
<event>
 5   0  0.1087688E-07  0.4005667E+04  0.7818609E-02  0.8003404E-01
        2   -1    0    0  501    0  0.00000000000E+00  0.00000000000E+00  0.22263725137E+04  0.22263725137E+04  0.25500000920E-02 0.  1.
       -2   -1    0    0    0  501  0.00000000000E+00  0.00000000000E+00 -0.18017391316E+04  0.18017391316E+04  0.25500000920E-02 0. -1.
    10030    2    1    2    0    0  0.00000000000E+00  0.00000000000E+00  0.42463338215E+03  0.40281116453E+04  0.40056672251E+04 0.  0.
        2    1    3    3  502    0 -0.11474373196E+04  0.16124127630E+04  0.52202803330E+03  0.20467048121E+04  0.25500000920E-02 0. -1.
       -2    1    3    3    0  502  0.11474373196E+04 -0.16124127630E+04 -0.97394651150E+02  0.19814068332E+04  0.25500000920E-02 0.  1.
</event>
<event>
 5   0  0.1095109E-07  0.3996010E+04  0.7818609E-02  0.8005352E-01
        2   -1    0    0  501    0  0.00000000000E+00  0.00000000000E+00  0.29008476187E+04  0.29008476187E+04  0.25500000920E-02 0.  1.
       -2   -1    0    0    0  501  0.00000000000E+00  0.00000000000E+00 -0.13761578729E+04  0.13761578729E+04  0.25500000920E-02 0. -1.
    10030    2    1    2    0    0  0.00000000000E+00  0.00000000000E+00  0.15246897458E+04  0.42770054916E+04  0.39960101544E+04 0.  0.
        4    1    3    3  502    0  0.26895387157E+03 -0.17249919715E+04 -0.27762255414E+03  0.17677696067E+04  0.12699999809E+01 0. -1.
       -4    1    3    3    0  502 -0.26895387157E+03  0.17249919715E+04  0.18023123000E+04  0.25092358849E+04  0.12699999809E+01 0.  1.
</event>
<event>
 5   0  0.1073271E-07  0.3997371E+04  0.7818609E-02  0.8005077E-01
        2   -1    0    0  501    0  0.00000000000E+00  0.00000000000E+00  0.17057037665E+04  0.17057037665E+04  0.25500000920E-02 0. -1.
       -2   -1    0    0    0  501  0.00000000000E+00  0.00000000000E+00 -0.23419919329E+04  0.23419919329E+04  0.25500000920E-02 0.  1.
    10030    2    1    2    0    0  0.00000000000E+00  0.00000000000E+00 -0.63628816641E+03  0.40476956995E+04  0.39973713669E+04 0.  0.
        1    1    3    3  502    0  0.14311844678E+04 -0.35237051475E+03  0.10487729764E+04  0.18089717291E+04  0.50400001928E-02 0. -1.
       -1    1    3    3    0  502 -0.14311844678E+04  0.35237051475E+03 -0.16850611428E+04  0.22387239704E+04  0.50400001928E-02 0.  1.
</event>
<event>
 5   0  0.1095903E-07  0.4004184E+04  0.7818609E-02  0.8003703E-01
       -2   -1    0    0    0  501  0.00000000000E+00  0.00000000000E+00  0.30599159534E+04  0.30599159534E+04  0.25500000920E-02 0.  1.
        2   -1    0    0  501    0  0.00000000000E+00  0.00000000000E+00 -0.13099618333E+04  0.13099618333E+04  0.25500000920E-02 0. -1.
    10030    2    1    2    0    0  0.00000000000E+00  0.00000000000E+00  0.17499541202E+04  0.43698777867E+04  0.40041843674E+04 0.  0.
        3    1    3    3  502    0  0.18253607262E+04 -0.22503524282E+03  0.17382928706E+04  0.25306609326E+04  0.10100000352E+00 0.  1.
       -3    1    3    3    0  502 -0.18253607262E+04  0.22503524282E+03  0.11661249504E+02  0.18392168541E+04  0.10100000352E+00 0. -1.
</event>
<event>
 5   0  0.3399500E-08  0.4002496E+04  0.7818609E-02  0.8004043E-01
        1   -1    0    0  501    0  0.00000000000E+00  0.00000000000E+00  0.26359514538E+04  0.26359514539E+04  0.50400001928E-02 0. -1.
       -1   -1    0    0    0  501  0.00000000000E+00  0.00000000000E+00 -0.15193727717E+04  0.15193727718E+04  0.50400001928E-02 0.  1.
    10030    2    1    2    0    0  0.00000000000E+00  0.00000000000E+00  0.11165786821E+04  0.41553242256E+04  0.40024956548E+04 0.  0.
        1    1    3    3  502    0  0.13547774867E+04  0.14038152590E+04  0.95308993482E+02  0.19532544954E+04  0.50400001928E-02 0.  1.
       -1    1    3    3    0  502 -0.13547774867E+04 -0.14038152590E+04  0.10212696886E+04  0.22020697302E+04  0.50400001928E-02 0. -1.
</event>
<event>
 5   0  0.1087688E-07  0.3976563E+04  0.7818609E-02  0.8009291E-01
       -2   -1    0    0    0  501  0.00000000000E+00  0.00000000000E+00  0.13460819061E+04  0.13460819061E+04  0.25500000920E-02 0. -1.
        2   -1    0    0  501    0  0.00000000000E+00  0.00000000000E+00 -0.29368661804E+04  0.29368661804E+04  0.25500000920E-02 0.  1.
    10030    2    1    2    0    0  0.00000000000E+00  0.00000000000E+00 -0.15907842743E+04  0.42829480865E+04  0.39765625488E+04 0.  0.
        2    1    3    3  502    0  0.78392648303E+03 -0.20002215804E+03 -0.27515650785E+04  0.28680411391E+04  0.25500000920E-02 0.  1.
       -2    1    3    3    0  502 -0.78392648303E+03  0.20002215804E+03  0.11607808042E+04  0.14149069474E+04  0.25500000920E-02 0. -1.
</event>
<event>
 5   0  0.3399500E-08  0.3923027E+04  0.7818609E-02  0.8020257E-01
       -1   -1    0    0    0  501  0.00000000000E+00  0.00000000000E+00  0.11504421457E+04  0.11504421458E+04  0.50400001928E-02 0. -1.
        1   -1    0    0  501    0  0.00000000000E+00  0.00000000000E+00 -0.33443961393E+04  0.33443961393E+04  0.50400001928E-02 0.  1.
    10030    2    1    2    0    0  0.00000000000E+00  0.00000000000E+00 -0.21939539936E+04  0.44948382851E+04  0.39230265208E+04 0.  0.
        4    1    3    3  502    0  0.14691923355E+03 -0.65676000505E+03 -0.32079758946E+04  0.32778087069E+04  0.12699999809E+01 0.  1.
       -4    1    3    3    0  502 -0.14691923355E+03  0.65676000505E+03  0.10140219011E+04  0.12170295782E+04  0.12699999809E+01 0. -1.
</event>
<event>
 5   0  0.1087688E-07  0.3977293E+04  0.7818609E-02  0.8009143E-01
       -2   -1    0    0    0  501  0.00000000000E+00  0.00000000000E+00  0.17421193315E+04  0.17421193315E+04  0.25500000920E-02 0. -1.
        2   -1    0    0  501    0  0.00000000000E+00  0.00000000000E+00 -0.22700599999E+04  0.22700599999E+04  0.25500000920E-02 0.  1.
    10030    2    1    2    0    0  0.00000000000E+00  0.00000000000E+00 -0.52794066833E+03  0.40121793314E+04  0.39772932552E+04 0.  0.
        2    1    3    3  502    0  0.12157085565E+04 -0.14797803500E+04  0.27646963955E+03  0.19349761343E+04  0.25500000920E-02 0. -1.
       -2    1    3    3    0  502 -0.12157085565E+04  0.14797803500E+04 -0.80441030788E+03  0.20772031971E+04  0.25500000920E-02 0.  1.
</event>
<event>
 5   0  0.1095109E-07  0.3976344E+04  0.7818609E-02  0.8009336E-01
        2   -1    0    0  501    0  0.00000000000E+00  0.00000000000E+00  0.25163860181E+04  0.25163860181E+04  0.25500000920E-02 0.  1.
       -2   -1    0    0    0  501  0.00000000000E+00  0.00000000000E+00 -0.15708351583E+04  0.15708351583E+04  0.25500000920E-02 0. -1.
    10030    2    1    2    0    0  0.00000000000E+00  0.00000000000E+00  0.94555085975E+03  0.40872211764E+04  0.39763438629E+04 0.  0.
        4    1    3    3  502    0  0.12765691747E+04 -0.28693370957E+03  0.20114691077E+04  0.23995769201E+04  0.12699999809E+01 0.  1.
       -4    1    3    3    0  502 -0.12765691747E+04  0.28693370957E+03 -0.10659182479E+04  0.16876442563E+04  0.12699999809E+01 0. -1.
</event>
<event>
 5   0  0.3399500E-08  0.3993744E+04  0.7818609E-02  0.8005810E-01
       -1   -1    0    0    0  501  0.00000000000E+00  0.00000000000E+00  0.16464836550E+04  0.16464836550E+04  0.50400001928E-02 0.  1.
        1   -1    0    0  501    0  0.00000000000E+00  0.00000000000E+00 -0.24218260261E+04  0.24218260261E+04  0.50400001928E-02 0. -1.
    10030    2    1    2    0    0  0.00000000000E+00  0.00000000000E+00 -0.77534237113E+03  0.40683096812E+04  0.39937435908E+04 0.  0.
        1    1    3    3  502    0  0.87198144784E+03  0.16063336652E+04  0.43160704120E+03  0.18780160083E+04  0.50400001928E-02 0.  1.
       -1    1    3    3    0  502 -0.87198144784E+03 -0.16063336652E+04 -0.12069494123E+04  0.21902936729E+04  0.50400001928E-02 0. -1.
</event>
<event>
 5   0  0.3399500E-08  0.3947643E+04  0.7818609E-02  0.8015193E-01
        1   -1    0    0  501    0  0.00000000000E+00  0.00000000000E+00  0.25028241305E+04  0.25028241305E+04  0.50400001928E-02 0. -1.
       -1   -1    0    0    0  501  0.00000000000E+00  0.00000000000E+00 -0.15566299189E+04  0.15566299189E+04  0.50400001928E-02 0.  1.
    10030    2    1    2    0    0  0.00000000000E+00  0.00000000000E+00  0.94619421157E+03  0.40594540494E+04  0.39476428021E+04 0.  0.
        5    1    3    3  502    0 -0.88080833763E+03 -0.17420147642E+04  0.77380055111E+03  0.20998162179E+04  0.46999998093E+01 0. -1.
       -5    1    3    3    0  502  0.88080833763E+03  0.17420147642E+04  0.17239366047E+03  0.19596378314E+04  0.46999998093E+01 0.  1.
</event>
<event>
 5   0  0.1095903E-07  0.3983403E+04  0.7818609E-02  0.8007903E-01
        2   -1    0    0  501    0  0.00000000000E+00  0.00000000000E+00  0.22106838961E+04  0.22106838961E+04  0.25500000920E-02 0.  1.
       -2   -1    0    0    0  501  0.00000000000E+00  0.00000000000E+00 -0.17944111022E+04  0.17944111022E+04  0.25500000920E-02 0. -1.
    10030    2    1    2    0    0  0.00000000000E+00  0.00000000000E+00  0.41627279384E+03  0.40050949983E+04  0.39834034326E+04 0.  0.
        3    1    3    3  502    0  0.16683436706E+04  0.77244069430E+03  0.97836308524E+03  0.20826016341E+04  0.10100000352E+00 0.  1.
       -3    1    3    3    0  502 -0.16683436706E+04 -0.77244069430E+03 -0.56209029140E+03  0.19224933642E+04  0.10100000352E+00 0. -1.
</event>
<event>
 5   0  0.3399500E-08  0.3943948E+04  0.7818609E-02  0.8015950E-01
       -3   -1    0    0    0  501  0.00000000000E+00  0.00000000000E+00  0.14278898953E+04  0.14278898989E+04  0.10100000352E+00 0. -1.
        3   -1    0    0  501    0  0.00000000000E+00  0.00000000000E+00 -0.27233760389E+04  0.27233760408E+04  0.10100000352E+00 0.  1.
    10030    2    1    2    0    0  0.00000000000E+00  0.00000000000E+00 -0.12954861436E+04  0.41512659397E+04  0.39439478386E+04 0.  0.
        1    1    3    3  502    0 -0.40704962362E+03 -0.19294498028E+04 -0.66318392912E+03  0.20804516003E+04  0.50400001928E-02 0.  1.
       -1    1    3    3    0  502  0.40704962362E+03  0.19294498028E+04 -0.63230221451E+03  0.20708143393E+04  0.50400001928E-02 0. -1.
</event>
<event>
 5   0  0.3399500E-08  0.3999836E+04  0.7818609E-02  0.8004580E-01
        1   -1    0    0  501    0  0.00000000000E+00  0.00000000000E+00  0.26105853926E+04  0.26105853926E+04  0.50400001928E-02 0.  1.
       -1   -1    0    0    0  501  0.00000000000E+00  0.00000000000E+00 -0.15320978638E+04  0.15320978638E+04  0.50400001928E-02 0. -1.
    10030    2    1    2    0    0  0.00000000000E+00  0.00000000000E+00  0.10784875288E+04  0.41426832564E+04  0.39998361482E+04 0.  0.
        4    1    3    3  502    0  0.99060235004E+03  0.71792934791E+03 -0.10993302369E+04  0.16447626416E+04  0.12699999809E+01 0. -1.
       -4    1    3    3    0  502 -0.99060235004E+03 -0.71792934791E+03  0.21778177657E+04  0.24979206148E+04  0.12699999809E+01 0.  1.
</event>
<event>
 5   0  0.1095109E-07  0.4007023E+04  0.7818609E-02  0.8003131E-01
       -2   -1    0    0    0  501  0.00000000000E+00  0.00000000000E+00  0.23183546996E+04  0.23183546996E+04  0.25500000920E-02 0.  1.
        2   -1    0    0  501    0  0.00000000000E+00  0.00000000000E+00 -0.17314255555E+04  0.17314255555E+04  0.25500000920E-02 0. -1.
    10030    2    1    2    0    0  0.00000000000E+00  0.00000000000E+00  0.58692914416E+03  0.40497802551E+04  0.40070231213E+04 0.  0.
        4    1    3    3  502    0  0.19207253325E+04 -0.53574899935E+03  0.49007614972E+03  0.20533847761E+04  0.12699999809E+01 0.  1.
       -4    1    3    3    0  502 -0.19207253325E+04  0.53574899935E+03  0.96852994443E+02  0.19963954790E+04  0.12699999809E+01 0. -1.
</event>
<event>
 5   0  0.1073271E-07  0.4002430E+04  0.7818609E-02  0.8004056E-01
        2   -1    0    0  501    0  0.00000000000E+00  0.00000000000E+00  0.19780070195E+04  0.19780070195E+04  0.25500000920E-02 0. -1.
       -2   -1    0    0    0  501  0.00000000000E+00  0.00000000000E+00 -0.20246955573E+04  0.20246955573E+04  0.25500000920E-02 0.  1.
    10030    2    1    2    0    0  0.00000000000E+00  0.00000000000E+00 -0.46688537803E+02  0.40027025768E+04  0.40024302740E+04 0.  0.
        1    1    3    3  502    0  0.90468372773E+03  0.16980159125E+04  0.52728499755E+03  0.19949286090E+04  0.50400001928E-02 0. -1.
       -1    1    3    3    0  502 -0.90468372773E+03 -0.16980159125E+04 -0.57397353535E+03  0.20077739678E+04  0.50400001928E-02 0.  1.
</event>
<event>
 5   0  0.3399500E-08  0.4231129E+04  0.7818609E-02  0.7959477E-01
       -1   -1    0    0    0  501  0.00000000000E+00  0.00000000000E+00  0.21108344149E+04  0.21108344149E+04  0.50400001928E-02 0. -1.
        1   -1    0    0  501    0  0.00000000000E+00  0.00000000000E+00 -0.21203048833E+04  0.21203048833E+04  0.50400001928E-02 0.  1.
    10030    2    1    2    0    0  0.00000000000E+00  0.00000000000E+00 -0.94704684577E+01  0.42311392982E+04  0.42311286994E+04 0.  0.
        2    1    3    3  502    0 -0.74521418127E+03 -0.19546731555E+04  0.31073535962E+03  0.21148635380E+04  0.25500000920E-02 0.  1.
       -2    1    3    3    0  502  0.74521418127E+03  0.19546731555E+04 -0.32020582808E+03  0.21162757602E+04  0.25500000920E-02 0. -1.
</event>
<event>
 5   0  0.1087688E-07  0.4042919E+04  0.7818609E-02  0.7995944E-01
        2   -1    0    0  501    0  0.00000000000E+00  0.00000000000E+00  0.12130629059E+04  0.12130629059E+04  0.25500000920E-02 0. -1.
       -2   -1    0    0    0  501  0.00000000000E+00  0.00000000000E+00 -0.33685792301E+04  0.33685792301E+04  0.25500000920E-02 0.  1.
    10030    2    1    2    0    0  0.00000000000E+00  0.00000000000E+00 -0.21555163243E+04  0.45816421360E+04  0.40429189997E+04 0.  0.
        2    1    3    3  502    0 -0.76116539370E+03  0.17968324162E+04 -0.16756155055E+04  0.25720938573E+04  0.25500000920E-02 0.  1.
       -2    1    3    3    0  502  0.76116539370E+03 -0.17968324162E+04 -0.47990081874E+03  0.20095482787E+04  0.25500000920E-02 0. -1.
</event>
<event>
 5   0  0.1073271E-07  0.3977489E+04  0.7818609E-02  0.8009103E-01
        2   -1    0    0  501    0  0.00000000000E+00  0.00000000000E+00  0.18028372323E+04  0.18028372323E+04  0.25500000920E-02 0. -1.
       -2   -1    0    0    0  501  0.00000000000E+00  0.00000000000E+00 -0.21938221032E+04  0.21938221032E+04  0.25500000920E-02 0.  1.
    10030    2    1    2    0    0  0.00000000000E+00  0.00000000000E+00 -0.39098487093E+03  0.39966593355E+04  0.39774887397E+04 0.  0.
        1    1    3    3  502    0 -0.22296681852E+03 -0.12569963530E+04  0.13367671628E+04  0.18484318979E+04  0.50400001928E-02 0. -1.
       -1    1    3    3    0  502  0.22296681852E+03  0.12569963530E+04 -0.17277520337E+04  0.21482274376E+04  0.50400001928E-02 0.  1.
</event>
<event>
 5   0  0.1095903E-07  0.4015013E+04  0.7818609E-02  0.8001525E-01
        2   -1    0    0  501    0  0.00000000000E+00  0.00000000000E+00  0.22813629267E+04  0.22813629267E+04  0.25500000920E-02 0.  1.
       -2   -1    0    0    0  501  0.00000000000E+00  0.00000000000E+00 -0.17665237009E+04  0.17665237009E+04  0.25500000920E-02 0. -1.
    10030    2    1    2    0    0  0.00000000000E+00  0.00000000000E+00  0.51483922577E+03  0.40478866277E+04  0.40150126677E+04 0.  0.
        3    1    3    3  502    0 -0.17135866866E+04 -0.10408204546E+04  0.15462836161E+03  0.20108695860E+04  0.10100000352E+00 0.  1.
       -3    1    3    3    0  502  0.17135866866E+04  0.10408204546E+04  0.36021086416E+03  0.20370170417E+04  0.10100000352E+00 0. -1.
</event>
<event>
 5   0  0.1087688E-07  0.3998712E+04  0.7818609E-02  0.8004806E-01
        2   -1    0    0  501    0  0.00000000000E+00  0.00000000000E+00  0.23424524383E+04  0.23424524383E+04  0.25500000920E-02 0. -1.
       -2   -1    0    0    0  501  0.00000000000E+00  0.00000000000E+00 -0.17065128049E+04  0.17065128049E+04  0.25500000920E-02 0.  1.
    10030    2    1    2    0    0  0.00000000000E+00  0.00000000000E+00  0.63593963337E+03  0.40489652432E+04  0.39987123331E+04 0.  0.
        2    1    3    3  502    0 -0.55008033846E+03 -0.86700136130E+03  0.20550894999E+04  0.22973185656E+04  0.25500000920E-02 0. -1.
       -2    1    3    3    0  502  0.55008033846E+03  0.86700136130E+03 -0.14191498665E+04  0.17516466776E+04  0.25500000920E-02 0.  1.
</event>
<event>
 5   0  0.3399500E-08  0.4026798E+04  0.7818609E-02  0.7999162E-01
        1   -1    0    0  501    0  0.00000000000E+00  0.00000000000E+00  0.22342355230E+04  0.22342355230E+04  0.50400001928E-02 0. -1.
       -1   -1    0    0    0  501  0.00000000000E+00  0.00000000000E+00 -0.18143905630E+04  0.18143905630E+04  0.50400001928E-02 0.  1.
    10030    2    1    2    0    0  0.00000000000E+00  0.00000000000E+00  0.41984496003E+03  0.40486260860E+04  0.40267981566E+04 0.  0.
        5    1    3    3  502    0 -0.43171133439E+03 -0.74561881855E+03 -0.16196756437E+04  0.18345826172E+04  0.46999998093E+01 0.  1.
       -5    1    3    3    0  502  0.43171133439E+03  0.74561881855E+03  0.20395206037E+04  0.22140434688E+04  0.46999998093E+01 0. -1.
</event>
<event>
 5   0  0.1095109E-07  0.4007294E+04  0.7818609E-02  0.8003077E-01
        2   -1    0    0  501    0  0.00000000000E+00  0.00000000000E+00  0.27828160612E+04  0.27828160612E+04  0.25500000920E-02 0.  1.
       -2   -1    0    0    0  501  0.00000000000E+00  0.00000000000E+00 -0.14426395443E+04  0.14426395443E+04  0.25500000920E-02 0. -1.
    10030    2    1    2    0    0  0.00000000000E+00  0.00000000000E+00  0.13401765169E+04  0.42254556055E+04  0.40072935977E+04 0.  0.
        4    1    3    3  502    0 -0.16635696839E+04 -0.39285846006E+02  0.18469086444E+04  0.24859767949E+04  0.12699999809E+01 0.  1.
       -4    1    3    3    0  502  0.16635696839E+04  0.39285846006E+02 -0.50673212752E+03  0.17394788107E+04  0.12699999809E+01 0. -1.
</event>
<event>
 5   0  0.3399500E-08  0.4011360E+04  0.7818609E-02  0.8002259E-01
       -1   -1    0    0    0  501  0.00000000000E+00  0.00000000000E+00  0.30926446706E+04  0.30926446706E+04  0.50400001928E-02 0. -1.
        1   -1    0    0  501    0  0.00000000000E+00  0.00000000000E+00 -0.13007482601E+04  0.13007482601E+04  0.50400001928E-02 0.  1.
    10030    2    1    2    0    0  0.00000000000E+00  0.00000000000E+00  0.17918964105E+04  0.43933929308E+04  0.40113599562E+04 0.  0.
        3    1    3    3  502    0  0.45279553763E+03  0.65348471668E+03 -0.11208024394E+04  0.13741412563E+04  0.10100000352E+00 0.  1.
       -3    1    3    3    0  502 -0.45279553763E+03 -0.65348471668E+03  0.29126988499E+04  0.30192516745E+04  0.10100000352E+00 0. -1.
</event>
<event>
 5   0  0.3399500E-08  0.3982668E+04  0.7818609E-02  0.8008052E-01
        1   -1    0    0  501    0  0.00000000000E+00  0.00000000000E+00  0.21056058083E+04  0.21056058083E+04  0.50400001928E-02 0.  1.
       -1   -1    0    0    0  501  0.00000000000E+00  0.00000000000E+00 -0.18832641893E+04  0.18832641893E+04  0.50400001928E-02 0. -1.
    10030    2    1    2    0    0  0.00000000000E+00  0.00000000000E+00  0.22234161901E+03  0.39888699976E+04  0.39826684600E+04 0.  0.
        3    1    3    3  502    0 -0.64844824866E+01 -0.37731065894E+03  0.20694664305E+04  0.21035913812E+04  0.10100000352E+00 0.  1.
       -3    1    3    3    0  502  0.64844824866E+01  0.37731065894E+03 -0.18471248115E+04  0.18852786164E+04  0.10100000352E+00 0. -1.
</event>
<event>
 5   0  0.1095903E-07  0.3954291E+04  0.7818609E-02  0.8013832E-01
        2   -1    0    0  501    0  0.00000000000E+00  0.00000000000E+00  0.23376245301E+04  0.23376245301E+04  0.25500000920E-02 0.  1.
       -2   -1    0    0    0  501  0.00000000000E+00  0.00000000000E+00 -0.16722548399E+04  0.16722548399E+04  0.25500000920E-02 0. -1.
    10030    2    1    2    0    0  0.00000000000E+00  0.00000000000E+00  0.66536969015E+03  0.40098793700E+04  0.39542908008E+04 0.  0.
        3    1    3    3  502    0 -0.65298554440E+03  0.24171452223E+02  0.22249638262E+04  0.23189304471E+04  0.10100000352E+00 0.  1.
       -3    1    3    3    0  502  0.65298554440E+03 -0.24171452223E+02 -0.15595941361E+04  0.16909489229E+04  0.10100000352E+00 0. -1.
</event>
<event>
 5   0  0.3399500E-08  0.3954939E+04  0.7818609E-02  0.8013699E-01
        1   -1    0    0  501    0  0.00000000000E+00  0.00000000000E+00  0.13161039267E+04  0.13161039268E+04  0.50400001928E-02 0. -1.
       -1   -1    0    0    0  501  0.00000000000E+00  0.00000000000E+00 -0.29711835623E+04  0.29711835623E+04  0.50400001928E-02 0.  1.
    10030    2    1    2    0    0  0.00000000000E+00  0.00000000000E+00 -0.16550796356E+04  0.42872874891E+04  0.39549393692E+04 0.  0.
        3    1    3    3  502    0  0.15206941715E+04  0.11210598362E+04 -0.14606567174E+04  0.23880544332E+04  0.10100000352E+00 0. -1.
       -3    1    3    3    0  502 -0.15206941715E+04 -0.11210598362E+04 -0.19442291817E+03  0.18992330559E+04  0.10100000352E+00 0.  1.
</event>
<event>
 5   0  0.3399500E-08  0.4000849E+04  0.7818609E-02  0.8004375E-01
        1   -1    0    0  501    0  0.00000000000E+00  0.00000000000E+00  0.24378357307E+04  0.24378357307E+04  0.50400001928E-02 0.  1.
       -1   -1    0    0    0  501  0.00000000000E+00  0.00000000000E+00 -0.16414961208E+04  0.16414961208E+04  0.50400001928E-02 0. -1.
    10030    2    1    2    0    0  0.00000000000E+00  0.00000000000E+00  0.79633960988E+03  0.40793318516E+04  0.40008488575E+04 0.  0.
        4    1    3    3  502    0 -0.10688292890E+04  0.15864660312E+03 -0.13183423732E+04  0.17045800127E+04  0.12699999809E+01 0. -1.
       -4    1    3    3    0  502  0.10688292890E+04 -0.15864660312E+03  0.21146819831E+04  0.23747518389E+04  0.12699999809E+01 0.  1.
</event>
<event>
 5   0  0.3399500E-08  0.3883561E+04  0.7818609E-02  0.8028457E-01
        3   -1    0    0  501    0  0.00000000000E+00  0.00000000000E+00  0.12865608940E+04  0.12865608980E+04  0.10100000352E+00 0.  1.
       -3   -1    0    0    0  501  0.00000000000E+00  0.00000000000E+00 -0.29306909413E+04  0.29306909430E+04  0.10100000352E+00 0. -1.
    10030    2    1    2    0    0  0.00000000000E+00  0.00000000000E+00 -0.16441300472E+04  0.42172518410E+04  0.38835614426E+04 0.  0.
        1    1    3    3  502    0 -0.17545160996E+04  0.80253995085E+03 -0.10602644674E+04  0.22014899176E+04  0.50400001928E-02 0. -1.
       -1    1    3    3    0  502  0.17545160996E+04 -0.80253995085E+03 -0.58386557981E+03  0.20157619234E+04  0.50400001928E-02 0.  1.
</event>
<event>
 5   0  0.3399500E-08  0.3928796E+04  0.7818609E-02  0.8019067E-01
        1   -1    0    0  501    0  0.00000000000E+00  0.00000000000E+00  0.22109562856E+04  0.22109562856E+04  0.50400001928E-02 0. -1.
       -1   -1    0    0    0  501  0.00000000000E+00  0.00000000000E+00 -0.17453350744E+04  0.17453350744E+04  0.50400001928E-02 0.  1.
    10030    2    1    2    0    0  0.00000000000E+00  0.00000000000E+00  0.46562121121E+03  0.39562913600E+04  0.39287960258E+04 0.  0.
        4    1    3    3  502    0  0.26980528471E+03 -0.12451488895E+04 -0.12728683218E+04  0.18009403172E+04  0.12699999809E+01 0.  1.
       -4    1    3    3    0  502 -0.26980528471E+03  0.12451488895E+04  0.17384895330E+04  0.21553510428E+04  0.12699999809E+01 0. -1.
</event>
<event>
 5   0  0.1095903E-07  0.4024105E+04  0.7818609E-02  0.7999701E-01
       -2   -1    0    0    0  501  0.00000000000E+00  0.00000000000E+00  0.22147957358E+04  0.22147957358E+04  0.25500000920E-02 0.  1.
        2   -1    0    0  501    0  0.00000000000E+00  0.00000000000E+00 -0.18278685750E+04  0.18278685750E+04  0.25500000920E-02 0. -1.
    10030    2    1    2    0    0  0.00000000000E+00  0.00000000000E+00  0.38692716086E+03  0.40426643108E+04  0.40241051306E+04 0.  0.
        3    1    3    3  502    0  0.11349631116E+04 -0.16609062179E+04  0.23370811632E+03  0.20251839974E+04  0.10100000352E+00 0.  1.
       -3    1    3    3    0  502 -0.11349631116E+04  0.16609062179E+04  0.15321904454E+03  0.20174803134E+04  0.10100000352E+00 0. -1.
</event>
<event>
 5   0  0.3399500E-08  0.4005275E+04  0.7818609E-02  0.8003483E-01
       -1   -1    0    0    0  501  0.00000000000E+00  0.00000000000E+00  0.18681611975E+04  0.18681611975E+04  0.50400001928E-02 0. -1.
        1   -1    0    0  501    0  0.00000000000E+00  0.00000000000E+00 -0.21467938440E+04  0.21467938440E+04  0.50400001928E-02 0.  1.
    10030    2    1    2    0    0  0.00000000000E+00  0.00000000000E+00 -0.27863264655E+03  0.40149550415E+04  0.40052750010E+04 0.  0.
        1    1    3    3  502    0  0.91830567761E+03  0.16279986925E+04 -0.86000584699E+03  0.20574924343E+04  0.50400001928E-02 0.  1.
       -1    1    3    3    0  502 -0.91830567761E+03 -0.16279986925E+04  0.58137320044E+03  0.19574626072E+04  0.50400001928E-02 0. -1.
</event>
<event>
 5   0  0.1095903E-07  0.4004280E+04  0.7818609E-02  0.8003684E-01
        2   -1    0    0  501    0  0.00000000000E+00  0.00000000000E+00  0.13707191247E+04  0.13707191247E+04  0.25500000920E-02 0.  1.
       -2   -1    0    0    0  501  0.00000000000E+00  0.00000000000E+00 -0.29244242321E+04  0.29244242321E+04  0.25500000920E-02 0. -1.
    10030    2    1    2    0    0  0.00000000000E+00  0.00000000000E+00 -0.15537051074E+04  0.42951433569E+04  0.40042798223E+04 0.  0.
        3    1    3    3  502    0  0.78995381023E+03  0.17826506111E+04 -0.28919251430E+03  0.19711678123E+04  0.10100000352E+00 0. -1.
       -3    1    3    3    0  502 -0.78995381023E+03 -0.17826506111E+04 -0.12645125931E+04  0.23239755446E+04  0.10100000352E+00 0.  1.
</event>
<event>
 5   0  0.1095109E-07  0.3990201E+04  0.7818609E-02  0.8006526E-01
       -2   -1    0    0    0  501  0.00000000000E+00  0.00000000000E+00  0.23777301626E+04  0.23777301626E+04  0.25500000920E-02 0.  1.
        2   -1    0    0  501    0  0.00000000000E+00  0.00000000000E+00 -0.16740443694E+04  0.16740443694E+04  0.25500000920E-02 0. -1.
    10030    2    1    2    0    0  0.00000000000E+00  0.00000000000E+00  0.70368579320E+03  0.40517745320E+04  0.39902008926E+04 0.  0.
        4    1    3    3  502    0  0.31310420326E+03 -0.12515355401E+03  0.23485862046E+04  0.23726686299E+04  0.12699999809E+01 0.  1.
       -4    1    3    3    0  502 -0.31310420326E+03  0.12515355401E+03 -0.16449004114E+04  0.16791059021E+04  0.12699999809E+01 0. -1.
</event>
<event>
 5   0  0.3399500E-08  0.3973218E+04  0.7818609E-02  0.8009971E-01
       -1   -1    0    0    0  501  0.00000000000E+00  0.00000000000E+00  0.25265693764E+04  0.25265693764E+04  0.50400001928E-02 0. -1.
        1   -1    0    0  501    0  0.00000000000E+00  0.00000000000E+00 -0.15620451815E+04  0.15620451815E+04  0.50400001928E-02 0.  1.
    10030    2    1    2    0    0  0.00000000000E+00  0.00000000000E+00  0.96452419484E+03  0.40886145579E+04  0.39732181013E+04 0.  0.
        1    1    3    3  502    0 -0.11328579176E+04  0.13970054558E+04 -0.38581665076E+03  0.18395232516E+04  0.50400001928E-02 0. -1.
       -1    1    3    3    0  502  0.11328579176E+04 -0.13970054558E+04  0.13503408456E+04  0.22490913063E+04  0.50400001928E-02 0.  1.
</event>
<event>
 5   0  0.3399500E-08  0.3994856E+04  0.7818609E-02  0.8005585E-01
        1   -1    0    0  501    0  0.00000000000E+00  0.00000000000E+00  0.12516687553E+04  0.12516687554E+04  0.50400001928E-02 0.  1.
       -1   -1    0    0    0  501  0.00000000000E+00  0.00000000000E+00 -0.31875196530E+04  0.31875196530E+04  0.50400001928E-02 0. -1.
    10030    2    1    2    0    0  0.00000000000E+00  0.00000000000E+00 -0.19358508977E+04  0.44391884084E+04  0.39948560709E+04 0.  0.
        3    1    3    3  502    0  0.10609692752E+03  0.40415340246E+03 -0.31384098468E+04  0.31661037423E+04  0.10100000352E+00 0. -1.
       -3    1    3    3    0  502 -0.10609692752E+03 -0.40415340246E+03  0.12025589491E+04  0.12730846661E+04  0.10100000352E+00 0.  1.
</event>
<event>
 5   0  0.1087688E-07  0.3983046E+04  0.7818609E-02  0.8007975E-01
        2   -1    0    0  501    0  0.00000000000E+00  0.00000000000E+00  0.20879134357E+04  0.20879134357E+04  0.25500000920E-02 0.  1.
       -2   -1    0    0    0  501  0.00000000000E+00  0.00000000000E+00 -0.18995824375E+04  0.18995824375E+04  0.25500000920E-02 0. -1.
    10030    2    1    2    0    0  0.00000000000E+00  0.00000000000E+00  0.18833099825E+03  0.39874958731E+04  0.39830459166E+04 0.  0.
        2    1    3    3  502    0 -0.17827364152E+04  0.66883122744E+03  0.67849504010E+03  0.20213460506E+04  0.25500000920E-02 0.  1.
       -2    1    3    3    0  502  0.17827364152E+04 -0.66883122744E+03 -0.49016404185E+03  0.19661498226E+04  0.25500000920E-02 0. -1.
</event>
<event>
 5   0  0.1095903E-07  0.4004090E+04  0.7818609E-02  0.8003722E-01
        2   -1    0    0  501    0  0.00000000000E+00  0.00000000000E+00  0.27129206743E+04  0.27129206743E+04  0.25500000920E-02 0.  1.
       -2   -1    0    0    0  501  0.00000000000E+00  0.00000000000E+00 -0.14774424956E+04  0.14774424956E+04  0.25500000920E-02 0. -1.
    10030    2    1    2    0    0  0.00000000000E+00  0.00000000000E+00  0.12354781787E+04  0.41903631699E+04  0.40040900547E+04 0.  0.
        3    1    3    3  502    0  0.34816978303E+03 -0.54842494249E+03 -0.13640827331E+04  0.15108652581E+04  0.10100000352E+00 0. -1.
       -3    1    3    3    0  502 -0.34816978303E+03  0.54842494249E+03  0.25995609117E+04  0.26794979118E+04  0.10100000352E+00 0.  1.
</event>
<event>
 5   0  0.3399500E-08  0.3959356E+04  0.7818609E-02  0.8012796E-01
       -1   -1    0    0    0  501  0.00000000000E+00  0.00000000000E+00  0.24344749585E+04  0.24344749585E+04  0.50400001928E-02 0. -1.
        1   -1    0    0  501    0  0.00000000000E+00  0.00000000000E+00 -0.16098441669E+04  0.16098441669E+04  0.50400001928E-02 0.  1.
    10030    2    1    2    0    0  0.00000000000E+00  0.00000000000E+00  0.82463079162E+03  0.40443191253E+04  0.39593561655E+04 0.  0.
        4    1    3    3  502    0  0.12496389718E+04 -0.15213925055E+04  0.20076986942E+03  0.19790257373E+04  0.12699999809E+01 0.  1.
       -4    1    3    3    0  502 -0.12496389718E+04  0.15213925055E+04  0.62386092220E+03  0.20652933880E+04  0.12699999809E+01 0. -1.
</event>
<event>
 5   0  0.3399500E-08  0.3950434E+04  0.7818609E-02  0.8014621E-01
       -1   -1    0    0    0  501  0.00000000000E+00  0.00000000000E+00  0.16373826472E+04  0.16373826472E+04  0.50400001928E-02 0.  1.
        1   -1    0    0  501    0  0.00000000000E+00  0.00000000000E+00 -0.23827552355E+04  0.23827552355E+04  0.50400001928E-02 0. -1.
    10030    2    1    2    0    0  0.00000000000E+00  0.00000000000E+00 -0.74537258834E+03  0.40201378827E+04  0.39504339382E+04 0.  0.
        2    1    3    3  502    0 -0.13035565115E+04  0.79650075717E+02  0.11353100363E+04  0.17304717830E+04  0.25500000920E-02 0.  1.
       -2    1    3    3    0  502  0.13035565115E+04 -0.79650075717E+02 -0.18806826247E+04  0.22896660997E+04  0.25500000920E-02 0. -1.
</event>
<event>
 5   0  0.3399500E-08  0.3991242E+04  0.7818609E-02  0.8006316E-01
        1   -1    0    0  501    0  0.00000000000E+00  0.00000000000E+00  0.24313426710E+04  0.24313426710E+04  0.50400001928E-02 0. -1.
       -1   -1    0    0    0  501  0.00000000000E+00  0.00000000000E+00 -0.16379850742E+04  0.16379850742E+04  0.50400001928E-02 0.  1.
    10030    2    1    2    0    0  0.00000000000E+00  0.00000000000E+00  0.79335759680E+03  0.40693277452E+04  0.39912419147E+04 0.  0.
        1    1    3    3  502    0  0.12634217423E+03  0.17050532500E+04 -0.65269710865E+03  0.18300771694E+04  0.50400001928E-02 0.  1.
       -1    1    3    3    0  502 -0.12634217423E+03 -0.17050532500E+04  0.14460547055E+04  0.22392505758E+04  0.50400001928E-02 0. -1.
</event>
<event>
 5   0  0.1087688E-07  0.3975172E+04  0.7818609E-02  0.8009574E-01
       -2   -1    0    0    0  501  0.00000000000E+00  0.00000000000E+00  0.16986312302E+04  0.16986312302E+04  0.25500000920E-02 0. -1.
        2   -1    0    0  501    0  0.00000000000E+00  0.00000000000E+00 -0.23256954782E+04  0.23256954782E+04  0.25500000920E-02 0.  1.
    10030    2    1    2    0    0  0.00000000000E+00  0.00000000000E+00 -0.62706424802E+03  0.40243267084E+04  0.39751724346E+04 0.  0.
        2    1    3    3  502    0 -0.12508036901E+04 -0.13641916536E+04 -0.10470396898E+04  0.21264573476E+04  0.25500000920E-02 0.  1.
       -2    1    3    3    0  502  0.12508036901E+04  0.13641916536E+04  0.41997544176E+03  0.18978693608E+04  0.25500000920E-02 0. -1.
</event>
<event>
 5   0  0.3399500E-08  0.3989660E+04  0.7818609E-02  0.8006636E-01
        1   -1    0    0  501    0  0.00000000000E+00  0.00000000000E+00  0.20305487043E+04  0.20305487043E+04  0.50400001928E-02 0. -1.
       -1   -1    0    0    0  501  0.00000000000E+00  0.00000000000E+00 -0.19597399483E+04  0.19597399483E+04  0.50400001928E-02 0.  1.
    10030    2    1    2    0    0  0.00000000000E+00  0.00000000000E+00  0.70808755969E+02  0.39902886526E+04  0.39896603428E+04 0.  0.
        5    1    3    3  502    0  0.13546648993E+04  0.13844570698E+04  0.51243541688E+03  0.20036093717E+04  0.46999998093E+01 0.  1.
       -5    1    3    3    0  502 -0.13546648993E+04 -0.13844570698E+04 -0.44162666092E+03  0.19866792809E+04  0.46999998093E+01 0. -1.
</event>
<event>
 5   0  0.3399500E-08  0.3980245E+04  0.7818609E-02  0.8008544E-01
       -1   -1    0    0    0  501  0.00000000000E+00  0.00000000000E+00  0.27579319522E+04  0.27579319522E+04  0.50400001928E-02 0. -1.
        1   -1    0    0  501    0  0.00000000000E+00  0.00000000000E+00 -0.14360715492E+04  0.14360715492E+04  0.50400001928E-02 0.  1.
    10030    2    1    2    0    0  0.00000000000E+00  0.00000000000E+00  0.13218604030E+04  0.41940035014E+04  0.39802450232E+04 0.  0.
        3    1    3    3  502    0  0.13343313555E+04  0.32140241716E+02  0.22163907482E+04  0.25872497212E+04  0.10100000352E+00 0. -1.
       -3    1    3    3    0  502 -0.13343313555E+04 -0.32140241716E+02 -0.89453034523E+03  0.16067537801E+04  0.10100000352E+00 0.  1.
</event>
<event>
 5   0  0.1095903E-07  0.4001288E+04  0.7818609E-02  0.8004287E-01
       -2   -1    0    0    0  501  0.00000000000E+00  0.00000000000E+00  0.20010065681E+04  0.20010065681E+04  0.25500000920E-02 0.  1.
        2   -1    0    0  501    0  0.00000000000E+00  0.00000000000E+00 -0.20002812087E+04  0.20002812087E+04  0.25500000920E-02 0. -1.
    10030    2    1    2    0    0  0.00000000000E+00  0.00000000000E+00  0.72535939483E+00  0.40012877768E+04  0.40012877110E+04 0.  0.
        3    1    3    3  502    0 -0.56857717754E+03  0.18148177838E+04 -0.62071078114E+03  0.20005312993E+04  0.10100000352E+00 0.  1.
       -3    1    3    3    0  502  0.56857717754E+03 -0.18148177838E+04  0.62143614054E+03  0.20007564775E+04  0.10100000352E+00 0. -1.
</event>
<event>
 5   0  0.1095903E-07  0.4017678E+04  0.7818609E-02  0.8000990E-01
        2   -1    0    0  501    0  0.00000000000E+00  0.00000000000E+00  0.13964811644E+04  0.13964811644E+04  0.25500000920E-02 0. -1.
       -2   -1    0    0    0  501  0.00000000000E+00  0.00000000000E+00 -0.28897158828E+04  0.28897158828E+04  0.25500000920E-02 0.  1.
    10030    2    1    2    0    0  0.00000000000E+00  0.00000000000E+00 -0.14932347184E+04  0.42861970471E+04  0.40176778371E+04 0.  0.
        3    1    3    3  502    0 -0.42357353560E+03 -0.12297479473E+04 -0.23798636056E+04  0.27120924294E+04  0.10100000352E+00 0.  1.
       -3    1    3    3    0  502  0.42357353560E+03  0.12297479473E+04  0.88662888721E+03  0.15741046178E+04  0.10100000352E+00 0. -1.
</event>
<event>
 5   0  0.3399500E-08  0.3953875E+04  0.7818609E-02  0.8013917E-01
       -1   -1    0    0    0  501  0.00000000000E+00  0.00000000000E+00  0.14764875471E+04  0.14764875471E+04  0.50400001928E-02 0. -1.
        1   -1    0    0  501    0  0.00000000000E+00  0.00000000000E+00 -0.26470132983E+04  0.26470132983E+04  0.50400001928E-02 0.  1.
    10030    2    1    2    0    0  0.00000000000E+00  0.00000000000E+00 -0.11705257512E+04  0.41235008454E+04  0.39538751482E+04 0.  0.
        1    1    3    3  502    0  0.10892624808E+04  0.16122537966E+04 -0.22035608561E+03  0.19581654325E+04  0.50400001928E-02 0. -1.
       -1    1    3    3    0  502 -0.10892624808E+04 -0.16122537966E+04 -0.95016966559E+03  0.21653354128E+04  0.50400001928E-02 0.  1.
</event>
<event>
 5   0  0.1073271E-07  0.4014425E+04  0.7818609E-02  0.8001643E-01
        2   -1    0    0  501    0  0.00000000000E+00  0.00000000000E+00  0.25974440476E+04  0.25974440476E+04  0.25500000920E-02 0. -1.
       -2   -1    0    0    0  501  0.00000000000E+00  0.00000000000E+00 -0.15511028360E+04  0.15511028360E+04  0.25500000920E-02 0.  1.
    10030    2    1    2    0    0  0.00000000000E+00  0.00000000000E+00  0.10463412116E+04  0.41485468836E+04  0.40144254027E+04 0.  0.
        1    1    3    3  502    0  0.14215702275E+04  0.89716515269E+03  0.16566924663E+04  0.23601688819E+04  0.50400001928E-02 0. -1.
       -1    1    3    3    0  502 -0.14215702275E+04 -0.89716515269E+03 -0.61035125476E+03  0.17883780017E+04  0.50400001928E-02 0.  1.
</event>
<event>
 5   0  0.3399500E-08  0.3984857E+04  0.7818609E-02  0.8007608E-01
       -1   -1    0    0    0  501  0.00000000000E+00  0.00000000000E+00  0.16087944748E+04  0.16087944748E+04  0.50400001928E-02 0.  1.
        1   -1    0    0  501    0  0.00000000000E+00  0.00000000000E+00 -0.24675446209E+04  0.24675446209E+04  0.50400001928E-02 0. -1.
    10030    2    1    2    0    0  0.00000000000E+00  0.00000000000E+00 -0.85875014617E+03  0.40763390957E+04  0.39848574139E+04 0.  0.
        4    1    3    3  502    0  0.15064805048E+03 -0.17492099112E+04  0.53423791147E+03  0.18351680870E+04  0.12699999809E+01 0.  1.
       -4    1    3    3    0  502 -0.15064805048E+03  0.17492099112E+04 -0.13929880576E+04  0.22411710087E+04  0.12699999809E+01 0. -1.
</event>
<event>
 5   0  0.3399500E-08  0.3990799E+04  0.7818609E-02  0.8006405E-01
       -1   -1    0    0    0  501  0.00000000000E+00  0.00000000000E+00  0.14982914257E+04  0.14982914257E+04  0.50400001928E-02 0. -1.
        1   -1    0    0  501    0  0.00000000000E+00  0.00000000000E+00 -0.26574401328E+04  0.26574401328E+04  0.50400001928E-02 0.  1.
    10030    2    1    2    0    0  0.00000000000E+00  0.00000000000E+00 -0.11591487071E+04  0.41557315585E+04  0.39907993010E+04 0.  0.
        1    1    3    3  502    0  0.27262242626E+03 -0.18912625406E+04 -0.11781548878E+04  0.22448264798E+04  0.50400001928E-02 0.  1.
       -1    1    3    3    0  502 -0.27262242626E+03  0.18912625406E+04  0.19006180677E+02  0.19109050787E+04  0.50400001928E-02 0. -1.
</event>
<event>
 5   0  0.3399500E-08  0.4091963E+04  0.7818609E-02  0.7986247E-01
       -1   -1    0    0    0  501  0.00000000000E+00  0.00000000000E+00  0.21420778166E+04  0.21420778166E+04  0.50400001928E-02 0. -1.
        1   -1    0    0  501    0  0.00000000000E+00  0.00000000000E+00 -0.19541958399E+04  0.19541958399E+04  0.50400001928E-02 0.  1.
    10030    2    1    2    0    0  0.00000000000E+00  0.00000000000E+00  0.18788197676E+03  0.40962736565E+04  0.40919626381E+04 0.  0.
        2    1    3    3  502    0 -0.12193278117E+04 -0.11608517680E+04 -0.10699112553E+04  0.19947549308E+04  0.25500000920E-02 0.  1.
       -2    1    3    3    0  502  0.12193278117E+04  0.11608517680E+04  0.12577932321E+04  0.21015187257E+04  0.25500000920E-02 0. -1.
</event>
<event>
 5   0  0.1073271E-07  0.4003073E+04  0.7818609E-02  0.8003927E-01
       -2   -1    0    0    0  501  0.00000000000E+00  0.00000000000E+00  0.13968315295E+04  0.13968315295E+04  0.25500000920E-02 0.  1.
        2   -1    0    0  501    0  0.00000000000E+00  0.00000000000E+00 -0.28680253551E+04  0.28680253551E+04  0.25500000920E-02 0. -1.
    10030    2    1    2    0    0  0.00000000000E+00  0.00000000000E+00 -0.14711938256E+04  0.42648568845E+04  0.40030729413E+04 0.  0.
        1    1    3    3  502    0  0.69789228918E+03 -0.53841310027E+03  0.11789183334E+04  0.14720022930E+04  0.50400001928E-02 0.  1.
       -1    1    3    3    0  502 -0.69789228918E+03  0.53841310027E+03 -0.26501121590E+04  0.27928545915E+04  0.50400001928E-02 0. -1.
</event>
<event>
 5   0  0.3399500E-08  0.4009591E+04  0.7818609E-02  0.8002614E-01
       -1   -1    0    0    0  501  0.00000000000E+00  0.00000000000E+00  0.16322180590E+04  0.16322180591E+04  0.50400001928E-02 0.  1.
        1   -1    0    0  501    0  0.00000000000E+00  0.00000000000E+00 -0.24624194295E+04  0.24624194295E+04  0.50400001928E-02 0. -1.
    10030    2    1    2    0    0  0.00000000000E+00  0.00000000000E+00 -0.83020137041E+03  0.40946374885E+04  0.40095912319E+04 0.  0.
        4    1    3    3  502    0 -0.48767787609E+03  0.48847451211E+03 -0.23372478754E+04  0.24370404805E+04  0.12699999809E+01 0. -1.
       -4    1    3    3    0  502  0.48767787609E+03 -0.48847451211E+03  0.15070465050E+04  0.16575970080E+04  0.12699999809E+01 0.  1.
</event>
<event>
 5   0  0.3399500E-08  0.3986894E+04  0.7818609E-02  0.8007196E-01
       -1   -1    0    0    0  501  0.00000000000E+00  0.00000000000E+00  0.23228395842E+04  0.23228395842E+04  0.50400001928E-02 0.  1.
        1   -1    0    0  501    0  0.00000000000E+00  0.00000000000E+00 -0.17107644619E+04  0.17107644619E+04  0.50400001928E-02 0. -1.
    10030    2    1    2    0    0  0.00000000000E+00  0.00000000000E+00  0.61207512227E+03  0.40336040461E+04  0.39868942356E+04 0.  0.
        2    1    3    3  502    0  0.15065195664E+04 -0.39229062150E+02 -0.10141222453E+04  0.18164757229E+04  0.25500000920E-02 0. -1.
       -2    1    3    3    0  502 -0.15065195664E+04  0.39229062150E+02  0.16261973676E+04  0.22171283232E+04  0.25500000920E-02 0.  1.
</event>
<event>
 5   0  0.1087688E-07  0.4082355E+04  0.7818609E-02  0.7988136E-01
       -2   -1    0    0    0  501  0.00000000000E+00  0.00000000000E+00  0.19760200634E+04  0.19760200634E+04  0.25500000920E-02 0.  1.
        2   -1    0    0  501    0  0.00000000000E+00  0.00000000000E+00 -0.21084836951E+04  0.21084836952E+04  0.25500000920E-02 0. -1.
    10030    2    1    2    0    0  0.00000000000E+00  0.00000000000E+00 -0.13246363172E+03  0.40845037586E+04  0.40823552442E+04 0.  0.
        2    1    3    3  502    0  0.25063886958E+03 -0.50391070863E+03  0.18968559059E+04  0.19785874186E+04  0.25500000920E-02 0.  1.
       -2    1    3    3    0  502 -0.25063886958E+03  0.50391070863E+03 -0.20293195376E+04  0.21059163400E+04  0.25500000920E-02 0. -1.
</event>
<event>
 5   0  0.3399500E-08  0.4010271E+04  0.7818609E-02  0.8002478E-01
        1   -1    0    0  501    0  0.00000000000E+00  0.00000000000E+00  0.17761110483E+04  0.17761110483E+04  0.50400001928E-02 0. -1.
       -1   -1    0    0    0  501  0.00000000000E+00  0.00000000000E+00 -0.22636922472E+04  0.22636922472E+04  0.50400001928E-02 0.  1.
    10030    2    1    2    0    0  0.00000000000E+00  0.00000000000E+00 -0.48758119897E+03  0.40398032955E+04  0.40102712178E+04 0.  0.
        3    1    3    3  502    0 -0.12321357826E+04  0.54902546771E+03 -0.17382862146E+04  0.22002787381E+04  0.10100000352E+00 0.  1.
       -3    1    3    3    0  502  0.12321357826E+04 -0.54902546771E+03  0.12507050156E+04  0.18395245574E+04  0.10100000352E+00 0. -1.
</event>
<event>
 5   0  0.1101474E-07  0.3725302E+04  0.7818609E-02  0.8062378E-01
        2   -1    0    0  501    0  0.00000000000E+00  0.00000000000E+00  0.19256163161E+04  0.19256163161E+04  0.25500000920E-02 0. -1.
       -2   -1    0    0    0  501  0.00000000000E+00  0.00000000000E+00 -0.18017448896E+04  0.18017448896E+04  0.25500000920E-02 0.  1.
    10030    2    1    2    0    0  0.00000000000E+00  0.00000000000E+00  0.12387142653E+03  0.37273612056E+04  0.37253023269E+04 0.  0.
        5    1    3    3  502    0  0.49295438199E+02  0.12412535321E+04 -0.13267459365E+04  0.18175305338E+04  0.46999998093E+01 0.  1.
       -5    1    3    3    0  502 -0.49295438199E+02 -0.12412535321E+04  0.14506173630E+04  0.19098306719E+04  0.46999998093E+01 0. -1.
</event>
<event>
 5   0  0.3399500E-08  0.3957460E+04  0.7818609E-02  0.8013184E-01
        1   -1    0    0  501    0  0.00000000000E+00  0.00000000000E+00  0.23464531010E+04  0.23464531011E+04  0.50400001928E-02 0. -1.
       -1   -1    0    0    0  501  0.00000000000E+00  0.00000000000E+00 -0.16686344211E+04  0.16686344212E+04  0.50400001928E-02 0.  1.
    10030    2    1    2    0    0  0.00000000000E+00  0.00000000000E+00  0.67781867990E+03  0.40150875222E+04  0.39574599996E+04 0.  0.
        3    1    3    3  502    0 -0.20112078179E+03 -0.79195409613E+03 -0.14894794266E+04  0.16988789927E+04  0.10100000352E+00 0.  1.
       -3    1    3    3    0  502  0.20112078179E+03  0.79195409613E+03  0.21672981066E+04  0.23162085295E+04  0.10100000352E+00 0. -1.
</event>
<event>
 5   0  0.1087688E-07  0.3575373E+04  0.7818609E-02  0.8096156E-01
        2   -1    0    0  501    0  0.00000000000E+00  0.00000000000E+00  0.16076794970E+04  0.16076794970E+04  0.25500000920E-02 0. -1.
       -2   -1    0    0    0  501  0.00000000000E+00  0.00000000000E+00 -0.19878481462E+04  0.19878481462E+04  0.25500000920E-02 0.  1.
    10030    2    1    2    0    0  0.00000000000E+00  0.00000000000E+00 -0.38016864915E+03  0.35955276432E+04  0.35753728241E+04 0.  0.
        2    1    3    3  502    0 -0.25817083924E+03  0.16923898252E+04 -0.70775522090E+03  0.18524991108E+04  0.25500000920E-02 0. -1.
       -2    1    3    3    0  502  0.25817083924E+03 -0.16923898252E+04  0.32758657175E+03  0.17430285324E+04  0.25500000920E-02 0.  1.
</event>
<event>
 5   0  0.1087688E-07  0.3938800E+04  0.7818609E-02  0.8017008E-01
       -2   -1    0    0    0  501  0.00000000000E+00  0.00000000000E+00  0.13049816965E+04  0.13049816965E+04  0.25500000920E-02 0. -1.
        2   -1    0    0  501    0  0.00000000000E+00  0.00000000000E+00 -0.29721004800E+04  0.29721004800E+04  0.25500000920E-02 0.  1.
    10030    2    1    2    0    0  0.00000000000E+00  0.00000000000E+00 -0.16671187835E+04  0.42770821765E+04  0.39388001862E+04 0.  0.
        2    1    3    3  502    0  0.27845721579E+03 -0.99955844305E+03  0.98408326089E+03  0.14300613156E+04  0.25500000920E-02 0. -1.
       -2    1    3    3    0  502 -0.27845721579E+03  0.99955844305E+03 -0.26512020444E+04  0.28470208609E+04  0.25500000920E-02 0.  1.
</event>
<event>
 5   0  0.3399500E-08  0.4074187E+04  0.7818609E-02  0.7989746E-01
       -1   -1    0    0    0  501  0.00000000000E+00  0.00000000000E+00  0.13573894590E+04  0.13573894590E+04  0.50400001928E-02 0. -1.
        1   -1    0    0  501    0  0.00000000000E+00  0.00000000000E+00 -0.30571553414E+04  0.30571553414E+04  0.50400001928E-02 0.  1.
    10030    2    1    2    0    0  0.00000000000E+00  0.00000000000E+00 -0.16997658824E+04  0.44145448004E+04  0.40741872490E+04 0.  0.
        1    1    3    3  502    0  0.53469911491E+03 -0.86003914805E+03  0.10653119040E+04  0.14698503095E+04  0.50400001928E-02 0. -1.
       -1    1    3    3    0  502 -0.53469911491E+03  0.86003914805E+03 -0.27650777864E+04  0.29446944909E+04  0.50400001928E-02 0.  1.
</event>
<event>
 5   0  0.1095903E-07  0.4024600E+04  0.7818609E-02  0.7999602E-01
        2   -1    0    0  501    0  0.00000000000E+00  0.00000000000E+00  0.19002921442E+04  0.19002921442E+04  0.25500000920E-02 0. -1.
       -2   -1    0    0    0  501  0.00000000000E+00  0.00000000000E+00 -0.21309101009E+04  0.21309101009E+04  0.25500000920E-02 0.  1.
    10030    2    1    2    0    0  0.00000000000E+00  0.00000000000E+00 -0.23061795667E+03  0.40312022451E+04  0.40246002160E+04 0.  0.
        3    1    3    3  502    0  0.72189923403E+03  0.14821832028E+04 -0.12710415064E+04  0.20817185381E+04  0.10100000352E+00 0.  1.
       -3    1    3    3    0  502 -0.72189923403E+03 -0.14821832028E+04  0.10404235497E+04  0.19494837070E+04  0.10100000352E+00 0. -1.
</event>
<event>
 5   0  0.1087688E-07  0.3995820E+04  0.7818609E-02  0.8005390E-01
        2   -1    0    0  501    0  0.00000000000E+00  0.00000000000E+00  0.17134231854E+04  0.17134231854E+04  0.25500000920E-02 0. -1.
       -2   -1    0    0    0  501  0.00000000000E+00  0.00000000000E+00 -0.23296312814E+04  0.23296312814E+04  0.25500000920E-02 0.  1.
    10030    2    1    2    0    0  0.00000000000E+00  0.00000000000E+00 -0.61620809599E+03  0.40430544669E+04  0.39958199415E+04 0.  0.
        2    1    3    3  502    0 -0.18796194163E+04 -0.56188569665E+03  0.74465405865E+02  0.19632192396E+04  0.25500000920E-02 0. -1.
       -2    1    3    3    0  502  0.18796194163E+04  0.56188569665E+03 -0.69067350186E+03  0.20798352272E+04  0.25500000920E-02 0.  1.
</event>
<event>
 5   0  0.3399500E-08  0.3944285E+04  0.7818609E-02  0.8015881E-01
        1   -1    0    0  501    0  0.00000000000E+00  0.00000000000E+00  0.11739974610E+04  0.11739974611E+04  0.50400001928E-02 0.  1.
       -1   -1    0    0    0  501  0.00000000000E+00  0.00000000000E+00 -0.33129079528E+04  0.33129079528E+04  0.50400001928E-02 0. -1.
    10030    2    1    2    0    0  0.00000000000E+00  0.00000000000E+00 -0.21389104917E+04  0.44869054138E+04  0.39442847388E+04 0.  0.
        3    1    3    3  502    0 -0.92815630920E+03 -0.72338172088E+02  0.90829644801E+03  0.13006572927E+04  0.10100000352E+00 0.  1.
       -3    1    3    3    0  502  0.92815630920E+03  0.72338172088E+02 -0.30472069397E+04  0.31862481211E+04  0.10100000352E+00 0. -1.
</event>
<event>
 5   0  0.3399500E-08  0.4002036E+04  0.7818609E-02  0.8004136E-01
       -1   -1    0    0    0  501  0.00000000000E+00  0.00000000000E+00  0.14624216847E+04  0.14624216847E+04  0.50400001928E-02 0.  1.
        1   -1    0    0  501    0  0.00000000000E+00  0.00000000000E+00 -0.27379741481E+04  0.27379741481E+04  0.50400001928E-02 0. -1.
    10030    2    1    2    0    0  0.00000000000E+00  0.00000000000E+00 -0.12755524634E+04  0.42003958328E+04  0.40020358650E+04 0.  0.
        5    1    3    3  502    0 -0.16516569399E+04 -0.37045708500E+03 -0.17578352307E+04  0.24403311020E+04  0.46999998093E+01 0. -1.
       -5    1    3    3    0  502  0.16516569399E+04  0.37045708500E+03  0.48228276723E+03  0.17600647308E+04  0.46999998093E+01 0.  1.
</event>
<event>
 5   0  0.3399500E-08  0.3980014E+04  0.7818609E-02  0.8008590E-01
       -1   -1    0    0    0  501  0.00000000000E+00  0.00000000000E+00  0.11991801168E+04  0.11991801168E+04  0.50400001928E-02 0. -1.
        1   -1    0    0  501    0  0.00000000000E+00  0.00000000000E+00 -0.33023633946E+04  0.33023633947E+04  0.50400001928E-02 0.  1.
    10030    2    1    2    0    0  0.00000000000E+00  0.00000000000E+00 -0.21031832779E+04  0.45015435114E+04  0.39800143323E+04 0.  0.
        4    1    3    3  502    0 -0.16817249617E+04  0.45076703404E+03  0.38400143036E+02  0.17415125465E+04  0.12699999809E+01 0. -1.
       -4    1    3    3    0  502  0.16817249617E+04 -0.45076703404E+03 -0.21415834209E+04  0.27600309649E+04  0.12699999809E+01 0.  1.
</event>
<event>
 5   0  0.1095903E-07  0.4053267E+04  0.7818609E-02  0.7993886E-01
       -2   -1    0    0    0  501  0.00000000000E+00  0.00000000000E+00  0.19687769058E+04  0.19687769058E+04  0.25500000920E-02 0.  1.
        2   -1    0    0  501    0  0.00000000000E+00  0.00000000000E+00 -0.20861905483E+04  0.20861905483E+04  0.25500000920E-02 0. -1.
    10030    2    1    2    0    0  0.00000000000E+00  0.00000000000E+00 -0.11741364251E+03  0.40549674541E+04  0.40532672118E+04 0.  0.
        3    1    3    3  502    0  0.78338309115E+03  0.94222832320E+03 -0.16736207634E+04  0.20742443806E+04  0.10100000352E+00 0. -1.
       -3    1    3    3    0  502 -0.78338309115E+03 -0.94222832320E+03  0.15562071209E+04  0.19807230735E+04  0.10100000352E+00 0.  1.
</event>
<event>
 5   0  0.1087688E-07  0.3965405E+04  0.7818609E-02  0.8011562E-01
       -2   -1    0    0    0  501  0.00000000000E+00  0.00000000000E+00  0.17448326612E+04  0.17448326612E+04  0.25500000920E-02 0.  1.
        2   -1    0    0  501    0  0.00000000000E+00  0.00000000000E+00 -0.22530010425E+04  0.22530010425E+04  0.25500000920E-02 0. -1.
    10030    2    1    2    0    0  0.00000000000E+00  0.00000000000E+00 -0.50816838133E+03  0.39978337036E+04  0.39654053031E+04 0.  0.
        2    1    3    3  502    0  0.38899682717E+03 -0.45904298635E+03  0.16505638053E+04  0.17568152636E+04  0.25500000920E-02 0.  1.
       -2    1    3    3    0  502 -0.38899682717E+03  0.45904298635E+03 -0.21587321867E+04  0.22410184401E+04  0.25500000920E-02 0. -1.
</event>
<event>
 5   0  0.1095109E-07  0.3986906E+04  0.7818609E-02  0.8007193E-01
       -2   -1    0    0    0  501  0.00000000000E+00  0.00000000000E+00  0.15641310899E+04  0.15641310899E+04  0.25500000920E-02 0. -1.
        2   -1    0    0  501    0  0.00000000000E+00  0.00000000000E+00 -0.25406151353E+04  0.25406151353E+04  0.25500000920E-02 0.  1.
    10030    2    1    2    0    0  0.00000000000E+00  0.00000000000E+00 -0.97648404544E+03  0.41047462252E+04  0.39869061291E+04 0.  0.
        4    1    3    3  502    0 -0.13404913160E+04  0.13925240107E+04  0.13832842285E+02  0.19329337932E+04  0.12699999809E+01 0. -1.
       -4    1    3    3    0  502  0.13404913160E+04 -0.13925240107E+04 -0.99031688772E+03  0.21718124320E+04  0.12699999809E+01 0.  1.
</event>
<event>
 5   0  0.3399500E-08  0.4003175E+04  0.7818609E-02  0.8003906E-01
        1   -1    0    0  501    0  0.00000000000E+00  0.00000000000E+00  0.20784307138E+04  0.20784307138E+04  0.50400001928E-02 0. -1.
       -1   -1    0    0    0  501  0.00000000000E+00  0.00000000000E+00 -0.19275857725E+04  0.19275857725E+04  0.50400001928E-02 0.  1.
    10030    2    1    2    0    0  0.00000000000E+00  0.00000000000E+00  0.15084494126E+03  0.40060164863E+04  0.40031754761E+04 0.  0.
        2    1    3    3  502    0 -0.15951122178E+04 -0.84305048131E+03  0.94277651515E+03  0.20356681112E+04  0.25500000920E-02 0. -1.
       -2    1    3    3    0  502  0.15951122178E+04  0.84305048131E+03 -0.79193157388E+03  0.19703483751E+04  0.25500000920E-02 0.  1.
</event>
<event>
 5   0  0.1073271E-07  0.3979610E+04  0.7818609E-02  0.8008673E-01
        2   -1    0    0  501    0  0.00000000000E+00  0.00000000000E+00  0.15753679707E+04  0.15753679708E+04  0.25500000920E-02 0. -1.
       -2   -1    0    0    0  501  0.00000000000E+00  0.00000000000E+00 -0.25132690894E+04  0.25132690894E+04  0.25500000920E-02 0.  1.
    10030    2    1    2    0    0  0.00000000000E+00  0.00000000000E+00 -0.93790111864E+03  0.40886370601E+04  0.39796098428E+04 0.  0.
        1    1    3    3  502    0  0.39287080660E+03 -0.23093111973E+03 -0.24589320956E+04  0.25008046113E+04  0.50400001928E-02 0.  1.
       -1    1    3    3    0  502 -0.39287080660E+03  0.23093111973E+03  0.15210309770E+04  0.15878324489E+04  0.50400001928E-02 0. -1.
</event>
<event>
 5   0  0.1087688E-07  0.3986589E+04  0.7818609E-02  0.8007257E-01
       -2   -1    0    0    0  501  0.00000000000E+00  0.00000000000E+00  0.22107441809E+04  0.22107441809E+04  0.25500000920E-02 0.  1.
        2   -1    0    0  501    0  0.00000000000E+00  0.00000000000E+00 -0.17972336455E+04  0.17972336455E+04  0.25500000920E-02 0. -1.
    10030    2    1    2    0    0  0.00000000000E+00  0.00000000000E+00  0.41351053539E+03  0.40079778264E+04  0.39865894314E+04 0.  0.
        2    1    3    3  502    0  0.52848888024E+01  0.16222401521E+04  0.13712149169E+04  0.21241283835E+04  0.25500000920E-02 0.  1.
       -2    1    3    3    0  502 -0.52848888024E+01 -0.16222401521E+04 -0.95770438155E+03  0.18838494429E+04  0.25500000920E-02 0. -1.
</event>
<event>
 5   0  0.3399500E-08  0.3996132E+04  0.7818609E-02  0.8005327E-01
       -1   -1    0    0    0  501  0.00000000000E+00  0.00000000000E+00  0.18118653109E+04  0.18118653109E+04  0.50400001928E-02 0.  1.
        1   -1    0    0  501    0  0.00000000000E+00  0.00000000000E+00 -0.22034023268E+04  0.22034023268E+04  0.50400001928E-02 0. -1.
    10030    2    1    2    0    0  0.00000000000E+00  0.00000000000E+00 -0.39153701596E+03  0.40152676377E+04  0.39961322510E+04 0.  0.
        1    1    3    3  502    0  0.52707201358E+03 -0.18502318561E+04  0.34635693054E+03  0.19547700509E+04  0.50400001928E-02 0. -1.
       -1    1    3    3    0  502 -0.52707201358E+03  0.18502318561E+04 -0.73789394650E+03  0.20604975867E+04  0.50400001928E-02 0.  1.
</event>
<event>
 5   0  0.3399500E-08  0.3930627E+04  0.7818609E-02  0.8018689E-01
        1   -1    0    0  501    0  0.00000000000E+00  0.00000000000E+00  0.14770078476E+04  0.14770078476E+04  0.50400001928E-02 0. -1.
       -1   -1    0    0    0  501  0.00000000000E+00  0.00000000000E+00 -0.26150547068E+04  0.26150547068E+04  0.50400001928E-02 0.  1.
    10030    2    1    2    0    0  0.00000000000E+00  0.00000000000E+00 -0.11380468592E+04  0.40920625544E+04  0.39306265780E+04 0.  0.
        5    1    3    3  502    0 -0.18827025308E+04 -0.36396444514E+03 -0.12076358693E+03  0.19213653662E+04  0.46999998093E+01 0.  1.
       -5    1    3    3    0  502  0.18827025308E+04  0.36396444514E+03 -0.10172832723E+04  0.21706971882E+04  0.46999998093E+01 0. -1.
</event>
<event>
 5   0  0.3399500E-08  0.3983924E+04  0.7818609E-02  0.8007797E-01
       -1   -1    0    0    0  501  0.00000000000E+00  0.00000000000E+00  0.23106097571E+04  0.23106097572E+04  0.50400001928E-02 0. -1.
        1   -1    0    0  501    0  0.00000000000E+00  0.00000000000E+00 -0.17172578463E+04  0.17172578463E+04  0.50400001928E-02 0.  1.
    10030    2    1    2    0    0  0.00000000000E+00  0.00000000000E+00  0.59335191081E+03  0.40278676035E+04  0.39839240632E+04 0.  0.
        4    1    3    3  502    0  0.67343941690E+03 -0.16810434981E+04  0.11355771611E+04  0.21375137409E+04  0.12699999809E+01 0. -1.
       -4    1    3    3    0  502 -0.67343941690E+03  0.16810434981E+04 -0.54222525032E+03  0.18903538626E+04  0.12699999809E+01 0.  1.
</event>
<event>
 5   0  0.3399500E-08  0.4023540E+04  0.7818609E-02  0.7999815E-01
        1   -1    0    0  501    0  0.00000000000E+00  0.00000000000E+00  0.13456175407E+04  0.13456175407E+04  0.50400001928E-02 0. -1.
       -1   -1    0    0    0  501  0.00000000000E+00  0.00000000000E+00 -0.30077030940E+04  0.30077030940E+04  0.50400001928E-02 0.  1.
    10030    2    1    2    0    0  0.00000000000E+00  0.00000000000E+00 -0.16620855533E+04  0.43533206347E+04  0.40235397552E+04 0.  0.
        3    1    3    3  502    0  0.53339081334E+03  0.14848466438E+04 -0.21815226029E+04  0.26922697102E+04  0.10100000352E+00 0. -1.
       -3    1    3    3    0  502 -0.53339081334E+03 -0.14848466438E+04  0.51943704953E+03  0.16610509245E+04  0.10100000352E+00 0.  1.
</event>
<event>
 5   0  0.1095903E-07  0.3819903E+04  0.7818609E-02  0.8041897E-01
        2   -1    0    0  501    0  0.00000000000E+00  0.00000000000E+00  0.20567455822E+04  0.20567455822E+04  0.25500000920E-02 0. -1.
       -2   -1    0    0    0  501  0.00000000000E+00  0.00000000000E+00 -0.17736347099E+04  0.17736347099E+04  0.25500000920E-02 0.  1.
    10030    2    1    2    0    0  0.00000000000E+00  0.00000000000E+00  0.28311087224E+03  0.38303802921E+04  0.38199033255E+04 0.  0.
        3    1    3    3  502    0 -0.69371226040E+03 -0.52789497506E+03 -0.15625188897E+04  0.17892386917E+04  0.10100000352E+00 0.  1.
       -3    1    3    3    0  502  0.69371226040E+03  0.52789497506E+03  0.18456297619E+04  0.20411416005E+04  0.10100000352E+00 0. -1.
</event>
<event>
 5   0  0.3399500E-08  0.4005427E+04  0.7818609E-02  0.8003453E-01
        1   -1    0    0  501    0  0.00000000000E+00  0.00000000000E+00  0.16157981733E+04  0.16157981733E+04  0.50400001928E-02 0.  1.
       -1   -1    0    0    0  501  0.00000000000E+00  0.00000000000E+00 -0.24822784082E+04  0.24822784082E+04  0.50400001928E-02 0. -1.
    10030    2    1    2    0    0  0.00000000000E+00  0.00000000000E+00 -0.86648023486E+03  0.40980765815E+04  0.40054267775E+04 0.  0.
        4    1    3    3  502    0  0.13635631826E+04 -0.55405664355E+03 -0.18228072985E+04  0.23428425849E+04  0.12699999809E+01 0. -1.
       -4    1    3    3    0  502 -0.13635631826E+04  0.55405664355E+03  0.95632706367E+03  0.17552339966E+04  0.12699999809E+01 0.  1.
</event>
<event>
 5   0  0.1073271E-07  0.3984829E+04  0.7818609E-02  0.8007614E-01
        2   -1    0    0  501    0  0.00000000000E+00  0.00000000000E+00  0.25829811269E+04  0.25829811269E+04  0.25500000920E-02 0. -1.
       -2   -1    0    0    0  501  0.00000000000E+00  0.00000000000E+00 -0.15368739898E+04  0.15368739898E+04  0.25500000920E-02 0.  1.
    10030    2    1    2    0    0  0.00000000000E+00  0.00000000000E+00  0.10461071372E+04  0.41198551167E+04  0.39848294870E+04 0.  0.
        1    1    3    3  502    0 -0.70774654434E+02  0.49960424717E+03 -0.14697185290E+04  0.15539259988E+04  0.50400001928E-02 0.  1.
       -1    1    3    3    0  502  0.70774654434E+02 -0.49960424717E+03  0.25158256661E+04  0.25659291179E+04  0.50400001928E-02 0. -1.
</event>
<event>
 5   0  0.3399500E-08  0.4015278E+04  0.7818609E-02  0.8001472E-01
        1   -1    0    0  501    0  0.00000000000E+00  0.00000000000E+00  0.13914549546E+04  0.13914549546E+04  0.50400001928E-02 0. -1.
       -1   -1    0    0    0  501  0.00000000000E+00  0.00000000000E+00 -0.28966899200E+04  0.28966899200E+04  0.50400001928E-02 0.  1.
    10030    2    1    2    0    0  0.00000000000E+00  0.00000000000E+00 -0.15052349654E+04  0.42881448746E+04  0.40152775949E+04 0.  0.
        2    1    3    3  502    0  0.19373298395E+04  0.44885662817E+03 -0.10468282952E+04  0.22473470269E+04  0.25500000920E-02 0.  1.
       -2    1    3    3    0  502 -0.19373298395E+04 -0.44885662817E+03 -0.45840667015E+03  0.20407978477E+04  0.25500000920E-02 0. -1.
</event>
<event>
 5   0  0.3399500E-08  0.4009679E+04  0.7818609E-02  0.8002597E-01
        1   -1    0    0  501    0  0.00000000000E+00  0.00000000000E+00  0.29566925390E+04  0.29566925390E+04  0.50400001928E-02 0.  1.
       -1   -1    0    0    0  501  0.00000000000E+00  0.00000000000E+00 -0.13594180436E+04  0.13594180436E+04  0.50400001928E-02 0. -1.
    10030    2    1    2    0    0  0.00000000000E+00  0.00000000000E+00  0.15972744954E+04  0.43161105827E+04  0.40096788834E+04 0.  0.
        5    1    3    3  502    0  0.18250542363E+04 -0.78816907823E+03  0.10779387048E+04  0.22614171227E+04  0.46999998093E+01 0.  1.
       -5    1    3    3    0  502 -0.18250542363E+04  0.78816907823E+03  0.51933579059E+03  0.20546934600E+04  0.46999998093E+01 0. -1.
</event>
<event>
 5   0  0.1095109E-07  0.3987572E+04  0.7818609E-02  0.8007058E-01
       -2   -1    0    0    0  501  0.00000000000E+00  0.00000000000E+00  0.15829004980E+04  0.15829004980E+04  0.25500000920E-02 0. -1.
        2   -1    0    0  501    0  0.00000000000E+00  0.00000000000E+00 -0.25113275759E+04  0.25113275759E+04  0.25500000920E-02 0.  1.
    10030    2    1    2    0    0  0.00000000000E+00  0.00000000000E+00 -0.92842707785E+03  0.40942280739E+04  0.39875715269E+04 0.  0.
        4    1    3    3  502    0 -0.50156846850E+03 -0.57080361651E+03  0.14284000910E+04  0.16179357620E+04  0.12699999809E+01 0. -1.
       -4    1    3    3    0  502  0.50156846850E+03  0.57080361651E+03 -0.23568271688E+04  0.24762923119E+04  0.12699999809E+01 0.  1.
</event>
<event>
 5   0  0.3399500E-08  0.4011483E+04  0.7818609E-02  0.8002234E-01
        1   -1    0    0  501    0  0.00000000000E+00  0.00000000000E+00  0.21880878205E+04  0.21880878205E+04  0.50400001928E-02 0.  1.
       -1   -1    0    0    0  501  0.00000000000E+00  0.00000000000E+00 -0.18385909259E+04  0.18385909259E+04  0.50400001928E-02 0. -1.
    10030    2    1    2    0    0  0.00000000000E+00  0.00000000000E+00  0.34949689458E+03  0.40266787465E+04  0.40114827244E+04 0.  0.
        4    1    3    3  502    0  0.31017011546E+03  0.19777889265E+04  0.51228409733E+02  0.20026184113E+04  0.12699999809E+01 0. -1.
       -4    1    3    3    0  502 -0.31017011546E+03 -0.19777889265E+04  0.29826848485E+03  0.20240603352E+04  0.12699999809E+01 0.  1.
</event>
<event>
 5   0  0.1087688E-07  0.4021183E+04  0.7818609E-02  0.8000287E-01
        2   -1    0    0  501    0  0.00000000000E+00  0.00000000000E+00  0.18316046463E+04  0.18316046463E+04  0.25500000920E-02 0.  1.
       -2   -1    0    0    0  501  0.00000000000E+00  0.00000000000E+00 -0.22070693697E+04  0.22070693697E+04  0.25500000920E-02 0. -1.
    10030    2    1    2    0    0  0.00000000000E+00  0.00000000000E+00 -0.37546472340E+03  0.40386740160E+04  0.40211831653E+04 0.  0.
        2    1    3    3  502    0 -0.13866211911E+03  0.12688172754E+04 -0.17479869355E+04  0.21643897034E+04  0.25500000920E-02 0. -1.
       -2    1    3    3    0  502  0.13866211911E+03 -0.12688172754E+04  0.13725222121E+04  0.18742843126E+04  0.25500000920E-02 0.  1.
</event>
<event>
 5   0  0.3399500E-08  0.3995542E+04  0.7818609E-02  0.8005446E-01
        1   -1    0    0  501    0  0.00000000000E+00  0.00000000000E+00  0.20669367181E+04  0.20669367181E+04  0.50400001928E-02 0.  1.
       -1   -1    0    0    0  501  0.00000000000E+00  0.00000000000E+00 -0.19309198402E+04  0.19309198402E+04  0.50400001928E-02 0. -1.
    10030    2    1    2    0    0  0.00000000000E+00  0.00000000000E+00  0.13601687796E+03  0.39978565583E+04  0.39955420746E+04 0.  0.
        5    1    3    3  502    0 -0.14802726311E+04  0.14658375546E+03  0.14023375096E+04  0.20443254243E+04  0.46999998093E+01 0.  1.
       -5    1    3    3    0  502  0.14802726311E+04 -0.14658375546E+03 -0.12663206316E+04  0.19535311340E+04  0.46999998093E+01 0. -1.
</event>
<event>
 5   0  0.1095903E-07  0.3976546E+04  0.7818609E-02  0.8009295E-01
        2   -1    0    0  501    0  0.00000000000E+00  0.00000000000E+00  0.26955610073E+04  0.26955610073E+04  0.25500000920E-02 0.  1.
       -2   -1    0    0    0  501  0.00000000000E+00  0.00000000000E+00 -0.14665702924E+04  0.14665702924E+04  0.25500000920E-02 0. -1.
    10030    2    1    2    0    0  0.00000000000E+00  0.00000000000E+00  0.12289907150E+04  0.41621312997E+04  0.39765460865E+04 0.  0.
        3    1    3    3  502    0  0.77557519520E+03 -0.95995371009E+03  0.22461600438E+04  0.25628622596E+04  0.10100000352E+00 0.  1.
       -3    1    3    3    0  502 -0.77557519520E+03  0.95995371009E+03 -0.10171693288E+04  0.15992690401E+04  0.10100000352E+00 0. -1.
</event>
<event>
 5   0  0.3399500E-08  0.3965908E+04  0.7818609E-02  0.8011460E-01
       -1   -1    0    0    0  501  0.00000000000E+00  0.00000000000E+00  0.26808293899E+04  0.26808293899E+04  0.50400001928E-02 0. -1.
        1   -1    0    0  501    0  0.00000000000E+00  0.00000000000E+00 -0.14667499634E+04  0.14667499634E+04  0.50400001928E-02 0.  1.
    10030    2    1    2    0    0  0.00000000000E+00  0.00000000000E+00  0.12140794265E+04  0.41475793533E+04  0.39659079210E+04 0.  0.
        2    1    3    3  502    0  0.63715763783E+03 -0.99622637096E+03  0.22717055435E+04  0.25610706577E+04  0.25500000920E-02 0. -1.
       -2    1    3    3    0  502 -0.63715763783E+03  0.99622637096E+03 -0.10576261170E+04  0.15865086955E+04  0.25500000920E-02 0.  1.
</event>
<event>
 5   0  0.1087688E-07  0.4001984E+04  0.7818609E-02  0.8004146E-01
       -2   -1    0    0    0  501  0.00000000000E+00  0.00000000000E+00  0.17199835196E+04  0.17199835196E+04  0.25500000920E-02 0. -1.
        2   -1    0    0  501    0  0.00000000000E+00  0.00000000000E+00 -0.23279113749E+04  0.23279113749E+04  0.25500000920E-02 0.  1.
    10030    2    1    2    0    0  0.00000000000E+00  0.00000000000E+00 -0.60792785534E+03  0.40478948945E+04  0.40019841079E+04 0.  0.
        2    1    3    3  502    0  0.10970172630E+04  0.16278286755E+04  0.88685450880E+02  0.19649779086E+04  0.25500000920E-02 0.  1.
       -2    1    3    3    0  502 -0.10970172630E+04 -0.16278286755E+04 -0.69661330622E+03  0.20829169859E+04  0.25500000920E-02 0. -1.
</event>
<event>
 5   0  0.1073271E-07  0.4003591E+04  0.7818609E-02  0.8003822E-01
        2   -1    0    0  501    0  0.00000000000E+00  0.00000000000E+00  0.22658358797E+04  0.22658358797E+04  0.25500000920E-02 0.  1.
       -2   -1    0    0    0  501  0.00000000000E+00  0.00000000000E+00 -0.17685242101E+04  0.17685242101E+04  0.25500000920E-02 0. -1.
    10030    2    1    2    0    0  0.00000000000E+00  0.00000000000E+00  0.49731166960E+03  0.40343600899E+04  0.40035911927E+04 0.  0.
        1    1    3    3  502    0  0.12065636320E+04 -0.50789249965E+03  0.17747036927E+04  0.22052944897E+04  0.50400001928E-02 0.  1.
       -1    1    3    3    0  502 -0.12065636320E+04  0.50789249965E+03 -0.12773920231E+04  0.18290656002E+04  0.50400001928E-02 0. -1.
</event>
<event>
 5   0  0.3399500E-08  0.3942118E+04  0.7818609E-02  0.8016326E-01
        1   -1    0    0  501    0  0.00000000000E+00  0.00000000000E+00  0.23115523667E+04  0.23115523667E+04  0.50400001928E-02 0. -1.
       -1   -1    0    0    0  501  0.00000000000E+00  0.00000000000E+00 -0.16807206228E+04  0.16807206228E+04  0.50400001928E-02 0.  1.
    10030    2    1    2    0    0  0.00000000000E+00  0.00000000000E+00  0.63083174384E+03  0.39922729895E+04  0.39421180771E+04 0.  0.
        3    1    3    3  502    0 -0.14799822182E+04  0.56513639771E+03  0.15030885812E+04  0.21838044344E+04  0.10100000352E+00 0. -1.
       -3    1    3    3    0  502  0.14799822182E+04 -0.56513639771E+03 -0.87225683738E+03  0.18084685551E+04  0.10100000352E+00 0.  1.
</event>
<event>
 5   0  0.3399500E-08  0.3971944E+04  0.7818609E-02  0.8010230E-01
        1   -1    0    0  501    0  0.00000000000E+00  0.00000000000E+00  0.26239584720E+04  0.26239584720E+04  0.50400001928E-02 0. -1.
       -1   -1    0    0    0  501  0.00000000000E+00  0.00000000000E+00 -0.15031051237E+04  0.15031051237E+04  0.50400001928E-02 0.  1.
    10030    2    1    2    0    0  0.00000000000E+00  0.00000000000E+00  0.11208533483E+04  0.41270635957E+04  0.39719443217E+04 0.  0.
        4    1    3    3  502    0  0.12495231302E+04 -0.10687564787E+04 -0.59686433944E+03  0.17492275771E+04  0.12699999809E+01 0.  1.
       -4    1    3    3    0  502 -0.12495231302E+04  0.10687564787E+04  0.17177176877E+04  0.23778360186E+04  0.12699999809E+01 0. -1.
</event>
<event>
 5   0  0.1087688E-07  0.3895272E+04  0.7818609E-02  0.8026013E-01
        2   -1    0    0  501    0  0.00000000000E+00  0.00000000000E+00  0.17734053316E+04  0.17734053316E+04  0.25500000920E-02 0.  1.
       -2   -1    0    0    0  501  0.00000000000E+00  0.00000000000E+00 -0.21389839305E+04  0.21389839305E+04  0.25500000920E-02 0. -1.
    10030    2    1    2    0    0  0.00000000000E+00  0.00000000000E+00 -0.36557859891E+03  0.39123892621E+04  0.38952717525E+04 0.  0.
        2    1    3    3  502    0 -0.12478062936E+04  0.81929333316E+02  0.13169409552E+04  0.18160579400E+04  0.25500000920E-02 0.  1.
       -2    1    3    3    0  502  0.12478062936E+04 -0.81929333316E+02 -0.16825195541E+04  0.20963313221E+04  0.25500000920E-02 0. -1.
</event>
<event>
 5   0  0.1095109E-07  0.3941535E+04  0.7818609E-02  0.8016446E-01
        2   -1    0    0  501    0  0.00000000000E+00  0.00000000000E+00  0.24678628919E+04  0.24678628919E+04  0.25500000920E-02 0. -1.
       -2   -1    0    0    0  501  0.00000000000E+00  0.00000000000E+00 -0.15738006431E+04  0.15738006431E+04  0.25500000920E-02 0.  1.
    10030    2    1    2    0    0  0.00000000000E+00  0.00000000000E+00  0.89406224886E+03  0.40416635350E+04  0.39415348312E+04 0.  0.
        4    1    3    3  502    0  0.12148543238E+03  0.15137573500E+04  0.17350058879E+04  0.23057465318E+04  0.12699999809E+01 0. -1.
       -4    1    3    3    0  502 -0.12148543238E+03 -0.15137573500E+04 -0.84094363908E+03  0.17359170032E+04  0.12699999809E+01 0.  1.
</event>
<event>
 5   0  0.1095903E-07  0.3980956E+04  0.7818609E-02  0.8008399E-01
       -2   -1    0    0    0  501  0.00000000000E+00  0.00000000000E+00  0.14066056369E+04  0.14066056369E+04  0.25500000920E-02 0.  1.
        2   -1    0    0  501    0  0.00000000000E+00  0.00000000000E+00 -0.28167112375E+04  0.28167112375E+04  0.25500000920E-02 0. -1.
    10030    2    1    2    0    0  0.00000000000E+00  0.00000000000E+00 -0.14101056006E+04  0.42233168744E+04  0.39809556160E+04 0.  0.
        3    1    3    3  502    0 -0.70815476964E+03 -0.86396690863E+03  0.10426905006E+04  0.15281117391E+04  0.10100000352E+00 0.  1.
       -3    1    3    3    0  502  0.70815476964E+03  0.86396690863E+03 -0.24527961012E+04  0.26952051353E+04  0.10100000352E+00 0. -1.
</event>
<event>
 5   0  0.1101474E-07  0.4015923E+04  0.7818609E-02  0.8001342E-01
        2   -1    0    0  501    0  0.00000000000E+00  0.00000000000E+00  0.22431082630E+04  0.22431082630E+04  0.25500000920E-02 0. -1.
       -2   -1    0    0    0  501  0.00000000000E+00  0.00000000000E+00 -0.17974653917E+04  0.17974653917E+04  0.25500000920E-02 0.  1.
    10030    2    1    2    0    0  0.00000000000E+00  0.00000000000E+00  0.44564287127E+03  0.40405736547E+04  0.40159230434E+04 0.  0.
        5    1    3    3  502    0  0.56732821833E+03 -0.17571585514E+04  0.10166000258E+04  0.21078342402E+04  0.46999998093E+01 0. -1.
       -5    1    3    3    0  502 -0.56732821833E+03  0.17571585514E+04 -0.57095715453E+03  0.19327394145E+04  0.46999998093E+01 0.  1.
</event>
<event>
 5   0  0.3399500E-08  0.3939547E+04  0.7818609E-02  0.8016854E-01
       -1   -1    0    0    0  501  0.00000000000E+00  0.00000000000E+00  0.17290384335E+04  0.17290384335E+04  0.50400001928E-02 0.  1.
        1   -1    0    0  501    0  0.00000000000E+00  0.00000000000E+00 -0.22440266458E+04  0.22440266458E+04  0.50400001928E-02 0. -1.
    10030    2    1    2    0    0  0.00000000000E+00  0.00000000000E+00 -0.51498821226E+03  0.39730650793E+04  0.39395473428E+04 0.  0.
        4    1    3    3  502    0  0.67547827047E+03 -0.46743445622E+03 -0.20630448096E+04  0.22205678022E+04  0.12699999809E+01 0. -1.
       -4    1    3    3    0  502 -0.67547827047E+03  0.46743445622E+03  0.15480565974E+04  0.17524972771E+04  0.12699999809E+01 0.  1.
</event>
<event>
 5   0  0.3399500E-08  0.4003446E+04  0.7818609E-02  0.8003852E-01
       -1   -1    0    0    0  501  0.00000000000E+00  0.00000000000E+00  0.32082108638E+04  0.32082108638E+04  0.50400001928E-02 0. -1.
        1   -1    0    0  501    0  0.00000000000E+00  0.00000000000E+00 -0.12489499402E+04  0.12489499402E+04  0.50400001928E-02 0.  1.
    10030    2    1    2    0    0  0.00000000000E+00  0.00000000000E+00  0.19592609236E+04  0.44571608040E+04  0.40034458990E+04 0.  0.
        5    1    3    3  502    0  0.11736985430E+04 -0.11394445007E+01 -0.82564993449E+03  0.14350224641E+04  0.46999998093E+01 0.  1.
       -5    1    3    3    0  502 -0.11736985430E+04  0.11394445007E+01  0.27849108581E+04  0.30221383399E+04  0.46999998093E+01 0. -1.
</event>
<event>
 5   0  0.3399500E-08  0.3994354E+04  0.7818609E-02  0.8005686E-01
        1   -1    0    0  501    0  0.00000000000E+00  0.00000000000E+00  0.21069533081E+04  0.21069533081E+04  0.50400001928E-02 0. -1.
       -1   -1    0    0    0  501  0.00000000000E+00  0.00000000000E+00 -0.18931203245E+04  0.18931203245E+04  0.50400001928E-02 0.  1.
    10030    2    1    2    0    0  0.00000000000E+00  0.00000000000E+00  0.21383298363E+03  0.40000736326E+04  0.39943540806E+04 0.  0.
        1    1    3    3  502    0 -0.15148741221E+04  0.39148076068E+03 -0.11360760824E+04  0.19335898368E+04  0.50400001928E-02 0.  1.
       -1    1    3    3    0  502  0.15148741221E+04 -0.39148076068E+03  0.13499090661E+04  0.20664837958E+04  0.50400001928E-02 0. -1.
</event>
<event>
 5   0  0.1095109E-07  0.3992360E+04  0.7818609E-02  0.8006090E-01
        2   -1    0    0  501    0  0.00000000000E+00  0.00000000000E+00  0.24478452348E+04  0.24478452349E+04  0.25500000920E-02 0.  1.
       -2   -1    0    0    0  501  0.00000000000E+00  0.00000000000E+00 -0.16278541780E+04  0.16278541780E+04  0.25500000920E-02 0. -1.
    10030    2    1    2    0    0  0.00000000000E+00  0.00000000000E+00  0.81999105684E+03  0.40756994129E+04  0.39923602506E+04 0.  0.
        4    1    3    3  502    0  0.12792157004E+04 -0.61232742330E+02  0.19731647356E+04  0.23523441380E+04  0.12699999809E+01 0.  1.
       -4    1    3    3    0  502 -0.12792157004E+04  0.61232742330E+02 -0.11531736788E+04  0.17233552748E+04  0.12699999809E+01 0. -1.
</event>
<event>
 5   0  0.1095109E-07  0.4020810E+04  0.7818609E-02  0.8000362E-01
       -2   -1    0    0    0  501  0.00000000000E+00  0.00000000000E+00  0.31978633833E+04  0.31978633833E+04  0.25500000920E-02 0. -1.
        2   -1    0    0  501    0  0.00000000000E+00  0.00000000000E+00 -0.12638842562E+04  0.12638842562E+04  0.25500000920E-02 0.  1.
    10030    2    1    2    0    0  0.00000000000E+00  0.00000000000E+00  0.19339791271E+04  0.44617476395E+04  0.40208104574E+04 0.  0.
        4    1    3    3  502    0 -0.12577262903E+04  0.61239412716E+03 -0.63524562496E+03  0.15363725477E+04  0.12699999809E+01 0.  1.
       -4    1    3    3    0  502  0.12577262903E+04 -0.61239412716E+03  0.25692247521E+04  0.29253750919E+04  0.12699999809E+01 0. -1.
</event>
<event>
 5   0  0.1087688E-07  0.3904298E+04  0.7818609E-02  0.8024136E-01
       -2   -1    0    0    0  501  0.00000000000E+00  0.00000000000E+00  0.17599338985E+04  0.17599338985E+04  0.25500000920E-02 0. -1.
        2   -1    0    0  501    0  0.00000000000E+00  0.00000000000E+00 -0.21653571316E+04  0.21653571317E+04  0.25500000920E-02 0.  1.
    10030    2    1    2    0    0  0.00000000000E+00  0.00000000000E+00 -0.40542323318E+03  0.39252910301E+04  0.39042978464E+04 0.  0.
        2    1    3    3  502    0 -0.87765178835E+03  0.15429803829E+03 -0.19489459832E+04  0.21430051310E+04  0.25500000920E-02 0.  1.
       -2    1    3    3    0  502  0.87765178835E+03 -0.15429803829E+03  0.15435227500E+04  0.17822858991E+04  0.25500000920E-02 0. -1.
</event>
<event>
 5   0  0.3399500E-08  0.3988415E+04  0.7818609E-02  0.8006888E-01
       -1   -1    0    0    0  501  0.00000000000E+00  0.00000000000E+00  0.17273694153E+04  0.17273694153E+04  0.50400001928E-02 0. -1.
        1   -1    0    0  501    0  0.00000000000E+00  0.00000000000E+00 -0.23022657718E+04  0.23022657718E+04  0.50400001928E-02 0.  1.
    10030    2    1    2    0    0  0.00000000000E+00  0.00000000000E+00 -0.57489635649E+03  0.40296351871E+04  0.39884149634E+04 0.  0.
        2    1    3    3  502    0 -0.26748472989E+03  0.19670630900E+04 -0.95808645005E+02  0.19874769376E+04  0.25500000920E-02 0.  1.
       -2    1    3    3    0  502  0.26748472989E+03 -0.19670630900E+04 -0.47908771148E+03  0.20421582495E+04  0.25500000920E-02 0. -1.
</event>
<event>
 5   0  0.3399500E-08  0.4047547E+04  0.7818609E-02  0.7995023E-01
       -1   -1    0    0    0  501  0.00000000000E+00  0.00000000000E+00  0.11452250731E+04  0.11452250732E+04  0.50400001928E-02 0.  1.
        1   -1    0    0  501    0  0.00000000000E+00  0.00000000000E+00 -0.35762911272E+04  0.35762911272E+04  0.50400001928E-02 0. -1.
    10030    2    1    2    0    0  0.00000000000E+00  0.00000000000E+00 -0.24310660541E+04  0.47215162004E+04  0.40475465496E+04 0.  0.
        3    1    3    3  502    0  0.19328946471E+04  0.43408491296E+03 -0.16981182958E+04  0.26092368971E+04  0.10100000352E+00 0.  1.
       -3    1    3    3    0  502 -0.19328946471E+04 -0.43408491296E+03 -0.73294775831E+03  0.21122793033E+04  0.10100000352E+00 0. -1.
</event>
<event>
 5   0  0.1101474E-07  0.3960765E+04  0.7818609E-02  0.8012509E-01
        2   -1    0    0  501    0  0.00000000000E+00  0.00000000000E+00  0.18634515552E+04  0.18634515552E+04  0.25500000920E-02 0.  1.
       -2   -1    0    0    0  501  0.00000000000E+00  0.00000000000E+00 -0.21046508017E+04  0.21046508017E+04  0.25500000920E-02 0. -1.
    10030    2    1    2    0    0  0.00000000000E+00  0.00000000000E+00 -0.24119924650E+03  0.39681023570E+04  0.39607649815E+04 0.  0.
        5    1    3    3  502    0  0.55323985812E+03  0.13663755214E+04 -0.14454852052E+04  0.20645837291E+04  0.46999998093E+01 0. -1.
       -5    1    3    3    0  502 -0.55323985812E+03 -0.13663755214E+04  0.12042859587E+04  0.19035186278E+04  0.46999998093E+01 0.  1.
</event>
<event>
 5   0  0.1073271E-07  0.4020178E+04  0.7818609E-02  0.8000488E-01
       -2   -1    0    0    0  501  0.00000000000E+00  0.00000000000E+00  0.27302376779E+04  0.27302376779E+04  0.25500000920E-02 0. -1.
        2   -1    0    0  501    0  0.00000000000E+00  0.00000000000E+00 -0.14798919687E+04  0.14798919687E+04  0.25500000920E-02 0.  1.
    10030    2    1    2    0    0  0.00000000000E+00  0.00000000000E+00  0.12503457092E+04  0.42101296466E+04  0.40201775146E+04 0.  0.
        1    1    3    3  502    0  0.12367153430E+04  0.16643719943E+03  0.22754770911E+04  0.25951805665E+04  0.50400001928E-02 0. -1.
       -1    1    3    3    0  502 -0.12367153430E+04 -0.16643719943E+03 -0.10251313819E+04  0.16149490800E+04  0.50400001928E-02 0.  1.
</event>
<event>
 5   0  0.3399500E-08  0.3978863E+04  0.7818609E-02  0.8008824E-01
        1   -1    0    0  501    0  0.00000000000E+00  0.00000000000E+00  0.18840462363E+04  0.18840462363E+04  0.50400001928E-02 0. -1.
       -1   -1    0    0    0  501  0.00000000000E+00  0.00000000000E+00 -0.21007112038E+04  0.21007112038E+04  0.50400001928E-02 0.  1.
    10030    2    1    2    0    0  0.00000000000E+00  0.00000000000E+00 -0.21666496745E+03  0.39847574401E+04  0.39788626702E+04 0.  0.
        4    1    3    3  502    0 -0.10458016668E+04  0.71246533182E+03  0.14290403118E+04  0.19087864734E+04  0.12699999809E+01 0. -1.
       -4    1    3    3    0  502  0.10458016668E+04 -0.71246533182E+03 -0.16457052793E+04  0.20759709667E+04  0.12699999809E+01 0.  1.
</event>
<event>
 5   0  0.3399500E-08  0.4013472E+04  0.7818609E-02  0.8001834E-01
        1   -1    0    0  501    0  0.00000000000E+00  0.00000000000E+00  0.17242657853E+04  0.17242657853E+04  0.50400001928E-02 0. -1.
       -1   -1    0    0    0  501  0.00000000000E+00  0.00000000000E+00 -0.23354801037E+04  0.23354801037E+04  0.50400001928E-02 0.  1.
    10030    2    1    2    0    0  0.00000000000E+00  0.00000000000E+00 -0.61121431844E+03  0.40597458891E+04  0.40134715323E+04 0.  0.
        4    1    3    3  502    0 -0.17813706538E+04  0.29995719729E+03  0.57838599266E+03  0.18967835132E+04  0.12699999809E+01 0. -1.
       -4    1    3    3    0  502  0.17813706538E+04 -0.29995719729E+03 -0.11896003111E+04  0.21629623759E+04  0.12699999809E+01 0.  1.
</event>
<event>
 5   0  0.3399500E-08  0.3993684E+04  0.7818609E-02  0.8005822E-01
        1   -1    0    0  501    0  0.00000000000E+00  0.00000000000E+00  0.27715366460E+04  0.27715366460E+04  0.50400001928E-02 0.  1.
       -1   -1    0    0    0  501  0.00000000000E+00  0.00000000000E+00 -0.14386885032E+04  0.14386885032E+04  0.50400001928E-02 0. -1.
    10030    2    1    2    0    0  0.00000000000E+00  0.00000000000E+00  0.13328481428E+04  0.42102251493E+04  0.39936839679E+04 0.  0.
        5    1    3    3  502    0  0.47743696206E+03  0.48672188702E+03  0.26450233228E+04  0.27314858075E+04  0.46999998093E+01 0.  1.
       -5    1    3    3    0  502 -0.47743696206E+03 -0.48672188702E+03 -0.13121751800E+04  0.14787393418E+04  0.46999998093E+01 0. -1.
</event>
<event>
 5   0  0.1095109E-07  0.3934317E+04  0.7818609E-02  0.8017930E-01
       -2   -1    0    0    0  501  0.00000000000E+00  0.00000000000E+00  0.20148309241E+04  0.20148309241E+04  0.25500000920E-02 0. -1.
        2   -1    0    0  501    0  0.00000000000E+00  0.00000000000E+00 -0.19206141400E+04  0.19206141400E+04  0.25500000920E-02 0.  1.
    10030    2    1    2    0    0  0.00000000000E+00  0.00000000000E+00  0.94216784171E+02  0.39354450641E+04  0.39343171009E+04 0.  0.
        4    1    3    3  502    0 -0.46569940664E+03 -0.17610641805E+04 -0.69572700788E+03  0.19499386318E+04  0.12699999809E+01 0.  1.
       -4    1    3    3    0  502  0.46569940664E+03  0.17610641805E+04  0.78994379206E+03  0.19855064323E+04  0.12699999809E+01 0. -1.
</event>
<event>
 5   0  0.3399500E-08  0.4045455E+04  0.7818609E-02  0.7995439E-01
       -3   -1    0    0    0  501  0.00000000000E+00  0.00000000000E+00  0.15624880912E+04  0.15624880944E+04  0.10100000352E+00 0. -1.
        3   -1    0    0  501    0  0.00000000000E+00  0.00000000000E+00 -0.26185325612E+04  0.26185325631E+04  0.10100000352E+00 0.  1.
    10030    2    1    2    0    0  0.00000000000E+00  0.00000000000E+00 -0.10560444700E+04  0.41810206576E+04  0.40454547107E+04 0.  0.
        5    1    3    3  502    0  0.11571667327E+04 -0.10047295094E+04  0.83640275000E+03  0.17458831245E+04  0.46999998093E+01 0. -1.
       -5    1    3    3    0  502 -0.11571667327E+04  0.10047295094E+04 -0.18924472200E+04  0.24351375330E+04  0.46999998093E+01 0.  1.
</event>
<event>
 5   0  0.1095903E-07  0.4004127E+04  0.7818609E-02  0.8003715E-01
        2   -1    0    0  501    0  0.00000000000E+00  0.00000000000E+00  0.18772234567E+04  0.18772234567E+04  0.25500000920E-02 0.  1.
       -2   -1    0    0    0  501  0.00000000000E+00  0.00000000000E+00 -0.21352053403E+04  0.21352053403E+04  0.25500000920E-02 0. -1.
    10030    2    1    2    0    0  0.00000000000E+00  0.00000000000E+00 -0.25798188368E+03  0.40124287970E+04  0.40041266462E+04 0.  0.
        3    1    3    3  502    0  0.11640161705E+04 -0.14084572579E+04  0.69097948751E+03  0.19534938328E+04  0.10100000352E+00 0.  1.
       -3    1    3    3    0  502 -0.11640161705E+04  0.14084572579E+04 -0.94896137119E+03  0.20589349642E+04  0.10100000352E+00 0. -1.
</event>
<event>
 5   0  0.1095903E-07  0.4005900E+04  0.7818609E-02  0.8003357E-01
       -2   -1    0    0    0  501  0.00000000000E+00  0.00000000000E+00  0.15312392744E+04  0.15312392744E+04  0.25500000920E-02 0. -1.
        2   -1    0    0  501    0  0.00000000000E+00  0.00000000000E+00 -0.26199749674E+04  0.26199749674E+04  0.25500000920E-02 0.  1.
    10030    2    1    2    0    0  0.00000000000E+00  0.00000000000E+00 -0.10887356929E+04  0.41512142418E+04  0.40058999329E+04 0.  0.
        3    1    3    3  502    0 -0.92854672270E+03  0.13507332361E+03 -0.23781252473E+04  0.25565452316E+04  0.10100000352E+00 0.  1.
       -3    1    3    3    0  502  0.92854672270E+03 -0.13507332361E+03  0.12893895544E+04  0.15946690102E+04  0.10100000352E+00 0. -1.
</event>
<event>
 5   0  0.3399500E-08  0.4010106E+04  0.7818609E-02  0.8002511E-01
       -3   -1    0    0    0  501  0.00000000000E+00  0.00000000000E+00  0.24094581014E+04  0.24094581035E+04  0.10100000352E+00 0. -1.
        3   -1    0    0  501    0  0.00000000000E+00  0.00000000000E+00 -0.16685235839E+04  0.16685235869E+04  0.10100000352E+00 0.  1.
    10030    2    1    2    0    0  0.00000000000E+00  0.00000000000E+00  0.74093451754E+03  0.40779816905E+04  0.40101060720E+04 0.  0.
        4    1    3    3  502    0 -0.16655682002E+04  0.91979457494E+02 -0.76086406161E+03  0.18334375864E+04  0.12699999809E+01 0.  1.
       -4    1    3    3    0  502  0.16655682002E+04 -0.91979457494E+02  0.15017985792E+04  0.22445441041E+04  0.12699999809E+01 0. -1.
</event>
<event>
 5   0  0.1095903E-07  0.3995272E+04  0.7818609E-02  0.8005501E-01
        2   -1    0    0  501    0  0.00000000000E+00  0.00000000000E+00  0.18978943211E+04  0.18978943211E+04  0.25500000920E-02 0. -1.
       -2   -1    0    0    0  501  0.00000000000E+00  0.00000000000E+00 -0.21026193753E+04  0.21026193753E+04  0.25500000920E-02 0.  1.
    10030    2    1    2    0    0  0.00000000000E+00  0.00000000000E+00 -0.20472505417E+03  0.40005136964E+04  0.39952718916E+04 0.  0.
        3    1    3    3  502    0 -0.51507988866E+03  0.13836393521E+04  0.12450567973E+04  0.19313030800E+04  0.10100000352E+00 0. -1.
       -3    1    3    3    0  502  0.51507988866E+03 -0.13836393521E+04 -0.14497818514E+04  0.20692106164E+04  0.10100000352E+00 0.  1.
</event>
<event>
 5   0  0.1087688E-07  0.4021240E+04  0.7818609E-02  0.8000275E-01
       -2   -1    0    0    0  501  0.00000000000E+00  0.00000000000E+00  0.25508956064E+04  0.25508956064E+04  0.25500000920E-02 0.  1.
        2   -1    0    0  501    0  0.00000000000E+00  0.00000000000E+00 -0.15847736545E+04  0.15847736545E+04  0.25500000920E-02 0. -1.
    10030    2    1    2    0    0  0.00000000000E+00  0.00000000000E+00  0.96612195195E+03  0.41356692609E+04  0.40212396857E+04 0.  0.
        2    1    3    3  502    0  0.84854159461E+03 -0.21343726226E+03  0.23448264767E+04  0.25027563822E+04  0.25500000920E-02 0.  1.
       -2    1    3    3    0  502 -0.84854159461E+03  0.21343726226E+03 -0.13787045248E+04  0.16329128787E+04  0.25500000920E-02 0. -1.
</event>
<event>
 5   0  0.1073271E-07  0.3997563E+04  0.7818609E-02  0.8005038E-01
       -2   -1    0    0    0  501  0.00000000000E+00  0.00000000000E+00  0.16102397401E+04  0.16102397401E+04  0.25500000920E-02 0.  1.
        2   -1    0    0  501    0  0.00000000000E+00  0.00000000000E+00 -0.24810759949E+04  0.24810759949E+04  0.25500000920E-02 0. -1.
    10030    2    1    2    0    0  0.00000000000E+00  0.00000000000E+00 -0.87083625479E+03  0.40913157351E+04  0.39975628402E+04 0.  0.
        1    1    3    3  502    0 -0.11192076123E+04  0.48739269852E+03  0.11844035772E+04  0.17008789363E+04  0.50400001928E-02 0.  1.
       -1    1    3    3    0  502  0.11192076123E+04 -0.48739269852E+03 -0.20552398320E+04  0.23904367988E+04  0.50400001928E-02 0. -1.
</event>
<event>
 5   0  0.3399500E-08  0.3965600E+04  0.7818609E-02  0.8011522E-01
       -1   -1    0    0    0  501  0.00000000000E+00  0.00000000000E+00  0.12600507721E+04  0.12600507721E+04  0.50400001928E-02 0.  1.
        1   -1    0    0  501    0  0.00000000000E+00  0.00000000000E+00 -0.31201095066E+04  0.31201095066E+04  0.50400001928E-02 0. -1.
    10030    2    1    2    0    0  0.00000000000E+00  0.00000000000E+00 -0.18600587345E+04  0.43801602787E+04  0.39656002788E+04 0.  0.
        3    1    3    3  502    0 -0.66800397335E+03 -0.18667699061E+04 -0.90693440848E+03  0.21802727403E+04  0.10100000352E+00 0. -1.
       -3    1    3    3    0  502  0.66800397335E+03  0.18667699061E+04 -0.95312432603E+03  0.21998875384E+04  0.10100000352E+00 0.  1.
</event>
<event>
 5   0  0.1095109E-07  0.3988349E+04  0.7818609E-02  0.8006901E-01
       -2   -1    0    0    0  501  0.00000000000E+00  0.00000000000E+00  0.24662644719E+04  0.24662644719E+04  0.25500000920E-02 0.  1.
        2   -1    0    0  501    0  0.00000000000E+00  0.00000000000E+00 -0.16124511627E+04  0.16124511627E+04  0.25500000920E-02 0. -1.
    10030    2    1    2    0    0  0.00000000000E+00  0.00000000000E+00  0.85381330920E+03  0.40787156347E+04  0.39883485381E+04 0.  0.
        4    1    3    3  502    0 -0.36477936340E+03 -0.11735836686E+04 -0.11791436934E+04  0.17031570902E+04  0.12699999809E+01 0. -1.
       -4    1    3    3    0  502  0.36477936340E+03  0.11735836686E+04  0.20329570026E+04  0.23755585445E+04  0.12699999809E+01 0.  1.
</event>
<event>
 5   0  0.1095109E-07  0.4039500E+04  0.7818609E-02  0.7996625E-01
       -2   -1    0    0    0  501  0.00000000000E+00  0.00000000000E+00  0.15789533168E+04  0.15789533168E+04  0.25500000920E-02 0. -1.
        2   -1    0    0  501    0  0.00000000000E+00  0.00000000000E+00 -0.25836034757E+04  0.25836034757E+04  0.25500000920E-02 0.  1.
    10030    2    1    2    0    0  0.00000000000E+00  0.00000000000E+00 -0.10046501589E+04  0.41625567925E+04  0.40394996112E+04 0.  0.
        4    1    3    3  502    0 -0.19553052278E+04  0.25203519619E+03 -0.95461214313E+03  0.21904397346E+04  0.12699999809E+01 0.  1.
       -4    1    3    3    0  502  0.19553052278E+04 -0.25203519619E+03 -0.50038015809E+02  0.19721170579E+04  0.12699999809E+01 0. -1.
</event>
<event>
 5   0  0.1095903E-07  0.3996701E+04  0.7818609E-02  0.8005212E-01
       -2   -1    0    0    0  501  0.00000000000E+00  0.00000000000E+00  0.14417655545E+04  0.14417655545E+04  0.25500000920E-02 0. -1.
        2   -1    0    0  501    0  0.00000000000E+00  0.00000000000E+00 -0.27698021293E+04  0.27698021293E+04  0.25500000920E-02 0.  1.
    10030    2    1    2    0    0  0.00000000000E+00  0.00000000000E+00 -0.13280365748E+04  0.42115676839E+04  0.39967012913E+04 0.  0.
        3    1    3    3  502    0  0.19763854884E+04 -0.24909637070E+03 -0.49655086726E+03  0.20529762236E+04  0.10100000352E+00 0.  1.
       -3    1    3    3    0  502 -0.19763854884E+04  0.24909637070E+03 -0.83148570753E+03  0.21585914603E+04  0.10100000352E+00 0. -1.
</event>
<event>
 5   0  0.3399500E-08  0.3990495E+04  0.7818609E-02  0.8006467E-01
        1   -1    0    0  501    0  0.00000000000E+00  0.00000000000E+00  0.27869641343E+04  0.27869641343E+04  0.50400001928E-02 0. -1.
       -1   -1    0    0    0  501  0.00000000000E+00  0.00000000000E+00 -0.14284402828E+04  0.14284402828E+04  0.50400001928E-02 0.  1.
    10030    2    1    2    0    0  0.00000000000E+00  0.00000000000E+00  0.13585238515E+04  0.42154044171E+04  0.39904946240E+04 0.  0.
        4    1    3    3  502    0 -0.64479663517E+03 -0.64576554544E+03  0.25535918765E+04  0.27117538467E+04  0.12699999809E+01 0. -1.
       -4    1    3    3    0  502  0.64479663517E+03  0.64576554544E+03 -0.11950680250E+04  0.15036505703E+04  0.12699999809E+01 0.  1.
</event>
<event>
 5   0  0.3399500E-08  0.3997911E+04  0.7818609E-02  0.8004968E-01
        1   -1    0    0  501    0  0.00000000000E+00  0.00000000000E+00  0.30153229697E+04  0.30153229697E+04  0.50400001928E-02 0. -1.
       -1   -1    0    0    0  501  0.00000000000E+00  0.00000000000E+00 -0.13251724265E+04  0.13251724265E+04  0.50400001928E-02 0.  1.
    10030    2    1    2    0    0  0.00000000000E+00  0.00000000000E+00  0.16901505432E+04  0.43404953962E+04  0.39979108827E+04 0.  0.
        2    1    3    3  502    0 -0.13829935087E+04 -0.39125173253E+03 -0.66324357991E+03  0.15829216688E+04  0.25500000920E-02 0.  1.
       -2    1    3    3    0  502  0.13829935087E+04  0.39125173253E+03  0.23533941231E+04  0.27575737274E+04  0.25500000920E-02 0. -1.
</event>
<event>
 5   0  0.1095903E-07  0.4003224E+04  0.7818609E-02  0.8003896E-01
        2   -1    0    0  501    0  0.00000000000E+00  0.00000000000E+00  0.15202797949E+04  0.15202797949E+04  0.25500000920E-02 0. -1.
       -2   -1    0    0    0  501  0.00000000000E+00  0.00000000000E+00 -0.26353379755E+04  0.26353379755E+04  0.25500000920E-02 0.  1.
    10030    2    1    2    0    0  0.00000000000E+00  0.00000000000E+00 -0.11150581806E+04  0.41556177704E+04  0.40032242390E+04 0.  0.
        3    1    3    3  502    0  0.17087625172E+04 -0.80115522150E+03 -0.12497980919E+04  0.22635623053E+04  0.10100000352E+00 0.  1.
       -3    1    3    3    0  502 -0.17087625172E+04  0.80115522150E+03  0.13473991132E+03  0.18920554651E+04  0.10100000352E+00 0. -1.
</event>
<event>
 5   0  0.1095109E-07  0.4059635E+04  0.7818609E-02  0.7992623E-01
       -2   -1    0    0    0  501  0.00000000000E+00  0.00000000000E+00  0.23673168880E+04  0.23673168880E+04  0.25500000920E-02 0.  1.
        2   -1    0    0  501    0  0.00000000000E+00  0.00000000000E+00 -0.17404337693E+04  0.17404337693E+04  0.25500000920E-02 0. -1.
    10030    2    1    2    0    0  0.00000000000E+00  0.00000000000E+00  0.62688311872E+03  0.41077506573E+04  0.40596345917E+04 0.  0.
        4    1    3    3  502    0  0.61786807593E+03 -0.18799165902E+04 -0.14392161481E+03  0.19840772136E+04  0.12699999809E+01 0. -1.
       -4    1    3    3    0  502 -0.61786807593E+03  0.18799165902E+04  0.77080473353E+03  0.21236734437E+04  0.12699999809E+01 0.  1.
</event>
<event>
 5   0  0.1095109E-07  0.3993952E+04  0.7818609E-02  0.8005768E-01
        2   -1    0    0  501    0  0.00000000000E+00  0.00000000000E+00  0.12607714931E+04  0.12607714931E+04  0.25500000920E-02 0.  1.
       -2   -1    0    0    0  501  0.00000000000E+00  0.00000000000E+00 -0.31630734777E+04  0.31630734777E+04  0.25500000920E-02 0. -1.
    10030    2    1    2    0    0  0.00000000000E+00  0.00000000000E+00 -0.19023019846E+04  0.44238449709E+04  0.39939518632E+04 0.  0.
        4    1    3    3  502    0 -0.17097913043E+04  0.45487264086E+03 -0.19769055810E+04  0.26530082383E+04  0.12699999809E+01 0. -1.
       -4    1    3    3    0  502  0.17097913043E+04 -0.45487264086E+03  0.74603596350E+02  0.17708367325E+04  0.12699999809E+01 0.  1.
</event>
<event>
 5   0  0.3399500E-08  0.3985771E+04  0.7818609E-02  0.8007423E-01
        1   -1    0    0  501    0  0.00000000000E+00  0.00000000000E+00  0.28969802902E+04  0.28969802902E+04  0.50400001928E-02 0. -1.
       -1   -1    0    0    0  501  0.00000000000E+00  0.00000000000E+00 -0.13709418988E+04  0.13709418988E+04  0.50400001928E-02 0.  1.
    10030    2    1    2    0    0  0.00000000000E+00  0.00000000000E+00  0.15260383914E+04  0.42679221890E+04  0.39857705202E+04 0.  0.
        3    1    3    3  502    0 -0.89953934257E+03 -0.17666384581E+04  0.98091682892E+03  0.22118725791E+04  0.10100000352E+00 0. -1.
       -3    1    3    3    0  502  0.89953934257E+03  0.17666384581E+04  0.54512156249E+03  0.20560496100E+04  0.10100000352E+00 0.  1.
</event>
<event>
 5   0  0.3399500E-08  0.4202814E+04  0.7818609E-02  0.7964837E-01
        1   -1    0    0  501    0  0.00000000000E+00  0.00000000000E+00  0.17608978167E+04  0.17608978167E+04  0.50400001928E-02 0.  1.
       -1   -1    0    0    0  501  0.00000000000E+00  0.00000000000E+00 -0.25077614097E+04  0.25077614097E+04  0.50400001928E-02 0. -1.
    10030    2    1    2    0    0  0.00000000000E+00  0.00000000000E+00 -0.74686359304E+03  0.42686592264E+04  0.42028141007E+04 0.  0.
        1    1    3    3  502    0  0.16692227174E+04  0.81030030562E+03 -0.13753039504E+04  0.23096216187E+04  0.50400001928E-02 0. -1.
       -1    1    3    3    0  502 -0.16692227174E+04 -0.81030030562E+03  0.62844035738E+03  0.19590376077E+04  0.50400001928E-02 0.  1.
</event>
<event>
 5   0  0.3399500E-08  0.3998230E+04  0.7818609E-02  0.8004904E-01
        1   -1    0    0  501    0  0.00000000000E+00  0.00000000000E+00  0.20558341854E+04  0.20558341854E+04  0.50400001928E-02 0. -1.
       -1   -1    0    0    0  501  0.00000000000E+00  0.00000000000E+00 -0.19439603348E+04  0.19439603348E+04  0.50400001928E-02 0.  1.
    10030    2    1    2    0    0  0.00000000000E+00  0.00000000000E+00  0.11187385056E+03  0.39997945202E+04  0.39982296639E+04 0.  0.
        4    1    3    3  502    0  0.14314274168E+03 -0.14173434885E+04 -0.13471476022E+04  0.19606531269E+04  0.12699999809E+01 0.  1.
       -4    1    3    3    0  502 -0.14314274168E+03  0.14173434885E+04  0.14590214528E+04  0.20391413932E+04  0.12699999809E+01 0. -1.
</event>
<event>
 5   0  0.1073271E-07  0.3996594E+04  0.7818609E-02  0.8005234E-01
       -2   -1    0    0    0  501  0.00000000000E+00  0.00000000000E+00  0.25738804436E+04  0.25738804436E+04  0.25500000920E-02 0. -1.
        2   -1    0    0  501    0  0.00000000000E+00  0.00000000000E+00 -0.15514280212E+04  0.15514280212E+04  0.25500000920E-02 0.  1.
    10030    2    1    2    0    0  0.00000000000E+00  0.00000000000E+00  0.10224524224E+04  0.41253084649E+04  0.39965936714E+04 0.  0.
        1    1    3    3  502    0 -0.15989708660E+04  0.98042568905E+03 -0.20035836543E+03  0.18862889060E+04  0.50400001928E-02 0.  1.
       -1    1    3    3    0  502  0.15989708660E+04 -0.98042568905E+03  0.12228107878E+04  0.22390195589E+04  0.50400001928E-02 0. -1.
</event>
<event>
 5   0  0.1095109E-07  0.3751125E+04  0.7818609E-02  0.8056725E-01
        2   -1    0    0  501    0  0.00000000000E+00  0.00000000000E+00  0.25663838500E+04  0.25663838500E+04  0.25500000920E-02 0. -1.
       -2   -1    0    0    0  501  0.00000000000E+00  0.00000000000E+00 -0.13706972861E+04  0.13706972861E+04  0.25500000920E-02 0.  1.
    10030    2    1    2    0    0  0.00000000000E+00  0.00000000000E+00  0.11956865639E+04  0.39370811361E+04  0.37511253662E+04 0.  0.
        4    1    3    3  502    0 -0.12410812886E+03 -0.13363401770E+04 -0.77726837114E+03  0.15509208974E+04  0.12699999809E+01 0.  1.
       -4    1    3    3    0  502  0.12410812886E+03  0.13363401770E+04  0.19729549350E+04  0.23861602387E+04  0.12699999809E+01 0. -1.
</event>
<event>
 5   0  0.3399500E-08  0.4009543E+04  0.7818609E-02  0.8002624E-01
        1   -1    0    0  501    0  0.00000000000E+00  0.00000000000E+00  0.22078101393E+04  0.22078101393E+04  0.50400001928E-02 0.  1.
       -1   -1    0    0    0  501  0.00000000000E+00  0.00000000000E+00 -0.18204051101E+04  0.18204051101E+04  0.50400001928E-02 0. -1.
    10030    2    1    2    0    0  0.00000000000E+00  0.00000000000E+00  0.38740502920E+03  0.40282152494E+04  0.40095430462E+04 0.  0.
        5    1    3    3  502    0 -0.66957268952E+02 -0.19997280509E+04  0.67854579559E+02  0.20020044674E+04  0.46999998093E+01 0.  1.
       -5    1    3    3    0  502  0.66957268952E+02  0.19997280509E+04  0.31955044964E+03  0.20262107820E+04  0.46999998093E+01 0. -1.
</event>
<event>
 5   0  0.1073271E-07  0.3698425E+04  0.7818609E-02  0.8068311E-01
       -2   -1    0    0    0  501  0.00000000000E+00  0.00000000000E+00  0.12776172528E+04  0.12776172528E+04  0.25500000920E-02 0.  1.
        2   -1    0    0  501    0  0.00000000000E+00  0.00000000000E+00 -0.26765349470E+04  0.26765349470E+04  0.25500000920E-02 0. -1.
    10030    2    1    2    0    0  0.00000000000E+00  0.00000000000E+00 -0.13989176941E+04  0.39541521998E+04  0.36984251925E+04 0.  0.
        1    1    3    3  502    0  0.16885356736E+04 -0.72464745827E+03 -0.92198630431E+03  0.20558028614E+04  0.50400001928E-02 0.  1.
       -1    1    3    3    0  502 -0.16885356736E+04  0.72464745827E+03 -0.47693138980E+03  0.18983493383E+04  0.50400001928E-02 0. -1.
</event>
<event>
 5   0  0.3399500E-08  0.4076793E+04  0.7818609E-02  0.7989232E-01
       -1   -1    0    0    0  501  0.00000000000E+00  0.00000000000E+00  0.14676538179E+04  0.14676538179E+04  0.50400001928E-02 0.  1.
        1   -1    0    0  501    0  0.00000000000E+00  0.00000000000E+00 -0.28310902012E+04  0.28310902012E+04  0.50400001928E-02 0. -1.
    10030    2    1    2    0    0  0.00000000000E+00  0.00000000000E+00 -0.13634363833E+04  0.42987440191E+04  0.40767930252E+04 0.  0.
        3    1    3    3  502    0  0.19219521355E+03  0.18978993365E+04  0.75793980233E+02  0.19091112145E+04  0.10100000352E+00 0.  1.
       -3    1    3    3    0  502 -0.19219521355E+03 -0.18978993365E+04 -0.14392303635E+04  0.23896328046E+04  0.10100000352E+00 0. -1.
</event>
<event>
 5   0  0.3399500E-08  0.4007838E+04  0.7818609E-02  0.8002967E-01
        1   -1    0    0  501    0  0.00000000000E+00  0.00000000000E+00  0.16061671463E+04  0.16061671464E+04  0.50400001928E-02 0. -1.
       -1   -1    0    0    0  501  0.00000000000E+00  0.00000000000E+00 -0.25001705042E+04  0.25001705042E+04  0.50400001928E-02 0.  1.
    10030    2    1    2    0    0  0.00000000000E+00  0.00000000000E+00 -0.89400335789E+03  0.41063376506E+04  0.40078381825E+04 0.  0.
        5    1    3    3  502    0  0.73183816424E+03  0.62646974875E+03 -0.22473489055E+04  0.24451279390E+04  0.46999998093E+01 0.  1.
       -5    1    3    3    0  502 -0.73183816424E+03 -0.62646974875E+03  0.13533455476E+04  0.16612097116E+04  0.46999998093E+01 0. -1.
</event>
<event>
 5   0  0.1101474E-07  0.4009214E+04  0.7818609E-02  0.8002690E-01
        2   -1    0    0  501    0  0.00000000000E+00  0.00000000000E+00  0.27729120792E+04  0.27729120792E+04  0.25500000920E-02 0. -1.
       -2   -1    0    0    0  501  0.00000000000E+00  0.00000000000E+00 -0.14491800930E+04  0.14491800930E+04  0.25500000920E-02 0.  1.
    10030    2    1    2    0    0  0.00000000000E+00  0.00000000000E+00  0.13237319862E+04  0.42220921722E+04  0.40092138805E+04 0.  0.
        5    1    3    3  502    0  0.11214714011E+04  0.84932646783E+03 -0.84202671622E+03  0.16395379328E+04  0.46999998093E+01 0.  1.
       -5    1    3    3    0  502 -0.11214714011E+04 -0.84932646783E+03  0.21657587024E+04  0.25825542394E+04  0.46999998093E+01 0. -1.
</event>
<event>
 5   0  0.1101474E-07  0.3987103E+04  0.7818609E-02  0.8007153E-01
        2   -1    0    0  501    0  0.00000000000E+00  0.00000000000E+00  0.13898508838E+04  0.13898508838E+04  0.25500000920E-02 0.  1.
       -2   -1    0    0    0  501  0.00000000000E+00  0.00000000000E+00 -0.28594770267E+04  0.28594770267E+04  0.25500000920E-02 0. -1.
    10030    2    1    2    0    0  0.00000000000E+00  0.00000000000E+00 -0.14696261429E+04  0.42493279105E+04  0.39871025434E+04 0.  0.
        5    1    3    3  502    0  0.36268220612E+03  0.58253233816E+03  0.12600088193E+04  0.14347566422E+04  0.46999998093E+01 0.  1.
       -5    1    3    3    0  502 -0.36268220612E+03 -0.58253233816E+03 -0.27296349622E+04  0.28145712683E+04  0.46999998093E+01 0. -1.
</event>
<event>
 5   0  0.1095109E-07  0.3992522E+04  0.7818609E-02  0.8006057E-01
       -2   -1    0    0    0  501  0.00000000000E+00  0.00000000000E+00  0.20717976012E+04  0.20717976012E+04  0.25500000920E-02 0.  1.
        2   -1    0    0  501    0  0.00000000000E+00  0.00000000000E+00 -0.19234783308E+04  0.19234783308E+04  0.25500000920E-02 0. -1.
    10030    2    1    2    0    0  0.00000000000E+00  0.00000000000E+00  0.14831927040E+03  0.39952759319E+04  0.39925219056E+04 0.  0.
        4    1    3    3  502    0 -0.16386571348E+04 -0.50864435745E+03 -0.94690683419E+03  0.19597322402E+04  0.12699999809E+01 0. -1.
       -4    1    3    3    0  502  0.16386571348E+04  0.50864435745E+03  0.10952261046E+04  0.20355436917E+04  0.12699999809E+01 0.  1.
</event>
<event>
 5   0  0.3399500E-08  0.3995937E+04  0.7818609E-02  0.8005367E-01
       -1   -1    0    0    0  501  0.00000000000E+00  0.00000000000E+00  0.29352178123E+04  0.29352178123E+04  0.50400001928E-02 0. -1.
        1   -1    0    0  501    0  0.00000000000E+00  0.00000000000E+00 -0.13599938897E+04  0.13599938897E+04  0.50400001928E-02 0.  1.
    10030    2    1    2    0    0  0.00000000000E+00  0.00000000000E+00  0.15752239226E+04  0.42952117020E+04  0.39959370814E+04 0.  0.
        1    1    3    3  502    0 -0.17193054543E+04  0.36531881155E+03  0.18087105887E+04  0.25220830821E+04  0.50400001928E-02 0. -1.
       -1    1    3    3    0  502  0.17193054543E+04 -0.36531881155E+03 -0.23348666615E+03  0.17731286199E+04  0.50400001928E-02 0.  1.
</event>
<event>
 5   0  0.1101474E-07  0.3995565E+04  0.7818609E-02  0.8005442E-01
       -2   -1    0    0    0  501  0.00000000000E+00  0.00000000000E+00  0.30795552991E+04  0.30795552992E+04  0.25500000920E-02 0.  1.
        2   -1    0    0  501    0  0.00000000000E+00  0.00000000000E+00 -0.12960098518E+04  0.12960098518E+04  0.25500000920E-02 0. -1.
    10030    2    1    2    0    0  0.00000000000E+00  0.00000000000E+00  0.17835454474E+04  0.43755651509E+04  0.39955645442E+04 0.  0.
        5    1    3    3  502    0 -0.47729604802E+03 -0.10850465286E+04  0.26528082498E+04  0.29056068535E+04  0.46999998093E+01 0.  1.
       -5    1    3    3    0  502  0.47729604802E+03  0.10850465286E+04 -0.86926280242E+03  0.14699582975E+04  0.46999998093E+01 0. -1.
</event>
<event>
 5   0  0.3399500E-08  0.3550159E+04  0.7818609E-02  0.8102005E-01
        1   -1    0    0  501    0  0.00000000000E+00  0.00000000000E+00  0.16723299126E+04  0.16723299126E+04  0.50400001928E-02 0. -1.
       -1   -1    0    0    0  501  0.00000000000E+00  0.00000000000E+00 -0.18841419558E+04  0.18841419558E+04  0.50400001928E-02 0.  1.
    10030    2    1    2    0    0  0.00000000000E+00  0.00000000000E+00 -0.21181204317E+03  0.35564718684E+04  0.35501588428E+04 0.  0.
        5    1    3    3  502    0  0.60723835538E+02  0.17317717162E+02  0.16711981926E+04  0.16723973142E+04  0.46999998093E+01 0. -1.
       -5    1    3    3    0  502 -0.60723835538E+02 -0.17317717162E+02 -0.18830102358E+04  0.18840745542E+04  0.46999998093E+01 0.  1.
</event>
<event>
 5   0  0.1095903E-07  0.3991170E+04  0.7818609E-02  0.8006330E-01
        2   -1    0    0  501    0  0.00000000000E+00  0.00000000000E+00  0.20565528497E+04  0.20565528497E+04  0.25500000920E-02 0.  1.
       -2   -1    0    0    0  501  0.00000000000E+00  0.00000000000E+00 -0.19364242415E+04  0.19364242415E+04  0.25500000920E-02 0. -1.
    10030    2    1    2    0    0  0.00000000000E+00  0.00000000000E+00  0.12012860822E+03  0.39929770912E+04  0.39911696491E+04 0.  0.
        3    1    3    3  502    0  0.68050687112E+03  0.18407149918E+04 -0.30209064824E+03  0.19855931236E+04  0.10100000352E+00 0.  1.
       -3    1    3    3    0  502 -0.68050687112E+03 -0.18407149918E+04  0.42221925646E+03  0.20073839676E+04  0.10100000352E+00 0. -1.
</event>
<event>
 5   0  0.1101474E-07  0.3990121E+04  0.7818609E-02  0.8006542E-01
       -2   -1    0    0    0  501  0.00000000000E+00  0.00000000000E+00  0.17067054861E+04  0.17067054861E+04  0.25500000920E-02 0.  1.
        2   -1    0    0  501    0  0.00000000000E+00  0.00000000000E+00 -0.23321343930E+04  0.23321343930E+04  0.25500000920E-02 0. -1.
    10030    2    1    2    0    0  0.00000000000E+00  0.00000000000E+00 -0.62542890687E+03  0.40388398791E+04  0.39901210823E+04 0.  0.
        5    1    3    3  502    0  0.88818131698E+03 -0.83220749660E+03 -0.19127775201E+04  0.22671954703E+04  0.46999998093E+01 0. -1.
       -5    1    3    3    0  502 -0.88818131698E+03  0.83220749660E+03  0.12873486133E+04  0.17716444088E+04  0.46999998093E+01 0.  1.
</event>
<event>
 5   0  0.3399500E-08  0.3860393E+04  0.7818609E-02  0.8033317E-01
       -1   -1    0    0    0  501  0.00000000000E+00  0.00000000000E+00  0.25337517229E+04  0.25337517229E+04  0.50400001928E-02 0. -1.
        1   -1    0    0  501    0  0.00000000000E+00  0.00000000000E+00 -0.14704119160E+04  0.14704119160E+04  0.50400001928E-02 0.  1.
    10030    2    1    2    0    0  0.00000000000E+00  0.00000000000E+00  0.10633398069E+04  0.40041636389E+04  0.38603931021E+04 0.  0.
        4    1    3    3  502    0 -0.83972458511E+03 -0.17171776726E+03  0.23255395039E+04  0.24784591923E+04  0.12699999809E+01 0. -1.
       -4    1    3    3    0  502  0.83972458511E+03  0.17171776726E+03 -0.12621996971E+04  0.15257044467E+04  0.12699999809E+01 0.  1.
</event>
<event>
 5   0  0.1095903E-07  0.3709388E+04  0.7818609E-02  0.8065884E-01
       -2   -1    0    0    0  501  0.00000000000E+00  0.00000000000E+00  0.14247318252E+04  0.14247318252E+04  0.25500000920E-02 0. -1.
        2   -1    0    0  501    0  0.00000000000E+00  0.00000000000E+00 -0.24144127441E+04  0.24144127441E+04  0.25500000920E-02 0.  1.
    10030    2    1    2    0    0  0.00000000000E+00  0.00000000000E+00 -0.98968091884E+03  0.38391445693E+04  0.37093884540E+04 0.  0.
        3    1    3    3  502    0  0.12201300903E+04 -0.10317307827E+04 -0.14694298635E+04  0.21708086003E+04  0.10100000352E+00 0.  1.
       -3    1    3    3    0  502 -0.12201300903E+04  0.10317307827E+04  0.47974894470E+03  0.16683359690E+04  0.10100000352E+00 0. -1.
</event>
<event>
 5   0  0.1087688E-07  0.3986477E+04  0.7818609E-02  0.8007280E-01
        2   -1    0    0  501    0  0.00000000000E+00  0.00000000000E+00  0.25849737619E+04  0.25849737619E+04  0.25500000920E-02 0. -1.
       -2   -1    0    0    0  501  0.00000000000E+00  0.00000000000E+00 -0.15369592135E+04  0.15369592135E+04  0.25500000920E-02 0.  1.
    10030    2    1    2    0    0  0.00000000000E+00  0.00000000000E+00  0.10480145484E+04  0.41219329754E+04  0.39864767602E+04 0.  0.
        2    1    3    3  502    0 -0.10513221070E+04  0.13285046214E+04 -0.56181659931E+03  0.17848923198E+04  0.25500000920E-02 0.  1.
       -2    1    3    3    0  502  0.10513221070E+04 -0.13285046214E+04  0.16098311477E+04  0.23370406556E+04  0.25500000920E-02 0. -1.
</event>
<event>
 5   0  0.1095109E-07  0.3997403E+04  0.7818609E-02  0.8005071E-01
        2   -1    0    0  501    0  0.00000000000E+00  0.00000000000E+00  0.15330405463E+04  0.15330405463E+04  0.25500000920E-02 0.  1.
       -2   -1    0    0    0  501  0.00000000000E+00  0.00000000000E+00 -0.26058073098E+04  0.26058073098E+04  0.25500000920E-02 0. -1.
    10030    2    1    2    0    0  0.00000000000E+00  0.00000000000E+00 -0.10727667635E+04  0.41388478562E+04  0.39974032881E+04 0.  0.
        4    1    3    3  502    0  0.17196710559E+04 -0.85273084418E+03 -0.11132217093E+04  0.22189372727E+04  0.12699999809E+01 0. -1.
       -4    1    3    3    0  502 -0.17196710559E+04  0.85273084418E+03  0.40454945777E+02  0.19199105835E+04  0.12699999809E+01 0.  1.
</event>
<event>
 5   0  0.1095903E-07  0.3977915E+04  0.7818609E-02  0.8009017E-01
        2   -1    0    0  501    0  0.00000000000E+00  0.00000000000E+00  0.19208435037E+04  0.19208435037E+04  0.25500000920E-02 0.  1.
       -2   -1    0    0    0  501  0.00000000000E+00  0.00000000000E+00 -0.20594872812E+04  0.20594872812E+04  0.25500000920E-02 0. -1.
    10030    2    1    2    0    0  0.00000000000E+00  0.00000000000E+00 -0.13864377749E+03  0.39803307849E+04  0.39779154164E+04 0.  0.
        3    1    3    3  502    0  0.68260792922E+03  0.16232357667E+04 -0.99460214944E+03  0.20223949627E+04  0.10100000352E+00 0. -1.
       -3    1    3    3    0  502 -0.68260792922E+03 -0.16232357667E+04  0.85595837195E+03  0.19579358222E+04  0.10100000352E+00 0.  1.
</event>
<event>
 5   0  0.1073271E-07  0.3988374E+04  0.7818609E-02  0.8006896E-01
        2   -1    0    0  501    0  0.00000000000E+00  0.00000000000E+00  0.24838882421E+04  0.24838882421E+04  0.25500000920E-02 0. -1.
       -2   -1    0    0    0  501  0.00000000000E+00  0.00000000000E+00 -0.16010309019E+04  0.16010309019E+04  0.25500000920E-02 0.  1.
    10030    2    1    2    0    0  0.00000000000E+00  0.00000000000E+00  0.88285734018E+03  0.40849191439E+04  0.39883740208E+04 0.  0.
        1    1    3    3  502    0  0.29421175056E+03 -0.81787582722E+02 -0.15769424982E+04  0.16062370328E+04  0.50400001928E-02 0.  1.
       -1    1    3    3    0  502 -0.29421175056E+03  0.81787582722E+02  0.24597998384E+04  0.24786821111E+04  0.50400001928E-02 0. -1.
</event>
<event>
 5   0  0.1073271E-07  0.3994388E+04  0.7818609E-02  0.8005680E-01
        2   -1    0    0  501    0  0.00000000000E+00  0.00000000000E+00  0.19469336446E+04  0.19469336446E+04  0.25500000920E-02 0.  1.
       -2   -1    0    0    0  501  0.00000000000E+00  0.00000000000E+00 -0.20487518901E+04  0.20487518901E+04  0.25500000920E-02 0. -1.
    10030    2    1    2    0    0  0.00000000000E+00  0.00000000000E+00 -0.10181824553E+03  0.39956855347E+04  0.39943880554E+04 0.  0.
        1    1    3    3  502    0  0.88233107149E+03  0.15931525222E+04 -0.87101742872E+03  0.20187408055E+04  0.50400001928E-02 0. -1.
       -1    1    3    3    0  502 -0.88233107149E+03 -0.15931525222E+04  0.76919918319E+03  0.19769447292E+04  0.50400001928E-02 0.  1.
</event>
<event>
 5   0  0.3399500E-08  0.4005327E+04  0.7818609E-02  0.8003473E-01
       -1   -1    0    0    0  501  0.00000000000E+00  0.00000000000E+00  0.17686451704E+04  0.17686451705E+04  0.50400001928E-02 0. -1.
        1   -1    0    0  501    0  0.00000000000E+00  0.00000000000E+00 -0.22676462871E+04  0.22676462871E+04  0.50400001928E-02 0.  1.
    10030    2    1    2    0    0  0.00000000000E+00  0.00000000000E+00 -0.49900111669E+03  0.40362914576E+04  0.40053272795E+04 0.  0.
        1    1    3    3  502    0 -0.25581838878E+03 -0.16827548905E+04 -0.13129093962E+04  0.21496134890E+04  0.50400001928E-02 0. -1.
       -1    1    3    3    0  502  0.25581838878E+03  0.16827548905E+04  0.81390827948E+03  0.18866779686E+04  0.50400001928E-02 0.  1.
</event>
<event>
 5   0  0.3399500E-08  0.3994328E+04  0.7818609E-02  0.8005692E-01
        1   -1    0    0  501    0  0.00000000000E+00  0.00000000000E+00  0.22300856788E+04  0.22300856788E+04  0.50400001928E-02 0.  1.
       -1   -1    0    0    0  501  0.00000000000E+00  0.00000000000E+00 -0.17885694840E+04  0.17885694840E+04  0.50400001928E-02 0. -1.
    10030    2    1    2    0    0  0.00000000000E+00  0.00000000000E+00  0.44151619482E+03  0.40186551629E+04  0.39943275739E+04 0.  0.
        2    1    3    3  502    0 -0.70415858468E+03 -0.52568818568E+03 -0.15836185920E+04  0.18110867527E+04  0.25500000920E-02 0. -1.
       -2    1    3    3    0  502  0.70415858468E+03  0.52568818568E+03  0.20251347868E+04  0.22075684102E+04  0.25500000920E-02 0.  1.
</event>
<event>
 5   0  0.1073271E-07  0.3983800E+04  0.7818609E-02  0.8007823E-01
       -2   -1    0    0    0  501  0.00000000000E+00  0.00000000000E+00  0.17274412225E+04  0.17274412225E+04  0.25500000920E-02 0. -1.
        2   -1    0    0  501    0  0.00000000000E+00  0.00000000000E+00 -0.22968450650E+04  0.22968450650E+04  0.25500000920E-02 0.  1.
    10030    2    1    2    0    0  0.00000000000E+00  0.00000000000E+00 -0.56940384245E+03  0.40242862875E+04  0.39837996170E+04 0.  0.
        1    1    3    3  502    0 -0.17539386777E+04  0.28528624120E+03  0.62443099938E+03  0.18835082154E+04  0.50400001928E-02 0. -1.
       -1    1    3    3    0  502  0.17539386777E+04 -0.28528624120E+03 -0.11938348418E+04  0.21407780721E+04  0.50400001928E-02 0.  1.
</event>
<event>
 5   0  0.3399500E-08  0.4004480E+04  0.7818609E-02  0.8003643E-01
        1   -1    0    0  501    0  0.00000000000E+00  0.00000000000E+00  0.19470176974E+04  0.19470176974E+04  0.50400001928E-02 0.  1.
       -1   -1    0    0    0  501  0.00000000000E+00  0.00000000000E+00 -0.20590287722E+04  0.20590287722E+04  0.50400001928E-02 0. -1.
    10030    2    1    2    0    0  0.00000000000E+00  0.00000000000E+00 -0.11201107483E+03  0.40060464696E+04  0.40044802204E+04 0.  0.
        5    1    3    3  502    0  0.14021988918E+04  0.13461983735E+04  0.42431929454E+03  0.19895931108E+04  0.46999998093E+01 0.  1.
       -5    1    3    3    0  502 -0.14021988918E+04 -0.13461983735E+04 -0.53633036936E+03  0.20164533587E+04  0.46999998093E+01 0. -1.
</event>
<event>
 5   0  0.1101474E-07  0.3954388E+04  0.7818609E-02  0.8013812E-01
        2   -1    0    0  501    0  0.00000000000E+00  0.00000000000E+00  0.23283119544E+04  0.23283119544E+04  0.25500000920E-02 0.  1.
       -2   -1    0    0    0  501  0.00000000000E+00  0.00000000000E+00 -0.16790261456E+04  0.16790261457E+04  0.25500000920E-02 0. -1.
    10030    2    1    2    0    0  0.00000000000E+00  0.00000000000E+00  0.64928580878E+03  0.40073381001E+04  0.39543882696E+04 0.  0.
        5    1    3    3  502    0  0.47912118357E+03  0.94557940890E+03 -0.13667161851E+04  0.17296279218E+04  0.46999998093E+01 0. -1.
       -5    1    3    3    0  502 -0.47912118357E+03 -0.94557940890E+03  0.20160019939E+04  0.22777101783E+04  0.46999998093E+01 0.  1.
</event>
<event>
 5   0  0.3399500E-08  0.4003947E+04  0.7818609E-02  0.8003751E-01
        1   -1    0    0  501    0  0.00000000000E+00  0.00000000000E+00  0.17680993974E+04  0.17680993974E+04  0.50400001928E-02 0.  1.
       -1   -1    0    0    0  501  0.00000000000E+00  0.00000000000E+00 -0.22667834617E+04  0.22667834617E+04  0.50400001928E-02 0. -1.
    10030    2    1    2    0    0  0.00000000000E+00  0.00000000000E+00 -0.49868406434E+03  0.40348828591E+04  0.40039472887E+04 0.  0.
        3    1    3    3  502    0 -0.30448667732E+03 -0.10613531469E+04 -0.19321893303E+04  0.22254299040E+04  0.10100000352E+00 0. -1.
       -3    1    3    3    0  502  0.30448667732E+03  0.10613531469E+04  0.14335052660E+04  0.18094529552E+04  0.10100000352E+00 0.  1.
</event>
<event>
 5   0  0.1087688E-07  0.4027952E+04  0.7818609E-02  0.7998931E-01
       -2   -1    0    0    0  501  0.00000000000E+00  0.00000000000E+00  0.16672904442E+04  0.16672904442E+04  0.25500000920E-02 0. -1.
        2   -1    0    0  501    0  0.00000000000E+00  0.00000000000E+00 -0.24327493947E+04  0.24327493947E+04  0.25500000920E-02 0.  1.
    10030    2    1    2    0    0  0.00000000000E+00  0.00000000000E+00 -0.76545895052E+03  0.41000398389E+04  0.40279522435E+04 0.  0.
        2    1    3    3  502    0 -0.14147589987E+04  0.52647162284E+03  0.97431614875E+03  0.17966656205E+04  0.25500000920E-02 0. -1.
       -2    1    3    3    0  502  0.14147589987E+04 -0.52647162284E+03 -0.17397750993E+04  0.23033742184E+04  0.25500000920E-02 0.  1.
</event>
<event>
 5   0  0.3399500E-08  0.4011545E+04  0.7818609E-02  0.8002222E-01
       -1   -1    0    0    0  501  0.00000000000E+00  0.00000000000E+00  0.14969805164E+04  0.14969805164E+04  0.50400001928E-02 0.  1.
        1   -1    0    0  501    0  0.00000000000E+00  0.00000000000E+00 -0.26874922050E+04  0.26874922050E+04  0.50400001928E-02 0. -1.
    10030    2    1    2    0    0  0.00000000000E+00  0.00000000000E+00 -0.11905116886E+04  0.41844727215E+04  0.40115450734E+04 0.  0.
        4    1    3    3  502    0  0.87324372619E+03  0.12564725658E+04 -0.19480194555E+04  0.24771070477E+04  0.12699999809E+01 0. -1.
       -4    1    3    3    0  502 -0.87324372619E+03 -0.12564725658E+04  0.75750776690E+03  0.17073656737E+04  0.12699999809E+01 0.  1.
</event>
<event>
 5   0  0.3399500E-08  0.3991966E+04  0.7818609E-02  0.8006169E-01
        3   -1    0    0  501    0  0.00000000000E+00  0.00000000000E+00  0.14223548061E+04  0.14223548097E+04  0.10100000352E+00 0.  1.
       -3   -1    0    0    0  501  0.00000000000E+00  0.00000000000E+00 -0.28009517502E+04  0.28009517520E+04  0.10100000352E+00 0. -1.
    10030    2    1    2    0    0  0.00000000000E+00  0.00000000000E+00 -0.13785969441E+04  0.42233065617E+04  0.39919655284E+04 0.  0.
        2    1    3    3  502    0  0.12090238794E+04 -0.10819186790E+04 -0.19192829310E+04  0.25131521519E+04  0.25500000920E-02 0. -1.
       -2    1    3    3    0  502 -0.12090238794E+04  0.10819186790E+04  0.54068598691E+03  0.17101544098E+04  0.25500000920E-02 0.  1.
</event>
<event>
 5   0  0.3399500E-08  0.3980246E+04  0.7818609E-02  0.8008543E-01
       -1   -1    0    0    0  501  0.00000000000E+00  0.00000000000E+00  0.15748101324E+04  0.15748101324E+04  0.50400001928E-02 0.  1.
        1   -1    0    0  501    0  0.00000000000E+00  0.00000000000E+00 -0.25149636208E+04  0.25149636208E+04  0.50400001928E-02 0. -1.
    10030    2    1    2    0    0  0.00000000000E+00  0.00000000000E+00 -0.94015348844E+03  0.40897737532E+04  0.39802463204E+04 0.  0.
        3    1    3    3  502    0  0.16903301212E+04 -0.24193387602E+02  0.60895826512E+03  0.17968392854E+04  0.10100000352E+00 0.  1.
       -3    1    3    3    0  502 -0.16903301212E+04  0.24193387602E+02 -0.15491117536E+04  0.22929344678E+04  0.10100000352E+00 0. -1.
</event>
<event>
 5   0  0.3399500E-08  0.4003835E+04  0.7818609E-02  0.8003773E-01
        1   -1    0    0  501    0  0.00000000000E+00  0.00000000000E+00  0.12513056365E+04  0.12513056365E+04  0.50400001928E-02 0. -1.
       -1   -1    0    0    0  501  0.00000000000E+00  0.00000000000E+00 -0.32027934445E+04  0.32027934445E+04  0.50400001928E-02 0.  1.
    10030    2    1    2    0    0  0.00000000000E+00  0.00000000000E+00 -0.19514878081E+04  0.44540990810E+04  0.40038349065E+04 0.  0.
        2    1    3    3  502    0 -0.18903127625E+03  0.55918535299E+03  0.11522966287E+04  0.12946847504E+04  0.25500000920E-02 0. -1.
       -2    1    3    3    0  502  0.18903127625E+03 -0.55918535299E+03 -0.31037844368E+04  0.31594143306E+04  0.25500000920E-02 0.  1.
</event>
<event>
 5   0  0.1095903E-07  0.3905665E+04  0.7818609E-02  0.8023852E-01
       -2   -1    0    0    0  501  0.00000000000E+00  0.00000000000E+00  0.26473584910E+04  0.26473584910E+04  0.25500000920E-02 0. -1.
        2   -1    0    0  501    0  0.00000000000E+00  0.00000000000E+00 -0.14405130966E+04  0.14405130966E+04  0.25500000920E-02 0.  1.
    10030    2    1    2    0    0  0.00000000000E+00  0.00000000000E+00  0.12068453944E+04  0.40878715876E+04  0.39056649000E+04 0.  0.
        3    1    3    3  502    0 -0.68637935456E+03 -0.13578152721E+04  0.18847809736E+04  0.24222258896E+04  0.10100000352E+00 0. -1.
       -3    1    3    3    0  502  0.68637935456E+03  0.13578152721E+04 -0.67793557916E+03  0.16656456980E+04  0.10100000352E+00 0.  1.
</event>
<event>
 5   0  0.1073271E-07  0.3965282E+04  0.7818609E-02  0.8011587E-01
       -2   -1    0    0    0  501  0.00000000000E+00  0.00000000000E+00  0.16934413385E+04  0.16934413385E+04  0.25500000920E-02 0.  1.
        2   -1    0    0  501    0  0.00000000000E+00  0.00000000000E+00 -0.23212288067E+04  0.23212288067E+04  0.25500000920E-02 0. -1.
    10030    2    1    2    0    0  0.00000000000E+00  0.00000000000E+00 -0.62778746820E+03  0.40146701451E+04  0.39652817389E+04 0.  0.
        1    1    3    3  502    0 -0.30789938264E+03  0.15904717801E+04 -0.14711359284E+04  0.21882969252E+04  0.50400001928E-02 0. -1.
       -1    1    3    3    0  502  0.30789938264E+03 -0.15904717801E+04  0.84334846021E+03  0.18263732199E+04  0.50400001928E-02 0.  1.
</event>
<event>
 5   0  0.3399500E-08  0.4017912E+04  0.7818609E-02  0.8000943E-01
       -1   -1    0    0    0  501  0.00000000000E+00  0.00000000000E+00  0.15595162911E+04  0.15595162911E+04  0.50400001928E-02 0. -1.
        1   -1    0    0  501    0  0.00000000000E+00  0.00000000000E+00 -0.25879208946E+04  0.25879208946E+04  0.50400001928E-02 0.  1.
    10030    2    1    2    0    0  0.00000000000E+00  0.00000000000E+00 -0.10284046036E+04  0.41474371857E+04  0.40179122914E+04 0.  0.
        2    1    3    3  502    0 -0.55712892868E+03  0.14888175680E+02 -0.25065238732E+04  0.25677375699E+04  0.25500000920E-02 0.  1.
       -2    1    3    3    0  502  0.55712892868E+03 -0.14888175680E+02  0.14781192697E+04  0.15796996158E+04  0.25500000920E-02 0. -1.
</event>
<event>
 5   0  0.3399500E-08  0.3748951E+04  0.7818609E-02  0.8057199E-01
        1   -1    0    0  501    0  0.00000000000E+00  0.00000000000E+00  0.20978027615E+04  0.20978027615E+04  0.50400001928E-02 0. -1.
       -1   -1    0    0    0  501  0.00000000000E+00  0.00000000000E+00 -0.16749234146E+04  0.16749234146E+04  0.50400001928E-02 0.  1.
    10030    2    1    2    0    0  0.00000000000E+00  0.00000000000E+00  0.42287934695E+03  0.37727261761E+04  0.37489513011E+04 0.  0.
        4    1    3    3  502    0  0.73018101095E+03  0.56763604969E+03 -0.14293240328E+04  0.17024522893E+04  0.12699999809E+01 0.  1.
       -4    1    3    3    0  502 -0.73018101095E+03 -0.56763604969E+03  0.18522033797E+04  0.20702738868E+04  0.12699999809E+01 0. -1.
</event>
<event>
 5   0  0.3399500E-08  0.4004596E+04  0.7818609E-02  0.8003620E-01
        1   -1    0    0  501    0  0.00000000000E+00  0.00000000000E+00  0.28071003347E+04  0.28071003347E+04  0.50400001928E-02 0. -1.
       -1   -1    0    0    0  501  0.00000000000E+00  0.00000000000E+00 -0.14282346430E+04  0.14282346430E+04  0.50400001928E-02 0.  1.
    10030    2    1    2    0    0  0.00000000000E+00  0.00000000000E+00  0.13788656917E+04  0.42353349777E+04  0.40045963314E+04 0.  0.
        3    1    3    3  502    0  0.49270784832E+03  0.10404109350E+04 -0.10432489753E+04  0.15535714893E+04  0.10100000352E+00 0.  1.
       -3    1    3    3    0  502 -0.49270784832E+03 -0.10404109350E+04  0.24221146671E+04  0.26817634885E+04  0.10100000352E+00 0. -1.
</event>
<event>
 5   0  0.3399500E-08  0.4004925E+04  0.7818609E-02  0.8003554E-01
       -1   -1    0    0    0  501  0.00000000000E+00  0.00000000000E+00  0.19152392336E+04  0.19152392336E+04  0.50400001928E-02 0.  1.
        1   -1    0    0  501    0  0.00000000000E+00  0.00000000000E+00 -0.20936578937E+04  0.20936578937E+04  0.50400001928E-02 0. -1.
    10030    2    1    2    0    0  0.00000000000E+00  0.00000000000E+00 -0.17841866013E+03  0.40088971273E+04  0.40049248381E+04 0.  0.
        4    1    3    3  502    0 -0.84759986817E+03 -0.94108004058E+02  0.17243747317E+04  0.19237337865E+04  0.12699999809E+01 0.  1.
       -4    1    3    3    0  502  0.84759986817E+03  0.94108004058E+02 -0.19027933919E+04  0.20851633408E+04  0.12699999809E+01 0. -1.
</event>
<event>
 5   0  0.1087688E-07  0.3888729E+04  0.7818609E-02  0.8027377E-01
        2   -1    0    0  501    0  0.00000000000E+00  0.00000000000E+00  0.14343951617E+04  0.14343951617E+04  0.25500000920E-02 0.  1.
       -2   -1    0    0    0  501  0.00000000000E+00  0.00000000000E+00 -0.26356428485E+04  0.26356428485E+04  0.25500000920E-02 0. -1.
    10030    2    1    2    0    0  0.00000000000E+00  0.00000000000E+00 -0.12012476867E+04  0.40700380102E+04  0.38887290211E+04 0.  0.
        2    1    3    3  502    0 -0.50486703025E+03 -0.28054384895E+03 -0.25437847563E+04  0.26085314749E+04  0.25500000920E-02 0. -1.
       -2    1    3    3    0  502  0.50486703025E+03  0.28054384895E+03  0.13425370696E+04  0.14615065352E+04  0.25500000920E-02 0.  1.
</event>
<event>
 5   0  0.1073271E-07  0.3991742E+04  0.7818609E-02  0.8006214E-01
        2   -1    0    0  501    0  0.00000000000E+00  0.00000000000E+00  0.24591731828E+04  0.24591731828E+04  0.25500000920E-02 0. -1.
       -2   -1    0    0    0  501  0.00000000000E+00  0.00000000000E+00 -0.16198541512E+04  0.16198541512E+04  0.25500000920E-02 0.  1.
    10030    2    1    2    0    0  0.00000000000E+00  0.00000000000E+00  0.83931903165E+03  0.40790273340E+04  0.39917424209E+04 0.  0.
        1    1    3    3  502    0 -0.11437989116E+04  0.16283934125E+04  0.57651128554E+03  0.20717881934E+04  0.50400001928E-02 0. -1.
       -1    1    3    3    0  502  0.11437989116E+04 -0.16283934125E+04  0.26280774610E+03  0.20072391406E+04  0.50400001928E-02 0.  1.
</event>
<event>
 5   0  0.3399500E-08  0.3873590E+04  0.7818609E-02  0.8030545E-01
        1   -1    0    0  501    0  0.00000000000E+00  0.00000000000E+00  0.31103948252E+04  0.31103948252E+04  0.50400001928E-02 0.  1.
       -1   -1    0    0    0  501  0.00000000000E+00  0.00000000000E+00 -0.12060123342E+04  0.12060123342E+04  0.50400001928E-02 0. -1.
    10030    2    1    2    0    0  0.00000000000E+00  0.00000000000E+00  0.19043824910E+04  0.43164071595E+04  0.38735898201E+04 0.  0.
        1    1    3    3  502    0 -0.62857884610E+03 -0.85493910617E+03  0.27576401289E+04  0.29547607892E+04  0.50400001928E-02 0.  1.
       -1    1    3    3    0  502  0.62857884610E+03  0.85493910617E+03 -0.85325763789E+03  0.13616463703E+04  0.50400001928E-02 0. -1.
</event>
<event>
 5   0  0.1087688E-07  0.3986831E+04  0.7818609E-02  0.8007208E-01
        2   -1    0    0  501    0  0.00000000000E+00  0.00000000000E+00  0.28906093109E+04  0.28906093109E+04  0.25500000920E-02 0. -1.
       -2   -1    0    0    0  501  0.00000000000E+00  0.00000000000E+00 -0.13746949171E+04  0.13746949171E+04  0.25500000920E-02 0.  1.
    10030    2    1    2    0    0  0.00000000000E+00  0.00000000000E+00  0.15159143938E+04  0.42653042281E+04  0.39868312867E+04 0.  0.
        2    1    3    3  502    0  0.67795373329E+03  0.13188479049E+04 -0.66728172066E+03  0.16261137584E+04  0.25500000920E-02 0.  1.
       -2    1    3    3    0  502 -0.67795373329E+03 -0.13188479049E+04  0.21831961145E+04  0.26391904696E+04  0.25500000920E-02 0. -1.
</event>
<event>
 5   0  0.3399500E-08  0.4008887E+04  0.7818609E-02  0.8002756E-01
        1   -1    0    0  501    0  0.00000000000E+00  0.00000000000E+00  0.17275909718E+04  0.17275909719E+04  0.50400001928E-02 0. -1.
       -1   -1    0    0    0  501  0.00000000000E+00  0.00000000000E+00 -0.23256628878E+04  0.23256628878E+04  0.50400001928E-02 0.  1.
    10030    2    1    2    0    0  0.00000000000E+00  0.00000000000E+00 -0.59807191599E+03  0.40532538597E+04  0.40088872314E+04 0.  0.
        3    1    3    3  502    0 -0.13308050914E+04  0.68908810855E+03 -0.16448986173E+04  0.22252137165E+04  0.10100000352E+00 0.  1.
       -3    1    3    3    0  502  0.13308050914E+04 -0.68908810855E+03  0.10468267013E+04  0.18280401432E+04  0.10100000352E+00 0. -1.
</event>
<event>
 5   0  0.1073271E-07  0.4012092E+04  0.7818609E-02  0.8002112E-01
       -2   -1    0    0    0  501  0.00000000000E+00  0.00000000000E+00  0.19137867345E+04  0.19137867345E+04  0.25500000920E-02 0. -1.
        2   -1    0    0  501    0  0.00000000000E+00  0.00000000000E+00 -0.21027532687E+04  0.21027532687E+04  0.25500000920E-02 0.  1.
    10030    2    1    2    0    0  0.00000000000E+00  0.00000000000E+00 -0.18896653423E+03  0.40165400032E+04  0.40120923776E+04 0.  0.
        1    1    3    3  502    0  0.71665408433E+03 -0.14032439342E+04  0.11484786562E+04  0.19497922554E+04  0.50400001928E-02 0. -1.
       -1    1    3    3    0  502 -0.71665408433E+03  0.14032439342E+04 -0.13374451905E+04  0.20667477478E+04  0.50400001928E-02 0.  1.
</event>
<event>
 5   0  0.3399500E-08  0.3802861E+04  0.7818609E-02  0.8045541E-01
        1   -1    0    0  501    0  0.00000000000E+00  0.00000000000E+00  0.28390286416E+04  0.28390286416E+04  0.50400001928E-02 0. -1.
       -1   -1    0    0    0  501  0.00000000000E+00  0.00000000000E+00 -0.12734768254E+04  0.12734768255E+04  0.50400001928E-02 0.  1.
    10030    2    1    2    0    0  0.00000000000E+00  0.00000000000E+00  0.15655518162E+04  0.41125054671E+04  0.38028605980E+04 0.  0.
        3    1    3    3  502    0 -0.78121530912E+03 -0.94381496512E+03 -0.78970305283E+03  0.14576402058E+04  0.10100000352E+00 0.  1.
       -3    1    3    3    0  502  0.78121530912E+03  0.94381496512E+03  0.23552548690E+04  0.26548652613E+04  0.10100000352E+00 0. -1.
</event>
<event>
 5   0  0.1101474E-07  0.3979240E+04  0.7818609E-02  0.8008748E-01
        2   -1    0    0  501    0  0.00000000000E+00  0.00000000000E+00  0.24533474162E+04  0.24533474162E+04  0.25500000920E-02 0.  1.
       -2   -1    0    0    0  501  0.00000000000E+00  0.00000000000E+00 -0.16135456057E+04  0.16135456057E+04  0.25500000920E-02 0. -1.
    10030    2    1    2    0    0  0.00000000000E+00  0.00000000000E+00  0.83980181047E+03  0.40668930219E+04  0.39792400997E+04 0.  0.
        5    1    3    3  502    0 -0.99160916713E+03 -0.15990930486E+04  0.10808126540E+04  0.21699229022E+04  0.46999998093E+01 0. -1.
       -5    1    3    3    0  502  0.99160916713E+03  0.15990930486E+04 -0.24101084352E+03  0.18969701197E+04  0.46999998093E+01 0.  1.
</event>
<event>
 5   0  0.1073271E-07  0.3757422E+04  0.7818609E-02  0.8055354E-01
       -2   -1    0    0    0  501  0.00000000000E+00  0.00000000000E+00  0.15381135818E+04  0.15381135818E+04  0.25500000920E-02 0.  1.
        2   -1    0    0  501    0  0.00000000000E+00  0.00000000000E+00 -0.22947293424E+04  0.22947293424E+04  0.25500000920E-02 0. -1.
    10030    2    1    2    0    0  0.00000000000E+00  0.00000000000E+00 -0.75661576059E+03  0.38328429243E+04  0.37574216523E+04 0.  0.
        1    1    3    3  502    0 -0.16105675290E+04 -0.42981970122E+03 -0.12622357494E+04  0.20909117218E+04  0.50400001928E-02 0. -1.
       -1    1    3    3    0  502  0.16105675290E+04  0.42981970122E+03  0.50561998883E+03  0.17419312025E+04  0.50400001928E-02 0.  1.
</event>
<event>
 5   0  0.3399500E-08  0.3963541E+04  0.7818609E-02  0.8011942E-01
       -1   -1    0    0    0  501  0.00000000000E+00  0.00000000000E+00  0.15307827945E+04  0.15307827945E+04  0.50400001928E-02 0.  1.
        1   -1    0    0  501    0  0.00000000000E+00  0.00000000000E+00 -0.25656242503E+04  0.25656242503E+04  0.50400001928E-02 0. -1.
    10030    2    1    2    0    0  0.00000000000E+00  0.00000000000E+00 -0.10348414558E+04  0.40964070448E+04  0.39635405685E+04 0.  0.
        2    1    3    3  502    0 -0.14559681504E+04 -0.46491043730E+03  0.78638642973E+03  0.17188334959E+04  0.25500000920E-02 0.  1.
       -2    1    3    3    0  502  0.14559681504E+04  0.46491043730E+03 -0.18212278855E+04  0.23775735490E+04  0.25500000920E-02 0. -1.
</event>
<event>
 5   0  0.1087688E-07  0.4065570E+04  0.7818609E-02  0.7991448E-01
        2   -1    0    0  501    0  0.00000000000E+00  0.00000000000E+00  0.28468531734E+04  0.28468531734E+04  0.25500000920E-02 0.  1.
       -2   -1    0    0    0  501  0.00000000000E+00  0.00000000000E+00 -0.14515028777E+04  0.14515028777E+04  0.25500000920E-02 0. -1.
    10030    2    1    2    0    0  0.00000000000E+00  0.00000000000E+00  0.13953502957E+04  0.42983560511E+04  0.40655703529E+04 0.  0.
        2    1    3    3  502    0  0.15767287514E+04 -0.50946744585E+03  0.19426315583E+04  0.25533209757E+04  0.25500000920E-02 0.  1.
       -2    1    3    3    0  502 -0.15767287514E+04  0.50946744585E+03 -0.54728126258E+03  0.17450350754E+04  0.25500000920E-02 0. -1.
</event>
<event>
 5   0  0.1073271E-07  0.4010577E+04  0.7818609E-02  0.8002416E-01
       -2   -1    0    0    0  501  0.00000000000E+00  0.00000000000E+00  0.26119556511E+04  0.26119556511E+04  0.25500000920E-02 0.  1.
        2   -1    0    0  501    0  0.00000000000E+00  0.00000000000E+00 -0.15395291618E+04  0.15395291618E+04  0.25500000920E-02 0. -1.
    10030    2    1    2    0    0  0.00000000000E+00  0.00000000000E+00  0.10724264893E+04  0.41514848129E+04  0.40105769631E+04 0.  0.
        1    1    3    3  502    0  0.70022153422E+03  0.54999079241E+03 -0.13236844045E+04  0.15952869559E+04  0.50400001928E-02 0. -1.
       -1    1    3    3    0  502 -0.70022153422E+03 -0.54999079241E+03  0.23961108938E+04  0.25561978570E+04  0.50400001928E-02 0.  1.
</event>
<event>
 5   0  0.3399500E-08  0.3979177E+04  0.7818609E-02  0.8008760E-01
       -1   -1    0    0    0  501  0.00000000000E+00  0.00000000000E+00  0.17864543946E+04  0.17864543947E+04  0.50400001928E-02 0. -1.
        1   -1    0    0  501    0  0.00000000000E+00  0.00000000000E+00 -0.22158209650E+04  0.22158209651E+04  0.50400001928E-02 0.  1.
    10030    2    1    2    0    0  0.00000000000E+00  0.00000000000E+00 -0.42936657040E+03  0.40022753597E+04  0.39791773526E+04 0.  0.
        2    1    3    3  502    0  0.69967050130E+03  0.87666196971E+03  0.14381412848E+04  0.18238216400E+04  0.25500000920E-02 0. -1.
       -2    1    3    3    0  502 -0.69967050130E+03 -0.87666196971E+03 -0.18675078552E+04  0.21784537197E+04  0.25500000920E-02 0.  1.
</event>
<event>
 5   0  0.3399500E-08  0.3995069E+04  0.7818609E-02  0.8005542E-01
        1   -1    0    0  501    0  0.00000000000E+00  0.00000000000E+00  0.15444100277E+04  0.15444100277E+04  0.50400001928E-02 0.  1.
       -1   -1    0    0    0  501  0.00000000000E+00  0.00000000000E+00 -0.25836038737E+04  0.25836038737E+04  0.50400001928E-02 0. -1.
    10030    2    1    2    0    0  0.00000000000E+00  0.00000000000E+00 -0.10391938461E+04  0.41280139014E+04  0.39950688255E+04 0.  0.
        4    1    3    3  502    0  0.53881962724E+03  0.17109038950E+04  0.38864346630E+03  0.18353648371E+04  0.12699999809E+01 0.  1.
       -4    1    3    3    0  502 -0.53881962724E+03 -0.17109038950E+04 -0.14278373124E+04  0.22926490643E+04  0.12699999809E+01 0. -1.
</event>
<event>
 5   0  0.1101474E-07  0.4005571E+04  0.7818609E-02  0.8003424E-01
        2   -1    0    0  501    0  0.00000000000E+00  0.00000000000E+00  0.23995352019E+04  0.23995352019E+04  0.25500000920E-02 0.  1.
       -2   -1    0    0    0  501  0.00000000000E+00  0.00000000000E+00 -0.16716358551E+04  0.16716358551E+04  0.25500000920E-02 0. -1.
    10030    2    1    2    0    0  0.00000000000E+00  0.00000000000E+00  0.72789934687E+03  0.40711710570E+04  0.40055706605E+04 0.  0.
        5    1    3    3  502    0  0.90945863345E+03 -0.73372420367E+03  0.20171368669E+04  0.23311648253E+04  0.46999998093E+01 0.  1.
       -5    1    3    3    0  502 -0.90945863345E+03  0.73372420367E+03 -0.12892375201E+04  0.17400062316E+04  0.46999998093E+01 0. -1.
</event>
<event>
 5   0  0.3399500E-08  0.3980519E+04  0.7818609E-02  0.8008488E-01
       -1   -1    0    0    0  501  0.00000000000E+00  0.00000000000E+00  0.27772512939E+04  0.27772512939E+04  0.50400001928E-02 0. -1.
        1   -1    0    0  501    0  0.00000000000E+00  0.00000000000E+00 -0.14262778276E+04  0.14262778277E+04  0.50400001928E-02 0.  1.
    10030    2    1    2    0    0  0.00000000000E+00  0.00000000000E+00  0.13509734663E+04  0.42035291216E+04  0.39805185302E+04 0.  0.
        5    1    3    3  502    0  0.18451468426E+04 -0.71988825128E+03  0.88216548813E+03  0.21681891069E+04  0.46999998093E+01 0.  1.
       -5    1    3    3    0  502 -0.18451468426E+04  0.71988825128E+03  0.46880797816E+03  0.20353400147E+04  0.46999998093E+01 0. -1.
</event>
<event>
 5   0  0.3399500E-08  0.3990789E+04  0.7818609E-02  0.8006407E-01
        1   -1    0    0  501    0  0.00000000000E+00  0.00000000000E+00  0.14500558004E+04  0.14500558004E+04  0.50400001928E-02 0.  1.
       -1   -1    0    0    0  501  0.00000000000E+00  0.00000000000E+00 -0.27458248605E+04  0.27458248605E+04  0.50400001928E-02 0. -1.
    10030    2    1    2    0    0  0.00000000000E+00  0.00000000000E+00 -0.12957690601E+04  0.41958806609E+04  0.39907890277E+04 0.  0.
        3    1    3    3  502    0  0.11654939355E+04  0.54509124927E+03  0.95565040007E+03  0.16027377456E+04  0.10100000352E+00 0.  1.
       -3    1    3    3    0  502 -0.11654939355E+04 -0.54509124927E+03 -0.22514194602E+04  0.25931429154E+04  0.10100000352E+00 0. -1.
</event>
<event>
 5   0  0.1095903E-07  0.3995613E+04  0.7818609E-02  0.8005432E-01
       -2   -1    0    0    0  501  0.00000000000E+00  0.00000000000E+00  0.18943979303E+04  0.18943979303E+04  0.25500000920E-02 0.  1.
        2   -1    0    0  501    0  0.00000000000E+00  0.00000000000E+00 -0.21068592828E+04  0.21068592828E+04  0.25500000920E-02 0. -1.
    10030    2    1    2    0    0  0.00000000000E+00  0.00000000000E+00 -0.21246135249E+03  0.40012572130E+04  0.39956125261E+04 0.  0.
        3    1    3    3  502    0  0.16780393670E+04 -0.79308839895E+03  0.63401895092E+03  0.19613223514E+04  0.10100000352E+00 0.  1.
       -3    1    3    3    0  502 -0.16780393670E+04  0.79308839895E+03 -0.84648030341E+03  0.20399348617E+04  0.10100000352E+00 0. -1.
</event>
<event>
 5   0  0.1101474E-07  0.4020960E+04  0.7818609E-02  0.8000332E-01
        2   -1    0    0  501    0  0.00000000000E+00  0.00000000000E+00  0.22542475499E+04  0.22542475499E+04  0.25500000920E-02 0. -1.
       -2   -1    0    0    0  501  0.00000000000E+00  0.00000000000E+00 -0.17930726967E+04  0.17930726968E+04  0.25500000920E-02 0.  1.
    10030    2    1    2    0    0  0.00000000000E+00  0.00000000000E+00  0.46117485312E+03  0.40473202466E+04  0.40209599517E+04 0.  0.
        5    1    3    3  502    0  0.11653775627E+03  0.19943380866E+04  0.45799371822E+03  0.20495720988E+04  0.46999998093E+01 0. -1.
       -5    1    3    3    0  502 -0.11653775627E+03 -0.19943380866E+04  0.31811348981E+01  0.19977481478E+04  0.46999998093E+01 0.  1.
</event>
<event>
 5   0  0.3399500E-08  0.3962097E+04  0.7818609E-02  0.8012237E-01
        1   -1    0    0  501    0  0.00000000000E+00  0.00000000000E+00  0.17389744205E+04  0.17389744205E+04  0.50400001928E-02 0. -1.
       -1   -1    0    0    0  501  0.00000000000E+00  0.00000000000E+00 -0.22568208184E+04  0.22568208184E+04  0.50400001928E-02 0.  1.
    10030    2    1    2    0    0  0.00000000000E+00  0.00000000000E+00 -0.51784639792E+03  0.39957952388E+04  0.39620972602E+04 0.  0.
        5    1    3    3  502    0  0.15119528127E+04  0.16198714233E+03  0.10216362133E+04  0.18319398965E+04  0.46999998093E+01 0. -1.
       -5    1    3    3    0  502 -0.15119528127E+04 -0.16198714233E+03 -0.15394826112E+04  0.21638553423E+04  0.46999998093E+01 0.  1.
</event>
<event>
 5   0  0.3399500E-08  0.4003760E+04  0.7818609E-02  0.8003788E-01
       -1   -1    0    0    0  501  0.00000000000E+00  0.00000000000E+00  0.18423036848E+04  0.18423036848E+04  0.50400001928E-02 0.  1.
        1   -1    0    0  501    0  0.00000000000E+00  0.00000000000E+00 -0.21752787422E+04  0.21752787423E+04  0.50400001928E-02 0. -1.
    10030    2    1    2    0    0  0.00000000000E+00  0.00000000000E+00 -0.33297505742E+03  0.40175824271E+04  0.40037602538E+04 0.  0.
        2    1    3    3  502    0  0.69369137046E+03 -0.11943607297E+04  0.12875902542E+04  0.18882780338E+04  0.25500000920E-02 0.  1.
       -2    1    3    3    0  502 -0.69369137046E+03  0.11943607297E+04 -0.16205653117E+04  0.21293043933E+04  0.25500000920E-02 0. -1.
</event>
<event>
 5   0  0.1095109E-07  0.4109403E+04  0.7818609E-02  0.7982833E-01
       -2   -1    0    0    0  501  0.00000000000E+00  0.00000000000E+00  0.14044986953E+04  0.14044986953E+04  0.25500000920E-02 0. -1.
        2   -1    0    0  501    0  0.00000000000E+00  0.00000000000E+00 -0.30059109140E+04  0.30059109140E+04  0.25500000920E-02 0.  1.
    10030    2    1    2    0    0  0.00000000000E+00  0.00000000000E+00 -0.16014122186E+04  0.44104096093E+04  0.41094028554E+04 0.  0.
        4    1    3    3  502    0  0.15839597291E+04  0.83443826872E+03  0.28140320860E+03  0.18122927540E+04  0.12699999809E+01 0. -1.
       -4    1    3    3    0  502 -0.15839597291E+04 -0.83443826872E+03 -0.18828154272E+04  0.25981168553E+04  0.12699999809E+01 0.  1.
</event>
<event>
 5   0  0.1101474E-07  0.3986446E+04  0.7818609E-02  0.8007286E-01
       -2   -1    0    0    0  501  0.00000000000E+00  0.00000000000E+00  0.14161921155E+04  0.14161921155E+04  0.25500000920E-02 0. -1.
        2   -1    0    0  501    0  0.00000000000E+00  0.00000000000E+00 -0.28053670074E+04  0.28053670074E+04  0.25500000920E-02 0.  1.
    10030    2    1    2    0    0  0.00000000000E+00  0.00000000000E+00 -0.13891748919E+04  0.42215591229E+04  0.39864463558E+04 0.  0.
        5    1    3    3  502    0 -0.13987167878E+04 -0.81849503656E+03 -0.19234463676E+04  0.25151562170E+04  0.46999998093E+01 0.  1.
       -5    1    3    3    0  502  0.13987167878E+04  0.81849503656E+03  0.53427147571E+03  0.17064029058E+04  0.46999998093E+01 0. -1.
</event>
<event>
 5   0  0.3399500E-08  0.3994760E+04  0.7818609E-02  0.8005604E-01
       -1   -1    0    0    0  501  0.00000000000E+00  0.00000000000E+00  0.16448996881E+04  0.16448996881E+04  0.50400001928E-02 0. -1.
        1   -1    0    0  501    0  0.00000000000E+00  0.00000000000E+00 -0.24253926053E+04  0.24253926053E+04  0.50400001928E-02 0.  1.
    10030    2    1    2    0    0  0.00000000000E+00  0.00000000000E+00 -0.78049291715E+03  0.40702922934E+04  0.39947603383E+04 0.  0.
        1    1    3    3  502    0  0.16326301070E+04  0.20045106116E+03  0.76425554540E+03  0.18137663116E+04  0.50400001928E-02 0. -1.
       -1    1    3    3    0  502 -0.16326301070E+04 -0.20045106116E+03 -0.15447484625E+04  0.22565259819E+04  0.50400001928E-02 0.  1.
</event>
<event>
 5   0  0.1087688E-07  0.4441378E+04  0.7818609E-02  0.7920981E-01
        2   -1    0    0  501    0  0.00000000000E+00  0.00000000000E+00  0.27769756926E+04  0.27769756926E+04  0.25500000920E-02 0. -1.
       -2   -1    0    0    0  501  0.00000000000E+00  0.00000000000E+00 -0.17758379425E+04  0.17758379425E+04  0.25500000920E-02 0.  1.
    10030    2    1    2    0    0  0.00000000000E+00  0.00000000000E+00  0.10011377501E+04  0.45528136351E+04  0.44413776243E+04 0.  0.
        2    1    3    3  502    0  0.34788642859E+01 -0.45850044193E+02  0.27764876434E+04  0.27768683734E+04  0.25500000920E-02 0. -1.
       -2    1    3    3    0  502 -0.34788642859E+01  0.45850044193E+02 -0.17753498933E+04  0.17759452617E+04  0.25500000920E-02 0.  1.
</event>
<event>
 5   0  0.3399500E-08  0.4020441E+04  0.7818609E-02  0.8000436E-01
       -1   -1    0    0    0  501  0.00000000000E+00  0.00000000000E+00  0.13912343250E+04  0.13912343250E+04  0.50400001928E-02 0. -1.
        1   -1    0    0  501    0  0.00000000000E+00  0.00000000000E+00 -0.29046057356E+04  0.29046057356E+04  0.50400001928E-02 0.  1.
    10030    2    1    2    0    0  0.00000000000E+00  0.00000000000E+00 -0.15133714106E+04  0.42958400607E+04  0.40204413689E+04 0.  0.
        2    1    3    3  502    0 -0.38548298333E+03  0.12972905598E+04  0.83154733298E+03  0.15884051416E+04  0.25500000920E-02 0. -1.
       -2    1    3    3    0  502  0.38548298333E+03 -0.12972905598E+04 -0.23449187435E+04  0.27074349190E+04  0.25500000920E-02 0.  1.
</event>
<event>
 5   0  0.1073271E-07  0.4022963E+04  0.7818609E-02  0.7999930E-01
       -2   -1    0    0    0  501  0.00000000000E+00  0.00000000000E+00  0.31225192323E+04  0.31225192323E+04  0.25500000920E-02 0.  1.
        2   -1    0    0  501    0  0.00000000000E+00  0.00000000000E+00 -0.12957669280E+04  0.12957669280E+04  0.25500000920E-02 0. -1.
    10030    2    1    2    0    0  0.00000000000E+00  0.00000000000E+00  0.18267523043E+04  0.44182861603E+04  0.40229626661E+04 0.  0.
        1    1    3    3  502    0  0.17388130704E+04  0.27156795870E+03 -0.15642649386E+03  0.17668302969E+04  0.50400001928E-02 0. -1.
       -1    1    3    3    0  502 -0.17388130704E+04 -0.27156795870E+03  0.19831787981E+04  0.26514558634E+04  0.50400001928E-02 0.  1.
</event>
<event>
 5   0  0.3399500E-08  0.3985674E+04  0.7818609E-02  0.8007443E-01
       -1   -1    0    0    0  501  0.00000000000E+00  0.00000000000E+00  0.11847950207E+04  0.11847950207E+04  0.50400001928E-02 0. -1.
        1   -1    0    0  501    0  0.00000000000E+00  0.00000000000E+00 -0.33519724435E+04  0.33519724435E+04  0.50400001928E-02 0.  1.
    10030    2    1    2    0    0  0.00000000000E+00  0.00000000000E+00 -0.21671774228E+04  0.45367674642E+04  0.39856744777E+04 0.  0.
        3    1    3    3  502    0 -0.50921284241E+03  0.12483153568E+04  0.58691913474E+03  0.14703955351E+04  0.10100000352E+00 0. -1.
       -3    1    3    3    0  502  0.50921284241E+03 -0.12483153568E+04 -0.27540965575E+04  0.30663719290E+04  0.10100000352E+00 0.  1.
</event>
<event>
 5   0  0.3399500E-08  0.4009676E+04  0.7818609E-02  0.8002597E-01
       -1   -1    0    0    0  501  0.00000000000E+00  0.00000000000E+00  0.20802054880E+04  0.20802054880E+04  0.50400001928E-02 0. -1.
        1   -1    0    0  501    0  0.00000000000E+00  0.00000000000E+00 -0.19322014650E+04  0.19322014650E+04  0.50400001928E-02 0.  1.
    10030    2    1    2    0    0  0.00000000000E+00  0.00000000000E+00  0.14800402303E+03  0.40124069530E+04  0.40096763417E+04 0.  0.
        3    1    3    3  502    0  0.38484016673E+03 -0.19349586803E+04 -0.28290463176E+03  0.19930384063E+04  0.10100000352E+00 0.  1.
       -3    1    3    3    0  502 -0.38484016673E+03  0.19349586803E+04  0.43090865479E+03  0.20193685466E+04  0.10100000352E+00 0. -1.
</event>
<event>
 5   0  0.1095109E-07  0.4004949E+04  0.7818609E-02  0.8003549E-01
       -2   -1    0    0    0  501  0.00000000000E+00  0.00000000000E+00  0.35040741521E+04  0.35040741521E+04  0.25500000920E-02 0. -1.
        2   -1    0    0  501    0  0.00000000000E+00  0.00000000000E+00 -0.11443550677E+04  0.11443550677E+04  0.25500000920E-02 0.  1.
    10030    2    1    2    0    0  0.00000000000E+00  0.00000000000E+00  0.23597190844E+04  0.46484292198E+04  0.40049494447E+04 0.  0.
        4    1    3    3  502    0  0.59128847270E+03  0.17443156272E+04  0.20920350679E+04  0.27872695247E+04  0.12699999809E+01 0. -1.
       -4    1    3    3    0  502 -0.59128847270E+03 -0.17443156272E+04  0.26768401647E+03  0.18611596951E+04  0.12699999809E+01 0.  1.
</event>
<event>
 5   0  0.1073271E-07  0.3966095E+04  0.7818609E-02  0.8011421E-01
       -2   -1    0    0    0  501  0.00000000000E+00  0.00000000000E+00  0.17317242952E+04  0.17317242952E+04  0.25500000920E-02 0.  1.
        2   -1    0    0  501    0  0.00000000000E+00  0.00000000000E+00 -0.22708454373E+04  0.22708454373E+04  0.25500000920E-02 0. -1.
    10030    2    1    2    0    0  0.00000000000E+00  0.00000000000E+00 -0.53912114209E+03  0.40025697325E+04  0.39660954172E+04 0.  0.
        1    1    3    3  502    0  0.78594732302E+03 -0.63420016194E+03  0.14527554015E+04  0.17692996627E+04  0.50400001928E-02 0.  1.
       -1    1    3    3    0  502 -0.78594732302E+03  0.63420016194E+03 -0.19918765436E+04  0.22332700698E+04  0.50400001928E-02 0. -1.
</event>
<event>
 5   0  0.3399500E-08  0.4015345E+04  0.7818609E-02  0.8001458E-01
        1   -1    0    0  501    0  0.00000000000E+00  0.00000000000E+00  0.25359491942E+04  0.25359491942E+04  0.50400001928E-02 0. -1.
       -1   -1    0    0    0  501  0.00000000000E+00  0.00000000000E+00 -0.15894435624E+04  0.15894435625E+04  0.50400001928E-02 0.  1.
    10030    2    1    2    0    0  0.00000000000E+00  0.00000000000E+00  0.94650563175E+03  0.41253927567E+04  0.40153446285E+04 0.  0.
        2    1    3    3  502    0 -0.37772718520E+03 -0.77665497768E+03 -0.13888431302E+04  0.16354681352E+04  0.25500000920E-02 0.  1.
       -2    1    3    3    0  502  0.37772718520E+03  0.77665497768E+03  0.23353487620E+04  0.24899246215E+04  0.25500000920E-02 0. -1.
</event>
<event>
 5   0  0.3399500E-08  0.3998723E+04  0.7818609E-02  0.8004804E-01
        1   -1    0    0  501    0  0.00000000000E+00  0.00000000000E+00  0.25524837726E+04  0.25524837726E+04  0.50400001928E-02 0. -1.
       -1   -1    0    0    0  501  0.00000000000E+00  0.00000000000E+00 -0.15661006123E+04  0.15661006123E+04  0.50400001928E-02 0.  1.
    10030    2    1    2    0    0  0.00000000000E+00  0.00000000000E+00  0.98638316030E+03  0.41185843849E+04  0.39987229958E+04 0.  0.
        1    1    3    3  502    0 -0.13235885440E+04 -0.14848742205E+04  0.70100242603E+03  0.21090619919E+04  0.50400001928E-02 0. -1.
       -1    1    3    3    0  502  0.13235885440E+04  0.14848742205E+04  0.28538073427E+03  0.20095223930E+04  0.50400001928E-02 0.  1.
</event>
<event>
 5   0  0.3399500E-08  0.3901863E+04  0.7818609E-02  0.8024642E-01
       -1   -1    0    0    0  501  0.00000000000E+00  0.00000000000E+00  0.22390476224E+04  0.22390476225E+04  0.50400001928E-02 0. -1.
        1   -1    0    0  501    0  0.00000000000E+00  0.00000000000E+00 -0.16998894650E+04  0.16998894650E+04  0.50400001928E-02 0.  1.
    10030    2    1    2    0    0  0.00000000000E+00  0.00000000000E+00  0.53915815748E+03  0.39389370874E+04  0.39018628705E+04 0.  0.
        5    1    3    3  502    0  0.15910669569E+04  0.69903455977E+03  0.11645511313E+04  0.20919715114E+04  0.46999998093E+01 0. -1.
       -5    1    3    3    0  502 -0.15910669569E+04 -0.69903455977E+03 -0.62539297384E+03  0.18469655760E+04  0.46999998093E+01 0.  1.
</event>
<event>
 5   0  0.1087688E-07  0.3996936E+04  0.7818609E-02  0.8005165E-01
       -2   -1    0    0    0  501  0.00000000000E+00  0.00000000000E+00  0.20143123628E+04  0.20143123628E+04  0.25500000920E-02 0.  1.
        2   -1    0    0  501    0  0.00000000000E+00  0.00000000000E+00 -0.19827482218E+04  0.19827482218E+04  0.25500000920E-02 0. -1.
    10030    2    1    2    0    0  0.00000000000E+00  0.00000000000E+00  0.31564140972E+02  0.39970605847E+04  0.39969359543E+04 0.  0.
        2    1    3    3  502    0 -0.98941314280E+02  0.19929843367E+04  0.12577779872E+03  0.19993989108E+04  0.25500000920E-02 0.  1.
       -2    1    3    3    0  502  0.98941314280E+02 -0.19929843367E+04 -0.94213657748E+02  0.19976616739E+04  0.25500000920E-02 0. -1.
</event>
<event>
 5   0  0.3399500E-08  0.3991345E+04  0.7818609E-02  0.8006295E-01
        1   -1    0    0  501    0  0.00000000000E+00  0.00000000000E+00  0.19126977760E+04  0.19126977760E+04  0.50400001928E-02 0. -1.
       -1   -1    0    0    0  501  0.00000000000E+00  0.00000000000E+00 -0.20822472480E+04  0.20822472481E+04  0.50400001928E-02 0.  1.
    10030    2    1    2    0    0  0.00000000000E+00  0.00000000000E+00 -0.16954947202E+03  0.39949450241E+04  0.39913454777E+04 0.  0.
        4    1    3    3  502    0  0.33214520707E+03  0.43706161384E+03  0.18356439051E+04  0.19159680196E+04  0.12699999809E+01 0. -1.
       -4    1    3    3    0  502 -0.33214520707E+03 -0.43706161384E+03 -0.20051933771E+04  0.20789770045E+04  0.12699999809E+01 0.  1.
</event>
<event>
 5   0  0.1101474E-07  0.4024393E+04  0.7818609E-02  0.7999644E-01
       -2   -1    0    0    0  501  0.00000000000E+00  0.00000000000E+00  0.28678853357E+04  0.28678853357E+04  0.25500000920E-02 0. -1.
        2   -1    0    0  501    0  0.00000000000E+00  0.00000000000E+00 -0.14118187641E+04  0.14118187641E+04  0.25500000920E-02 0.  1.
    10030    2    1    2    0    0  0.00000000000E+00  0.00000000000E+00  0.14560665716E+04  0.42797040998E+04  0.40243927890E+04 0.  0.
        5    1    3    3  502    0 -0.29744676904E+03 -0.13933577396E+04 -0.78302308284E+03  0.16257513983E+04  0.46999998093E+01 0.  1.
       -5    1    3    3    0  502  0.29744676904E+03  0.13933577396E+04  0.22390896545E+04  0.26539527015E+04  0.46999998093E+01 0. -1.
</event>
<event>
 5   0  0.3399500E-08  0.3993062E+04  0.7818609E-02  0.8005948E-01
        1   -1    0    0  501    0  0.00000000000E+00  0.00000000000E+00  0.14388445393E+04  0.14388445393E+04  0.50400001928E-02 0. -1.
       -1   -1    0    0    0  501  0.00000000000E+00  0.00000000000E+00 -0.27703726349E+04  0.27703726349E+04  0.50400001928E-02 0.  1.
    10030    2    1    2    0    0  0.00000000000E+00  0.00000000000E+00 -0.13315280956E+04  0.42092171742E+04  0.39930617514E+04 0.  0.
        5    1    3    3  502    0  0.94619249654E+03  0.12356942058E+04  0.65248914001E+03  0.16875972797E+04  0.46999998093E+01 0. -1.
       -5    1    3    3    0  502 -0.94619249654E+03 -0.12356942058E+04 -0.19840172356E+04  0.25216198945E+04  0.46999998093E+01 0.  1.
</event>
<event>
 5   0  0.3399500E-08  0.3974702E+04  0.7818609E-02  0.8009669E-01
       -1   -1    0    0    0  501  0.00000000000E+00  0.00000000000E+00  0.16464552017E+04  0.16464552017E+04  0.50400001928E-02 0. -1.
        1   -1    0    0  501    0  0.00000000000E+00  0.00000000000E+00 -0.23988292775E+04  0.23988292775E+04  0.50400001928E-02 0.  1.
    10030    2    1    2    0    0  0.00000000000E+00  0.00000000000E+00 -0.75237407579E+03  0.40452844791E+04  0.39747024753E+04 0.  0.
        1    1    3    3  502    0 -0.13754312295E+04  0.14271698376E+04 -0.22891031082E+03  0.19952505464E+04  0.50400001928E-02 0. -1.
       -1    1    3    3    0  502  0.13754312295E+04 -0.14271698376E+04 -0.52346376497E+03  0.20500339328E+04  0.50400001928E-02 0.  1.
</event>
<event>
 5   0  0.1087688E-07  0.4047890E+04  0.7818609E-02  0.7994955E-01
        2   -1    0    0  501    0  0.00000000000E+00  0.00000000000E+00  0.23672975687E+04  0.23672975687E+04  0.25500000920E-02 0. -1.
       -2   -1    0    0    0  501  0.00000000000E+00  0.00000000000E+00 -0.17303922184E+04  0.17303922184E+04  0.25500000920E-02 0.  1.
    10030    2    1    2    0    0  0.00000000000E+00  0.00000000000E+00  0.63690535035E+03  0.40976897871E+04  0.40478899647E+04 0.  0.
        2    1    3    3  502    0  0.42043711506E+03  0.18565388779E+04  0.10145528818E+04  0.21570399911E+04  0.25500000920E-02 0.  1.
       -2    1    3    3    0  502 -0.42043711506E+03 -0.18565388779E+04 -0.37764753145E+03  0.19406497961E+04  0.25500000920E-02 0. -1.
</event>
<event>
 5   0  0.3399500E-08  0.3937952E+04  0.7818609E-02  0.8017182E-01
       -1   -1    0    0    0  501  0.00000000000E+00  0.00000000000E+00  0.16818931406E+04  0.16818931406E+04  0.50400001928E-02 0.  1.
        1   -1    0    0  501    0  0.00000000000E+00  0.00000000000E+00 -0.23050616912E+04  0.23050616912E+04  0.50400001928E-02 0. -1.
    10030    2    1    2    0    0  0.00000000000E+00  0.00000000000E+00 -0.62316855057E+03  0.39869548318E+04  0.39379524868E+04 0.  0.
        5    1    3    3  502    0 -0.14098325567E+04  0.65800772694E+03  0.91018112313E+03  0.18025131826E+04  0.46999998093E+01 0.  1.
       -5    1    3    3    0  502  0.14098325567E+04 -0.65800772694E+03 -0.15333496737E+04  0.21844416491E+04  0.46999998093E+01 0. -1.
</event>
<event>
 5   0  0.1073271E-07  0.4007064E+04  0.7818609E-02  0.8003123E-01
       -2   -1    0    0    0  501  0.00000000000E+00  0.00000000000E+00  0.23064338559E+04  0.23064338559E+04  0.25500000920E-02 0.  1.
        2   -1    0    0  501    0  0.00000000000E+00  0.00000000000E+00 -0.17404096364E+04  0.17404096364E+04  0.25500000920E-02 0. -1.
    10030    2    1    2    0    0  0.00000000000E+00  0.00000000000E+00  0.56602421952E+03  0.40468434923E+04  0.40070636174E+04 0.  0.
        1    1    3    3  502    0  0.57147081213E+02 -0.19150542712E+04  0.87486841386E+03  0.21062035496E+04  0.50400001928E-02 0.  1.
       -1    1    3    3    0  502 -0.57147081213E+02  0.19150542712E+04 -0.30884419434E+03  0.19406399427E+04  0.50400001928E-02 0. -1.
</event>
<event>
 5   0  0.3399500E-08  0.3986640E+04  0.7818609E-02  0.8007247E-01
       -1   -1    0    0    0  501  0.00000000000E+00  0.00000000000E+00  0.14675942689E+04  0.14675942689E+04  0.50400001928E-02 0. -1.
        1   -1    0    0  501    0  0.00000000000E+00  0.00000000000E+00 -0.27073723017E+04  0.27073723017E+04  0.50400001928E-02 0.  1.
    10030    2    1    2    0    0  0.00000000000E+00  0.00000000000E+00 -0.12397780328E+04  0.41749665706E+04  0.39866397247E+04 0.  0.
        1    1    3    3  502    0 -0.11078215643E+04 -0.16524221826E+04 -0.75050621545E+03  0.21262707417E+04  0.50400001928E-02 0. -1.
       -1    1    3    3    0  502  0.11078215643E+04  0.16524221826E+04 -0.48927181732E+03  0.20486958288E+04  0.50400001928E-02 0.  1.
</event>
<event>
 5   0  0.3399500E-08  0.4019030E+04  0.7818609E-02  0.8000719E-01
        1   -1    0    0  501    0  0.00000000000E+00  0.00000000000E+00  0.26702273336E+04  0.26702273336E+04  0.50400001928E-02 0. -1.
       -1   -1    0    0    0  501  0.00000000000E+00  0.00000000000E+00 -0.15122874255E+04  0.15122874255E+04  0.50400001928E-02 0.  1.
    10030    2    1    2    0    0  0.00000000000E+00  0.00000000000E+00  0.11579399081E+04  0.41825147592E+04  0.40190303407E+04 0.  0.
        2    1    3    3  502    0  0.12537510264E+04  0.15578878807E+04  0.78513166263E+03  0.21483337759E+04  0.25500000920E-02 0. -1.
       -2    1    3    3    0  502 -0.12537510264E+04 -0.15578878807E+04  0.37280824548E+03  0.20341809833E+04  0.25500000920E-02 0.  1.
</event>
<event>
 5   0  0.1095109E-07  0.4002064E+04  0.7818609E-02  0.8004130E-01
       -2   -1    0    0    0  501  0.00000000000E+00  0.00000000000E+00  0.28050034933E+04  0.28050034933E+04  0.25500000920E-02 0. -1.
        2   -1    0    0  501    0  0.00000000000E+00  0.00000000000E+00 -0.14274955057E+04  0.14274955057E+04  0.25500000920E-02 0.  1.
    10030    2    1    2    0    0  0.00000000000E+00  0.00000000000E+00  0.13775079876E+04  0.42324989990E+04  0.40020644073E+04 0.  0.
        4    1    3    3  502    0 -0.12618029531E+04  0.15332727711E+04  0.95007698462E+03  0.22012996099E+04  0.12699999809E+01 0. -1.
       -4    1    3    3    0  502  0.12618029531E+04 -0.15332727711E+04  0.42743100299E+03  0.20311993891E+04  0.12699999809E+01 0.  1.
</event>
<event>
 5   0  0.1087688E-07  0.4025823E+04  0.7818609E-02  0.7999357E-01
        2   -1    0    0  501    0  0.00000000000E+00  0.00000000000E+00  0.20904262073E+04  0.20904262073E+04  0.25500000920E-02 0.  1.
       -2   -1    0    0    0  501  0.00000000000E+00  0.00000000000E+00 -0.19382713668E+04  0.19382713668E+04  0.25500000920E-02 0. -1.
    10030    2    1    2    0    0  0.00000000000E+00  0.00000000000E+00  0.15215484058E+03  0.40286975741E+04  0.40258232758E+04 0.  0.
        2    1    3    3  502    0  0.16685667340E+04  0.67321627421E+03 -0.82705136224E+03  0.19802396455E+04  0.25500000920E-02 0. -1.
       -2    1    3    3    0  502 -0.16685667340E+04 -0.67321627421E+03  0.97920620282E+03  0.20484579286E+04  0.25500000920E-02 0.  1.
</event>
<event>
 5   0  0.1095109E-07  0.3975531E+04  0.7818609E-02  0.8009501E-01
        2   -1    0    0  501    0  0.00000000000E+00  0.00000000000E+00  0.12101030882E+04  0.12101030882E+04  0.25500000920E-02 0. -1.
       -2   -1    0    0    0  501  0.00000000000E+00  0.00000000000E+00 -0.32651863522E+04  0.32651863522E+04  0.25500000920E-02 0.  1.
    10030    2    1    2    0    0  0.00000000000E+00  0.00000000000E+00 -0.20550832640E+04  0.44752894404E+04  0.39755312039E+04 0.  0.
        4    1    3    3  502    0 -0.29606794970E+03  0.19273247980E+04 -0.14620321268E+04  0.24371657023E+04  0.12699999809E+01 0.  1.
       -4    1    3    3    0  502  0.29606794970E+03 -0.19273247980E+04 -0.59305113721E+03  0.20381237381E+04  0.12699999809E+01 0. -1.
</event>
<event>
 5   0  0.3399500E-08  0.3986942E+04  0.7818609E-02  0.8007186E-01
        1   -1    0    0  501    0  0.00000000000E+00  0.00000000000E+00  0.18229255068E+04  0.18229255069E+04  0.50400001928E-02 0.  1.
       -1   -1    0    0    0  501  0.00000000000E+00  0.00000000000E+00 -0.21799717694E+04  0.21799717694E+04  0.50400001928E-02 0. -1.
    10030    2    1    2    0    0  0.00000000000E+00  0.00000000000E+00 -0.35704626255E+03  0.40028972763E+04  0.39869417566E+04 0.  0.
        2    1    3    3  502    0  0.16100069111E+04 -0.85927879992E+03 -0.98388279681E+03  0.20732842709E+04  0.25500000920E-02 0. -1.
       -2    1    3    3    0  502 -0.16100069111E+04  0.85927879992E+03  0.62683653426E+03  0.19296130054E+04  0.25500000920E-02 0.  1.
</event>
<event>
 5   0  0.1073271E-07  0.3929901E+04  0.7818609E-02  0.8018839E-01
        2   -1    0    0  501    0  0.00000000000E+00  0.00000000000E+00  0.26779172619E+04  0.26779172619E+04  0.25500000920E-02 0.  1.
       -2   -1    0    0    0  501  0.00000000000E+00  0.00000000000E+00 -0.14418031516E+04  0.14418031516E+04  0.25500000920E-02 0. -1.
    10030    2    1    2    0    0  0.00000000000E+00  0.00000000000E+00  0.12361141103E+04  0.41197204135E+04  0.39299005320E+04 0.  0.
        1    1    3    3  502    0 -0.14052460012E+04 -0.98267036870E+03  0.16239197305E+04  0.23616673493E+04  0.50400001928E-02 0. -1.
       -1    1    3    3    0  502  0.14052460012E+04  0.98267036870E+03 -0.38780562013E+03  0.17580530642E+04  0.50400001928E-02 0.  1.
</event>
<event>
 5   0  0.3399500E-08  0.3980201E+04  0.7818609E-02  0.8008553E-01
       -1   -1    0    0    0  501  0.00000000000E+00  0.00000000000E+00  0.16258799907E+04  0.16258799907E+04  0.50400001928E-02 0.  1.
        1   -1    0    0  501    0  0.00000000000E+00  0.00000000000E+00 -0.24359120976E+04  0.24359120976E+04  0.50400001928E-02 0. -1.
    10030    2    1    2    0    0  0.00000000000E+00  0.00000000000E+00 -0.81003210692E+03  0.40617920883E+04  0.39802013711E+04 0.  0.
        4    1    3    3  502    0  0.31826174606E+03  0.15607049980E+03  0.15934044099E+04  0.16323565071E+04  0.12699999809E+01 0.  1.
       -4    1    3    3    0  502 -0.31826174606E+03 -0.15607049980E+03 -0.24034365168E+04  0.24294355812E+04  0.12699999809E+01 0. -1.
</event>
<event>
 5   0  0.3399500E-08  0.4009815E+04  0.7818609E-02  0.8002569E-01
       -1   -1    0    0    0  501  0.00000000000E+00  0.00000000000E+00  0.27498010609E+04  0.27498010609E+04  0.50400001928E-02 0. -1.
        1   -1    0    0  501    0  0.00000000000E+00  0.00000000000E+00 -0.14617982247E+04  0.14617982247E+04  0.50400001928E-02 0.  1.
    10030    2    1    2    0    0  0.00000000000E+00  0.00000000000E+00  0.12880028362E+04  0.42115992855E+04  0.40098151124E+04 0.  0.
        2    1    3    3  502    0 -0.25417211524E+02 -0.33696971708E+03 -0.14316708095E+04  0.14710118734E+04  0.25500000920E-02 0.  1.
       -2    1    3    3    0  502  0.25417211524E+02  0.33696971708E+03  0.27196736457E+04  0.27405874122E+04  0.25500000920E-02 0. -1.
</event>
<event>
 5   0  0.3399500E-08  0.4080844E+04  0.7818609E-02  0.7988433E-01
       -1   -1    0    0    0  501  0.00000000000E+00  0.00000000000E+00  0.17006452779E+04  0.17006452779E+04  0.50400001928E-02 0. -1.
        1   -1    0    0  501    0  0.00000000000E+00  0.00000000000E+00 -0.24480832916E+04  0.24480832917E+04  0.50400001928E-02 0.  1.
    10030    2    1    2    0    0  0.00000000000E+00  0.00000000000E+00 -0.74743801379E+03  0.41487285695E+04  0.40808436823E+04 0.  0.
        1    1    3    3  502    0 -0.18696469765E+04 -0.24702899807E+03 -0.11655975133E+04  0.22170297033E+04  0.50400001928E-02 0.  1.
       -1    1    3    3    0  502  0.18696469765E+04  0.24702899807E+03  0.41815949948E+03  0.19316988662E+04  0.50400001928E-02 0. -1.
</event>
<event>
 5   0  0.1073271E-07  0.3973360E+04  0.7818609E-02  0.8009942E-01
       -2   -1    0    0    0  501  0.00000000000E+00  0.00000000000E+00  0.21018437528E+04  0.21018437528E+04  0.25500000920E-02 0.  1.
        2   -1    0    0  501    0  0.00000000000E+00  0.00000000000E+00 -0.18778262977E+04  0.18778262977E+04  0.25500000920E-02 0. -1.
    10030    2    1    2    0    0  0.00000000000E+00  0.00000000000E+00  0.22401745504E+03  0.39796700505E+04  0.39733600253E+04 0.  0.
        1    1    3    3  502    0  0.10416753831E+04  0.12403678534E+04 -0.10401647866E+04  0.19249786489E+04  0.50400001928E-02 0. -1.
       -1    1    3    3    0  502 -0.10416753831E+04 -0.12403678534E+04  0.12641822417E+04  0.20546914016E+04  0.50400001928E-02 0.  1.
</event>
<event>
 5   0  0.3399500E-08  0.3987110E+04  0.7818609E-02  0.8007152E-01
        1   -1    0    0  501    0  0.00000000000E+00  0.00000000000E+00  0.16066956720E+04  0.16066956720E+04  0.50400001928E-02 0.  1.
       -1   -1    0    0    0  501  0.00000000000E+00  0.00000000000E+00 -0.24735618743E+04  0.24735618743E+04  0.50400001928E-02 0. -1.
    10030    2    1    2    0    0  0.00000000000E+00  0.00000000000E+00 -0.86686620226E+03  0.40802575463E+04  0.39871098093E+04 0.  0.
        3    1    3    3  502    0  0.47498999663E+03  0.14591893804E+04  0.86885795177E+03  0.17634520962E+04  0.10100000352E+00 0.  1.
       -3    1    3    3    0  502 -0.47498999663E+03 -0.14591893804E+04 -0.17357241540E+04  0.23168054502E+04  0.10100000352E+00 0. -1.
</event>
<event>
 5   0  0.3399500E-08  0.4000729E+04  0.7818609E-02  0.8004400E-01
        1   -1    0    0  501    0  0.00000000000E+00  0.00000000000E+00  0.20159993292E+04  0.20159993292E+04  0.50400001928E-02 0.  1.
       -1   -1    0    0    0  501  0.00000000000E+00  0.00000000000E+00 -0.19848504629E+04  0.19848504629E+04  0.50400001928E-02 0. -1.
    10030    2    1    2    0    0  0.00000000000E+00  0.00000000000E+00  0.31148866256E+02  0.40008497921E+04  0.40007285345E+04 0.  0.
        5    1    3    3  502    0  0.15114483935E+04 -0.64014705548E+03  0.11589247083E+04  0.20093265211E+04  0.46999998093E+01 0.  1.
       -5    1    3    3    0  502 -0.15114483935E+04  0.64014705548E+03 -0.11277758421E+04  0.19915232710E+04  0.46999998093E+01 0. -1.
</event>
<event>
 5   0  0.3399500E-08  0.3881953E+04  0.7818609E-02  0.8028793E-01
        1   -1    0    0  501    0  0.00000000000E+00  0.00000000000E+00  0.15884979286E+04  0.15884979286E+04  0.50400001928E-02 0.  1.
       -1   -1    0    0    0  501  0.00000000000E+00  0.00000000000E+00 -0.23716679580E+04  0.23716679580E+04  0.50400001928E-02 0. -1.
    10030    2    1    2    0    0  0.00000000000E+00  0.00000000000E+00 -0.78317002942E+03  0.39601658867E+04  0.38819529305E+04 0.  0.
        3    1    3    3  502    0  0.12460175071E+03 -0.12468715225E+03 -0.23634854355E+04  0.23700497666E+04  0.10100000352E+00 0. -1.
       -3    1    3    3    0  502 -0.12460175071E+03  0.12468715225E+03  0.15803154061E+04  0.15901161200E+04  0.10100000352E+00 0.  1.
</event>
<event>
 5   0  0.1087688E-07  0.4023160E+04  0.7818609E-02  0.7999891E-01
        2   -1    0    0  501    0  0.00000000000E+00  0.00000000000E+00  0.33356985463E+04  0.33356985463E+04  0.25500000920E-02 0. -1.
       -2   -1    0    0    0  501  0.00000000000E+00  0.00000000000E+00 -0.12130753721E+04  0.12130753721E+04  0.25500000920E-02 0.  1.
    10030    2    1    2    0    0  0.00000000000E+00  0.00000000000E+00  0.21226231742E+04  0.45487739184E+04  0.40231598304E+04 0.  0.
        2    1    3    3  502    0  0.44800620266E+03 -0.13029958741E+04  0.27183735187E+04  0.30476322601E+04  0.25500000920E-02 0. -1.
       -2    1    3    3    0  502 -0.44800620266E+03  0.13029958741E+04 -0.59575034449E+03  0.15011416583E+04  0.25500000920E-02 0.  1.
</event>
<event>
 5   0  0.1087688E-07  0.4002723E+04  0.7818609E-02  0.8003998E-01
        2   -1    0    0  501    0  0.00000000000E+00  0.00000000000E+00  0.19913446079E+04  0.19913446079E+04  0.25500000920E-02 0. -1.
       -2   -1    0    0    0  501  0.00000000000E+00  0.00000000000E+00 -0.20114284116E+04  0.20114284116E+04  0.25500000920E-02 0.  1.
    10030    2    1    2    0    0  0.00000000000E+00  0.00000000000E+00 -0.20083803695E+02  0.40027730196E+04  0.40027226343E+04 0.  0.
        2    1    3    3  502    0 -0.41562706436E+03  0.24521511243E+03  0.19322932368E+04  0.19916408966E+04  0.25500000920E-02 0. -1.
       -2    1    3    3    0  502  0.41562706436E+03 -0.24521511243E+03 -0.19523770405E+04  0.20111321230E+04  0.25500000920E-02 0.  1.
</event>
<event>
 5   0  0.1095109E-07  0.4021085E+04  0.7818609E-02  0.8000307E-01
        2   -1    0    0  501    0  0.00000000000E+00  0.00000000000E+00  0.27976356742E+04  0.27976356742E+04  0.25500000920E-02 0. -1.
       -2   -1    0    0    0  501  0.00000000000E+00  0.00000000000E+00 -0.14448915755E+04  0.14448915755E+04  0.25500000920E-02 0.  1.
    10030    2    1    2    0    0  0.00000000000E+00  0.00000000000E+00  0.13527440988E+04  0.42425272497E+04  0.40210845387E+04 0.  0.
        4    1    3    3  502    0 -0.11851155915E+04  0.13139519238E+04  0.16835692270E+04  0.24424118363E+04  0.12699999809E+01 0. -1.
       -4    1    3    3    0  502  0.11851155915E+04 -0.13139519238E+04 -0.33082512826E+03  0.18001154134E+04  0.12699999809E+01 0.  1.
</event>
<event>
 5   0  0.3399500E-08  0.4023441E+04  0.7818609E-02  0.7999834E-01
        1   -1    0    0  501    0  0.00000000000E+00  0.00000000000E+00  0.19060693707E+04  0.19060693707E+04  0.50400001928E-02 0. -1.
       -1   -1    0    0    0  501  0.00000000000E+00  0.00000000000E+00 -0.21232282030E+04  0.21232282031E+04  0.50400001928E-02 0.  1.
    10030    2    1    2    0    0  0.00000000000E+00  0.00000000000E+00 -0.21715883239E+03  0.40292975737E+04  0.40234414348E+04 0.  0.
        3    1    3    3  502    0  0.13317843413E+03  0.14388247032E+04  0.12931246278E+04  0.19391040032E+04  0.10100000352E+00 0. -1.
       -3    1    3    3    0  502 -0.13317843413E+03 -0.14388247032E+04 -0.15102834602E+04  0.20901935705E+04  0.10100000352E+00 0.  1.
</event>
<event>
 5   0  0.3399500E-08  0.4004316E+04  0.7818609E-02  0.8003676E-01
       -1   -1    0    0    0  501  0.00000000000E+00  0.00000000000E+00  0.18995726404E+04  0.18995726404E+04  0.50400001928E-02 0. -1.
        1   -1    0    0  501    0  0.00000000000E+00  0.00000000000E+00 -0.21102836232E+04  0.21102836232E+04  0.50400001928E-02 0.  1.
    10030    2    1    2    0    0  0.00000000000E+00  0.00000000000E+00 -0.21071098275E+03  0.40098562636E+04  0.40043161884E+04 0.  0.
        4    1    3    3  502    0  0.12797733193E+04 -0.26212309733E+03 -0.16247243112E+04  0.20847683246E+04  0.12699999809E+01 0. -1.
       -4    1    3    3    0  502 -0.12797733193E+04  0.26212309733E+03  0.14140133285E+04  0.19250879390E+04  0.12699999809E+01 0.  1.
</event>
<event>
 5   0  0.1101474E-07  0.4012820E+04  0.7818609E-02  0.8001965E-01
        2   -1    0    0  501    0  0.00000000000E+00  0.00000000000E+00  0.22625695657E+04  0.22625695657E+04  0.25500000920E-02 0. -1.
       -2   -1    0    0    0  501  0.00000000000E+00  0.00000000000E+00 -0.17792516086E+04  0.17792516086E+04  0.25500000920E-02 0.  1.
    10030    2    1    2    0    0  0.00000000000E+00  0.00000000000E+00  0.48331795706E+03  0.40418211744E+04  0.40128197266E+04 0.  0.
        5    1    3    3  502    0  0.73099268317E+03 -0.84686160495E+02 -0.16384153503E+04  0.17960927032E+04  0.46999998093E+01 0.  1.
       -5    1    3    3    0  502 -0.73099268317E+03  0.84686160495E+02  0.21217333073E+04  0.22457284711E+04  0.46999998093E+01 0. -1.
</event>
<event>
 5   0  0.3399500E-08  0.4010806E+04  0.7818609E-02  0.8002370E-01
        1   -1    0    0  501    0  0.00000000000E+00  0.00000000000E+00  0.13024573502E+04  0.13024573502E+04  0.50400001928E-02 0. -1.
       -1   -1    0    0    0  501  0.00000000000E+00  0.00000000000E+00 -0.30877335807E+04  0.30877335807E+04  0.50400001928E-02 0.  1.
    10030    2    1    2    0    0  0.00000000000E+00  0.00000000000E+00 -0.17852762305E+04  0.43901909310E+04  0.40108060525E+04 0.  0.
        5    1    3    3  502    0 -0.32787312238E+03  0.17430306068E+04 -0.19170970633E+04  0.26116928841E+04  0.46999998093E+01 0.  1.
       -5    1    3    3    0  502  0.32787312238E+03 -0.17430306068E+04  0.13182083278E+03  0.17784980469E+04  0.46999998093E+01 0. -1.
</event>
<event>
 5   0  0.3399500E-08  0.4036836E+04  0.7818609E-02  0.7997156E-01
        1   -1    0    0  501    0  0.00000000000E+00  0.00000000000E+00  0.13696229001E+04  0.13696229001E+04  0.50400001928E-02 0. -1.
       -1   -1    0    0    0  501  0.00000000000E+00  0.00000000000E+00 -0.29745502963E+04  0.29745502963E+04  0.50400001928E-02 0.  1.
    10030    2    1    2    0    0  0.00000000000E+00  0.00000000000E+00 -0.16049273961E+04  0.43441731964E+04  0.40368364859E+04 0.  0.
        2    1    3    3  502    0  0.61722379120E+03 -0.91680816927E+03  0.10150577475E+04  0.15006147601E+04  0.25500000920E-02 0. -1.
       -2    1    3    3    0  502 -0.61722379120E+03  0.91680816927E+03 -0.26199851436E+04  0.28435584363E+04  0.25500000920E-02 0.  1.
</event>
<event>
 5   0  0.1095903E-07  0.4002122E+04  0.7818609E-02  0.8004119E-01
       -2   -1    0    0    0  501  0.00000000000E+00  0.00000000000E+00  0.16916487561E+04  0.16916487561E+04  0.25500000920E-02 0. -1.
        2   -1    0    0  501    0  0.00000000000E+00  0.00000000000E+00 -0.23670668664E+04  0.23670668664E+04  0.25500000920E-02 0.  1.
    10030    2    1    2    0    0  0.00000000000E+00  0.00000000000E+00 -0.67541811027E+03  0.40587156225E+04  0.40021222970E+04 0.  0.
        3    1    3    3  502    0  0.73408462211E+03 -0.18326400803E+04 -0.66912651287E+03  0.20845095819E+04  0.10100000352E+00 0.  1.
       -3    1    3    3    0  502 -0.73408462211E+03  0.18326400803E+04 -0.62915974013E+01  0.19742060406E+04  0.10100000352E+00 0. -1.
</event>
<event>
 5   0  0.3399500E-08  0.4026990E+04  0.7818609E-02  0.7999124E-01
        1   -1    0    0  501    0  0.00000000000E+00  0.00000000000E+00  0.20175619192E+04  0.20175619192E+04  0.50400001928E-02 0. -1.
       -1   -1    0    0    0  501  0.00000000000E+00  0.00000000000E+00 -0.20094361279E+04  0.20094361279E+04  0.50400001928E-02 0.  1.
    10030    2    1    2    0    0  0.00000000000E+00  0.00000000000E+00  0.81257912850E+01  0.40269980471E+04  0.40269898489E+04 0.  0.
        5    1    3    3  502    0 -0.17277706122E+04  0.58225375107E+03 -0.85029766854E+03  0.20117750705E+04  0.46999998093E+01 0.  1.
       -5    1    3    3    0  502  0.17277706122E+04 -0.58225375107E+03  0.85842345982E+03  0.20152229766E+04  0.46999998093E+01 0. -1.
</event>
<event>
 5   0  0.3399500E-08  0.4017579E+04  0.7818609E-02  0.8001010E-01
       -1   -1    0    0    0  501  0.00000000000E+00  0.00000000000E+00  0.31220563452E+04  0.31220563452E+04  0.50400001928E-02 0. -1.
        1   -1    0    0  501    0  0.00000000000E+00  0.00000000000E+00 -0.12924924702E+04  0.12924924702E+04  0.50400001928E-02 0.  1.
    10030    2    1    2    0    0  0.00000000000E+00  0.00000000000E+00  0.18295638750E+04  0.44145488154E+04  0.40175785333E+04 0.  0.
        5    1    3    3  502    0  0.76249494698E+03 -0.18237031555E+04  0.13077814359E+04  0.23701489653E+04  0.46999998093E+01 0. -1.
       -5    1    3    3    0  502 -0.76249494698E+03  0.18237031555E+04  0.52178243902E+03  0.20443998501E+04  0.46999998093E+01 0.  1.
</event>
<event>
 5   0  0.3399500E-08  0.3952825E+04  0.7818609E-02  0.8014131E-01
        1   -1    0    0  501    0  0.00000000000E+00  0.00000000000E+00  0.12129219805E+04  0.12129219805E+04  0.50400001928E-02 0. -1.
       -1   -1    0    0    0  501  0.00000000000E+00  0.00000000000E+00 -0.32204923441E+04  0.32204923441E+04  0.50400001928E-02 0.  1.
    10030    2    1    2    0    0  0.00000000000E+00  0.00000000000E+00 -0.20075703636E+04  0.44334143246E+04  0.39528247885E+04 0.  0.
        3    1    3    3  502    0 -0.18816893881E+04 -0.58184641638E+03 -0.11877578044E+04  0.23000149603E+04  0.10100000352E+00 0. -1.
       -3    1    3    3    0  502  0.18816893881E+04  0.58184641638E+03 -0.81981255921E+03  0.21333993643E+04  0.10100000352E+00 0.  1.
</event>
<event>
 5   0  0.3399500E-08  0.3979329E+04  0.7818609E-02  0.8008730E-01
        1   -1    0    0  501    0  0.00000000000E+00  0.00000000000E+00  0.20398290142E+04  0.20398290142E+04  0.50400001928E-02 0.  1.
       -1   -1    0    0    0  501  0.00000000000E+00  0.00000000000E+00 -0.19407332030E+04  0.19407332031E+04  0.50400001928E-02 0. -1.
    10030    2    1    2    0    0  0.00000000000E+00  0.00000000000E+00  0.99095811188E+02  0.39805622173E+04  0.39793285346E+04 0.  0.
        2    1    3    3  502    0 -0.15296348966E+04  0.86557955798E+03  0.98244252915E+03  0.20135054535E+04  0.25500000920E-02 0.  1.
       -2    1    3    3    0  502  0.15296348966E+04 -0.86557955798E+03 -0.88334671796E+03  0.19670567638E+04  0.25500000920E-02 0. -1.
</event>
<event>
 5   0  0.3399500E-08  0.4004947E+04  0.7818609E-02  0.8003549E-01
       -1   -1    0    0    0  501  0.00000000000E+00  0.00000000000E+00  0.18099467287E+04  0.18099467287E+04  0.50400001928E-02 0. -1.
        1   -1    0    0  501    0  0.00000000000E+00  0.00000000000E+00 -0.22154793412E+04  0.22154793412E+04  0.50400001928E-02 0.  1.
    10030    2    1    2    0    0  0.00000000000E+00  0.00000000000E+00 -0.40553261243E+03  0.40254260699E+04  0.40049467343E+04 0.  0.
        4    1    3    3  502    0 -0.18046738590E+04 -0.63158012664E+03 -0.80092013978E+03  0.20729727149E+04  0.12699999809E+01 0. -1.
       -4    1    3    3    0  502  0.18046738590E+04  0.63158012664E+03  0.39538752735E+03  0.19524533550E+04  0.12699999809E+01 0.  1.
</event>
<event>
 5   0  0.3399500E-08  0.3943972E+04  0.7818609E-02  0.8015945E-01
       -1   -1    0    0    0  501  0.00000000000E+00  0.00000000000E+00  0.19217736602E+04  0.19217736602E+04  0.50400001928E-02 0.  1.
        1   -1    0    0  501    0  0.00000000000E+00  0.00000000000E+00 -0.20235106979E+04  0.20235106979E+04  0.50400001928E-02 0. -1.
    10030    2    1    2    0    0  0.00000000000E+00  0.00000000000E+00 -0.10173703770E+03  0.39452843582E+04  0.39439723937E+04 0.  0.
        4    1    3    3  502    0  0.12543088723E+04  0.13607434874E+04  0.63039720712E+03  0.19550743815E+04  0.12699999809E+01 0.  1.
       -4    1    3    3    0  502 -0.12543088723E+04 -0.13607434874E+04 -0.73213424482E+03  0.19902099766E+04  0.12699999809E+01 0. -1.
</event>
<event>
 5   0  0.1095903E-07  0.4001367E+04  0.7818609E-02  0.8004271E-01
       -2   -1    0    0    0  501  0.00000000000E+00  0.00000000000E+00  0.21086530693E+04  0.21086530693E+04  0.25500000920E-02 0.  1.
        2   -1    0    0  501    0  0.00000000000E+00  0.00000000000E+00 -0.18982424776E+04  0.18982424776E+04  0.25500000920E-02 0. -1.
    10030    2    1    2    0    0  0.00000000000E+00  0.00000000000E+00  0.21041059165E+03  0.40068955469E+04  0.40013671797E+04 0.  0.
        3    1    3    3  502    0 -0.15793326587E+04 -0.40652386491E+03 -0.10553530235E+04  0.19425043923E+04  0.10100000352E+00 0. -1.
       -3    1    3    3    0  502  0.15793326587E+04  0.40652386491E+03  0.12657636151E+04  0.20643911546E+04  0.10100000352E+00 0.  1.
</event>
<event>
 5   0  0.1095109E-07  0.4059648E+04  0.7818609E-02  0.7992621E-01
       -2   -1    0    0    0  501  0.00000000000E+00  0.00000000000E+00  0.17259368415E+04  0.17259368415E+04  0.25500000920E-02 0. -1.
        2   -1    0    0  501    0  0.00000000000E+00  0.00000000000E+00 -0.23872162675E+04  0.23872162675E+04  0.25500000920E-02 0.  1.
    10030    2    1    2    0    0  0.00000000000E+00  0.00000000000E+00 -0.66127942605E+03  0.41131531090E+04  0.40596475239E+04 0.  0.
        4    1    3    3  502    0 -0.74059507687E+03  0.14274401140E+04 -0.15855588004E+04  0.22583322762E+04  0.12699999809E+01 0.  1.
       -4    1    3    3    0  502  0.74059507687E+03 -0.14274401140E+04  0.92427937438E+03  0.18548208328E+04  0.12699999809E+01 0. -1.
</event>
<event>
 5   0  0.1095109E-07  0.3804207E+04  0.7818609E-02  0.8045253E-01
       -2   -1    0    0    0  501  0.00000000000E+00  0.00000000000E+00  0.11647688138E+04  0.11647688138E+04  0.25500000920E-02 0. -1.
        2   -1    0    0  501    0  0.00000000000E+00  0.00000000000E+00 -0.31061932174E+04  0.31061932174E+04  0.25500000920E-02 0.  1.
    10030    2    1    2    0    0  0.00000000000E+00  0.00000000000E+00 -0.19414244037E+04  0.42709620312E+04  0.38042066133E+04 0.  0.
        4    1    3    3  502    0  0.14827412242E+04 -0.97581554683E+03 -0.17381442309E+04  0.24843277762E+04  0.12699999809E+01 0.  1.
       -4    1    3    3    0  502 -0.14827412242E+04  0.97581554683E+03 -0.20328017278E+03  0.17866342550E+04  0.12699999809E+01 0. -1.
</event>
<event>
 5   0  0.3399500E-08  0.4005164E+04  0.7818609E-02  0.8003506E-01
       -1   -1    0    0    0  501  0.00000000000E+00  0.00000000000E+00  0.23769901532E+04  0.23769901532E+04  0.50400001928E-02 0.  1.
        1   -1    0    0  501    0  0.00000000000E+00  0.00000000000E+00 -0.16871478638E+04  0.16871478638E+04  0.50400001928E-02 0. -1.
    10030    2    1    2    0    0  0.00000000000E+00  0.00000000000E+00  0.68984228937E+03  0.40641380170E+04  0.40051635967E+04 0.  0.
        5    1    3    3  502    0 -0.11799569671E+04  0.14478869481E+04  0.10778001178E+04  0.21564670743E+04  0.46999998093E+01 0.  1.
       -5    1    3    3    0  502  0.11799569671E+04 -0.14478869481E+04 -0.38795782847E+03  0.19076709426E+04  0.46999998093E+01 0. -1.
</event>
<event>
 5   0  0.3399500E-08  0.3982384E+04  0.7818609E-02  0.8008110E-01
        1   -1    0    0  501    0  0.00000000000E+00  0.00000000000E+00  0.29934427282E+04  0.29934427282E+04  0.50400001928E-02 0. -1.
       -1   -1    0    0    0  501  0.00000000000E+00  0.00000000000E+00 -0.13245102708E+04  0.13245102708E+04  0.50400001928E-02 0.  1.
    10030    2    1    2    0    0  0.00000000000E+00  0.00000000000E+00  0.16689324574E+04  0.43179529990E+04  0.39823840289E+04 0.  0.
        3    1    3    3  502    0  0.14615609893E+04 -0.23058622601E+03 -0.61029792465E+03  0.16005605581E+04  0.10100000352E+00 0.  1.
       -3    1    3    3    0  502 -0.14615609893E+04  0.23058622601E+03  0.22792303821E+04  0.27173924409E+04  0.10100000352E+00 0. -1.
</event>
<event>
 5   0  0.1095109E-07  0.4046575E+04  0.7818609E-02  0.7995216E-01
        2   -1    0    0  501    0  0.00000000000E+00  0.00000000000E+00  0.13170753507E+04  0.13170753507E+04  0.25500000920E-02 0. -1.
       -2   -1    0    0    0  501  0.00000000000E+00  0.00000000000E+00 -0.31081679577E+04  0.31081679577E+04  0.25500000920E-02 0.  1.
    10030    2    1    2    0    0  0.00000000000E+00  0.00000000000E+00 -0.17910926070E+04  0.44252433084E+04  0.40465745528E+04 0.  0.
        4    1    3    3  502    0  0.14378145137E+04 -0.84792277625E+03 -0.21459633184E+04  0.27187209836E+04  0.12699999809E+01 0.  1.
       -4    1    3    3    0  502 -0.14378145137E+04  0.84792277625E+03  0.35487071140E+03  0.17065223247E+04  0.12699999809E+01 0. -1.
</event>
<event>
 5   0  0.1101474E-07  0.3870431E+04  0.7818609E-02  0.8031207E-01
        2   -1    0    0  501    0  0.00000000000E+00  0.00000000000E+00  0.18058228734E+04  0.18058228734E+04  0.25500000920E-02 0. -1.
       -2   -1    0    0    0  501  0.00000000000E+00  0.00000000000E+00 -0.20738795279E+04  0.20738795279E+04  0.25500000920E-02 0.  1.
    10030    2    1    2    0    0  0.00000000000E+00  0.00000000000E+00 -0.26805665452E+03  0.38797024012E+04  0.38704310293E+04 0.  0.
        5    1    3    3  502    0 -0.11053838579E+04  0.15518590900E+04  0.20574807763E+03  0.19163753468E+04  0.46999998093E+01 0.  1.
       -5    1    3    3    0  502  0.11053838579E+04 -0.15518590900E+04 -0.47380473215E+03  0.19633270544E+04  0.46999998093E+01 0. -1.
</event>
<event>
 5   0  0.3399500E-08  0.3988550E+04  0.7818609E-02  0.8006860E-01
        1   -1    0    0  501    0  0.00000000000E+00  0.00000000000E+00  0.23351521620E+04  0.23351521620E+04  0.50400001928E-02 0. -1.
       -1   -1    0    0    0  501  0.00000000000E+00  0.00000000000E+00 -0.17031580437E+04  0.17031580437E+04  0.50400001928E-02 0.  1.
    10030    2    1    2    0    0  0.00000000000E+00  0.00000000000E+00  0.63199411832E+03  0.40383102056E+04  0.39885502067E+04 0.  0.
        5    1    3    3  502    0  0.24252886388E+03  0.88722958369E+02 -0.16861513446E+04  0.17058195860E+04  0.46999998093E+01 0.  1.
       -5    1    3    3    0  502 -0.24252886388E+03 -0.88722958369E+02  0.23181454629E+04  0.23324906196E+04  0.46999998093E+01 0. -1.
</event>
<event>
 5   0  0.3399500E-08  0.4001040E+04  0.7818609E-02  0.8004337E-01
        1   -1    0    0  501    0  0.00000000000E+00  0.00000000000E+00  0.16050378300E+04  0.16050378300E+04  0.50400001928E-02 0. -1.
       -1   -1    0    0    0  501  0.00000000000E+00  0.00000000000E+00 -0.24934489094E+04  0.24934489094E+04  0.50400001928E-02 0.  1.
    10030    2    1    2    0    0  0.00000000000E+00  0.00000000000E+00 -0.88841107939E+03  0.40984867395E+04  0.40010397783E+04 0.  0.
        3    1    3    3  502    0  0.53455933530E+03  0.95479640511E+03  0.12713038321E+04  0.16773798919E+04  0.10100000352E+00 0. -1.
       -3    1    3    3    0  502 -0.53455933530E+03 -0.95479640511E+03 -0.21597149115E+04  0.24211068475E+04  0.10100000352E+00 0.  1.
</event>
<event>
 5   0  0.1087688E-07  0.3992250E+04  0.7818609E-02  0.8006112E-01
        2   -1    0    0  501    0  0.00000000000E+00  0.00000000000E+00  0.23145383594E+04  0.23145383594E+04  0.25500000920E-02 0. -1.
       -2   -1    0    0    0  501  0.00000000000E+00  0.00000000000E+00 -0.17215162253E+04  0.17215162253E+04  0.25500000920E-02 0.  1.
    10030    2    1    2    0    0  0.00000000000E+00  0.00000000000E+00  0.59302213415E+03  0.40360545847E+04  0.39922501624E+04 0.  0.
        2    1    3    3  502    0  0.13703201344E+03  0.19483253035E+04 -0.12003663467E+03  0.19568234603E+04  0.25500000920E-02 0. -1.
       -2    1    3    3    0  502 -0.13703201344E+03 -0.19483253035E+04  0.71305876882E+03  0.20792311245E+04  0.25500000920E-02 0.  1.
</event>
<event>
 5   0  0.1101474E-07  0.4030274E+04  0.7818609E-02  0.7998467E-01
        2   -1    0    0  501    0  0.00000000000E+00  0.00000000000E+00  0.24831237883E+04  0.24831237883E+04  0.25500000920E-02 0.  1.
       -2   -1    0    0    0  501  0.00000000000E+00  0.00000000000E+00 -0.16353503194E+04  0.16353503194E+04  0.25500000920E-02 0. -1.
    10030    2    1    2    0    0  0.00000000000E+00  0.00000000000E+00  0.84777346886E+03  0.41184741077E+04  0.40302740752E+04 0.  0.
        5    1    3    3  502    0 -0.19565252854E+04  0.48197020011E+03  0.40176290474E+03  0.20546829410E+04  0.46999998093E+01 0.  1.
       -5    1    3    3    0  502  0.19565252854E+04 -0.48197020011E+03  0.44601056412E+03  0.20637911667E+04  0.46999998093E+01 0. -1.
</event>
<event>
 5   0  0.1073271E-07  0.3999732E+04  0.7818609E-02  0.8004601E-01
        2   -1    0    0  501    0  0.00000000000E+00  0.00000000000E+00  0.15963971365E+04  0.15963971365E+04  0.25500000920E-02 0. -1.
       -2   -1    0    0    0  501  0.00000000000E+00  0.00000000000E+00 -0.25053063255E+04  0.25053063255E+04  0.25500000920E-02 0.  1.
    10030    2    1    2    0    0  0.00000000000E+00  0.00000000000E+00 -0.90890918896E+03  0.41017034620E+04  0.39997319131E+04 0.  0.
        1    1    3    3  502    0 -0.18350947080E+04 -0.37162236562E+03  0.26616103015E+03  0.18911682802E+04  0.50400001928E-02 0. -1.
       -1    1    3    3    0  502  0.18350947080E+04  0.37162236562E+03 -0.11750702191E+04  0.22105351818E+04  0.50400001928E-02 0.  1.
</event>
<event>
 5   0  0.1095109E-07  0.4001536E+04  0.7818609E-02  0.8004237E-01
       -2   -1    0    0    0  501  0.00000000000E+00  0.00000000000E+00  0.16550578127E+04  0.16550578127E+04  0.25500000920E-02 0.  1.
        2   -1    0    0  501    0  0.00000000000E+00  0.00000000000E+00 -0.24186906454E+04  0.24186906454E+04  0.25500000920E-02 0. -1.
    10030    2    1    2    0    0  0.00000000000E+00  0.00000000000E+00 -0.76363283268E+03  0.40737484580E+04  0.40015361296E+04 0.  0.
        4    1    3    3  502    0 -0.26519766321E+03  0.13530957107E+04 -0.18577633636E+04  0.23135436306E+04  0.12699999809E+01 0. -1.
       -4    1    3    3    0  502  0.26519766321E+03 -0.13530957107E+04  0.10941305309E+04  0.17602048274E+04  0.12699999809E+01 0.  1.
</event>
<event>
 5   0  0.1101474E-07  0.3995336E+04  0.7818609E-02  0.8005488E-01
        2   -1    0    0  501    0  0.00000000000E+00  0.00000000000E+00  0.13019630800E+04  0.13019630800E+04  0.25500000920E-02 0. -1.
       -2   -1    0    0    0  501  0.00000000000E+00  0.00000000000E+00 -0.30651226345E+04  0.30651226345E+04  0.25500000920E-02 0.  1.
    10030    2    1    2    0    0  0.00000000000E+00  0.00000000000E+00 -0.17631595545E+04  0.43670857146E+04  0.39953355333E+04 0.  0.
        5    1    3    3  502    0 -0.44468484834E+03 -0.16382883344E+04 -0.20326154640E+04  0.26482599939E+04  0.46999998093E+01 0.  1.
       -5    1    3    3    0  502  0.44468484834E+03  0.16382883344E+04  0.26945590945E+03  0.17188257207E+04  0.46999998093E+01 0. -1.
</event>
<event>
 5   0  0.1095903E-07  0.3987888E+04  0.7818609E-02  0.8006994E-01
        2   -1    0    0  501    0  0.00000000000E+00  0.00000000000E+00  0.19765724851E+04  0.19765724851E+04  0.25500000920E-02 0.  1.
       -2   -1    0    0    0  501  0.00000000000E+00  0.00000000000E+00 -0.20114677622E+04  0.20114677622E+04  0.25500000920E-02 0. -1.
    10030    2    1    2    0    0  0.00000000000E+00  0.00000000000E+00 -0.34895277042E+02  0.39880402473E+04  0.39878875778E+04 0.  0.
        3    1    3    3  502    0 -0.15961268585E+04  0.11556547273E+04 -0.32184888734E+03  0.19966836288E+04  0.10100000352E+00 0.  1.
       -3    1    3    3    0  502  0.15961268585E+04 -0.11556547273E+04  0.28695361029E+03  0.19913566184E+04  0.10100000352E+00 0. -1.
</event>
<event>
 5   0  0.3399500E-08  0.3932810E+04  0.7818609E-02  0.8018240E-01
        1   -1    0    0  501    0  0.00000000000E+00  0.00000000000E+00  0.17010150975E+04  0.17010150975E+04  0.50400001928E-02 0.  1.
       -1   -1    0    0    0  501  0.00000000000E+00  0.00000000000E+00 -0.22732010369E+04  0.22732010369E+04  0.50400001928E-02 0. -1.
    10030    2    1    2    0    0  0.00000000000E+00  0.00000000000E+00 -0.57218593935E+03  0.39742161344E+04  0.39328103354E+04 0.  0.
        4    1    3    3  502    0 -0.82817471579E+03 -0.92481236309E+01 -0.20883465428E+04  0.22465866962E+04  0.12699999809E+01 0. -1.
       -4    1    3    3    0  502  0.82817471579E+03  0.92481236309E+01  0.15161606034E+04  0.17276294383E+04  0.12699999809E+01 0.  1.
</event>
<event>
 5   0  0.1101474E-07  0.3941434E+04  0.7818609E-02  0.8016466E-01
       -2   -1    0    0    0  501  0.00000000000E+00  0.00000000000E+00  0.16585292272E+04  0.16585292272E+04  0.25500000920E-02 0.  1.
        2   -1    0    0  501    0  0.00000000000E+00  0.00000000000E+00 -0.23416685066E+04  0.23416685066E+04  0.25500000920E-02 0. -1.
    10030    2    1    2    0    0  0.00000000000E+00  0.00000000000E+00 -0.68313927936E+03  0.40001977338E+04  0.39414340835E+04 0.  0.
        5    1    3    3  502    0 -0.57503082685E+03  0.10389555940E+04 -0.19377912680E+04  0.22726958147E+04  0.46999998093E+01 0. -1.
       -5    1    3    3    0  502  0.57503082685E+03 -0.10389555940E+04  0.12546519886E+04  0.17275019191E+04  0.46999998093E+01 0.  1.
</event>
<event>
 5   0  0.3399500E-08  0.3953017E+04  0.7818609E-02  0.8014092E-01
       -1   -1    0    0    0  501  0.00000000000E+00  0.00000000000E+00  0.23739281351E+04  0.23739281352E+04  0.50400001928E-02 0.  1.
        1   -1    0    0  501    0  0.00000000000E+00  0.00000000000E+00 -0.16456212464E+04  0.16456212464E+04  0.50400001928E-02 0. -1.
    10030    2    1    2    0    0  0.00000000000E+00  0.00000000000E+00  0.72830688872E+03  0.40195493816E+04  0.39530173674E+04 0.  0.
        5    1    3    3  502    0 -0.67115035720E+03 -0.65284582625E+03  0.21341148552E+04  0.23304760844E+04  0.46999998093E+01 0.  1.
       -5    1    3    3    0  502  0.67115035720E+03  0.65284582625E+03 -0.14058079665E+04  0.16890732972E+04  0.46999998093E+01 0. -1.
</event>
<event>
 5   0  0.3399500E-08  0.4008894E+04  0.7818609E-02  0.8002755E-01
       -1   -1    0    0    0  501  0.00000000000E+00  0.00000000000E+00  0.19331661068E+04  0.19331661068E+04  0.50400001928E-02 0. -1.
        1   -1    0    0  501    0  0.00000000000E+00  0.00000000000E+00 -0.20783567147E+04  0.20783567147E+04  0.50400001928E-02 0.  1.
    10030    2    1    2    0    0  0.00000000000E+00  0.00000000000E+00 -0.14519060790E+03  0.40115228215E+04  0.40088944904E+04 0.  0.
        5    1    3    3  502    0  0.82915988333E+03 -0.15082232984E+04  0.95547452504E+03  0.19685520790E+04  0.46999998093E+01 0. -1.
       -5    1    3    3    0  502 -0.82915988333E+03  0.15082232984E+04 -0.11006651329E+04  0.20429707425E+04  0.46999998093E+01 0.  1.
</event>
<event>
 5   0  0.3399500E-08  0.4080063E+04  0.7818609E-02  0.7988587E-01
        1   -1    0    0  501    0  0.00000000000E+00  0.00000000000E+00  0.13343749098E+04  0.13343749098E+04  0.50400001928E-02 0.  1.
       -1   -1    0    0    0  501  0.00000000000E+00  0.00000000000E+00 -0.31188605099E+04  0.31188605099E+04  0.50400001928E-02 0. -1.
    10030    2    1    2    0    0  0.00000000000E+00  0.00000000000E+00 -0.17844856001E+04  0.44532354198E+04  0.40800633386E+04 0.  0.
        5    1    3    3  502    0 -0.66246507106E+03 -0.17883370260E+04 -0.10163083112E+03  0.19098063265E+04  0.46999998093E+01 0.  1.
       -5    1    3    3    0  502  0.66246507106E+03  0.17883370260E+04 -0.16828547690E+04  0.25434290933E+04  0.46999998093E+01 0. -1.
</event>
<event>
 5   0  0.3399500E-08  0.3754064E+04  0.7818609E-02  0.8056085E-01
       -1   -1    0    0    0  501  0.00000000000E+00  0.00000000000E+00  0.31025955570E+04  0.31025955570E+04  0.50400001928E-02 0.  1.
        1   -1    0    0  501    0  0.00000000000E+00  0.00000000000E+00 -0.11355809591E+04  0.11355809591E+04  0.50400001928E-02 0. -1.
    10030    2    1    2    0    0  0.00000000000E+00  0.00000000000E+00  0.19670145979E+04  0.42381765162E+04  0.37540636321E+04 0.  0.
        1    1    3    3  502    0  0.12284287475E+04 -0.52137189640E+03  0.24737231318E+04  0.28107244573E+04  0.50400001928E-02 0. -1.
       -1    1    3    3    0  502 -0.12284287475E+04  0.52137189640E+03 -0.50670853384E+03  0.14274520589E+04  0.50400001928E-02 0.  1.
</event>
<event>
 5   0  0.1095903E-07  0.4049647E+04  0.7818609E-02  0.7994605E-01
        2   -1    0    0  501    0  0.00000000000E+00  0.00000000000E+00  0.27537070386E+04  0.27537070386E+04  0.25500000920E-02 0. -1.
       -2   -1    0    0    0  501  0.00000000000E+00  0.00000000000E+00 -0.14888694300E+04  0.14888694300E+04  0.25500000920E-02 0.  1.
    10030    2    1    2    0    0  0.00000000000E+00  0.00000000000E+00  0.12648376085E+04  0.42425764686E+04  0.40496470113E+04 0.  0.
        3    1    3    3  502    0  0.90688387278E+02  0.19599580352E+04  0.10833608070E+03  0.19650436637E+04  0.10100000352E+00 0. -1.
       -3    1    3    3    0  502 -0.90688387278E+02 -0.19599580352E+04  0.11565015278E+04  0.22775328049E+04  0.10100000352E+00 0.  1.
</event>
<event>
 5   0  0.3399500E-08  0.3998001E+04  0.7818609E-02  0.8004950E-01
       -1   -1    0    0    0  501  0.00000000000E+00  0.00000000000E+00  0.17858311465E+04  0.17858311465E+04  0.50400001928E-02 0.  1.
        1   -1    0    0  501    0  0.00000000000E+00  0.00000000000E+00 -0.22376149272E+04  0.22376149272E+04  0.50400001928E-02 0. -1.
    10030    2    1    2    0    0  0.00000000000E+00  0.00000000000E+00 -0.45178378077E+03  0.40234460737E+04  0.39980007158E+04 0.  0.
        2    1    3    3  502    0  0.18897829497E+04 -0.41992916068E+03  0.27565976611E+03  0.19554049206E+04  0.25500000920E-02 0. -1.
       -2    1    3    3    0  502 -0.18897829497E+04  0.41992916068E+03 -0.72744354687E+03  0.20680411531E+04  0.25500000920E-02 0.  1.
</event>
<event>
 5   0  0.3399500E-08  0.3795132E+04  0.7818609E-02  0.8047200E-01
        1   -1    0    0  501    0  0.00000000000E+00  0.00000000000E+00  0.21882957202E+04  0.21882957202E+04  0.50400001928E-02 0.  1.
       -1   -1    0    0    0  501  0.00000000000E+00  0.00000000000E+00 -0.16454617780E+04  0.16454617780E+04  0.50400001928E-02 0. -1.
    10030    2    1    2    0    0  0.00000000000E+00  0.00000000000E+00  0.54283394223E+03  0.38337574983E+04  0.37951321277E+04 0.  0.
        4    1    3    3  502    0  0.34981836471E+03  0.17091120936E+04 -0.48271854849E+03  0.18100982975E+04  0.12699999809E+01 0. -1.
       -4    1    3    3    0  502 -0.34981836471E+03 -0.17091120936E+04  0.10255524907E+04  0.20236592008E+04  0.12699999809E+01 0.  1.
</event>
<event>
 5   0  0.1087688E-07  0.3846449E+04  0.7818609E-02  0.8036260E-01
        2   -1    0    0  501    0  0.00000000000E+00  0.00000000000E+00  0.22020988874E+04  0.22020988874E+04  0.25500000920E-02 0. -1.
       -2   -1    0    0    0  501  0.00000000000E+00  0.00000000000E+00 -0.16796665412E+04  0.16796665412E+04  0.25500000920E-02 0.  1.
    10030    2    1    2    0    0  0.00000000000E+00  0.00000000000E+00  0.52243234618E+03  0.38817654286E+04  0.38464486590E+04 0.  0.
        2    1    3    3  502    0  0.67370184637E+03 -0.33806776768E+03  0.20468198375E+04  0.21812004586E+04  0.25500000920E-02 0. -1.
       -2    1    3    3    0  502 -0.67370184637E+03  0.33806776768E+03 -0.15243874913E+04  0.17005649700E+04  0.25500000920E-02 0.  1.
</event>
<event>
 5   0  0.1087688E-07  0.3879663E+04  0.7818609E-02  0.8029272E-01
        2   -1    0    0  501    0  0.00000000000E+00  0.00000000000E+00  0.22393163671E+04  0.22393163671E+04  0.25500000920E-02 0. -1.
       -2   -1    0    0    0  501  0.00000000000E+00  0.00000000000E+00 -0.16803994703E+04  0.16803994703E+04  0.25500000920E-02 0.  1.
    10030    2    1    2    0    0  0.00000000000E+00  0.00000000000E+00  0.55891689675E+03  0.39197158374E+04  0.38796628911E+04 0.  0.
        2    1    3    3  502    0  0.49841925799E+02 -0.14282700495E+04 -0.10457638960E+04  0.17708929042E+04  0.25500000920E-02 0.  1.
       -2    1    3    3    0  502 -0.49841925799E+02  0.14282700495E+04  0.16046807928E+04  0.21488229332E+04  0.25500000920E-02 0. -1.
</event>
<event>
 5   0  0.3399500E-08  0.3773326E+04  0.7818609E-02  0.8051903E-01
        1   -1    0    0  501    0  0.00000000000E+00  0.00000000000E+00  0.28153891858E+04  0.28153891858E+04  0.50400001928E-02 0.  1.
       -1   -1    0    0    0  501  0.00000000000E+00  0.00000000000E+00 -0.12642999797E+04  0.12642999797E+04  0.50400001928E-02 0. -1.
    10030    2    1    2    0    0  0.00000000000E+00  0.00000000000E+00  0.15510892062E+04  0.40796891655E+04  0.37733255838E+04 0.  0.
        1    1    3    3  502    0 -0.49082677050E+03 -0.86230123154E+03 -0.95943063234E+03  0.13802106618E+04  0.50400001928E-02 0. -1.
       -1    1    3    3    0  502  0.49082677050E+03  0.86230123154E+03  0.25105198385E+04  0.26994785037E+04  0.50400001928E-02 0.  1.
</event>
<event>
 5   0  0.1101474E-07  0.3923736E+04  0.7818609E-02  0.8020111E-01
        2   -1    0    0  501    0  0.00000000000E+00  0.00000000000E+00  0.26415540875E+04  0.26415540875E+04  0.25500000920E-02 0.  1.
       -2   -1    0    0    0  501  0.00000000000E+00  0.00000000000E+00 -0.14570687755E+04  0.14570687755E+04  0.25500000920E-02 0. -1.
    10030    2    1    2    0    0  0.00000000000E+00  0.00000000000E+00  0.11844853120E+04  0.40986228630E+04  0.39237359645E+04 0.  0.
        5    1    3    3  502    0 -0.99217794041E+03 -0.11241676374E+04  0.19138357505E+04  0.24312464524E+04  0.46999998093E+01 0.  1.
       -5    1    3    3    0  502  0.99217794041E+03  0.11241676374E+04 -0.72935043848E+03  0.16673764106E+04  0.46999998093E+01 0. -1.
</event>
<event>
 5   0  0.3399500E-08  0.4026893E+04  0.7818609E-02  0.7999143E-01
        1   -1    0    0  501    0  0.00000000000E+00  0.00000000000E+00  0.29205977857E+04  0.29205977857E+04  0.50400001928E-02 0.  1.
       -1   -1    0    0    0  501  0.00000000000E+00  0.00000000000E+00 -0.13880605710E+04  0.13880605710E+04  0.50400001928E-02 0. -1.
    10030    2    1    2    0    0  0.00000000000E+00  0.00000000000E+00  0.15325372147E+04  0.43086583568E+04  0.40268929115E+04 0.  0.
        3    1    3    3  502    0 -0.71619741329E+03  0.14464734055E+04  0.20541254506E+04  0.26124041465E+04  0.10100000352E+00 0.  1.
       -3    1    3    3    0  502  0.71619741329E+03 -0.14464734055E+04 -0.52158823595E+03  0.16962542102E+04  0.10100000352E+00 0. -1.
</event>
<event>
 5   0  0.1095109E-07  0.3982222E+04  0.7818609E-02  0.8008143E-01
        2   -1    0    0  501    0  0.00000000000E+00  0.00000000000E+00  0.18654310986E+04  0.18654310986E+04  0.25500000920E-02 0. -1.
       -2   -1    0    0    0  501  0.00000000000E+00  0.00000000000E+00 -0.21252578328E+04  0.21252578328E+04  0.25500000920E-02 0.  1.
    10030    2    1    2    0    0  0.00000000000E+00  0.00000000000E+00 -0.25982673416E+03  0.39906889314E+04  0.39822215176E+04 0.  0.
        4    1    3    3  502    0 -0.75104323373E+03 -0.11788912834E+04  0.12910825954E+04  0.19028259190E+04  0.12699999809E+01 0. -1.
       -4    1    3    3    0  502  0.75104323373E+03  0.11788912834E+04 -0.15509093296E+04  0.20878630124E+04  0.12699999809E+01 0.  1.
</event>
<event>
 5   0  0.3399500E-08  0.3976071E+04  0.7818609E-02  0.8009391E-01
        1   -1    0    0  501    0  0.00000000000E+00  0.00000000000E+00  0.13808994400E+04  0.13808994400E+04  0.50400001928E-02 0. -1.
       -1   -1    0    0    0  501  0.00000000000E+00  0.00000000000E+00 -0.28621092504E+04  0.28621092504E+04  0.50400001928E-02 0.  1.
    10030    2    1    2    0    0  0.00000000000E+00  0.00000000000E+00 -0.14812098104E+04  0.42430086904E+04  0.39760709556E+04 0.  0.
        2    1    3    3  502    0 -0.11432084887E+04 -0.16197420711E+04 -0.58306209495E+03  0.20665070607E+04  0.25500000920E-02 0.  1.
       -2    1    3    3    0  502  0.11432084887E+04  0.16197420711E+04 -0.89814771545E+03  0.21765016297E+04  0.25500000920E-02 0. -1.
</event>
<event>
 5   0  0.3399500E-08  0.4007998E+04  0.7818609E-02  0.8002935E-01
        1   -1    0    0  501    0  0.00000000000E+00  0.00000000000E+00  0.16480160416E+04  0.16480160416E+04  0.50400001928E-02 0. -1.
       -1   -1    0    0    0  501  0.00000000000E+00  0.00000000000E+00 -0.24368771396E+04  0.24368771396E+04  0.50400001928E-02 0.  1.
    10030    2    1    2    0    0  0.00000000000E+00  0.00000000000E+00 -0.78886109799E+03  0.40848931813E+04  0.40079983122E+04 0.  0.
        3    1    3    3  502    0 -0.90813244003E+02 -0.17806895705E+04  0.53794872050E+03  0.18623885814E+04  0.10100000352E+00 0. -1.
       -3    1    3    3    0  502  0.90813244003E+02  0.17806895705E+04 -0.13268098185E+04  0.22225045999E+04  0.10100000352E+00 0.  1.
</event>
<event>
 5   0  0.3399500E-08  0.3916449E+04  0.7818609E-02  0.8021617E-01
        1   -1    0    0  501    0  0.00000000000E+00  0.00000000000E+00  0.25850084516E+04  0.25850084517E+04  0.50400001928E-02 0. -1.
       -1   -1    0    0    0  501  0.00000000000E+00  0.00000000000E+00 -0.14834164079E+04  0.14834164079E+04  0.50400001928E-02 0.  1.
    10030    2    1    2    0    0  0.00000000000E+00  0.00000000000E+00  0.11015920437E+04  0.40684248596E+04  0.39164493878E+04 0.  0.
        1    1    3    3  502    0 -0.13542797314E+04 -0.19131142842E+03 -0.90500238092E+03  0.16400313909E+04  0.50400001928E-02 0.  1.
       -1    1    3    3    0  502  0.13542797314E+04  0.19131142842E+03  0.20065944247E+04  0.24283934687E+04  0.50400001928E-02 0. -1.
</event>
<event>
 5   0  0.3399500E-08  0.4005795E+04  0.7818609E-02  0.8003378E-01
       -1   -1    0    0    0  501  0.00000000000E+00  0.00000000000E+00  0.16492906202E+04  0.16492906202E+04  0.50400001928E-02 0. -1.
        1   -1    0    0  501    0  0.00000000000E+00  0.00000000000E+00 -0.24323179579E+04  0.24323179579E+04  0.50400001928E-02 0.  1.
    10030    2    1    2    0    0  0.00000000000E+00  0.00000000000E+00 -0.78302733771E+03  0.40816085781E+04  0.40057953983E+04 0.  0.
        3    1    3    3  502    0 -0.54765954472E+03  0.40029942748E+03 -0.23117033566E+04  0.24091789115E+04  0.10100000352E+00 0.  1.
       -3    1    3    3    0  502  0.54765954472E+03 -0.40029942748E+03  0.15286760189E+04  0.16724296665E+04  0.10100000352E+00 0. -1.
</event>
<event>
 5   0  0.1095109E-07  0.3999370E+04  0.7818609E-02  0.8004674E-01
        2   -1    0    0  501    0  0.00000000000E+00  0.00000000000E+00  0.13217165455E+04  0.13217165455E+04  0.25500000920E-02 0.  1.
       -2   -1    0    0    0  501  0.00000000000E+00  0.00000000000E+00 -0.30254148949E+04  0.30254148949E+04  0.25500000920E-02 0. -1.
    10030    2    1    2    0    0  0.00000000000E+00  0.00000000000E+00 -0.17036983495E+04  0.43471314404E+04  0.39993704122E+04 0.  0.
        4    1    3    3  502    0 -0.12752255757E+03  0.12548008116E+04 -0.25385384210E+04  0.28346015606E+04  0.12699999809E+01 0. -1.
       -4    1    3    3    0  502  0.12752255757E+03 -0.12548008116E+04  0.83484007147E+03  0.15125298798E+04  0.12699999809E+01 0.  1.
</event>
<event>
 5   0  0.1073271E-07  0.3919149E+04  0.7818609E-02  0.8021058E-01
        2   -1    0    0  501    0  0.00000000000E+00  0.00000000000E+00  0.18994216157E+04  0.18994216157E+04  0.25500000920E-02 0. -1.
       -2   -1    0    0    0  501  0.00000000000E+00  0.00000000000E+00 -0.20216323044E+04  0.20216323044E+04  0.25500000920E-02 0.  1.
    10030    2    1    2    0    0  0.00000000000E+00  0.00000000000E+00 -0.12221068875E+03  0.39210539201E+04  0.39191489372E+04 0.  0.
        1    1    3    3  502    0  0.14237309261E+04 -0.11699721251E+04 -0.72782822179E+03  0.19813072563E+04  0.50400001928E-02 0.  1.
       -1    1    3    3    0  502 -0.14237309261E+04  0.11699721251E+04  0.60561753304E+03  0.19397466638E+04  0.50400001928E-02 0. -1.
</event>
<event>
 5   0  0.3399500E-08  0.4047044E+04  0.7818609E-02  0.7995123E-01
        1   -1    0    0  501    0  0.00000000000E+00  0.00000000000E+00  0.20466361507E+04  0.20466361507E+04  0.50400001928E-02 0. -1.
       -1   -1    0    0    0  501  0.00000000000E+00  0.00000000000E+00 -0.20006693736E+04  0.20006693736E+04  0.50400001928E-02 0.  1.
    10030    2    1    2    0    0  0.00000000000E+00  0.00000000000E+00  0.45966777147E+02  0.40473055243E+04  0.40470444849E+04 0.  0.
        2    1    3    3  502    0  0.16918402958E+04  0.11047211150E+04 -0.86156309593E+02  0.20224132214E+04  0.25500000920E-02 0.  1.
       -2    1    3    3    0  502 -0.16918402958E+04 -0.11047211150E+04  0.13212308674E+03  0.20248923029E+04  0.25500000920E-02 0. -1.
</event>
<event>
 5   0  0.3399500E-08  0.4019892E+04  0.7818609E-02  0.8000546E-01
        1   -1    0    0  501    0  0.00000000000E+00  0.00000000000E+00  0.18798066538E+04  0.18798066538E+04  0.50400001928E-02 0. -1.
       -1   -1    0    0    0  501  0.00000000000E+00  0.00000000000E+00 -0.21490945051E+04  0.21490945051E+04  0.50400001928E-02 0.  1.
    10030    2    1    2    0    0  0.00000000000E+00  0.00000000000E+00 -0.26928785132E+03  0.40289011589E+04  0.40198916156E+04 0.  0.
        2    1    3    3  502    0 -0.19365303504E+04  0.51046485624E+03 -0.30578372022E+03  0.20258893976E+04  0.25500000920E-02 0.  1.
       -2    1    3    3    0  502  0.19365303504E+04 -0.51046485624E+03  0.36495868897E+02  0.20030117613E+04  0.25500000920E-02 0. -1.
</event>
<event>
 5   0  0.1095109E-07  0.3975823E+04  0.7818609E-02  0.8009442E-01
        2   -1    0    0  501    0  0.00000000000E+00  0.00000000000E+00  0.19564262991E+04  0.19564262991E+04  0.25500000920E-02 0. -1.
       -2   -1    0    0    0  501  0.00000000000E+00  0.00000000000E+00 -0.20199035531E+04  0.20199035531E+04  0.25500000920E-02 0.  1.
    10030    2    1    2    0    0  0.00000000000E+00  0.00000000000E+00 -0.63477254027E+02  0.39763298523E+04  0.39758231515E+04 0.  0.
        4    1    3    3  502    0 -0.18876820649E+04 -0.62316328361E+03 -0.42452780383E+02  0.19883359645E+04  0.12699999809E+01 0. -1.
       -4    1    3    3    0  502  0.18876820649E+04  0.62316328361E+03 -0.21024473643E+02  0.19879938877E+04  0.12699999809E+01 0.  1.
</event>
<event>
 5   0  0.3399500E-08  0.4028011E+04  0.7818609E-02  0.7998920E-01
       -1   -1    0    0    0  501  0.00000000000E+00  0.00000000000E+00  0.31806458926E+04  0.31806458926E+04  0.50400001928E-02 0. -1.
        1   -1    0    0  501    0  0.00000000000E+00  0.00000000000E+00 -0.12752812569E+04  0.12752812569E+04  0.50400001928E-02 0.  1.
    10030    2    1    2    0    0  0.00000000000E+00  0.00000000000E+00  0.19053646357E+04  0.44559271495E+04  0.40280109691E+04 0.  0.
        3    1    3    3  502    0  0.16996221788E+04  0.88448831700E+03  0.16392462171E+04  0.25215398676E+04  0.10100000352E+00 0. -1.
       -3    1    3    3    0  502 -0.16996221788E+04 -0.88448831700E+03  0.26611841853E+03  0.19343872819E+04  0.10100000352E+00 0.  1.
</event>
<event>
 5   0  0.1095109E-07  0.4072283E+04  0.7818609E-02  0.7990121E-01
        2   -1    0    0  501    0  0.00000000000E+00  0.00000000000E+00  0.24478347396E+04  0.24478347396E+04  0.25500000920E-02 0.  1.
       -2   -1    0    0    0  501  0.00000000000E+00  0.00000000000E+00 -0.16936896318E+04  0.16936896318E+04  0.25500000920E-02 0. -1.
    10030    2    1    2    0    0  0.00000000000E+00  0.00000000000E+00  0.75414510777E+03  0.41415243713E+04  0.40722830544E+04 0.  0.
        4    1    3    3  502    0 -0.16908163496E+04 -0.92226583665E+03  0.10489387618E+04  0.21931047263E+04  0.12699999809E+01 0.  1.
       -4    1    3    3    0  502  0.16908163496E+04  0.92226583665E+03 -0.29479365406E+03  0.19484196450E+04  0.12699999809E+01 0. -1.
</event>
<event>
 5   0  0.3399500E-08  0.3962995E+04  0.7818609E-02  0.8012053E-01
       -1   -1    0    0    0  501  0.00000000000E+00  0.00000000000E+00  0.15829169733E+04  0.15829169733E+04  0.50400001928E-02 0.  1.
        1   -1    0    0  501    0  0.00000000000E+00  0.00000000000E+00 -0.24804414848E+04  0.24804414848E+04  0.50400001928E-02 0. -1.
    10030    2    1    2    0    0  0.00000000000E+00  0.00000000000E+00 -0.89752451149E+03  0.40633584581E+04  0.39629952952E+04 0.  0.
        3    1    3    3  502    0 -0.11426017813E+04  0.10022645414E+04  0.85475617233E+03  0.17437549043E+04  0.10100000352E+00 0.  1.
       -3    1    3    3    0  502  0.11426017813E+04 -0.10022645414E+04 -0.17522806838E+04  0.23196035538E+04  0.10100000352E+00 0. -1.
</event>
<event>
 5   0  0.3399500E-08  0.3973248E+04  0.7818609E-02  0.8009965E-01
        1   -1    0    0  501    0  0.00000000000E+00  0.00000000000E+00  0.14442954027E+04  0.14442954027E+04  0.50400001928E-02 0.  1.
       -1   -1    0    0    0  501  0.00000000000E+00  0.00000000000E+00 -0.27325957460E+04  0.27325957460E+04  0.50400001928E-02 0. -1.
    10030    2    1    2    0    0  0.00000000000E+00  0.00000000000E+00 -0.12883003434E+04  0.41768911487E+04  0.39732482799E+04 0.  0.
        3    1    3    3  502    0  0.15594470685E+04  0.11675617228E+04 -0.23483584133E+03  0.19621986185E+04  0.10100000352E+00 0.  1.
       -3    1    3    3    0  502 -0.15594470685E+04 -0.11675617228E+04 -0.10534645020E+04  0.22146925302E+04  0.10100000352E+00 0. -1.
</event>
<event>
 5   0  0.1095109E-07  0.3999200E+04  0.7818609E-02  0.8004708E-01
       -2   -1    0    0    0  501  0.00000000000E+00  0.00000000000E+00  0.24067522810E+04  0.24067522810E+04  0.25500000920E-02 0.  1.
        2   -1    0    0  501    0  0.00000000000E+00  0.00000000000E+00 -0.16613259365E+04  0.16613259365E+04  0.25500000920E-02 0. -1.
    10030    2    1    2    0    0  0.00000000000E+00  0.00000000000E+00  0.74542634452E+03  0.40680782176E+04  0.39991999136E+04 0.  0.
        4    1    3    3  502    0  0.10440205878E+04 -0.14763884604E+04  0.12410526023E+04  0.21931518526E+04  0.12699999809E+01 0.  1.
       -4    1    3    3    0  502 -0.10440205878E+04  0.14763884604E+04 -0.49562625779E+03  0.18749263650E+04  0.12699999809E+01 0. -1.
</event>
<event>
 5   0  0.1073271E-07  0.4043498E+04  0.7818609E-02  0.7995829E-01
        2   -1    0    0  501    0  0.00000000000E+00  0.00000000000E+00  0.17631089838E+04  0.17631089838E+04  0.25500000920E-02 0. -1.
       -2   -1    0    0    0  501  0.00000000000E+00  0.00000000000E+00 -0.23183305524E+04  0.23183305524E+04  0.25500000920E-02 0.  1.
    10030    2    1    2    0    0  0.00000000000E+00  0.00000000000E+00 -0.55522156861E+03  0.40814395362E+04  0.40434982005E+04 0.  0.
        1    1    3    3  502    0 -0.38707401671E+03 -0.21237397640E+03  0.17138542182E+04  0.17698093913E+04  0.50400001928E-02 0. -1.
       -1    1    3    3    0  502  0.38707401671E+03  0.21237397640E+03 -0.22690757868E+04  0.23116301449E+04  0.50400001928E-02 0.  1.
</event>
<event>
 5   0  0.1087688E-07  0.4017924E+04  0.7818609E-02  0.8000940E-01
        2   -1    0    0  501    0  0.00000000000E+00  0.00000000000E+00  0.20833808844E+04  0.20833808844E+04  0.25500000920E-02 0.  1.
       -2   -1    0    0    0  501  0.00000000000E+00  0.00000000000E+00 -0.19372013034E+04  0.19372013034E+04  0.25500000920E-02 0. -1.
    10030    2    1    2    0    0  0.00000000000E+00  0.00000000000E+00  0.14617958097E+03  0.40205821878E+04  0.40179239240E+04 0.  0.
        2    1    3    3  502    0  0.11781364539E+04 -0.16272158026E+04  0.63523528242E+02  0.20099432855E+04  0.25500000920E-02 0. -1.
       -2    1    3    3    0  502 -0.11781364539E+04  0.16272158026E+04  0.82656052732E+02  0.20106389023E+04  0.25500000920E-02 0.  1.
</event>
<event>
 5   0  0.1095109E-07  0.3988074E+04  0.7818609E-02  0.8006957E-01
       -2   -1    0    0    0  501  0.00000000000E+00  0.00000000000E+00  0.30996419260E+04  0.30996419260E+04  0.25500000920E-02 0. -1.
        2   -1    0    0  501    0  0.00000000000E+00  0.00000000000E+00 -0.12827881790E+04  0.12827881790E+04  0.25500000920E-02 0.  1.
    10030    2    1    2    0    0  0.00000000000E+00  0.00000000000E+00  0.18168537470E+04  0.43824301050E+04  0.39880742329E+04 0.  0.
        4    1    3    3  502    0 -0.19462461318E+04 -0.33656310225E+03  0.12094361588E+04  0.23160065118E+04  0.12699999809E+01 0.  1.
       -4    1    3    3    0  502  0.19462461318E+04  0.33656310225E+03  0.60741758812E+03  0.20664235932E+04  0.12699999809E+01 0. -1.
</event>
<event>
 5   0  0.3399500E-08  0.4005890E+04  0.7818609E-02  0.8003359E-01
       -1   -1    0    0    0  501  0.00000000000E+00  0.00000000000E+00  0.23845998889E+04  0.23845998889E+04  0.50400001928E-02 0.  1.
        1   -1    0    0  501    0  0.00000000000E+00  0.00000000000E+00 -0.16823738236E+04  0.16823738236E+04  0.50400001928E-02 0. -1.
    10030    2    1    2    0    0  0.00000000000E+00  0.00000000000E+00  0.70222606521E+03  0.40669737125E+04  0.40058898801E+04 0.  0.
        1    1    3    3  502    0  0.50662648724E+01  0.11039803994E+04 -0.13455947522E+04  0.17405239517E+04  0.50400001928E-02 0. -1.
       -1    1    3    3    0  502 -0.50662648724E+01 -0.11039803994E+04  0.20478208174E+04  0.23264497608E+04  0.50400001928E-02 0.  1.
</event>
<event>
 5   0  0.3399500E-08  0.4005266E+04  0.7818609E-02  0.8003485E-01
        1   -1    0    0  501    0  0.00000000000E+00  0.00000000000E+00  0.20604629210E+04  0.20604629210E+04  0.50400001928E-02 0. -1.
       -1   -1    0    0    0  501  0.00000000000E+00  0.00000000000E+00 -0.19464266157E+04  0.19464266157E+04  0.50400001928E-02 0.  1.
    10030    2    1    2    0    0  0.00000000000E+00  0.00000000000E+00  0.11403630529E+03  0.40068895367E+04  0.40052664681E+04 0.  0.
        3    1    3    3  502    0 -0.10651071568E+04  0.13890312443E+04 -0.91635033589E+03  0.19757426455E+04  0.10100000352E+00 0.  1.
       -3    1    3    3    0  502  0.10651071568E+04 -0.13890312443E+04  0.10303866412E+04  0.20311468912E+04  0.10100000352E+00 0. -1.
</event>
<event>
 5   0  0.1087688E-07  0.3931961E+04  0.7818609E-02  0.8018415E-01
       -2   -1    0    0    0  501  0.00000000000E+00  0.00000000000E+00  0.27661097823E+04  0.27661097823E+04  0.25500000920E-02 0. -1.
        2   -1    0    0  501    0  0.00000000000E+00  0.00000000000E+00 -0.13972978686E+04  0.13972978686E+04  0.25500000920E-02 0.  1.
    10030    2    1    2    0    0  0.00000000000E+00  0.00000000000E+00  0.13688119137E+04  0.41634076509E+04  0.39319609882E+04 0.  0.
        2    1    3    3  502    0 -0.67118594126E+03  0.35439169897E+03 -0.12359041137E+04  0.14503596183E+04  0.25500000920E-02 0.  1.
       -2    1    3    3    0  502  0.67118594126E+03 -0.35439169897E+03  0.26047160274E+04  0.27130480326E+04  0.25500000920E-02 0. -1.
</event>
<event>
 5   0  0.3399500E-08  0.4013823E+04  0.7818609E-02  0.8001764E-01
        1   -1    0    0  501    0  0.00000000000E+00  0.00000000000E+00  0.20635027878E+04  0.20635027878E+04  0.50400001928E-02 0.  1.
       -1   -1    0    0    0  501  0.00000000000E+00  0.00000000000E+00 -0.19518720131E+04  0.19518720131E+04  0.50400001928E-02 0. -1.
    10030    2    1    2    0    0  0.00000000000E+00  0.00000000000E+00  0.11163077467E+03  0.40153748009E+04  0.40138227866E+04 0.  0.
        2    1    3    3  502    0 -0.94177322598E+03 -0.80402746241E+03 -0.15241294440E+04  0.19637636140E+04  0.25500000920E-02 0. -1.
       -2    1    3    3    0  502  0.94177322598E+03  0.80402746241E+03  0.16357602187E+04  0.20516111870E+04  0.25500000920E-02 0.  1.
</event>
<event>
 5   0  0.3399500E-08  0.3598803E+04  0.7818609E-02  0.8090766E-01
        1   -1    0    0  501    0  0.00000000000E+00  0.00000000000E+00  0.18550911290E+04  0.18550911290E+04  0.50400001928E-02 0. -1.
       -1   -1    0    0    0  501  0.00000000000E+00  0.00000000000E+00 -0.17453835655E+04  0.17453835655E+04  0.50400001928E-02 0.  1.
    10030    2    1    2    0    0  0.00000000000E+00  0.00000000000E+00  0.10970756351E+03  0.36004746945E+04  0.35988028949E+04 0.  0.
        4    1    3    3  502    0  0.17563079444E+04  0.27151743754E+03  0.33695044162E+03  0.18088329186E+04  0.12699999809E+01 0.  1.
       -4    1    3    3    0  502 -0.17563079444E+04 -0.27151743754E+03 -0.22724287812E+03  0.17916417759E+04  0.12699999809E+01 0. -1.
</event>
<event>
 5   0  0.3399500E-08  0.3996152E+04  0.7818609E-02  0.8005323E-01
        1   -1    0    0  501    0  0.00000000000E+00  0.00000000000E+00  0.22734184944E+04  0.22734184944E+04  0.50400001928E-02 0.  1.
       -1   -1    0    0    0  501  0.00000000000E+00  0.00000000000E+00 -0.17560814632E+04  0.17560814632E+04  0.50400001928E-02 0. -1.
    10030    2    1    2    0    0  0.00000000000E+00  0.00000000000E+00  0.51733703123E+03  0.40294999577E+04  0.39961521874E+04 0.  0.
        4    1    3    3  502    0  0.18736707587E+03  0.19599593203E+04  0.60174224750E+03  0.20587963240E+04  0.12699999809E+01 0. -1.
       -4    1    3    3    0  502 -0.18736707587E+03 -0.19599593203E+04 -0.84405216268E+02  0.19707036337E+04  0.12699999809E+01 0.  1.
</event>
<event>
 5   0  0.1087688E-07  0.3963460E+04  0.7818609E-02  0.8011959E-01
       -2   -1    0    0    0  501  0.00000000000E+00  0.00000000000E+00  0.14868842644E+04  0.14868842644E+04  0.25500000920E-02 0.  1.
        2   -1    0    0  501    0  0.00000000000E+00  0.00000000000E+00 -0.26412634211E+04  0.26412634211E+04  0.25500000920E-02 0. -1.
    10030    2    1    2    0    0  0.00000000000E+00  0.00000000000E+00 -0.11543791567E+04  0.41281476855E+04  0.39634596095E+04 0.  0.
        2    1    3    3  502    0  0.10314291214E+04  0.16921579247E+04 -0.58023413402E+03  0.20649252105E+04  0.25500000920E-02 0. -1.
       -2    1    3    3    0  502 -0.10314291214E+04 -0.16921579247E+04 -0.57414502268E+03  0.20632224751E+04  0.25500000920E-02 0.  1.
</event>
<event>
 5   0  0.3399500E-08  0.3988433E+04  0.7818609E-02  0.8006884E-01
        1   -1    0    0  501    0  0.00000000000E+00  0.00000000000E+00  0.17430734295E+04  0.17430734295E+04  0.50400001928E-02 0.  1.
       -1   -1    0    0    0  501  0.00000000000E+00  0.00000000000E+00 -0.22815440490E+04  0.22815440490E+04  0.50400001928E-02 0. -1.
    10030    2    1    2    0    0  0.00000000000E+00  0.00000000000E+00 -0.53847061952E+03  0.40246174786E+04  0.39884326797E+04 0.  0.
        1    1    3    3  502    0 -0.60555165604E+03  0.12029465881E+04  0.12148648173E+04  0.18137446971E+04  0.50400001928E-02 0.  1.
       -1    1    3    3    0  502  0.60555165604E+03 -0.12029465881E+04 -0.17533354368E+04  0.22108727815E+04  0.50400001928E-02 0. -1.
</event>
<event>
 5   0  0.1087688E-07  0.3997520E+04  0.7818609E-02  0.8005047E-01
        2   -1    0    0  501    0  0.00000000000E+00  0.00000000000E+00  0.18658982901E+04  0.18658982901E+04  0.25500000920E-02 0.  1.
       -2   -1    0    0    0  501  0.00000000000E+00  0.00000000000E+00 -0.21410818470E+04  0.21410818470E+04  0.25500000920E-02 0. -1.
    10030    2    1    2    0    0  0.00000000000E+00  0.00000000000E+00 -0.27518355698E+03  0.40069801371E+04  0.39975197097E+04 0.  0.
        2    1    3    3  502    0  0.70778713189E+02  0.17869613325E+04 -0.10323411093E+04  0.20649379158E+04  0.25500000920E-02 0. -1.
       -2    1    3    3    0  502 -0.70778713189E+02 -0.17869613325E+04  0.75715755230E+03  0.19420422213E+04  0.25500000920E-02 0.  1.
</event>
<event>
 5   0  0.1087688E-07  0.4020618E+04  0.7818609E-02  0.8000400E-01
        2   -1    0    0  501    0  0.00000000000E+00  0.00000000000E+00  0.12878520694E+04  0.12878520694E+04  0.25500000920E-02 0. -1.
       -2   -1    0    0    0  501  0.00000000000E+00  0.00000000000E+00 -0.31380478002E+04  0.31380478002E+04  0.25500000920E-02 0.  1.
    10030    2    1    2    0    0  0.00000000000E+00  0.00000000000E+00 -0.18501957308E+04  0.44258998696E+04  0.40206175413E+04 0.  0.
        2    1    3    3  502    0 -0.61361008795E+03 -0.10564912907E+03 -0.30292300617E+04  0.30925578160E+04  0.25500000920E-02 0.  1.
       -2    1    3    3    0  502  0.61361008795E+03  0.10564912907E+03  0.11790343309E+04  0.13333420536E+04  0.25500000920E-02 0. -1.
</event>
<event>
 5   0  0.1087688E-07  0.4009104E+04  0.7818609E-02  0.8002712E-01
       -2   -1    0    0    0  501  0.00000000000E+00  0.00000000000E+00  0.17004881229E+04  0.17004881229E+04  0.25500000920E-02 0.  1.
        2   -1    0    0  501    0  0.00000000000E+00  0.00000000000E+00 -0.23629857120E+04  0.23629857121E+04  0.25500000920E-02 0. -1.
    10030    2    1    2    0    0  0.00000000000E+00  0.00000000000E+00 -0.66249758914E+03  0.40634738350E+04  0.40091042081E+04 0.  0.
        2    1    3    3  502    0  0.19723020705E+04  0.31839548059E+03 -0.16508033810E+03  0.20046452697E+04  0.25500000920E-02 0.  1.
       -2    1    3    3    0  502 -0.19723020705E+04 -0.31839548059E+03 -0.49741725104E+03  0.20588285652E+04  0.25500000920E-02 0. -1.
</event>
<event>
 5   0  0.1073271E-07  0.4003091E+04  0.7818609E-02  0.8003923E-01
        2   -1    0    0  501    0  0.00000000000E+00  0.00000000000E+00  0.23132302346E+04  0.23132302346E+04  0.25500000920E-02 0. -1.
       -2   -1    0    0    0  501  0.00000000000E+00  0.00000000000E+00 -0.17318567514E+04  0.17318567514E+04  0.25500000920E-02 0.  1.
    10030    2    1    2    0    0  0.00000000000E+00  0.00000000000E+00  0.58137348316E+03  0.40450869860E+04  0.40030905057E+04 0.  0.
        1    1    3    3  502    0  0.29598649275E+03 -0.15867362941E+04 -0.90530240653E+03  0.18506519170E+04  0.50400001928E-02 0.  1.
       -1    1    3    3    0  502 -0.29598649275E+03  0.15867362941E+04  0.14866758897E+04  0.21944350689E+04  0.50400001928E-02 0. -1.
</event>
<event>
 5   0  0.3399500E-08  0.3994117E+04  0.7818609E-02  0.8005734E-01
       -1   -1    0    0    0  501  0.00000000000E+00  0.00000000000E+00  0.23491949168E+04  0.23491949168E+04  0.50400001928E-02 0. -1.
        1   -1    0    0  501    0  0.00000000000E+00  0.00000000000E+00 -0.16977064867E+04  0.16977064867E+04  0.50400001928E-02 0.  1.
    10030    2    1    2    0    0  0.00000000000E+00  0.00000000000E+00  0.65148843010E+03  0.40469014034E+04  0.39941173987E+04 0.  0.
        2    1    3    3  502    0 -0.19720809313E+04  0.82650522144E+02  0.63358357735E+03  0.20730080699E+04  0.25500000920E-02 0. -1.
       -2    1    3    3    0  502  0.19720809313E+04 -0.82650522144E+02  0.17904852749E+02  0.19738933335E+04  0.25500000920E-02 0.  1.
</event>
<event>
 5   0  0.1095109E-07  0.4065118E+04  0.7818609E-02  0.7991537E-01
       -2   -1    0    0    0  501  0.00000000000E+00  0.00000000000E+00  0.15731844847E+04  0.15731844847E+04  0.25500000920E-02 0. -1.
        2   -1    0    0  501    0  0.00000000000E+00  0.00000000000E+00 -0.26260726076E+04  0.26260726076E+04  0.25500000920E-02 0.  1.
    10030    2    1    2    0    0  0.00000000000E+00  0.00000000000E+00 -0.10528881229E+04  0.41992570923E+04  0.40651182920E+04 0.  0.
        4    1    3    3  502    0  0.12442786493E+04  0.19481985950E+03 -0.21744267110E+04  0.25128305293E+04  0.12699999809E+01 0.  1.
       -4    1    3    3    0  502 -0.12442786493E+04 -0.19481985950E+03  0.11215385881E+04  0.16864265630E+04  0.12699999809E+01 0. -1.
</event>
<event>
 5   0  0.1101474E-07  0.3945677E+04  0.7818609E-02  0.8015596E-01
       -2   -1    0    0    0  501  0.00000000000E+00  0.00000000000E+00  0.23593784074E+04  0.23593784074E+04  0.25500000920E-02 0.  1.
        2   -1    0    0  501    0  0.00000000000E+00  0.00000000000E+00 -0.16496262145E+04  0.16496262145E+04  0.25500000920E-02 0. -1.
    10030    2    1    2    0    0  0.00000000000E+00  0.00000000000E+00  0.70975219289E+03  0.40090046220E+04  0.39456773669E+04 0.  0.
        5    1    3    3  502    0 -0.10874374529E+04  0.97202749302E+03  0.17046219261E+04  0.22434606442E+04  0.46999998093E+01 0.  1.
       -5    1    3    3    0  502  0.10874374529E+04 -0.97202749302E+03 -0.99486973322E+03  0.17655439777E+04  0.46999998093E+01 0. -1.
</event>
<event>
 5   0  0.3399500E-08  0.3933199E+04  0.7818609E-02  0.8018160E-01
       -1   -1    0    0    0  501  0.00000000000E+00  0.00000000000E+00  0.15342266077E+04  0.15342266077E+04  0.50400001928E-02 0. -1.
        1   -1    0    0  501    0  0.00000000000E+00  0.00000000000E+00 -0.25208226289E+04  0.25208226289E+04  0.50400001928E-02 0.  1.
    10030    2    1    2    0    0  0.00000000000E+00  0.00000000000E+00 -0.98659602121E+03  0.40550492365E+04  0.39331987748E+04 0.  0.
        5    1    3    3  502    0  0.12663626277E+04 -0.13522460031E+01  0.10579123480E+04  0.16501141656E+04  0.46999998093E+01 0. -1.
       -5    1    3    3    0  502 -0.12663626277E+04  0.13522460031E+01 -0.20445083692E+04  0.24049350709E+04  0.46999998093E+01 0.  1.
</event>
<event>
 5   0  0.1101474E-07  0.3988675E+04  0.7818609E-02  0.8006835E-01
       -2   -1    0    0    0  501  0.00000000000E+00  0.00000000000E+00  0.16001981691E+04  0.16001981691E+04  0.25500000920E-02 0.  1.
        2   -1    0    0  501    0  0.00000000000E+00  0.00000000000E+00 -0.24855554083E+04  0.24855554083E+04  0.25500000920E-02 0. -1.
    10030    2    1    2    0    0  0.00000000000E+00  0.00000000000E+00 -0.88535723921E+03  0.40857535773E+04  0.39886745735E+04 0.  0.
        5    1    3    3  502    0  0.43065019971E+03  0.83617550625E+03 -0.22440911024E+04  0.24332316038E+04  0.46999998093E+01 0. -1.
       -5    1    3    3    0  502 -0.43065019971E+03 -0.83617550625E+03  0.13587338632E+04  0.16525219735E+04  0.46999998093E+01 0.  1.
</event>
<event>
 5   0  0.3399500E-08  0.3905806E+04  0.7818609E-02  0.8023823E-01
        1   -1    0    0  501    0  0.00000000000E+00  0.00000000000E+00  0.21212766137E+04  0.21212766137E+04  0.50400001928E-02 0. -1.
       -1   -1    0    0    0  501  0.00000000000E+00  0.00000000000E+00 -0.17978941702E+04  0.17978941702E+04  0.50400001928E-02 0.  1.
    10030    2    1    2    0    0  0.00000000000E+00  0.00000000000E+00  0.32338244356E+03  0.39191707839E+04  0.39058063737E+04 0.  0.
        5    1    3    3  502    0  0.16120963545E+04 -0.63804131359E+03  0.10635755305E+04  0.20340025500E+04  0.46999998093E+01 0. -1.
       -5    1    3    3    0  502 -0.16120963545E+04  0.63804131359E+03 -0.74019308698E+03  0.18851682339E+04  0.46999998093E+01 0.  1.
</event>
<event>
 5   0  0.1101474E-07  0.4060555E+04  0.7818609E-02  0.7992441E-01
        2   -1    0    0  501    0  0.00000000000E+00  0.00000000000E+00  0.29001907857E+04  0.29001907857E+04  0.25500000920E-02 0.  1.
       -2   -1    0    0    0  501  0.00000000000E+00  0.00000000000E+00 -0.14212946774E+04  0.14212946774E+04  0.25500000920E-02 0. -1.
    10030    2    1    2    0    0  0.00000000000E+00  0.00000000000E+00  0.14788961083E+04  0.43214854631E+04  0.40605545075E+04 0.  0.
        5    1    3    3  502    0  0.37764456466E+03  0.11612730018E+03  0.28588763959E+04  0.28860522005E+04  0.46999998093E+01 0.  1.
       -5    1    3    3    0  502 -0.37764456466E+03 -0.11612730018E+03 -0.13799802876E+04  0.14354332625E+04  0.46999998093E+01 0. -1.
</event>
<event>
 5   0  0.1087688E-07  0.3992535E+04  0.7818609E-02  0.8006054E-01
        2   -1    0    0  501    0  0.00000000000E+00  0.00000000000E+00  0.18532825429E+04  0.18532825429E+04  0.25500000920E-02 0. -1.
       -2   -1    0    0    0  501  0.00000000000E+00  0.00000000000E+00 -0.21502837290E+04  0.21502837290E+04  0.25500000920E-02 0.  1.
    10030    2    1    2    0    0  0.00000000000E+00  0.00000000000E+00 -0.29700118614E+03  0.40035662719E+04  0.39925346822E+04 0.  0.
        2    1    3    3  502    0 -0.10197730938E+04 -0.10298973324E+04 -0.15250490750E+04  0.21039012237E+04  0.25500000920E-02 0. -1.
       -2    1    3    3    0  502  0.10197730938E+04  0.10298973324E+04  0.12280478889E+04  0.18996650482E+04  0.25500000920E-02 0.  1.
</event>
<event>
 5   0  0.3399500E-08  0.3886236E+04  0.7818609E-02  0.8027898E-01
        1   -1    0    0  501    0  0.00000000000E+00  0.00000000000E+00  0.17655275135E+04  0.17655275135E+04  0.50400001928E-02 0. -1.
       -1   -1    0    0    0  501  0.00000000000E+00  0.00000000000E+00 -0.21385724437E+04  0.21385724437E+04  0.50400001928E-02 0.  1.
    10030    2    1    2    0    0  0.00000000000E+00  0.00000000000E+00 -0.37304493015E+03  0.39040999572E+04  0.38862364771E+04 0.  0.
        1    1    3    3  502    0  0.13390881771E+02  0.99942568734E+03  0.14874735611E+04  0.17920961512E+04  0.50400001928E-02 0. -1.
       -1    1    3    3    0  502 -0.13390881771E+02 -0.99942568734E+03 -0.18605184912E+04  0.21120038060E+04  0.50400001928E-02 0.  1.
</event>
<event>
 5   0  0.3399500E-08  0.4036746E+04  0.7818609E-02  0.7997174E-01
       -1   -1    0    0    0  501  0.00000000000E+00  0.00000000000E+00  0.24592148060E+04  0.24592148060E+04  0.50400001928E-02 0.  1.
        1   -1    0    0  501    0  0.00000000000E+00  0.00000000000E+00 -0.16565570567E+04  0.16565570567E+04  0.50400001928E-02 0. -1.
    10030    2    1    2    0    0  0.00000000000E+00  0.00000000000E+00  0.80265774927E+03  0.41157718627E+04  0.40367460365E+04 0.  0.
        3    1    3    3  502    0 -0.39702852311E+03  0.11907378138E+04 -0.12102284642E+04  0.17436000502E+04  0.10100000352E+00 0. -1.
       -3    1    3    3    0  502  0.39702852311E+03 -0.11907378138E+04  0.20128862135E+04  0.23721718125E+04  0.10100000352E+00 0.  1.
</event>
<event>
 5   0  0.1095109E-07  0.3983619E+04  0.7818609E-02  0.8007859E-01
        2   -1    0    0  501    0  0.00000000000E+00  0.00000000000E+00  0.26285857340E+04  0.26285857341E+04  0.25500000920E-02 0. -1.
       -2   -1    0    0    0  501  0.00000000000E+00  0.00000000000E+00 -0.15092923942E+04  0.15092923942E+04  0.25500000920E-02 0.  1.
    10030    2    1    2    0    0  0.00000000000E+00  0.00000000000E+00  0.11192933399E+04  0.41378781282E+04  0.39836186845E+04 0.  0.
        4    1    3    3  502    0  0.19506350664E+04  0.39865692679E+03  0.62019930612E+03  0.20853185128E+04  0.12699999809E+01 0. -1.
       -4    1    3    3    0  502 -0.19506350664E+04 -0.39865692679E+03  0.49909403377E+03  0.20525596154E+04  0.12699999809E+01 0.  1.
</event>
<event>
 5   0  0.1095109E-07  0.3903531E+04  0.7818609E-02  0.8024295E-01
       -2   -1    0    0    0  501  0.00000000000E+00  0.00000000000E+00  0.16487907235E+04  0.16487907235E+04  0.25500000920E-02 0.  1.
        2   -1    0    0  501    0  0.00000000000E+00  0.00000000000E+00 -0.23104136793E+04  0.23104136793E+04  0.25500000920E-02 0. -1.
    10030    2    1    2    0    0  0.00000000000E+00  0.00000000000E+00 -0.66162295573E+03  0.39592044028E+04  0.39035310384E+04 0.  0.
        4    1    3    3  502    0 -0.13093479941E+03  0.51499514102E+03 -0.22356336586E+04  0.22979171842E+04  0.12699999809E+01 0. -1.
       -4    1    3    3    0  502  0.13093479941E+03 -0.51499514102E+03  0.15740107029E+04  0.16612872186E+04  0.12699999809E+01 0.  1.
</event>
<event>
 5   0  0.1073271E-07  0.4006699E+04  0.7818609E-02  0.8003196E-01
       -2   -1    0    0    0  501  0.00000000000E+00  0.00000000000E+00  0.15889379186E+04  0.15889379186E+04  0.25500000920E-02 0.  1.
        2   -1    0    0  501    0  0.00000000000E+00  0.00000000000E+00 -0.25258444358E+04  0.25258444358E+04  0.25500000920E-02 0. -1.
    10030    2    1    2    0    0  0.00000000000E+00  0.00000000000E+00 -0.93690651718E+03  0.41147823545E+04  0.40066993901E+04 0.  0.
        1    1    3    3  502    0  0.86771247923E+03  0.31830314898E+03 -0.22938046476E+04  0.24730106354E+04  0.50400001928E-02 0. -1.
       -1    1    3    3    0  502 -0.86771247923E+03 -0.31830314898E+03  0.13568981304E+04  0.16417717191E+04  0.50400001928E-02 0.  1.
</event>
<event>
 5   0  0.1101474E-07  0.4014681E+04  0.7818609E-02  0.8001591E-01
       -2   -1    0    0    0  501  0.00000000000E+00  0.00000000000E+00  0.24187881604E+04  0.24187881604E+04  0.25500000920E-02 0.  1.
        2   -1    0    0  501    0  0.00000000000E+00  0.00000000000E+00 -0.16658820879E+04  0.16658820879E+04  0.25500000920E-02 0. -1.
    10030    2    1    2    0    0  0.00000000000E+00  0.00000000000E+00  0.75290607244E+03  0.40846702483E+04  0.40146809940E+04 0.  0.
        5    1    3    3  502    0 -0.28217731953E+03 -0.18901894080E+04  0.10011220882E+04  0.21574771293E+04  0.46999998093E+01 0. -1.
       -5    1    3    3    0  502  0.28217731953E+03  0.18901894080E+04 -0.24821601578E+03  0.19271931191E+04  0.46999998093E+01 0.  1.
</event>
<event>
 5   0  0.3399500E-08  0.4013890E+04  0.7818609E-02  0.8001750E-01
       -1   -1    0    0    0  501  0.00000000000E+00  0.00000000000E+00  0.20505640513E+04  0.20505640513E+04  0.50400001928E-02 0. -1.
        1   -1    0    0  501    0  0.00000000000E+00  0.00000000000E+00 -0.19642534638E+04  0.19642534638E+04  0.50400001928E-02 0.  1.
    10030    2    1    2    0    0  0.00000000000E+00  0.00000000000E+00  0.86310587519E+02  0.40148175151E+04  0.40138896549E+04 0.  0.
        3    1    3    3  502    0 -0.88531614827E+03 -0.14868930178E+04 -0.97354019995E+03  0.19855518275E+04  0.10100000352E+00 0.  1.
       -3    1    3    3    0  502  0.88531614827E+03  0.14868930178E+04  0.10598507875E+04  0.20292656875E+04  0.10100000352E+00 0. -1.
</event>
<event>
 5   0  0.3399500E-08  0.3993306E+04  0.7818609E-02  0.8005898E-01
       -1   -1    0    0    0  501  0.00000000000E+00  0.00000000000E+00  0.29500319862E+04  0.29500319862E+04  0.50400001928E-02 0. -1.
        1   -1    0    0  501    0  0.00000000000E+00  0.00000000000E+00 -0.13513828089E+04  0.13513828089E+04  0.50400001928E-02 0.  1.
    10030    2    1    2    0    0  0.00000000000E+00  0.00000000000E+00  0.15986491773E+04  0.43014147951E+04  0.39933056541E+04 0.  0.
        1    1    3    3  502    0 -0.95640396308E+03  0.47008545342E+02  0.26865641566E+04  0.28521124297E+04  0.50400001928E-02 0. -1.
       -1    1    3    3    0  502  0.95640396308E+03 -0.47008545342E+02 -0.10879149793E+04  0.14493023654E+04  0.50400001928E-02 0.  1.
</event>
<event>
 5   0  0.1087688E-07  0.4016659E+04  0.7818609E-02  0.8001194E-01
       -2   -1    0    0    0  501  0.00000000000E+00  0.00000000000E+00  0.20511590457E+04  0.20511590457E+04  0.25500000920E-02 0. -1.
        2   -1    0    0  501    0  0.00000000000E+00  0.00000000000E+00 -0.19663943094E+04  0.19663943094E+04  0.25500000920E-02 0.  1.
    10030    2    1    2    0    0  0.00000000000E+00  0.00000000000E+00  0.84764736295E+02  0.40175533551E+04  0.40166590471E+04 0.  0.
        2    1    3    3  502    0 -0.93357338069E+03 -0.23033723091E+03  0.18059462221E+04  0.20459853993E+04  0.25500000920E-02 0. -1.
       -2    1    3    3    0  502  0.93357338069E+03  0.23033723091E+03 -0.17211814858E+04  0.19715679558E+04  0.25500000920E-02 0.  1.
</event>
<event>
 5   0  0.3399500E-08  0.4127397E+04  0.7818609E-02  0.7979328E-01
       -1   -1    0    0    0  501  0.00000000000E+00  0.00000000000E+00  0.21919231546E+04  0.21919231546E+04  0.50400001928E-02 0. -1.
        1   -1    0    0  501    0  0.00000000000E+00  0.00000000000E+00 -0.19429749338E+04  0.19429749339E+04  0.50400001928E-02 0.  1.
    10030    2    1    2    0    0  0.00000000000E+00  0.00000000000E+00  0.24894822074E+03  0.41348980884E+04  0.41273971199E+04 0.  0.
        5    1    3    3  502    0 -0.11210654584E+04  0.76391501215E+02  0.18585751751E+04  0.21718534008E+04  0.46999998093E+01 0. -1.
       -5    1    3    3    0  502  0.11210654584E+04 -0.76391501215E+02 -0.16096269543E+04  0.19630446876E+04  0.46999998093E+01 0.  1.
</event>
<event>
 5   0  0.3399500E-08  0.3997087E+04  0.7818609E-02  0.8005134E-01
       -1   -1    0    0    0  501  0.00000000000E+00  0.00000000000E+00  0.15400297894E+04  0.15400297894E+04  0.50400001928E-02 0. -1.
        1   -1    0    0  501    0  0.00000000000E+00  0.00000000000E+00 -0.25935706589E+04  0.25935706589E+04  0.50400001928E-02 0.  1.
    10030    2    1    2    0    0  0.00000000000E+00  0.00000000000E+00 -0.10535408695E+04  0.41336004483E+04  0.39970869771E+04 0.  0.
        3    1    3    3  502    0 -0.25696560575E+03 -0.16685443720E+04 -0.16329298721E+04  0.23487297889E+04  0.10100000352E+00 0.  1.
       -3    1    3    3    0  502  0.25696560575E+03  0.16685443720E+04  0.57938900265E+03  0.17848706593E+04  0.10100000352E+00 0. -1.
</event>
<event>
 5   0  0.3399500E-08  0.3998317E+04  0.7818609E-02  0.8004886E-01
       -1   -1    0    0    0  501  0.00000000000E+00  0.00000000000E+00  0.30061315069E+04  0.30061315069E+04  0.50400001928E-02 0.  1.
        1   -1    0    0  501    0  0.00000000000E+00  0.00000000000E+00 -0.13294943260E+04  0.13294943260E+04  0.50400001928E-02 0. -1.
    10030    2    1    2    0    0  0.00000000000E+00  0.00000000000E+00  0.16766371808E+04  0.43356258329E+04  0.39983170368E+04 0.  0.
        2    1    3    3  502    0  0.56233374681E+03 -0.15157216353E+04 -0.43690459899E+03  0.16746692053E+04  0.25500000920E-02 0. -1.
       -2    1    3    3    0  502 -0.56233374681E+03  0.15157216353E+04  0.21135417798E+04  0.26609566276E+04  0.25500000920E-02 0.  1.
</event>
<event>
 5   0  0.1087688E-07  0.3972194E+04  0.7818609E-02  0.8010179E-01
        2   -1    0    0  501    0  0.00000000000E+00  0.00000000000E+00  0.13606459344E+04  0.13606459344E+04  0.25500000920E-02 0.  1.
       -2   -1    0    0    0  501  0.00000000000E+00  0.00000000000E+00 -0.28990508366E+04  0.28990508366E+04  0.25500000920E-02 0. -1.
    10030    2    1    2    0    0  0.00000000000E+00  0.00000000000E+00 -0.15384049022E+04  0.42596967710E+04  0.39721942221E+04 0.  0.
        2    1    3    3  502    0  0.19129638935E+04  0.15324841420E+03 -0.13177593628E+04  0.23279616991E+04  0.25500000920E-02 0. -1.
       -2    1    3    3    0  502 -0.19129638935E+04 -0.15324841420E+03 -0.22064553945E+03  0.19317350720E+04  0.25500000920E-02 0.  1.
</event>
<event>
 5   0  0.1095903E-07  0.3796245E+04  0.7818609E-02  0.8046961E-01
        2   -1    0    0  501    0  0.00000000000E+00  0.00000000000E+00  0.23080969655E+04  0.23080969655E+04  0.25500000920E-02 0.  1.
       -2   -1    0    0    0  501  0.00000000000E+00  0.00000000000E+00 -0.15609691435E+04  0.15609691435E+04  0.25500000920E-02 0. -1.
    10030    2    1    2    0    0  0.00000000000E+00  0.00000000000E+00  0.74712782200E+03  0.38690661089E+04  0.37962445354E+04 0.  0.
        3    1    3    3  502    0 -0.30402887625E+03 -0.13994883864E+04  0.16431998172E+04  0.21797034089E+04  0.10100000352E+00 0.  1.
       -3    1    3    3    0  502  0.30402887625E+03  0.13994883864E+04 -0.89607199524E+03  0.16893627000E+04  0.10100000352E+00 0. -1.
</event>
<event>
 5   0  0.3399500E-08  0.4014898E+04  0.7818609E-02  0.8001548E-01
       -1   -1    0    0    0  501  0.00000000000E+00  0.00000000000E+00  0.26878911156E+04  0.26878911156E+04  0.50400001928E-02 0. -1.
        1   -1    0    0  501    0  0.00000000000E+00  0.00000000000E+00 -0.14992617691E+04  0.14992617692E+04  0.50400001928E-02 0.  1.
    10030    2    1    2    0    0  0.00000000000E+00  0.00000000000E+00  0.11886293465E+04  0.41871528848E+04  0.40148984492E+04 0.  0.
        5    1    3    3  502    0 -0.15693799557E+04 -0.14921824271E+03 -0.70183090594E+03  0.17256327071E+04  0.46999998093E+01 0.  1.
       -5    1    3    3    0  502  0.15693799557E+04  0.14921824271E+03  0.18904602524E+04  0.24615201777E+04  0.46999998093E+01 0. -1.
</event>
<event>
 5   0  0.3399500E-08  0.3999868E+04  0.7818609E-02  0.8004573E-01
       -1   -1    0    0    0  501  0.00000000000E+00  0.00000000000E+00  0.18746018781E+04  0.18746018781E+04  0.50400001928E-02 0.  1.
        1   -1    0    0  501    0  0.00000000000E+00  0.00000000000E+00 -0.21336451197E+04  0.21336451197E+04  0.50400001928E-02 0. -1.
    10030    2    1    2    0    0  0.00000000000E+00  0.00000000000E+00 -0.25904324157E+03  0.40082469979E+04  0.39998675722E+04 0.  0.
        1    1    3    3  502    0  0.14399671300E+04 -0.38672711306E+03 -0.14652325709E+04  0.20904472446E+04  0.50400001928E-02 0. -1.
       -1    1    3    3    0  502 -0.14399671300E+04  0.38672711306E+03  0.12061893293E+04  0.19177997533E+04  0.50400001928E-02 0.  1.
</event>
<event>
 5   0  0.3399500E-08  0.4026184E+04  0.7818609E-02  0.7999285E-01
        1   -1    0    0  501    0  0.00000000000E+00  0.00000000000E+00  0.15733644521E+04  0.15733644521E+04  0.50400001928E-02 0. -1.
       -1   -1    0    0    0  501  0.00000000000E+00  0.00000000000E+00 -0.25757156343E+04  0.25757156343E+04  0.50400001928E-02 0.  1.
    10030    2    1    2    0    0  0.00000000000E+00  0.00000000000E+00 -0.10023511823E+04  0.41490800864E+04  0.40261840086E+04 0.  0.
        5    1    3    3  502    0  0.62340822618E+03 -0.18330622965E+04  0.66793905042E+02  0.19373277253E+04  0.46999998093E+01 0. -1.
       -5    1    3    3    0  502 -0.62340822618E+03  0.18330622965E+04 -0.10691450873E+04  0.22117523611E+04  0.46999998093E+01 0.  1.
</event>
<event>
 5   0  0.1101474E-07  0.3862582E+04  0.7818609E-02  0.8032857E-01
        2   -1    0    0  501    0  0.00000000000E+00  0.00000000000E+00  0.26045852702E+04  0.26045852702E+04  0.25500000920E-02 0.  1.
       -2   -1    0    0    0  501  0.00000000000E+00  0.00000000000E+00 -0.14320457114E+04  0.14320457114E+04  0.25500000920E-02 0. -1.
    10030    2    1    2    0    0  0.00000000000E+00  0.00000000000E+00  0.11725395588E+04  0.40366309816E+04  0.38625821240E+04 0.  0.
        5    1    3    3  502    0  0.12936491892E+04 -0.75483631855E+02  0.20828008058E+04  0.24530200346E+04  0.46999998093E+01 0. -1.
       -5    1    3    3    0  502 -0.12936491892E+04  0.75483631855E+02 -0.91026124702E+03  0.15836109469E+04  0.46999998093E+01 0.  1.
</event>
<event>
 5   0  0.1087688E-07  0.4002257E+04  0.7818609E-02  0.8004091E-01
       -2   -1    0    0    0  501  0.00000000000E+00  0.00000000000E+00  0.15557339917E+04  0.15557339917E+04  0.25500000920E-02 0.  1.
        2   -1    0    0  501    0  0.00000000000E+00  0.00000000000E+00 -0.25740354343E+04  0.25740354343E+04  0.25500000920E-02 0. -1.
    10030    2    1    2    0    0  0.00000000000E+00  0.00000000000E+00 -0.10183014426E+04  0.41297694260E+04  0.40022565740E+04 0.  0.
        2    1    3    3  502    0 -0.69259903126E+03  0.17560813800E+04  0.17608465160E+03  0.18959222125E+04  0.25500000920E-02 0.  1.
       -2    1    3    3    0  502  0.69259903126E+03 -0.17560813800E+04 -0.11943860942E+04  0.22338472135E+04  0.25500000920E-02 0. -1.
</event>
<event>
 5   0  0.1087688E-07  0.4018427E+04  0.7818609E-02  0.8000840E-01
        2   -1    0    0  501    0  0.00000000000E+00  0.00000000000E+00  0.20214514109E+04  0.20214514109E+04  0.25500000920E-02 0. -1.
       -2   -1    0    0    0  501  0.00000000000E+00  0.00000000000E+00 -0.19970493070E+04  0.19970493070E+04  0.25500000920E-02 0.  1.
    10030    2    1    2    0    0  0.00000000000E+00  0.00000000000E+00  0.24402103872E+02  0.40185007179E+04  0.40184266270E+04 0.  0.
        2    1    3    3  502    0  0.18502651948E+04 -0.62959022399E+03 -0.45371847212E+03  0.20064210906E+04  0.25500000920E-02 0. -1.
       -2    1    3    3    0  502 -0.18502651948E+04  0.62959022399E+03  0.47812057599E+03  0.20120796272E+04  0.25500000920E-02 0.  1.
</event>
<event>
 5   0  0.1101474E-07  0.4162083E+04  0.7818609E-02  0.7972624E-01
       -2   -1    0    0    0  501  0.00000000000E+00  0.00000000000E+00  0.19614482305E+04  0.19614482305E+04  0.25500000920E-02 0. -1.
        2   -1    0    0  501    0  0.00000000000E+00  0.00000000000E+00 -0.22079266377E+04  0.22079266378E+04  0.25500000920E-02 0.  1.
    10030    2    1    2    0    0  0.00000000000E+00  0.00000000000E+00 -0.24647840721E+03  0.41693748683E+04  0.41620830346E+04 0.  0.
        5    1    3    3  502    0 -0.10885279706E+04 -0.11255947354E+04 -0.14963539869E+04  0.21658610286E+04  0.46999998093E+01 0. -1.
       -5    1    3    3    0  502  0.10885279706E+04  0.11255947354E+04  0.12498755797E+04  0.20035138397E+04  0.46999998093E+01 0.  1.
</event>
<event>
 5   0  0.1073271E-07  0.4043682E+04  0.7818609E-02  0.7995792E-01
       -2   -1    0    0    0  501  0.00000000000E+00  0.00000000000E+00  0.18835600136E+04  0.18835600136E+04  0.25500000920E-02 0. -1.
        2   -1    0    0  501    0  0.00000000000E+00  0.00000000000E+00 -0.21702736877E+04  0.21702736877E+04  0.25500000920E-02 0.  1.
    10030    2    1    2    0    0  0.00000000000E+00  0.00000000000E+00 -0.28671367419E+03  0.40538337013E+04  0.40436818553E+04 0.  0.
        1    1    3    3  502    0 -0.18395199565E+04 -0.73331887728E+03  0.26540507038E+03  0.19980065309E+04  0.50400001928E-02 0.  1.
       -1    1    3    3    0  502  0.18395199565E+04  0.73331887728E+03 -0.55211874458E+03  0.20558271704E+04  0.50400001928E-02 0. -1.
</event>
<event>
 5   0  0.1087688E-07  0.3967439E+04  0.7818609E-02  0.8011148E-01
        2   -1    0    0  501    0  0.00000000000E+00  0.00000000000E+00  0.22520725816E+04  0.22520725816E+04  0.25500000920E-02 0. -1.
       -2   -1    0    0    0  501  0.00000000000E+00  0.00000000000E+00 -0.17473425425E+04  0.17473425425E+04  0.25500000920E-02 0.  1.
    10030    2    1    2    0    0  0.00000000000E+00  0.00000000000E+00  0.50473003918E+03  0.39994151241E+04  0.39674385846E+04 0.  0.
        2    1    3    3  502    0 -0.78290858336E+03 -0.11658436791E+04 -0.11600000347E+04  0.18214657324E+04  0.25500000920E-02 0.  1.
       -2    1    3    3    0  502  0.78290858336E+03  0.11658436791E+04  0.16647300738E+04  0.21779493917E+04  0.25500000920E-02 0. -1.
</event>
<event>
 5   0  0.1073271E-07  0.4023865E+04  0.7818609E-02  0.7999749E-01
        2   -1    0    0  501    0  0.00000000000E+00  0.00000000000E+00  0.26138841324E+04  0.26138841324E+04  0.25500000920E-02 0. -1.
       -2   -1    0    0    0  501  0.00000000000E+00  0.00000000000E+00 -0.15486043790E+04  0.15486043790E+04  0.25500000920E-02 0.  1.
    10030    2    1    2    0    0  0.00000000000E+00  0.00000000000E+00  0.10652797534E+04  0.41624885114E+04  0.40238650144E+04 0.  0.
        1    1    3    3  502    0  0.16268062552E+04 -0.85599821407E+03  0.13785147158E+04  0.22977237337E+04  0.50400001928E-02 0. -1.
       -1    1    3    3    0  502 -0.16268062552E+04  0.85599821407E+03 -0.31323496232E+03  0.18647647777E+04  0.50400001928E-02 0.  1.
</event>
<event>
 5   0  0.3399500E-08  0.4073357E+04  0.7818609E-02  0.7989909E-01
        1   -1    0    0  501    0  0.00000000000E+00  0.00000000000E+00  0.23729606377E+04  0.23729606377E+04  0.50400001928E-02 0. -1.
       -1   -1    0    0    0  501  0.00000000000E+00  0.00000000000E+00 -0.17480522345E+04  0.17480522345E+04  0.50400001928E-02 0.  1.
    10030    2    1    2    0    0  0.00000000000E+00  0.00000000000E+00  0.62490840318E+03  0.41210128722E+04  0.40733569178E+04 0.  0.
        4    1    3    3  502    0  0.38856613741E+03 -0.10267747598E+04  0.20479854239E+04  0.23236815531E+04  0.12699999809E+01 0. -1.
       -4    1    3    3    0  502 -0.38856613741E+03  0.10267747598E+04 -0.14230770208E+04  0.17973313191E+04  0.12699999809E+01 0.  1.
</event>
<event>
 5   0  0.3399500E-08  0.3994249E+04  0.7818609E-02  0.8005708E-01
       -1   -1    0    0    0  501  0.00000000000E+00  0.00000000000E+00  0.16803938692E+04  0.16803938692E+04  0.50400001928E-02 0.  1.
        1   -1    0    0  501    0  0.00000000000E+00  0.00000000000E+00 -0.23735544179E+04  0.23735544179E+04  0.50400001928E-02 0. -1.
    10030    2    1    2    0    0  0.00000000000E+00  0.00000000000E+00 -0.69316054876E+03  0.40539482871E+04  0.39942490118E+04 0.  0.
        1    1    3    3  502    0  0.97454358409E+03 -0.13520810024E+04 -0.14633201475E+04  0.22179188642E+04  0.50400001928E-02 0. -1.
       -1    1    3    3    0  502 -0.97454358409E+03  0.13520810024E+04  0.77015959874E+03  0.18360294229E+04  0.50400001928E-02 0.  1.
</event>
<event>
 5   0  0.3399500E-08  0.4094494E+04  0.7818609E-02  0.7985751E-01
        1   -1    0    0  501    0  0.00000000000E+00  0.00000000000E+00  0.28469465565E+04  0.28469465565E+04  0.50400001928E-02 0. -1.
       -1   -1    0    0    0  501  0.00000000000E+00  0.00000000000E+00 -0.14721806230E+04  0.14721806230E+04  0.50400001928E-02 0.  1.
    10030    2    1    2    0    0  0.00000000000E+00  0.00000000000E+00  0.13747659335E+04  0.43191271794E+04  0.40944936464E+04 0.  0.
        1    1    3    3  502    0  0.40436075829E+01  0.20405623105E+04  0.86170247622E+03  0.22150489953E+04  0.50400001928E-02 0. -1.
       -1    1    3    3    0  502 -0.40436075829E+01 -0.20405623105E+04  0.51306345728E+03  0.21040781842E+04  0.50400001928E-02 0.  1.
</event>
<event>
 5   0  0.1095109E-07  0.3814236E+04  0.7818609E-02  0.8043107E-01
        2   -1    0    0  501    0  0.00000000000E+00  0.00000000000E+00  0.28197065042E+04  0.28197065042E+04  0.25500000920E-02 0.  1.
       -2   -1    0    0    0  501  0.00000000000E+00  0.00000000000E+00 -0.12898853690E+04  0.12898853690E+04  0.25500000920E-02 0. -1.
    10030    2    1    2    0    0  0.00000000000E+00  0.00000000000E+00  0.15298211352E+04  0.41095918732E+04  0.38142355274E+04 0.  0.
        4    1    3    3  502    0 -0.95089295050E+03  0.10892400067E+04  0.21047719820E+04  0.25535676816E+04  0.12699999809E+01 0.  1.
       -4    1    3    3    0  502  0.95089295050E+03 -0.10892400067E+04 -0.57495084684E+03  0.15560241915E+04  0.12699999809E+01 0. -1.
</event>
<event>
 5   0  0.3399500E-08  0.4000790E+04  0.7818609E-02  0.8004387E-01
        3   -1    0    0  501    0  0.00000000000E+00  0.00000000000E+00  0.17200204030E+04  0.17200204059E+04  0.10100000352E+00 0. -1.
       -3   -1    0    0    0  501  0.00000000000E+00  0.00000000000E+00 -0.23264724103E+04  0.23264724125E+04  0.10100000352E+00 0.  1.
    10030    2    1    2    0    0  0.00000000000E+00  0.00000000000E+00 -0.60645200731E+03  0.40464928184E+04  0.40007899335E+04 0.  0.
        4    1    3    3  502    0  0.94456337474E+03  0.14563061755E+04  0.70239078053E+03  0.18725335957E+04  0.12699999809E+01 0. -1.
       -4    1    3    3    0  502 -0.94456337474E+03 -0.14563061755E+04 -0.13088427878E+04  0.21739592227E+04  0.12699999809E+01 0.  1.
</event>
<event>
 5   0  0.3399500E-08  0.3988242E+04  0.7818609E-02  0.8006923E-01
       -1   -1    0    0    0  501  0.00000000000E+00  0.00000000000E+00  0.16038487515E+04  0.16038487515E+04  0.50400001928E-02 0.  1.
        1   -1    0    0  501    0  0.00000000000E+00  0.00000000000E+00 -0.24793606645E+04  0.24793606645E+04  0.50400001928E-02 0. -1.
    10030    2    1    2    0    0  0.00000000000E+00  0.00000000000E+00 -0.87551191299E+03  0.40832094161E+04  0.39882424733E+04 0.  0.
        2    1    3    3  502    0 -0.65829940571E+03  0.21938033556E+03 -0.23517729167E+04  0.24520036074E+04  0.25500000920E-02 0. -1.
       -2    1    3    3    0  502  0.65829940571E+03 -0.21938033556E+03  0.14762610037E+04  0.16312058087E+04  0.25500000920E-02 0.  1.
</event>
<event>
 5   0  0.3399500E-08  0.4102628E+04  0.7818609E-02  0.7984157E-01
       -1   -1    0    0    0  501  0.00000000000E+00  0.00000000000E+00  0.19951173468E+04  0.19951173468E+04  0.50400001928E-02 0.  1.
        1   -1    0    0  501    0  0.00000000000E+00  0.00000000000E+00 -0.21090940299E+04  0.21090940299E+04  0.50400001928E-02 0. -1.
    10030    2    1    2    0    0  0.00000000000E+00  0.00000000000E+00 -0.11397668306E+03  0.41042113767E+04  0.41026284673E+04 0.  0.
        4    1    3    3  502    0  0.19317035549E+04  0.68787076090E+03 -0.11396349595E+03  0.20536879264E+04  0.12699999809E+01 0. -1.
       -4    1    3    3    0  502 -0.19317035549E+04 -0.68787076090E+03 -0.13187105283E-01  0.20505234504E+04  0.12699999809E+01 0.  1.
</event>
<event>
 5   0  0.3399500E-08  0.3967171E+04  0.7818609E-02  0.8011202E-01
       -1   -1    0    0    0  501  0.00000000000E+00  0.00000000000E+00  0.14152190610E+04  0.14152190610E+04  0.50400001928E-02 0.  1.
        1   -1    0    0  501    0  0.00000000000E+00  0.00000000000E+00 -0.27802132078E+04  0.27802132078E+04  0.50400001928E-02 0. -1.
    10030    2    1    2    0    0  0.00000000000E+00  0.00000000000E+00 -0.13649941468E+04  0.41954322689E+04  0.39671706419E+04 0.  0.
        1    1    3    3  502    0 -0.19697535401E+04  0.21114336237E+03 -0.78877932788E+03  0.21322953258E+04  0.50400001928E-02 0.  1.
       -1    1    3    3    0  502  0.19697535401E+04 -0.21114336237E+03 -0.57621481892E+03  0.20631369431E+04  0.50400001928E-02 0. -1.
</event>
<event>
 5   0  0.1095903E-07  0.3980995E+04  0.7818609E-02  0.8008391E-01
       -2   -1    0    0    0  501  0.00000000000E+00  0.00000000000E+00  0.17035009133E+04  0.17035009133E+04  0.25500000920E-02 0.  1.
        2   -1    0    0  501    0  0.00000000000E+00  0.00000000000E+00 -0.23258459985E+04  0.23258459985E+04  0.25500000920E-02 0. -1.
    10030    2    1    2    0    0  0.00000000000E+00  0.00000000000E+00 -0.62234508521E+03  0.40293469118E+04  0.39809952438E+04 0.  0.
        3    1    3    3  502    0 -0.40167671784E+03  0.19354357397E+04 -0.54816398017E+03  0.20512775160E+04  0.10100000352E+00 0.  1.
       -3    1    3    3    0  502  0.40167671784E+03 -0.19354357397E+04 -0.74181105037E+02  0.19780693958E+04  0.10100000352E+00 0. -1.
</event>
<event>
 5   0  0.3399500E-08  0.3994824E+04  0.7818609E-02  0.8005592E-01
        1   -1    0    0  501    0  0.00000000000E+00  0.00000000000E+00  0.30085517051E+04  0.30085517051E+04  0.50400001928E-02 0.  1.
       -1   -1    0    0    0  501  0.00000000000E+00  0.00000000000E+00 -0.13261045753E+04  0.13261045753E+04  0.50400001928E-02 0. -1.
    10030    2    1    2    0    0  0.00000000000E+00  0.00000000000E+00  0.16824471298E+04  0.43346562805E+04  0.39948237415E+04 0.  0.
        2    1    3    3  502    0 -0.12379009342E+04  0.87816502578E+03 -0.56772890810E+03  0.16204593943E+04  0.25500000920E-02 0. -1.
       -2    1    3    3    0  502  0.12379009342E+04 -0.87816502578E+03  0.22501760379E+04  0.27141968862E+04  0.25500000920E-02 0.  1.
</event>
<event>
 5   0  0.1095903E-07  0.4006797E+04  0.7818609E-02  0.8003177E-01
       -2   -1    0    0    0  501  0.00000000000E+00  0.00000000000E+00  0.16919739740E+04  0.16919739740E+04  0.25500000920E-02 0. -1.
        2   -1    0    0  501    0  0.00000000000E+00  0.00000000000E+00 -0.23721431994E+04  0.23721431994E+04  0.25500000920E-02 0.  1.
    10030    2    1    2    0    0  0.00000000000E+00  0.00000000000E+00 -0.68016922543E+03  0.40641171734E+04  0.40067965039E+04 0.  0.
        3    1    3    3  502    0  0.15786685185E+04 -0.39455943106E+03 -0.15254489410E+04  0.22304407451E+04  0.10100000352E+00 0.  1.
       -3    1    3    3    0  502 -0.15786685185E+04  0.39455943106E+03  0.84527971553E+03  0.18336764282E+04  0.10100000352E+00 0. -1.
</event>
<event>
 5   0  0.3399500E-08  0.3946145E+04  0.7818609E-02  0.8015500E-01
       -3   -1    0    0    0  501  0.00000000000E+00  0.00000000000E+00  0.14435078346E+04  0.14435078381E+04  0.10100000352E+00 0. -1.
        3   -1    0    0  501    0  0.00000000000E+00  0.00000000000E+00 -0.26969132058E+04  0.26969132076E+04  0.10100000352E+00 0.  1.
    10030    2    1    2    0    0  0.00000000000E+00  0.00000000000E+00 -0.12534053712E+04  0.41404210458E+04  0.39461451331E+04 0.  0.
        5    1    3    3  502    0 -0.32222478823E+03  0.15914817864E+04 -0.18027554454E+04  0.24262300749E+04  0.46999998093E+01 0.  1.
       -5    1    3    3    0  502  0.32222478823E+03 -0.15914817864E+04  0.54935007420E+03  0.17141909709E+04  0.46999998093E+01 0. -1.
</event>
<event>
 5   0  0.1095903E-07  0.3995293E+04  0.7818609E-02  0.8005497E-01
        2   -1    0    0  501    0  0.00000000000E+00  0.00000000000E+00  0.11974361318E+04  0.11974361318E+04  0.25500000920E-02 0. -1.
       -2   -1    0    0    0  501  0.00000000000E+00  0.00000000000E+00 -0.33326136497E+04  0.33326136497E+04  0.25500000920E-02 0.  1.
    10030    2    1    2    0    0  0.00000000000E+00  0.00000000000E+00 -0.21351775178E+04  0.45300497815E+04  0.39952932296E+04 0.  0.
        3    1    3    3  502    0 -0.16126070938E+02  0.98268520899E+03  0.90434680702E+03  0.13355798096E+04  0.10100000352E+00 0. -1.
       -3    1    3    3    0  502  0.16126070938E+02 -0.98268520899E+03 -0.30395243248E+04  0.31944699719E+04  0.10100000352E+00 0.  1.
</event>
<event>
 5   0  0.3399500E-08  0.3986879E+04  0.7818609E-02  0.8007199E-01
        1   -1    0    0  501    0  0.00000000000E+00  0.00000000000E+00  0.21362035961E+04  0.21362035962E+04  0.50400001928E-02 0. -1.
       -1   -1    0    0    0  501  0.00000000000E+00  0.00000000000E+00 -0.18602161867E+04  0.18602161867E+04  0.50400001928E-02 0.  1.
    10030    2    1    2    0    0  0.00000000000E+00  0.00000000000E+00  0.27598740949E+03  0.39964197828E+04  0.39868787328E+04 0.  0.
        3    1    3    3  502    0  0.26962380712E+02  0.88976920722E+03  0.19259057068E+04  0.21216807050E+04  0.10100000352E+00 0. -1.
       -3    1    3    3    0  502 -0.26962380712E+02 -0.88976920722E+03 -0.16499182973E+04  0.18747390779E+04  0.10100000352E+00 0.  1.
</event>
<event>
 5   0  0.3399500E-08  0.3988179E+04  0.7818609E-02  0.8006936E-01
       -1   -1    0    0    0  501  0.00000000000E+00  0.00000000000E+00  0.12537685210E+04  0.12537685210E+04  0.50400001928E-02 0. -1.
        1   -1    0    0  501    0  0.00000000000E+00  0.00000000000E+00 -0.31715521973E+04  0.31715521973E+04  0.50400001928E-02 0.  1.
    10030    2    1    2    0    0  0.00000000000E+00  0.00000000000E+00 -0.19177836763E+04  0.44253207184E+04  0.39881786860E+04 0.  0.
        5    1    3    3  502    0  0.15595035655E+04  0.95830594753E+03 -0.80989101965E+02  0.18322071347E+04  0.46999998093E+01 0. -1.
       -5    1    3    3    0  502 -0.15595035655E+04 -0.95830594753E+03 -0.18367945743E+04  0.25931135837E+04  0.46999998093E+01 0.  1.
</event>
<event>
 5   0  0.1101474E-07  0.4034750E+04  0.7818609E-02  0.7997573E-01
       -2   -1    0    0    0  501  0.00000000000E+00  0.00000000000E+00  0.14983681885E+04  0.14983681885E+04  0.25500000920E-02 0. -1.
        2   -1    0    0  501    0  0.00000000000E+00  0.00000000000E+00 -0.27161567564E+04  0.27161567564E+04  0.25500000920E-02 0.  1.
    10030    2    1    2    0    0  0.00000000000E+00  0.00000000000E+00 -0.12177885679E+04  0.42145249449E+04  0.40347504898E+04 0.  0.
        5    1    3    3  502    0  0.97567642407E+03  0.78988582036E+03  0.10406839479E+04  0.16306162219E+04  0.46999998093E+01 0. -1.
       -5    1    3    3    0  502 -0.97567642407E+03 -0.78988582036E+03 -0.22584725159E+04  0.25839087230E+04  0.46999998093E+01 0.  1.
</event>
<event>
 5   0  0.3399500E-08  0.3982305E+04  0.7818609E-02  0.8008126E-01
       -1   -1    0    0    0  501  0.00000000000E+00  0.00000000000E+00  0.17137046196E+04  0.17137046197E+04  0.50400001928E-02 0.  1.
        1   -1    0    0  501    0  0.00000000000E+00  0.00000000000E+00 -0.23135191694E+04  0.23135191694E+04  0.50400001928E-02 0. -1.
    10030    2    1    2    0    0  0.00000000000E+00  0.00000000000E+00 -0.59981454973E+03  0.40272237890E+04  0.39823051055E+04 0.  0.
        3    1    3    3  502    0  0.17040906148E+03 -0.12140921473E+04 -0.18865625351E+04  0.22499282654E+04  0.10100000352E+00 0. -1.
       -3    1    3    3    0  502 -0.17040906148E+03  0.12140921473E+04  0.12867479854E+04  0.17772955236E+04  0.10100000352E+00 0.  1.
</event>
<event>
 5   0  0.3399500E-08  0.4047743E+04  0.7818609E-02  0.7994984E-01
       -1   -1    0    0    0  501  0.00000000000E+00  0.00000000000E+00  0.22047368703E+04  0.22047368703E+04  0.50400001928E-02 0.  1.
        1   -1    0    0  501    0  0.00000000000E+00  0.00000000000E+00 -0.18578438135E+04  0.18578438135E+04  0.50400001928E-02 0. -1.
    10030    2    1    2    0    0  0.00000000000E+00  0.00000000000E+00  0.34689305680E+03  0.40625806839E+04  0.40477434479E+04 0.  0.
        2    1    3    3  502    0  0.61631959447E+02  0.22473005746E+03 -0.18443343149E+04  0.18589973540E+04  0.25500000920E-02 0. -1.
       -2    1    3    3    0  502 -0.61631959447E+02 -0.22473005746E+03  0.21912273717E+04  0.22035833298E+04  0.25500000920E-02 0.  1.
</event>
<event>
 5   0  0.1087688E-07  0.3975275E+04  0.7818609E-02  0.8009553E-01
        2   -1    0    0  501    0  0.00000000000E+00  0.00000000000E+00  0.28957230335E+04  0.28957230335E+04  0.25500000920E-02 0.  1.
       -2   -1    0    0    0  501  0.00000000000E+00  0.00000000000E+00 -0.13643231274E+04  0.13643231274E+04  0.25500000920E-02 0. -1.
    10030    2    1    2    0    0  0.00000000000E+00  0.00000000000E+00  0.15313999061E+04  0.42600461608E+04  0.39752745339E+04 0.  0.
        2    1    3    3  502    0 -0.13950656103E+04 -0.12765681795E+04  0.10957569983E+03  0.18941597630E+04  0.25500000920E-02 0.  1.
       -2    1    3    3    0  502  0.13950656103E+04  0.12765681795E+04  0.14218242062E+04  0.23658863978E+04  0.25500000920E-02 0. -1.
</event>
<event>
 5   0  0.1087688E-07  0.3893155E+04  0.7818609E-02  0.8026454E-01
        2   -1    0    0  501    0  0.00000000000E+00  0.00000000000E+00  0.19095526668E+04  0.19095526668E+04  0.25500000920E-02 0. -1.
       -2   -1    0    0    0  501  0.00000000000E+00  0.00000000000E+00 -0.19843200148E+04  0.19843200148E+04  0.25500000920E-02 0.  1.
    10030    2    1    2    0    0  0.00000000000E+00  0.00000000000E+00 -0.74767348020E+02  0.38938726817E+04  0.38931548010E+04 0.  0.
        2    1    3    3  502    0  0.77725138112E+03  0.14996550507E+03  0.17413014144E+04  0.19127833066E+04  0.25500000920E-02 0. -1.
       -2    1    3    3    0  502 -0.77725138112E+03 -0.14996550507E+03 -0.18160687624E+04  0.19810893751E+04  0.25500000920E-02 0.  1.
</event>
<event>
 5   0  0.1095109E-07  0.3855761E+04  0.7818609E-02  0.8034293E-01
       -2   -1    0    0    0  501  0.00000000000E+00  0.00000000000E+00  0.13310825684E+04  0.13310825684E+04  0.25500000920E-02 0. -1.
        2   -1    0    0  501    0  0.00000000000E+00  0.00000000000E+00 -0.27922563778E+04  0.27922563778E+04  0.25500000920E-02 0.  1.
    10030    2    1    2    0    0  0.00000000000E+00  0.00000000000E+00 -0.14611738095E+04  0.41233389462E+04  0.38557612950E+04 0.  0.
        4    1    3    3  502    0 -0.17258651825E+04  0.85159771470E+03 -0.60916028459E+03  0.20186399285E+04  0.12699999809E+01 0. -1.
       -4    1    3    3    0  502  0.17258651825E+04 -0.85159771470E+03 -0.85201352487E+03  0.21046990177E+04  0.12699999809E+01 0.  1.
</event>
<event>
 5   0  0.1073271E-07  0.3994530E+04  0.7818609E-02  0.8005651E-01
        2   -1    0    0  501    0  0.00000000000E+00  0.00000000000E+00  0.16864868795E+04  0.16864868795E+04  0.25500000920E-02 0.  1.
       -2   -1    0    0    0  501  0.00000000000E+00  0.00000000000E+00 -0.23653121046E+04  0.23653121046E+04  0.25500000920E-02 0. -1.
    10030    2    1    2    0    0  0.00000000000E+00  0.00000000000E+00 -0.67882522509E+03  0.40517989841E+04  0.39945301753E+04 0.  0.
        1    1    3    3  502    0 -0.13694299375E+04 -0.10045617840E+04  0.72664769846E+03  0.18472952145E+04  0.50400001928E-02 0.  1.
       -1    1    3    3    0  502  0.13694299375E+04  0.10045617840E+04 -0.14054729236E+04  0.22045037697E+04  0.50400001928E-02 0. -1.
</event>
<event>
 5   0  0.3399500E-08  0.3989762E+04  0.7818609E-02  0.8006615E-01
       -1   -1    0    0    0  501  0.00000000000E+00  0.00000000000E+00  0.17232543111E+04  0.17232543111E+04  0.50400001928E-02 0.  1.
        1   -1    0    0  501    0  0.00000000000E+00  0.00000000000E+00 -0.23093230344E+04  0.23093230344E+04  0.50400001928E-02 0. -1.
    10030    2    1    2    0    0  0.00000000000E+00  0.00000000000E+00 -0.58606872329E+03  0.40325773455E+04  0.39897623362E+04 0.  0.
        2    1    3    3  502    0  0.73177384425E+03 -0.83820258185E+03  0.13804735621E+04  0.17730718493E+04  0.25500000920E-02 0.  1.
       -2    1    3    3    0  502 -0.73177384425E+03  0.83820258185E+03 -0.19665422853E+04  0.22595054962E+04  0.25500000920E-02 0. -1.
</event>
<event>
 5   0  0.1087688E-07  0.3965841E+04  0.7818609E-02  0.8011473E-01
       -2   -1    0    0    0  501  0.00000000000E+00  0.00000000000E+00  0.26876831862E+04  0.26876831862E+04  0.25500000920E-02 0. -1.
        2   -1    0    0  501    0  0.00000000000E+00  0.00000000000E+00 -0.14629600585E+04  0.14629600585E+04  0.25500000920E-02 0.  1.
    10030    2    1    2    0    0  0.00000000000E+00  0.00000000000E+00  0.12247231276E+04  0.41506432447E+04  0.39658407186E+04 0.  0.
        2    1    3    3  502    0  0.29053840561E+03  0.15363255313E+03  0.26589790226E+04  0.26792134982E+04  0.25500000920E-02 0. -1.
       -2    1    3    3    0  502 -0.29053840561E+03 -0.15363255313E+03 -0.14342558950E+04  0.14714297465E+04  0.25500000920E-02 0.  1.
</event>
<event>
 5   0  0.1073271E-07  0.3735430E+04  0.7818609E-02  0.8060155E-01
        2   -1    0    0  501    0  0.00000000000E+00  0.00000000000E+00  0.14256263125E+04  0.14256263125E+04  0.25500000920E-02 0. -1.
       -2   -1    0    0    0  501  0.00000000000E+00  0.00000000000E+00 -0.24468956574E+04  0.24468956574E+04  0.25500000920E-02 0.  1.
    10030    2    1    2    0    0  0.00000000000E+00  0.00000000000E+00 -0.10212693449E+04  0.38725219699E+04  0.37354297386E+04 0.  0.
        1    1    3    3  502    0 -0.16213330388E+04  0.90525387465E+03 -0.30289728843E+03  0.18814760609E+04  0.50400001928E-02 0.  1.
       -1    1    3    3    0  502  0.16213330388E+04 -0.90525387465E+03 -0.71837205649E+03  0.19910459090E+04  0.50400001928E-02 0. -1.
</event>
<event>
 5   0  0.3399500E-08  0.3999486E+04  0.7818609E-02  0.8004650E-01
       -1   -1    0    0    0  501  0.00000000000E+00  0.00000000000E+00  0.17388054638E+04  0.17388054638E+04  0.50400001928E-02 0.  1.
        1   -1    0    0  501    0  0.00000000000E+00  0.00000000000E+00 -0.22998385921E+04  0.22998385921E+04  0.50400001928E-02 0. -1.
    10030    2    1    2    0    0  0.00000000000E+00  0.00000000000E+00 -0.56103312830E+03  0.40386440559E+04  0.39994859219E+04 0.  0.
        3    1    3    3  502    0 -0.89121453226E+03  0.16658425852E+04 -0.94243195454E+03  0.21112728058E+04  0.10100000352E+00 0. -1.
       -3    1    3    3    0  502  0.89121453226E+03 -0.16658425852E+04  0.38139882624E+03  0.19273712502E+04  0.10100000352E+00 0.  1.
</event>
<event>
 5   0  0.1101474E-07  0.3859604E+04  0.7818609E-02  0.8033484E-01
        2   -1    0    0  501    0  0.00000000000E+00  0.00000000000E+00  0.18065925926E+04  0.18065925926E+04  0.25500000920E-02 0. -1.
       -2   -1    0    0    0  501  0.00000000000E+00  0.00000000000E+00 -0.20614138039E+04  0.20614138039E+04  0.25500000920E-02 0.  1.
    10030    2    1    2    0    0  0.00000000000E+00  0.00000000000E+00 -0.25482121134E+03  0.38680063965E+04  0.38596035591E+04 0.  0.
        5    1    3    3  502    0  0.18154705657E+03  0.19036712104E+04  0.13236292083E+03  0.19168895231E+04  0.46999998093E+01 0. -1.
       -5    1    3    3    0  502 -0.18154705657E+03 -0.19036712104E+04 -0.38718413217E+03  0.19511168733E+04  0.46999998093E+01 0.  1.
</event>
<event>
 5   0  0.3399500E-08  0.4021636E+04  0.7818609E-02  0.8000196E-01
       -1   -1    0    0    0  501  0.00000000000E+00  0.00000000000E+00  0.22561076887E+04  0.22561076887E+04  0.50400001928E-02 0.  1.
        1   -1    0    0  501    0  0.00000000000E+00  0.00000000000E+00 -0.17921965833E+04  0.17921965833E+04  0.50400001928E-02 0. -1.
    10030    2    1    2    0    0  0.00000000000E+00  0.00000000000E+00  0.46391110541E+03  0.40483042720E+04  0.40216357325E+04 0.  0.
        4    1    3    3  502    0  0.86028036615E+03  0.26689301504E+03 -0.15777627368E+04  0.18167694010E+04  0.12699999809E+01 0. -1.
       -4    1    3    3    0  502 -0.86028036615E+03 -0.26689301504E+03  0.20416738422E+04  0.22315348710E+04  0.12699999809E+01 0.  1.
</event>
<event>
 5   0  0.1073271E-07  0.3944262E+04  0.7818609E-02  0.8015886E-01
       -2   -1    0    0    0  501  0.00000000000E+00  0.00000000000E+00  0.17155153616E+04  0.17155153616E+04  0.25500000920E-02 0. -1.
        2   -1    0    0  501    0  0.00000000000E+00  0.00000000000E+00 -0.22671328540E+04  0.22671328540E+04  0.25500000920E-02 0.  1.
    10030    2    1    2    0    0  0.00000000000E+00  0.00000000000E+00 -0.55161749239E+03  0.39826482156E+04  0.39442622822E+04 0.  0.
        1    1    3    3  502    0  0.14113526818E+04 -0.93934634306E+03 -0.12930923052E+04  0.21322231718E+04  0.50400001928E-02 0.  1.
       -1    1    3    3    0  502 -0.14113526818E+04  0.93934634306E+03  0.74147481282E+03  0.18504250438E+04  0.50400001928E-02 0. -1.
</event>
<event>
 5   0  0.1087688E-07  0.3934185E+04  0.7818609E-02  0.8017957E-01
       -2   -1    0    0    0  501  0.00000000000E+00  0.00000000000E+00  0.24587745975E+04  0.24587745975E+04  0.25500000920E-02 0. -1.
        2   -1    0    0  501    0  0.00000000000E+00  0.00000000000E+00 -0.15737322618E+04  0.15737322618E+04  0.25500000920E-02 0.  1.
    10030    2    1    2    0    0  0.00000000000E+00  0.00000000000E+00  0.88504233571E+03  0.40325068592E+04  0.39341850025E+04 0.  0.
        2    1    3    3  502    0  0.36542215282E+03 -0.15140798329E+04 -0.78895495380E+03  0.17459727975E+04  0.25500000920E-02 0.  1.
       -2    1    3    3    0  502 -0.36542215282E+03  0.15140798329E+04  0.16739972895E+04  0.22865340618E+04  0.25500000920E-02 0. -1.
</event>
<event>
 5   0  0.3399500E-08  0.3971971E+04  0.7818609E-02  0.8010225E-01
        3   -1    0    0  501    0  0.00000000000E+00  0.00000000000E+00  0.18852941531E+04  0.18852941558E+04  0.10100000352E+00 0.  1.
       -3   -1    0    0    0  501  0.00000000000E+00  0.00000000000E+00 -0.20920545012E+04  0.20920545037E+04  0.10100000352E+00 0. -1.
    10030    2    1    2    0    0  0.00000000000E+00  0.00000000000E+00 -0.20676034809E+03  0.39773486595E+04  0.39719708606E+04 0.  0.
        1    1    3    3  502    0 -0.47515369561E+03 -0.26016060132E+03 -0.20166433135E+04  0.20881342933E+04  0.50400001928E-02 0. -1.
       -1    1    3    3    0  502  0.47515369561E+03  0.26016060132E+03  0.18098829654E+04  0.18892143662E+04  0.50400001928E-02 0.  1.
</event>
<event>
 5   0  0.1095109E-07  0.3963838E+04  0.7818609E-02  0.8011882E-01
       -2   -1    0    0    0  501  0.00000000000E+00  0.00000000000E+00  0.26935964548E+04  0.26935964548E+04  0.25500000920E-02 0.  1.
        2   -1    0    0  501    0  0.00000000000E+00  0.00000000000E+00 -0.14582745541E+04  0.14582745541E+04  0.25500000920E-02 0. -1.
    10030    2    1    2    0    0  0.00000000000E+00  0.00000000000E+00  0.12353219007E+04  0.41518710089E+04  0.39638381244E+04 0.  0.
        4    1    3    3  502    0 -0.21293878843E+03 -0.19419646129E+04  0.26801134504E+03  0.19719029336E+04  0.12699999809E+01 0. -1.
       -4    1    3    3    0  502  0.21293878843E+03  0.19419646129E+04  0.96731055566E+03  0.21799680754E+04  0.12699999809E+01 0.  1.
</event>
<event>
 5   0  0.1101474E-07  0.4040973E+04  0.7818609E-02  0.7996332E-01
       -2   -1    0    0    0  501  0.00000000000E+00  0.00000000000E+00  0.19020606769E+04  0.19020606769E+04  0.25500000920E-02 0.  1.
        2   -1    0    0  501    0  0.00000000000E+00  0.00000000000E+00 -0.21462858959E+04  0.21462858959E+04  0.25500000920E-02 0. -1.
    10030    2    1    2    0    0  0.00000000000E+00  0.00000000000E+00 -0.24422521895E+03  0.40483465728E+04  0.40409731521E+04 0.  0.
        5    1    3    3  502    0  0.15603025730E+04 -0.12160460022E+04 -0.53399770404E+03  0.20490211411E+04  0.46999998093E+01 0. -1.
       -5    1    3    3    0  502 -0.15603025730E+04  0.12160460022E+04  0.28977248509E+03  0.19993254317E+04  0.46999998093E+01 0.  1.
</event>
<event>
 5   0  0.3399500E-08  0.3993441E+04  0.7818609E-02  0.8005871E-01
       -1   -1    0    0    0  501  0.00000000000E+00  0.00000000000E+00  0.29204462224E+04  0.29204462224E+04  0.50400001928E-02 0.  1.
        1   -1    0    0  501    0  0.00000000000E+00  0.00000000000E+00 -0.13651657900E+04  0.13651657901E+04  0.50400001928E-02 0. -1.
    10030    2    1    2    0    0  0.00000000000E+00  0.00000000000E+00  0.15552804323E+04  0.42856120125E+04  0.39934412601E+04 0.  0.
        4    1    3    3  502    0  0.14537866969E+04 -0.55962651240E+03  0.21181119011E+04  0.26292731375E+04  0.12699999809E+01 0. -1.
       -4    1    3    3    0  502 -0.14537866969E+04  0.55962651240E+03 -0.56283146874E+03  0.16563388749E+04  0.12699999809E+01 0.  1.
</event>
<event>
 5   0  0.1073271E-07  0.3916982E+04  0.7818609E-02  0.8021507E-01
        2   -1    0    0  501    0  0.00000000000E+00  0.00000000000E+00  0.24452992263E+04  0.24452992263E+04  0.25500000920E-02 0. -1.
       -2   -1    0    0    0  501  0.00000000000E+00  0.00000000000E+00 -0.15685962406E+04  0.15685962406E+04  0.25500000920E-02 0.  1.
    10030    2    1    2    0    0  0.00000000000E+00  0.00000000000E+00  0.87670298574E+03  0.40138954670E+04  0.39169820901E+04 0.  0.
        1    1    3    3  502    0 -0.18151410312E+04  0.42835274548E+03  0.10510272700E+04  0.21407665356E+04  0.50400001928E-02 0.  1.
       -1    1    3    3    0  502  0.18151410312E+04 -0.42835274548E+03 -0.17432428422E+03  0.18731289314E+04  0.50400001928E-02 0. -1.
</event>
<event>
 5   0  0.3399500E-08  0.3995793E+04  0.7818609E-02  0.8005396E-01
        1   -1    0    0  501    0  0.00000000000E+00  0.00000000000E+00  0.28688457675E+04  0.28688457675E+04  0.50400001928E-02 0.  1.
       -1   -1    0    0    0  501  0.00000000000E+00  0.00000000000E+00 -0.13913578596E+04  0.13913578597E+04  0.50400001928E-02 0. -1.
    10030    2    1    2    0    0  0.00000000000E+00  0.00000000000E+00  0.14774879078E+04  0.42602036271E+04  0.39957933414E+04 0.  0.
        3    1    3    3  502    0 -0.18535602949E+04  0.47090453217E+03  0.12243165507E+03  0.19163575777E+04  0.10100000352E+00 0. -1.
       -3    1    3    3    0  502  0.18535602949E+04 -0.47090453217E+03  0.13550562528E+04  0.23438460495E+04  0.10100000352E+00 0.  1.
</event>
<event>
 5   0  0.3399500E-08  0.4012468E+04  0.7818609E-02  0.8002036E-01
        1   -1    0    0  501    0  0.00000000000E+00  0.00000000000E+00  0.26803786269E+04  0.26803786269E+04  0.50400001928E-02 0.  1.
       -1   -1    0    0    0  501  0.00000000000E+00  0.00000000000E+00 -0.15016439659E+04  0.15016439659E+04  0.50400001928E-02 0. -1.
    10030    2    1    2    0    0  0.00000000000E+00  0.00000000000E+00  0.11787346611E+04  0.41820225928E+04  0.40124677650E+04 0.  0.
        5    1    3    3  502    0  0.27996096800E+03  0.75743494674E+03  0.25035103838E+04  0.26305269765E+04  0.46999998093E+01 0.  1.
       -5    1    3    3    0  502 -0.27996096800E+03 -0.75743494674E+03 -0.13247757227E+04  0.15514956164E+04  0.46999998093E+01 0. -1.
</event>
<event>
 5   0  0.3399500E-08  0.4006557E+04  0.7818609E-02  0.8003225E-01
        1   -1    0    0  501    0  0.00000000000E+00  0.00000000000E+00  0.19982029117E+04  0.19982029117E+04  0.50400001928E-02 0.  1.
       -1   -1    0    0    0  501  0.00000000000E+00  0.00000000000E+00 -0.20083668465E+04  0.20083668465E+04  0.50400001928E-02 0. -1.
    10030    2    1    2    0    0  0.00000000000E+00  0.00000000000E+00 -0.10163934790E+02  0.40065697582E+04  0.40065568662E+04 0.  0.
        1    1    3    3  502    0 -0.17275371816E+04  0.95458456628E+03 -0.34787757538E+03  0.20041544889E+04  0.50400001928E-02 0.  1.
       -1    1    3    3    0  502  0.17275371816E+04 -0.95458456628E+03  0.33771364059E+03  0.20024152694E+04  0.50400001928E-02 0. -1.
</event>
<event>
 5   0  0.1095903E-07  0.4002969E+04  0.7818609E-02  0.8003948E-01
       -2   -1    0    0    0  501  0.00000000000E+00  0.00000000000E+00  0.25044501077E+04  0.25044501077E+04  0.25500000920E-02 0.  1.
        2   -1    0    0  501    0  0.00000000000E+00  0.00000000000E+00 -0.15995285010E+04  0.15995285010E+04  0.25500000920E-02 0. -1.
    10030    2    1    2    0    0  0.00000000000E+00  0.00000000000E+00  0.90492160670E+03  0.41039786087E+04  0.40029685618E+04 0.  0.
        3    1    3    3  502    0 -0.13350909697E+04  0.12285077343E+04  0.13189138714E+04  0.22430410074E+04  0.10100000352E+00 0.  1.
       -3    1    3    3    0  502  0.13350909697E+04 -0.12285077343E+04 -0.41399226466E+03  0.18609376013E+04  0.10100000352E+00 0. -1.
</event>
<event>
 5   0  0.1095903E-07  0.3948151E+04  0.7818609E-02  0.8015089E-01
       -2   -1    0    0    0  501  0.00000000000E+00  0.00000000000E+00  0.24181671056E+04  0.24181671056E+04  0.25500000920E-02 0.  1.
        2   -1    0    0  501    0  0.00000000000E+00  0.00000000000E+00 -0.16115401164E+04  0.16115401164E+04  0.25500000920E-02 0. -1.
    10030    2    1    2    0    0  0.00000000000E+00  0.00000000000E+00  0.80662698923E+03  0.40297072220E+04  0.39481506044E+04 0.  0.
        3    1    3    3  502    0  0.17271373124E+03 -0.87479398618E+03  0.22009098995E+04  0.23746787040E+04  0.10100000352E+00 0.  1.
       -3    1    3    3    0  502 -0.17271373124E+03  0.87479398618E+03 -0.13942829103E+04  0.16550285180E+04  0.10100000352E+00 0. -1.
</event>
<event>
 5   0  0.1101474E-07  0.4000790E+04  0.7818609E-02  0.8004387E-01
       -2   -1    0    0    0  501  0.00000000000E+00  0.00000000000E+00  0.21249844921E+04  0.21249844921E+04  0.25500000920E-02 0. -1.
        2   -1    0    0  501    0  0.00000000000E+00  0.00000000000E+00 -0.18831099487E+04  0.18831099487E+04  0.25500000920E-02 0.  1.
    10030    2    1    2    0    0  0.00000000000E+00  0.00000000000E+00  0.24187454341E+03  0.40080944409E+04  0.40007896411E+04 0.  0.
        5    1    3    3  502    0  0.84830154655E+03 -0.13549837983E+04 -0.10837393427E+04  0.19313491814E+04  0.46999998093E+01 0.  1.
       -5    1    3    3    0  502 -0.84830154655E+03  0.13549837983E+04  0.13256138861E+04  0.20767452595E+04  0.46999998093E+01 0. -1.
</event>
<event>
 5   0  0.3399500E-08  0.3982741E+04  0.7818609E-02  0.8008037E-01
        1   -1    0    0  501    0  0.00000000000E+00  0.00000000000E+00  0.21477829956E+04  0.21477829956E+04  0.50400001928E-02 0.  1.
       -1   -1    0    0    0  501  0.00000000000E+00  0.00000000000E+00 -0.18463488790E+04  0.18463488790E+04  0.50400001928E-02 0. -1.
    10030    2    1    2    0    0  0.00000000000E+00  0.00000000000E+00  0.30143411651E+03  0.39941318746E+04  0.39827411296E+04 0.  0.
        4    1    3    3  502    0  0.10652070543E+04 -0.85346273757E+03  0.16048607770E+04  0.21068090657E+04  0.12699999809E+01 0.  1.
       -4    1    3    3    0  502 -0.10652070543E+04  0.85346273757E+03 -0.13034266604E+04  0.18873228089E+04  0.12699999809E+01 0. -1.
</event>
<event>
 5   0  0.3399500E-08  0.3822632E+04  0.7818609E-02  0.8041316E-01
       -1   -1    0    0    0  501  0.00000000000E+00  0.00000000000E+00  0.16561084923E+04  0.16561084923E+04  0.50400001928E-02 0. -1.
        1   -1    0    0  501    0  0.00000000000E+00  0.00000000000E+00 -0.22058507088E+04  0.22058507088E+04  0.50400001928E-02 0.  1.
    10030    2    1    2    0    0  0.00000000000E+00  0.00000000000E+00 -0.54974221655E+03  0.38619592011E+04  0.38226316022E+04 0.  0.
        1    1    3    3  502    0  0.46279751857E+02  0.14502211596E+04 -0.15317949116E+04  0.21099002058E+04  0.50400001928E-02 0.  1.
       -1    1    3    3    0  502 -0.46279751857E+02 -0.14502211596E+04  0.98205269507E+03  0.17520589953E+04  0.50400001928E-02 0. -1.
</event>
<event>
 5   0  0.1087688E-07  0.3940399E+04  0.7818609E-02  0.8016679E-01
        2   -1    0    0  501    0  0.00000000000E+00  0.00000000000E+00  0.15429518580E+04  0.15429518580E+04  0.25500000920E-02 0. -1.
       -2   -1    0    0    0  501  0.00000000000E+00  0.00000000000E+00 -0.25157530008E+04  0.25157530008E+04  0.25500000920E-02 0.  1.
    10030    2    1    2    0    0  0.00000000000E+00  0.00000000000E+00 -0.97280114276E+03  0.40587048587E+04  0.39403988462E+04 0.  0.
        2    1    3    3  502    0  0.96009776413E+03 -0.13699345728E+04 -0.15584062019E+04  0.22862935815E+04  0.25500000920E-02 0.  1.
       -2    1    3    3    0  502 -0.96009776413E+03  0.13699345728E+04  0.58560505913E+03  0.17724112773E+04  0.25500000920E-02 0. -1.
</event>
<event>
 5   0  0.1095903E-07  0.4001117E+04  0.7818609E-02  0.8004321E-01
       -2   -1    0    0    0  501  0.00000000000E+00  0.00000000000E+00  0.20430008569E+04  0.20430008569E+04  0.25500000920E-02 0. -1.
        2   -1    0    0  501    0  0.00000000000E+00  0.00000000000E+00 -0.19589981027E+04  0.19589981027E+04  0.25500000920E-02 0.  1.
    10030    2    1    2    0    0  0.00000000000E+00  0.00000000000E+00  0.84002754259E+02  0.40019989596E+04  0.40011172452E+04 0.  0.
        3    1    3    3  502    0  0.15557438470E+04  0.10413716687E+04 -0.66344896535E+03  0.19861919368E+04  0.10100000352E+00 0.  1.
       -3    1    3    3    0  502 -0.15557438470E+04 -0.10413716687E+04  0.74745171961E+03  0.20158070228E+04  0.10100000352E+00 0. -1.
</event>
<event>
 5   0  0.3399500E-08  0.4008523E+04  0.7818609E-02  0.8002829E-01
       -1   -1    0    0    0  501  0.00000000000E+00  0.00000000000E+00  0.25426449468E+04  0.25426449468E+04  0.50400001928E-02 0.  1.
        1   -1    0    0  501    0  0.00000000000E+00  0.00000000000E+00 -0.15798764491E+04  0.15798764491E+04  0.50400001928E-02 0. -1.
    10030    2    1    2    0    0  0.00000000000E+00  0.00000000000E+00  0.96276849769E+03  0.41225213959E+04  0.40085233540E+04 0.  0.
        1    1    3    3  502    0  0.93446204645E+03 -0.60158110397E+03  0.21967345647E+04  0.24618614682E+04  0.50400001928E-02 0.  1.
       -1    1    3    3    0  502 -0.93446204645E+03  0.60158110397E+03 -0.12339660670E+04  0.16606599277E+04  0.50400001928E-02 0. -1.
</event>
<event>
 5   0  0.1101474E-07  0.3951394E+04  0.7818609E-02  0.8014424E-01
        2   -1    0    0  501    0  0.00000000000E+00  0.00000000000E+00  0.18980009455E+04  0.18980009455E+04  0.25500000920E-02 0. -1.
       -2   -1    0    0    0  501  0.00000000000E+00  0.00000000000E+00 -0.20565739231E+04  0.20565739231E+04  0.25500000920E-02 0.  1.
    10030    2    1    2    0    0  0.00000000000E+00  0.00000000000E+00 -0.15857297754E+03  0.39545748686E+04  0.39513943111E+04 0.  0.
        5    1    3    3  502    0 -0.40739503127E+03 -0.74111910215E+03  0.17076839560E+04  0.19056323933E+04  0.46999998093E+01 0. -1.
       -5    1    3    3    0  502  0.40739503127E+03  0.74111910215E+03 -0.18662569335E+04  0.20489424753E+04  0.46999998093E+01 0.  1.
</event>
<event>
 5   0  0.3399500E-08  0.4012313E+04  0.7818609E-02  0.8002067E-01
       -1   -1    0    0    0  501  0.00000000000E+00  0.00000000000E+00  0.22446496307E+04  0.22446496307E+04  0.50400001928E-02 0. -1.
        1   -1    0    0  501    0  0.00000000000E+00  0.00000000000E+00 -0.17930031491E+04  0.17930031491E+04  0.50400001928E-02 0.  1.
    10030    2    1    2    0    0  0.00000000000E+00  0.00000000000E+00  0.45164648164E+03  0.40376527798E+04  0.40123129771E+04 0.  0.
        1    1    3    3  502    0  0.16573155256E+04  0.25850080297E+03  0.13332945778E+04  0.21427066640E+04  0.50400001928E-02 0. -1.
       -1    1    3    3    0  502 -0.16573155256E+04 -0.25850080297E+03 -0.88164809619E+03  0.18949461159E+04  0.50400001928E-02 0.  1.
</event>
<event>
 5   0  0.3399500E-08  0.3987473E+04  0.7818609E-02  0.8007078E-01
       -1   -1    0    0    0  501  0.00000000000E+00  0.00000000000E+00  0.27546284913E+04  0.27546284913E+04  0.50400001928E-02 0. -1.
        1   -1    0    0  501    0  0.00000000000E+00  0.00000000000E+00 -0.14430202198E+04  0.14430202198E+04  0.50400001928E-02 0.  1.
    10030    2    1    2    0    0  0.00000000000E+00  0.00000000000E+00  0.13116082716E+04  0.41976487111E+04  0.39874726888E+04 0.  0.
        5    1    3    3  502    0  0.12780539032E+04 -0.39630156354E+03  0.22117088034E+04  0.25849863887E+04  0.46999998093E+01 0. -1.
       -5    1    3    3    0  502 -0.12780539032E+04  0.39630156354E+03 -0.90010053184E+03  0.16126623224E+04  0.46999998093E+01 0.  1.
</event>
<event>
 5   0  0.1087688E-07  0.3988942E+04  0.7818609E-02  0.8006781E-01
        2   -1    0    0  501    0  0.00000000000E+00  0.00000000000E+00  0.18263900840E+04  0.18263900840E+04  0.25500000920E-02 0. -1.
       -2   -1    0    0    0  501  0.00000000000E+00  0.00000000000E+00 -0.21780202832E+04  0.21780202832E+04  0.25500000920E-02 0.  1.
    10030    2    1    2    0    0  0.00000000000E+00  0.00000000000E+00 -0.35163019924E+03  0.40044103672E+04  0.39889420392E+04 0.  0.
        2    1    3    3  502    0 -0.96069287957E+03  0.19799147261E+03  0.15675201483E+04  0.18491216421E+04  0.25500000920E-02 0. -1.
       -2    1    3    3    0  502  0.96069287957E+03 -0.19799147261E+03 -0.19191503475E+04  0.21552887251E+04  0.25500000920E-02 0.  1.
</event>
<event>
 5   0  0.3399500E-08  0.4012381E+04  0.7818609E-02  0.8002054E-01
        1   -1    0    0  501    0  0.00000000000E+00  0.00000000000E+00  0.17438270908E+04  0.17438270908E+04  0.50400001928E-02 0. -1.
       -1   -1    0    0    0  501  0.00000000000E+00  0.00000000000E+00 -0.23080268395E+04  0.23080268395E+04  0.50400001928E-02 0.  1.
    10030    2    1    2    0    0  0.00000000000E+00  0.00000000000E+00 -0.56419974870E+03  0.40518539303E+04  0.40123807043E+04 0.  0.
        1    1    3    3  502    0  0.11040496878E+04  0.15915214168E+04 -0.80966994040E+03  0.20993883741E+04  0.50400001928E-02 0.  1.
       -1    1    3    3    0  502 -0.11040496878E+04 -0.15915214168E+04  0.24547019170E+03  0.19524655562E+04  0.50400001928E-02 0. -1.
</event>
<event>
 5   0  0.3399500E-08  0.4014562E+04  0.7818609E-02  0.8001615E-01
        1   -1    0    0  501    0  0.00000000000E+00  0.00000000000E+00  0.25392297854E+04  0.25392297854E+04  0.50400001928E-02 0. -1.
       -1   -1    0    0    0  501  0.00000000000E+00  0.00000000000E+00 -0.15867715649E+04  0.15867715649E+04  0.50400001928E-02 0.  1.
    10030    2    1    2    0    0  0.00000000000E+00  0.00000000000E+00  0.95245822054E+03  0.41260013503E+04  0.40145623026E+04 0.  0.
        2    1    3    3  502    0  0.14980902278E+04 -0.13161640327E+04  0.24048104731E+03  0.20085799027E+04  0.25500000920E-02 0.  1.
       -2    1    3    3    0  502 -0.14980902278E+04  0.13161640327E+04  0.71197717322E+03  0.21174214476E+04  0.25500000920E-02 0. -1.
</event>
<event>
 5   0  0.1101474E-07  0.3973030E+04  0.7818609E-02  0.8010010E-01
        2   -1    0    0  501    0  0.00000000000E+00  0.00000000000E+00  0.29304765151E+04  0.29304765151E+04  0.25500000920E-02 0. -1.
       -2   -1    0    0    0  501  0.00000000000E+00  0.00000000000E+00 -0.13466210048E+04  0.13466210048E+04  0.25500000920E-02 0.  1.
    10030    2    1    2    0    0  0.00000000000E+00  0.00000000000E+00  0.15838555103E+04  0.42770975199E+04  0.39730296900E+04 0.  0.
        5    1    3    3  502    0 -0.64309103733E+03 -0.12855946444E+04 -0.68410044312E+03  0.15919595404E+04  0.46999998093E+01 0.  1.
       -5    1    3    3    0  502  0.64309103733E+03  0.12855946444E+04  0.22679559534E+04  0.26851379795E+04  0.46999998093E+01 0. -1.
</event>
<event>
 5   0  0.1095109E-07  0.3997312E+04  0.7818609E-02  0.8005089E-01
        2   -1    0    0  501    0  0.00000000000E+00  0.00000000000E+00  0.17647265908E+04  0.17647265908E+04  0.25500000920E-02 0.  1.
       -2   -1    0    0    0  501  0.00000000000E+00  0.00000000000E+00 -0.22635946092E+04  0.22635946092E+04  0.25500000920E-02 0. -1.
    10030    2    1    2    0    0  0.00000000000E+00  0.00000000000E+00 -0.49886801836E+03  0.40283211999E+04  0.39973118955E+04 0.  0.
        4    1    3    3  502    0 -0.15734730363E+04 -0.70755465541E+03 -0.12663073079E+04  0.21400903713E+04  0.12699999809E+01 0. -1.
       -4    1    3    3    0  502  0.15734730363E+04  0.70755465541E+03  0.76743928956E+03  0.18882308287E+04  0.12699999809E+01 0.  1.
</event>
<event>
 5   0  0.3399500E-08  0.4017147E+04  0.7818609E-02  0.8001096E-01
       -1   -1    0    0    0  501  0.00000000000E+00  0.00000000000E+00  0.14623151001E+04  0.14623151001E+04  0.50400001928E-02 0. -1.
        1   -1    0    0  501    0  0.00000000000E+00  0.00000000000E+00 -0.27588909932E+04  0.27588909932E+04  0.50400001928E-02 0.  1.
    10030    2    1    2    0    0  0.00000000000E+00  0.00000000000E+00 -0.12965758931E+04  0.42212060933E+04  0.40171472260E+04 0.  0.
        2    1    3    3  502    0  0.15350163753E+04 -0.11574509060E+04 -0.12595592957E+04  0.22983597394E+04  0.25500000920E-02 0. -1.
       -2    1    3    3    0  502 -0.15350163753E+04  0.11574509060E+04 -0.37016597334E+02  0.19228463539E+04  0.25500000920E-02 0.  1.
</event>
<event>
 5   0  0.3399500E-08  0.4135065E+04  0.7818609E-02  0.7977840E-01
        1   -1    0    0  501    0  0.00000000000E+00  0.00000000000E+00  0.29638181857E+04  0.29638181857E+04  0.50400001928E-02 0.  1.
       -1   -1    0    0    0  501  0.00000000000E+00  0.00000000000E+00 -0.14422921358E+04  0.14422921358E+04  0.50400001928E-02 0. -1.
    10030    2    1    2    0    0  0.00000000000E+00  0.00000000000E+00  0.15215260499E+04  0.44061103216E+04  0.41350654947E+04 0.  0.
        5    1    3    3  502    0 -0.98458406446E+03  0.14542536135E+03 -0.11702365109E+04  0.15362388803E+04  0.46999998093E+01 0. -1.
       -5    1    3    3    0  502  0.98458406446E+03 -0.14542536135E+03  0.26917625608E+04  0.28698714413E+04  0.46999998093E+01 0.  1.
</event>
<event>
 5   0  0.3399500E-08  0.3974659E+04  0.7818609E-02  0.8009678E-01
        1   -1    0    0  501    0  0.00000000000E+00  0.00000000000E+00  0.30004300849E+04  0.30004300849E+04  0.50400001928E-02 0.  1.
       -1   -1    0    0    0  501  0.00000000000E+00  0.00000000000E+00 -0.13163038323E+04  0.13163038323E+04  0.50400001928E-02 0. -1.
    10030    2    1    2    0    0  0.00000000000E+00  0.00000000000E+00  0.16841262526E+04  0.43167339172E+04  0.39746585359E+04 0.  0.
        2    1    3    3  502    0 -0.10003218679E+04  0.15547867647E+04  0.50299388458E+02  0.18494690459E+04  0.25500000920E-02 0. -1.
       -2    1    3    3    0  502  0.10003218679E+04 -0.15547867647E+04  0.16338268641E+04  0.24672648713E+04  0.25500000920E-02 0.  1.
</event>
<event>
 5   0  0.1095903E-07  0.3970949E+04  0.7818609E-02  0.8010433E-01
        2   -1    0    0  501    0  0.00000000000E+00  0.00000000000E+00  0.20839049339E+04  0.20839049339E+04  0.25500000920E-02 0.  1.
       -2   -1    0    0    0  501  0.00000000000E+00  0.00000000000E+00 -0.18916929227E+04  0.18916929227E+04  0.25500000920E-02 0. -1.
    10030    2    1    2    0    0  0.00000000000E+00  0.00000000000E+00  0.19221201125E+03  0.39755978566E+04  0.39709486096E+04 0.  0.
        3    1    3    3  502    0 -0.10830884900E+04 -0.26266488897E+03  0.17412080901E+04  0.20673362436E+04  0.10100000352E+00 0.  1.
       -3    1    3    3    0  502  0.10830884900E+04  0.26266488897E+03 -0.15489960788E+04  0.19082616129E+04  0.10100000352E+00 0. -1.
</event>
<event>
 5   0  0.3399500E-08  0.3845932E+04  0.7818609E-02  0.8036369E-01
        1   -1    0    0  501    0  0.00000000000E+00  0.00000000000E+00  0.27244798050E+04  0.27244798050E+04  0.50400001928E-02 0. -1.
       -1   -1    0    0    0  501  0.00000000000E+00  0.00000000000E+00 -0.13572494798E+04  0.13572494798E+04  0.50400001928E-02 0.  1.
    10030    2    1    2    0    0  0.00000000000E+00  0.00000000000E+00  0.13672303252E+04  0.40817292849E+04  0.38459322918E+04 0.  0.
        4    1    3    3  502    0  0.54218411747E+03  0.72539070400E+03 -0.11167513943E+04  0.14378075602E+04  0.12699999809E+01 0.  1.
       -4    1    3    3    0  502 -0.54218411747E+03 -0.72539070400E+03  0.24839817195E+04  0.26439217247E+04  0.12699999809E+01 0. -1.
</event>
<event>
 5   0  0.3399500E-08  0.3990240E+04  0.7818609E-02  0.8006518E-01
       -1   -1    0    0    0  501  0.00000000000E+00  0.00000000000E+00  0.14042915524E+04  0.14042915524E+04  0.50400001928E-02 0. -1.
        1   -1    0    0  501    0  0.00000000000E+00  0.00000000000E+00 -0.28345275875E+04  0.28345275875E+04  0.50400001928E-02 0.  1.
    10030    2    1    2    0    0  0.00000000000E+00  0.00000000000E+00 -0.14302360351E+04  0.42388191399E+04  0.39902396651E+04 0.  0.
        3    1    3    3  502    0 -0.35136263488E+03  0.46104628690E+03 -0.27430991711E+04  0.28036783789E+04  0.10100000352E+00 0.  1.
       -3    1    3    3    0  502  0.35136263488E+03 -0.46104628690E+03  0.13128631360E+04  0.14351407610E+04  0.10100000352E+00 0. -1.
</event>
<event>
 5   0  0.1073271E-07  0.3976534E+04  0.7818609E-02  0.8009297E-01
        2   -1    0    0  501    0  0.00000000000E+00  0.00000000000E+00  0.22825700296E+04  0.22825700296E+04  0.25500000920E-02 0. -1.
       -2   -1    0    0    0  501  0.00000000000E+00  0.00000000000E+00 -0.17319097102E+04  0.17319097102E+04  0.25500000920E-02 0.  1.
    10030    2    1    2    0    0  0.00000000000E+00  0.00000000000E+00  0.55066031942E+03  0.40144797398E+04  0.39765337662E+04 0.  0.
        1    1    3    3  502    0 -0.62570869626E+02  0.13697573959E+04 -0.11782198659E+04  0.18078585370E+04  0.50400001928E-02 0.  1.
       -1    1    3    3    0  502  0.62570869626E+02 -0.13697573959E+04  0.17288801853E+04  0.22066212028E+04  0.50400001928E-02 0. -1.
</event>
<event>
 5   0  0.3399500E-08  0.4020882E+04  0.7818609E-02  0.8000347E-01
       -1   -1    0    0    0  501  0.00000000000E+00  0.00000000000E+00  0.24858892670E+04  0.24858892670E+04  0.50400001928E-02 0.  1.
        1   -1    0    0  501    0  0.00000000000E+00  0.00000000000E+00 -0.16259260493E+04  0.16259260493E+04  0.50400001928E-02 0. -1.
    10030    2    1    2    0    0  0.00000000000E+00  0.00000000000E+00  0.85996321765E+03  0.41118153163E+04  0.40208815525E+04 0.  0.
        3    1    3    3  502    0 -0.86748071359E+03  0.47204329916E+03 -0.13607707640E+04  0.16813817969E+04  0.10100000352E+00 0. -1.
       -3    1    3    3    0  502  0.86748071359E+03 -0.47204329916E+03  0.22207339816E+04  0.24304335194E+04  0.10100000352E+00 0.  1.
</event>
<event>
 5   0  0.1095903E-07  0.4062435E+04  0.7818609E-02  0.7992068E-01
        2   -1    0    0  501    0  0.00000000000E+00  0.00000000000E+00  0.13038920978E+04  0.13038920978E+04  0.25500000920E-02 0.  1.
       -2   -1    0    0    0  501  0.00000000000E+00  0.00000000000E+00 -0.31642537578E+04  0.31642537578E+04  0.25500000920E-02 0. -1.
    10030    2    1    2    0    0  0.00000000000E+00  0.00000000000E+00 -0.18603616600E+04  0.44681458557E+04  0.40624354618E+04 0.  0.
        3    1    3    3  502    0  0.12181277876E+04 -0.11003464648E+04 -0.22460062878E+04  0.27819313264E+04  0.10100000352E+00 0. -1.
       -3    1    3    3    0  502 -0.12181277876E+04  0.11003464648E+04  0.38564462781E+03  0.16862145293E+04  0.10100000352E+00 0.  1.
</event>
<event>
 5   0  0.1095903E-07  0.4163126E+04  0.7818609E-02  0.7972424E-01
        2   -1    0    0  501    0  0.00000000000E+00  0.00000000000E+00  0.19584217161E+04  0.19584217161E+04  0.25500000920E-02 0.  1.
       -2   -1    0    0    0  501  0.00000000000E+00  0.00000000000E+00 -0.22124473553E+04  0.22124473553E+04  0.25500000920E-02 0. -1.
    10030    2    1    2    0    0  0.00000000000E+00  0.00000000000E+00 -0.25402563922E+03  0.41708690714E+04  0.41631262034E+04 0.  0.
        3    1    3    3  502    0  0.46840239366E+01  0.76971627733E+03 -0.20646263431E+04  0.22034443570E+04  0.10100000352E+00 0. -1.
       -3    1    3    3    0  502 -0.46840239366E+01 -0.76971627733E+03  0.18106007039E+04  0.19674247144E+04  0.10100000352E+00 0.  1.
</event>
<event>
 5   0  0.1095109E-07  0.3968968E+04  0.7818609E-02  0.8010836E-01
       -2   -1    0    0    0  501  0.00000000000E+00  0.00000000000E+00  0.17675113059E+04  0.17675113059E+04  0.25500000920E-02 0. -1.
        2   -1    0    0  501    0  0.00000000000E+00  0.00000000000E+00 -0.22280915528E+04  0.22280915528E+04  0.25500000920E-02 0.  1.
    10030    2    1    2    0    0  0.00000000000E+00  0.00000000000E+00 -0.46058024689E+03  0.39956028588E+04  0.39689681331E+04 0.  0.
        4    1    3    3  502    0  0.12211262318E+03 -0.19559897244E+04 -0.54442275852E+03  0.20340120569E+04  0.12699999809E+01 0. -1.
       -4    1    3    3    0  502 -0.12211262318E+03  0.19559897244E+04  0.83842511625E+02  0.19615908019E+04  0.12699999809E+01 0.  1.
</event>
<event>
 5   0  0.3399500E-08  0.3970001E+04  0.7818609E-02  0.8010626E-01
        1   -1    0    0  501    0  0.00000000000E+00  0.00000000000E+00  0.20900968973E+04  0.20900968973E+04  0.50400001928E-02 0.  1.
       -1   -1    0    0    0  501  0.00000000000E+00  0.00000000000E+00 -0.18851885045E+04  0.18851885045E+04  0.50400001928E-02 0. -1.
    10030    2    1    2    0    0  0.00000000000E+00  0.00000000000E+00  0.20490839282E+03  0.39752854018E+04  0.39700008283E+04 0.  0.
        5    1    3    3  502    0 -0.18260369047E+04  0.53491314503E+03  0.66859312905E+03  0.20168246607E+04  0.46999998093E+01 0.  1.
       -5    1    3    3    0  502  0.18260369047E+04 -0.53491314503E+03 -0.46368473623E+03  0.19584607411E+04  0.46999998093E+01 0. -1.
</event>
<event>
 5   0  0.1095109E-07  0.3990841E+04  0.7818609E-02  0.8006397E-01
       -2   -1    0    0    0  501  0.00000000000E+00  0.00000000000E+00  0.18920386049E+04  0.18920386049E+04  0.25500000920E-02 0. -1.
        2   -1    0    0  501    0  0.00000000000E+00  0.00000000000E+00 -0.21044510386E+04  0.21044510386E+04  0.25500000920E-02 0.  1.
    10030    2    1    2    0    0  0.00000000000E+00  0.00000000000E+00 -0.21241243374E+03  0.39964896435E+04  0.39908408173E+04 0.  0.
        4    1    3    3  502    0 -0.75141252028E+01 -0.16162527053E+04  0.10656517166E+04  0.19359608631E+04  0.12699999809E+01 0. -1.
       -4    1    3    3    0  502  0.75141252028E+01  0.16162527053E+04 -0.12780641504E+04  0.20605287804E+04  0.12699999809E+01 0.  1.
</event>
<event>
 5   0  0.3399500E-08  0.4004315E+04  0.7818609E-02  0.8003677E-01
        1   -1    0    0  501    0  0.00000000000E+00  0.00000000000E+00  0.26808538537E+04  0.26808538537E+04  0.50400001928E-02 0. -1.
       -1   -1    0    0    0  501  0.00000000000E+00  0.00000000000E+00 -0.14952831410E+04  0.14952831410E+04  0.50400001928E-02 0.  1.
    10030    2    1    2    0    0  0.00000000000E+00  0.00000000000E+00  0.11855707127E+04  0.41761369947E+04  0.40043154576E+04 0.  0.
        5    1    3    3  502    0 -0.49389444465E+03 -0.15740965506E+04  0.17758791027E+04  0.24239390155E+04  0.46999998093E+01 0. -1.
       -5    1    3    3    0  502  0.49389444465E+03  0.15740965506E+04 -0.59030839002E+03  0.17521979793E+04  0.46999998093E+01 0.  1.
</event>
<event>
 5   0  0.1073271E-07  0.3995009E+04  0.7818609E-02  0.8005554E-01
       -2   -1    0    0    0  501  0.00000000000E+00  0.00000000000E+00  0.16267548472E+04  0.16267548472E+04  0.25500000920E-02 0.  1.
        2   -1    0    0  501    0  0.00000000000E+00  0.00000000000E+00 -0.24527502309E+04  0.24527502309E+04  0.25500000920E-02 0. -1.
    10030    2    1    2    0    0  0.00000000000E+00  0.00000000000E+00 -0.82599538373E+03  0.40795050781E+04  0.39950085492E+04 0.  0.
        1    1    3    3  502    0 -0.29871596338E+03 -0.19438950194E+04 -0.76976414856E+03  0.21119886169E+04  0.50400001928E-02 0. -1.
       -1    1    3    3    0  502  0.29871596338E+03  0.19438950194E+04 -0.56231235171E+02  0.19675164612E+04  0.50400001928E-02 0.  1.
</event>
<event>
 5   0  0.3399500E-08  0.4028062E+04  0.7818609E-02  0.7998909E-01
       -1   -1    0    0    0  501  0.00000000000E+00  0.00000000000E+00  0.29413752733E+04  0.29413752733E+04  0.50400001928E-02 0.  1.
        1   -1    0    0  501    0  0.00000000000E+00  0.00000000000E+00 -0.13790558363E+04  0.13790558363E+04  0.50400001928E-02 0. -1.
    10030    2    1    2    0    0  0.00000000000E+00  0.00000000000E+00  0.15623194371E+04  0.43204311096E+04  0.40280619347E+04 0.  0.
        2    1    3    3  502    0 -0.16903394218E+04  0.10888790487E+04  0.65692610023E+03  0.21152911962E+04  0.25500000920E-02 0. -1.
       -2    1    3    3    0  502  0.16903394218E+04 -0.10888790487E+04  0.90539333684E+03  0.22051399134E+04  0.25500000920E-02 0.  1.
</event>
<event>
 5   0  0.1101474E-07  0.3994501E+04  0.7818609E-02  0.8005657E-01
       -2   -1    0    0    0  501  0.00000000000E+00  0.00000000000E+00  0.17897942622E+04  0.17897942622E+04  0.25500000920E-02 0.  1.
        2   -1    0    0  501    0  0.00000000000E+00  0.00000000000E+00 -0.22287527799E+04  0.22287527799E+04  0.25500000920E-02 0. -1.
    10030    2    1    2    0    0  0.00000000000E+00  0.00000000000E+00 -0.43895851772E+03  0.40185470422E+04  0.39945006884E+04 0.  0.
        5    1    3    3  502    0 -0.19086362631E+03  0.19157092694E+04  0.31533732599E+03  0.19508538254E+04  0.46999998093E+01 0.  1.
       -5    1    3    3    0  502  0.19086362631E+03 -0.19157092694E+04 -0.75429584372E+03  0.20676932168E+04  0.46999998093E+01 0. -1.
</event>
<event>
 5   0  0.3399500E-08  0.3993847E+04  0.7818609E-02  0.8005789E-01
       -1   -1    0    0    0  501  0.00000000000E+00  0.00000000000E+00  0.24560707124E+04  0.24560707124E+04  0.50400001928E-02 0. -1.
        1   -1    0    0  501    0  0.00000000000E+00  0.00000000000E+00 -0.16236110508E+04  0.16236110508E+04  0.50400001928E-02 0.  1.
    10030    2    1    2    0    0  0.00000000000E+00  0.00000000000E+00  0.83245966156E+03  0.40796817632E+04  0.39938470428E+04 0.  0.
        3    1    3    3  502    0 -0.96617344634E+03 -0.13909703703E+04  0.14969921513E+04  0.22603705915E+04  0.10100000352E+00 0. -1.
       -3    1    3    3    0  502  0.96617344634E+03  0.13909703703E+04 -0.66453248973E+03  0.18193111718E+04  0.10100000352E+00 0.  1.
</event>
<event>
 5   0  0.3399500E-08  0.3988944E+04  0.7818609E-02  0.8006781E-01
        1   -1    0    0  501    0  0.00000000000E+00  0.00000000000E+00  0.25714030929E+04  0.25714030929E+04  0.50400001928E-02 0. -1.
       -1   -1    0    0    0  501  0.00000000000E+00  0.00000000000E+00 -0.15469836311E+04  0.15469836311E+04  0.50400001928E-02 0.  1.
    10030    2    1    2    0    0  0.00000000000E+00  0.00000000000E+00  0.10244194618E+04  0.41183867240E+04  0.39889439674E+04 0.  0.
        3    1    3    3  502    0  0.11403906966E+04 -0.69673296410E+03 -0.10163715784E+04  0.16789696125E+04  0.10100000352E+00 0. -1.
       -3    1    3    3    0  502 -0.11403906966E+04  0.69673296410E+03  0.20407910402E+04  0.24394171115E+04  0.10100000352E+00 0.  1.
</event>
<event>
 5   0  0.3399500E-08  0.3944010E+04  0.7818609E-02  0.8015938E-01
       -1   -1    0    0    0  501  0.00000000000E+00  0.00000000000E+00  0.25376274081E+04  0.25376274081E+04  0.50400001928E-02 0.  1.
        1   -1    0    0  501    0  0.00000000000E+00  0.00000000000E+00 -0.15324568009E+04  0.15324568009E+04  0.50400001928E-02 0. -1.
    10030    2    1    2    0    0  0.00000000000E+00  0.00000000000E+00  0.10051706072E+04  0.40700842091E+04  0.39440103346E+04 0.  0.
        3    1    3    3  502    0  0.62912193308E+02 -0.19598924883E+04  0.71823373504E+03  0.20882998392E+04  0.10100000352E+00 0.  1.
       -3    1    3    3    0  502 -0.62912193308E+02  0.19598924883E+04  0.28693687215E+03  0.19817843699E+04  0.10100000352E+00 0. -1.
</event>
<event>
 5   0  0.3399500E-08  0.3967194E+04  0.7818609E-02  0.8011197E-01
        1   -1    0    0  501    0  0.00000000000E+00  0.00000000000E+00  0.17249497285E+04  0.17249497285E+04  0.50400001928E-02 0.  1.
       -1   -1    0    0    0  501  0.00000000000E+00  0.00000000000E+00 -0.22810269106E+04  0.22810269106E+04  0.50400001928E-02 0. -1.
    10030    2    1    2    0    0  0.00000000000E+00  0.00000000000E+00 -0.55607718211E+03  0.40059766391E+04  0.39671938446E+04 0.  0.
        4    1    3    3  502    0 -0.54946152493E+03  0.13152381226E+04  0.11149016996E+04  0.18096316474E+04  0.12699999809E+01 0.  1.
       -4    1    3    3    0  502  0.54946152493E+03 -0.13152381226E+04 -0.16709788817E+04  0.21963449917E+04  0.12699999809E+01 0. -1.
</event>
<event>
 5   0  0.3399500E-08  0.3980498E+04  0.7818609E-02  0.8008492E-01
       -1   -1    0    0    0  501  0.00000000000E+00  0.00000000000E+00  0.19777903483E+04  0.19777903483E+04  0.50400001928E-02 0. -1.
        1   -1    0    0  501    0  0.00000000000E+00  0.00000000000E+00 -0.20027856752E+04  0.20027856752E+04  0.50400001928E-02 0.  1.
    10030    2    1    2    0    0  0.00000000000E+00  0.00000000000E+00 -0.24995326934E+02  0.39805760235E+04  0.39804975459E+04 0.  0.
        5    1    3    3  502    0 -0.59515496766E+03 -0.13678687689E+04 -0.13300188696E+04  0.19985611544E+04  0.46999998093E+01 0.  1.
       -5    1    3    3    0  502  0.59515496766E+03  0.13678687689E+04  0.13050235427E+04  0.19820148691E+04  0.46999998093E+01 0. -1.
</event>
<event>
 5   0  0.1101474E-07  0.3975405E+04  0.7818609E-02  0.8009527E-01
        2   -1    0    0  501    0  0.00000000000E+00  0.00000000000E+00  0.12060417102E+04  0.12060417102E+04  0.25500000920E-02 0.  1.
       -2   -1    0    0    0  501  0.00000000000E+00  0.00000000000E+00 -0.32759736880E+04  0.32759736880E+04  0.25500000920E-02 0. -1.
    10030    2    1    2    0    0  0.00000000000E+00  0.00000000000E+00 -0.20699319778E+04  0.44820153982E+04  0.39754048394E+04 0.  0.
        5    1    3    3  502    0  0.56094197279E+03  0.16189334382E+04 -0.21710153027E+04  0.27656700650E+04  0.46999998093E+01 0. -1.
       -5    1    3    3    0  502 -0.56094197279E+03 -0.16189334382E+04  0.10108332483E+03  0.17163453332E+04  0.46999998093E+01 0.  1.
</event>
<event>
 5   0  0.1073271E-07  0.3979329E+04  0.7818609E-02  0.8008730E-01
        2   -1    0    0  501    0  0.00000000000E+00  0.00000000000E+00  0.25387384638E+04  0.25387384638E+04  0.25500000920E-02 0.  1.
       -2   -1    0    0    0  501  0.00000000000E+00  0.00000000000E+00 -0.15593431020E+04  0.15593431020E+04  0.25500000920E-02 0. -1.
    10030    2    1    2    0    0  0.00000000000E+00  0.00000000000E+00  0.97939536178E+03  0.40980815658E+04  0.39793287431E+04 0.  0.
        1    1    3    3  502    0  0.89800397543E+03  0.39564822874E+03 -0.12927973255E+04  0.16230445421E+04  0.50400001928E-02 0. -1.
       -1    1    3    3    0  502 -0.89800397543E+03 -0.39564822874E+03  0.22721926873E+04  0.24750370237E+04  0.50400001928E-02 0.  1.
</event>
<event>
 5   0  0.3399500E-08  0.3974660E+04  0.7818609E-02  0.8009678E-01
        1   -1    0    0  501    0  0.00000000000E+00  0.00000000000E+00  0.34520107976E+04  0.34520107976E+04  0.50400001928E-02 0.  1.
       -1   -1    0    0    0  501  0.00000000000E+00  0.00000000000E+00 -0.11441102442E+04  0.11441102442E+04  0.50400001928E-02 0. -1.
    10030    2    1    2    0    0  0.00000000000E+00  0.00000000000E+00  0.23079005534E+04  0.45961210418E+04  0.39746601951E+04 0.  0.
        1    1    3    3  502    0 -0.11932187804E+04  0.39970148644E+03  0.29326150462E+04  0.31912009253E+04  0.50400001928E-02 0.  1.
       -1    1    3    3    0  502  0.11932187804E+04 -0.39970148644E+03 -0.62471449287E+03  0.14049201165E+04  0.50400001928E-02 0. -1.
</event>
<event>
 5   0  0.1095109E-07  0.3987607E+04  0.7818609E-02  0.8007051E-01
        2   -1    0    0  501    0  0.00000000000E+00  0.00000000000E+00  0.17322801222E+04  0.17322801222E+04  0.25500000920E-02 0.  1.
       -2   -1    0    0    0  501  0.00000000000E+00  0.00000000000E+00 -0.22948090973E+04  0.22948090973E+04  0.25500000920E-02 0. -1.
    10030    2    1    2    0    0  0.00000000000E+00  0.00000000000E+00 -0.56252897501E+03  0.40270892195E+04  0.39876068931E+04 0.  0.
        4    1    3    3  502    0  0.12219449415E+04  0.15748617673E+04 -0.32541859346E+03  0.20197123311E+04  0.12699999809E+01 0.  1.
       -4    1    3    3    0  502 -0.12219449415E+04 -0.15748617673E+04 -0.23711038154E+03  0.20073768884E+04  0.12699999809E+01 0. -1.
</event>
<event>
 5   0  0.1095903E-07  0.3604390E+04  0.7818609E-02  0.8089487E-01
        2   -1    0    0  501    0  0.00000000000E+00  0.00000000000E+00  0.29770521989E+04  0.29770521989E+04  0.25500000920E-02 0. -1.
       -2   -1    0    0    0  501  0.00000000000E+00  0.00000000000E+00 -0.10909807874E+04  0.10909807874E+04  0.25500000920E-02 0.  1.
    10030    2    1    2    0    0  0.00000000000E+00  0.00000000000E+00  0.18860714115E+04  0.40680329863E+04  0.36043899634E+04 0.  0.
        3    1    3    3  502    0 -0.83267401626E+03  0.82589071765E+03 -0.60136352659E+03  0.13179831547E+04  0.10100000352E+00 0. -1.
       -3    1    3    3    0  502  0.83267401626E+03 -0.82589071765E+03  0.24874349381E+04  0.27500498316E+04  0.10100000352E+00 0.  1.
</event>
<event>
 5   0  0.3399500E-08  0.3895611E+04  0.7818609E-02  0.8025943E-01
       -1   -1    0    0    0  501  0.00000000000E+00  0.00000000000E+00  0.19344323135E+04  0.19344323135E+04  0.50400001928E-02 0.  1.
        1   -1    0    0  501    0  0.00000000000E+00  0.00000000000E+00 -0.19612708983E+04  0.19612708983E+04  0.50400001928E-02 0. -1.
    10030    2    1    2    0    0  0.00000000000E+00  0.00000000000E+00 -0.26838584831E+02  0.38957032118E+04  0.38956107615E+04 0.  0.
        3    1    3    3  502    0 -0.15437859051E+04 -0.71591239875E+03 -0.96114443049E+03  0.19543807484E+04  0.10100000352E+00 0. -1.
       -3    1    3    3    0  502  0.15437859051E+04  0.71591239875E+03  0.93430584566E+03  0.19413224634E+04  0.10100000352E+00 0.  1.
</event>
<event>
 5   0  0.3399500E-08  0.3919015E+04  0.7818609E-02  0.8021086E-01
        3   -1    0    0  501    0  0.00000000000E+00  0.00000000000E+00  0.25388671250E+04  0.25388671270E+04  0.10100000352E+00 0.  1.
       -3   -1    0    0    0  501  0.00000000000E+00  0.00000000000E+00 -0.15123555485E+04  0.15123555518E+04  0.10100000352E+00 0. -1.
    10030    2    1    2    0    0  0.00000000000E+00  0.00000000000E+00  0.10265115765E+04  0.40512226788E+04  0.39190150774E+04 0.  0.
        2    1    3    3  502    0  0.34611566815E+03 -0.11222848534E+04 -0.11082095398E+04  0.16147593418E+04  0.25500000920E-02 0. -1.
       -2    1    3    3    0  502 -0.34611566815E+03  0.11222848534E+04  0.21347211163E+04  0.24364633370E+04  0.25500000920E-02 0.  1.
</event>
<event>
 5   0  0.3399500E-08  0.3977364E+04  0.7818609E-02  0.8009128E-01
       -1   -1    0    0    0  501  0.00000000000E+00  0.00000000000E+00  0.16021728800E+04  0.16021728801E+04  0.50400001928E-02 0.  1.
        1   -1    0    0  501    0  0.00000000000E+00  0.00000000000E+00 -0.24684332857E+04  0.24684332857E+04  0.50400001928E-02 0. -1.
    10030    2    1    2    0    0  0.00000000000E+00  0.00000000000E+00 -0.86626040567E+03  0.40706061658E+04  0.39773643869E+04 0.  0.
        4    1    3    3  502    0 -0.67941620935E+03 -0.95298752155E+03 -0.20786356561E+04  0.23854809590E+04  0.12699999809E+01 0. -1.
       -4    1    3    3    0  502  0.67941620935E+03  0.95298752155E+03  0.12123752505E+04  0.16851252068E+04  0.12699999809E+01 0.  1.
</event>
<event>
 5   0  0.1095903E-07  0.4022682E+04  0.7818609E-02  0.7999987E-01
       -2   -1    0    0    0  501  0.00000000000E+00  0.00000000000E+00  0.29436767847E+04  0.29436767847E+04  0.25500000920E-02 0. -1.
        2   -1    0    0  501    0  0.00000000000E+00  0.00000000000E+00 -0.13742989848E+04  0.13742989848E+04  0.25500000920E-02 0.  1.
    10030    2    1    2    0    0  0.00000000000E+00  0.00000000000E+00  0.15693777999E+04  0.43179757695E+04  0.40226817010E+04 0.  0.
        3    1    3    3  502    0 -0.19200098101E+03  0.18533856282E+04 -0.28263407266E+02  0.18635185789E+04  0.10100000352E+00 0.  1.
       -3    1    3    3    0  502  0.19200098101E+03 -0.18533856282E+04  0.15976412072E+04  0.24544571906E+04  0.10100000352E+00 0. -1.
</event>
<event>
 5   0  0.1087688E-07  0.4020669E+04  0.7818609E-02  0.8000390E-01
       -2   -1    0    0    0  501  0.00000000000E+00  0.00000000000E+00  0.15688768492E+04  0.15688768492E+04  0.25500000920E-02 0. -1.
        2   -1    0    0  501    0  0.00000000000E+00  0.00000000000E+00 -0.25760113762E+04  0.25760113762E+04  0.25500000920E-02 0.  1.
    10030    2    1    2    0    0  0.00000000000E+00  0.00000000000E+00 -0.10071345270E+04  0.41448882253E+04  0.40206689052E+04 0.  0.
        2    1    3    3  502    0 -0.82443718519E+03  0.11766662672E+04 -0.19531409612E+04  0.24246648822E+04  0.25500000920E-02 0.  1.
       -2    1    3    3    0  502  0.82443718519E+03 -0.11766662672E+04  0.94600643417E+03  0.17202233431E+04  0.25500000920E-02 0. -1.
</event>
<event>
 5   0  0.1095903E-07  0.4016564E+04  0.7818609E-02  0.8001213E-01
       -2   -1    0    0    0  501  0.00000000000E+00  0.00000000000E+00  0.15747841312E+04  0.15747841312E+04  0.25500000920E-02 0. -1.
        2   -1    0    0  501    0  0.00000000000E+00  0.00000000000E+00 -0.25611107401E+04  0.25611107401E+04  0.25500000920E-02 0.  1.
    10030    2    1    2    0    0  0.00000000000E+00  0.00000000000E+00 -0.98632660895E+03  0.41358948713E+04  0.40165639802E+04 0.  0.
        3    1    3    3  502    0  0.18954890678E+04  0.19575487574E+03 -0.11460331657E+04  0.22236435876E+04  0.10100000352E+00 0. -1.
       -3    1    3    3    0  502 -0.18954890678E+04 -0.19575487574E+03  0.15970655670E+03  0.19122512837E+04  0.10100000352E+00 0.  1.
</event>
<event>
 5   0  0.1087688E-07  0.4012426E+04  0.7818609E-02  0.8002044E-01
        2   -1    0    0  501    0  0.00000000000E+00  0.00000000000E+00  0.16498123033E+04  0.16498123033E+04  0.25500000920E-02 0.  1.
       -2   -1    0    0    0  501  0.00000000000E+00  0.00000000000E+00 -0.24396053599E+04  0.24396053599E+04  0.25500000920E-02 0. -1.
    10030    2    1    2    0    0  0.00000000000E+00  0.00000000000E+00 -0.78979305663E+03  0.40894176632E+04  0.40124261677E+04 0.  0.
        2    1    3    3  502    0  0.69488709791E+03 -0.16684024442E+04  0.49270828985E+03  0.18732848832E+04  0.25500000920E-02 0.  1.
       -2    1    3    3    0  502 -0.69488709791E+03  0.16684024442E+04 -0.12825013465E+04  0.22161327800E+04  0.25500000920E-02 0. -1.
</event>
<event>
 5   0  0.1095903E-07  0.3981426E+04  0.7818609E-02  0.8008304E-01
        2   -1    0    0  501    0  0.00000000000E+00  0.00000000000E+00  0.22558763452E+04  0.22558763452E+04  0.25500000920E-02 0.  1.
       -2   -1    0    0    0  501  0.00000000000E+00  0.00000000000E+00 -0.17567176342E+04  0.17567176342E+04  0.25500000920E-02 0. -1.
    10030    2    1    2    0    0  0.00000000000E+00  0.00000000000E+00  0.49915871104E+03  0.40125939794E+04  0.39814257527E+04 0.  0.
        3    1    3    3  502    0 -0.15986220883E+04 -0.61717423546E+03 -0.77148618246E+03  0.18792784674E+04  0.10100000352E+00 0.  1.
       -3    1    3    3    0  502  0.15986220883E+04  0.61717423546E+03  0.12706448935E+04  0.21333155120E+04  0.10100000352E+00 0. -1.
</event>
<event>
 5   0  0.1101474E-07  0.3961357E+04  0.7818609E-02  0.8012388E-01
        2   -1    0    0  501    0  0.00000000000E+00  0.00000000000E+00  0.18087145819E+04  0.18087145819E+04  0.25500000920E-02 0.  1.
       -2   -1    0    0    0  501  0.00000000000E+00  0.00000000000E+00 -0.21689922893E+04  0.21689922893E+04  0.25500000920E-02 0. -1.
    10030    2    1    2    0    0  0.00000000000E+00  0.00000000000E+00 -0.36027770748E+03  0.39777068712E+04  0.39613573339E+04 0.  0.
        5    1    3    3  502    0  0.55108152979E+03 -0.37853756525E+03  0.16919821215E+04  0.18192875337E+04  0.46999998093E+01 0.  1.
       -5    1    3    3    0  502 -0.55108152979E+03  0.37853756525E+03 -0.20522598290E+04  0.21584193375E+04  0.46999998093E+01 0. -1.
</event>
<event>
 5   0  0.1095109E-07  0.4001252E+04  0.7818609E-02  0.8004294E-01
        2   -1    0    0  501    0  0.00000000000E+00  0.00000000000E+00  0.22305863150E+04  0.22305863150E+04  0.25500000920E-02 0.  1.
       -2   -1    0    0    0  501  0.00000000000E+00  0.00000000000E+00 -0.17943733831E+04  0.17943733831E+04  0.25500000920E-02 0. -1.
    10030    2    1    2    0    0  0.00000000000E+00  0.00000000000E+00  0.43621293194E+03  0.40249596981E+04  0.40012521602E+04 0.  0.
        4    1    3    3  502    0 -0.39079566231E+03  0.22483030835E+03 -0.17426045522E+04  0.17999839320E+04  0.12699999809E+01 0. -1.
       -4    1    3    3    0  502  0.39079566231E+03 -0.22483030835E+03  0.21788174842E+04  0.22249757660E+04  0.12699999809E+01 0.  1.
</event>
<event>
 5   0  0.1095109E-07  0.4011729E+04  0.7818609E-02  0.8002185E-01
        2   -1    0    0  501    0  0.00000000000E+00  0.00000000000E+00  0.19656615541E+04  0.19656615541E+04  0.25500000920E-02 0.  1.
       -2   -1    0    0    0  501  0.00000000000E+00  0.00000000000E+00 -0.20468893933E+04  0.20468893933E+04  0.25500000920E-02 0. -1.
    10030    2    1    2    0    0  0.00000000000E+00  0.00000000000E+00 -0.81227839190E+02  0.40125509473E+04  0.40117286976E+04 0.  0.
        4    1    3    3  502    0  0.26707335399E+03 -0.19866433403E+04 -0.11418329504E+03  0.20077647710E+04  0.12699999809E+01 0. -1.
       -4    1    3    3    0  502 -0.26707335399E+03  0.19866433403E+04  0.32955455845E+02  0.20047861763E+04  0.12699999809E+01 0.  1.
</event>
<event>
 5   0  0.3399500E-08  0.3970873E+04  0.7818609E-02  0.8010448E-01
       -1   -1    0    0    0  501  0.00000000000E+00  0.00000000000E+00  0.17919287171E+04  0.17919287171E+04  0.50400001928E-02 0.  1.
        1   -1    0    0  501    0  0.00000000000E+00  0.00000000000E+00 -0.21998406381E+04  0.21998406381E+04  0.50400001928E-02 0. -1.
    10030    2    1    2    0    0  0.00000000000E+00  0.00000000000E+00 -0.40791192105E+03  0.39917693552E+04  0.39708727567E+04 0.  0.
        1    1    3    3  502    0  0.30730010686E+03  0.24478053212E+03 -0.21603751318E+04  0.21958077272E+04  0.50400001928E-02 0. -1.
       -1    1    3    3    0  502 -0.30730010686E+03 -0.24478053212E+03  0.17524632107E+04  0.17959616281E+04  0.50400001928E-02 0.  1.
</event>
<event>
 5   0  0.1087688E-07  0.3982467E+04  0.7818609E-02  0.8008093E-01
       -2   -1    0    0    0  501  0.00000000000E+00  0.00000000000E+00  0.15685956466E+04  0.15685956466E+04  0.25500000920E-02 0. -1.
        2   -1    0    0  501    0  0.00000000000E+00  0.00000000000E+00 -0.25277460528E+04  0.25277460528E+04  0.25500000920E-02 0.  1.
    10030    2    1    2    0    0  0.00000000000E+00  0.00000000000E+00 -0.95915040621E+03  0.40963416995E+04  0.39824673027E+04 0.  0.
        2    1    3    3  502    0  0.11653848666E+04  0.15205466392E+04 -0.10380813298E+04  0.21789439682E+04  0.25500000920E-02 0. -1.
       -2    1    3    3    0  502 -0.11653848666E+04 -0.15205466392E+04  0.78930923540E+02  0.19173977313E+04  0.25500000920E-02 0.  1.
</event>
<event>
 5   0  0.3399500E-08  0.3988046E+04  0.7818609E-02  0.8006962E-01
       -3   -1    0    0    0  501  0.00000000000E+00  0.00000000000E+00  0.16420957232E+04  0.16420957263E+04  0.10100000352E+00 0. -1.
        3   -1    0    0  501    0  0.00000000000E+00  0.00000000000E+00 -0.24213744051E+04  0.24213744072E+04  0.10100000352E+00 0.  1.
    10030    2    1    2    0    0  0.00000000000E+00  0.00000000000E+00 -0.77927868188E+03  0.40634701335E+04  0.39880464217E+04 0.  0.
        4    1    3    3  502    0  0.35785020163E+03 -0.12631143048E+04  0.11396163525E+04  0.17384595357E+04  0.12699999809E+01 0. -1.
       -4    1    3    3    0  502 -0.35785020163E+03  0.12631143048E+04 -0.19188950343E+04  0.23250105977E+04  0.12699999809E+01 0.  1.
</event>
<event>
 5   0  0.3399500E-08  0.3993137E+04  0.7818609E-02  0.8005933E-01
       -1   -1    0    0    0  501  0.00000000000E+00  0.00000000000E+00  0.23100173294E+04  0.23100173294E+04  0.50400001928E-02 0.  1.
        1   -1    0    0  501    0  0.00000000000E+00  0.00000000000E+00 -0.17256515430E+04  0.17256515430E+04  0.50400001928E-02 0. -1.
    10030    2    1    2    0    0  0.00000000000E+00  0.00000000000E+00  0.58436578638E+03  0.40356688724E+04  0.39931365962E+04 0.  0.
        1    1    3    3  502    0  0.12581370508E+04 -0.13221343724E+04  0.11103342349E+04  0.21363029398E+04  0.50400001928E-02 0.  1.
       -1    1    3    3    0  502 -0.12581370508E+04  0.13221343724E+04 -0.52596844848E+03  0.18993659327E+04  0.50400001928E-02 0. -1.
</event>
<event>
 5   0  0.3399500E-08  0.3997489E+04  0.7818609E-02  0.8005053E-01
       -1   -1    0    0    0  501  0.00000000000E+00  0.00000000000E+00  0.15104348830E+04  0.15104348830E+04  0.50400001928E-02 0.  1.
        1   -1    0    0  501    0  0.00000000000E+00  0.00000000000E+00 -0.26449195100E+04  0.26449195100E+04  0.50400001928E-02 0. -1.
    10030    2    1    2    0    0  0.00000000000E+00  0.00000000000E+00 -0.11344846270E+04  0.41553543930E+04  0.39974885568E+04 0.  0.
        5    1    3    3  502    0  0.17188615155E+04  0.93513993236E+03 -0.14374051548E+03  0.19620537781E+04  0.46999998093E+01 0.  1.
       -5    1    3    3    0  502 -0.17188615155E+04 -0.93513993236E+03 -0.99074411156E+03  0.21933006148E+04  0.46999998093E+01 0. -1.
</event>
<event>
 5   0  0.1073271E-07  0.3840379E+04  0.7818609E-02  0.8037545E-01
       -2   -1    0    0    0  501  0.00000000000E+00  0.00000000000E+00  0.12962796208E+04  0.12962796208E+04  0.25500000920E-02 0.  1.
        2   -1    0    0  501    0  0.00000000000E+00  0.00000000000E+00 -0.28443915730E+04  0.28443915730E+04  0.25500000920E-02 0. -1.
    10030    2    1    2    0    0  0.00000000000E+00  0.00000000000E+00 -0.15481119521E+04  0.41406711938E+04  0.38403785385E+04 0.  0.
        1    1    3    3  502    0  0.94689707248E+03 -0.44696261919E+02 -0.25745148436E+04  0.27434902044E+04  0.50400001928E-02 0. -1.
       -1    1    3    3    0  502 -0.94689707248E+03  0.44696261919E+02  0.10264028914E+04  0.13971809894E+04  0.50400001928E-02 0.  1.
</event>
<event>
 5   0  0.1095903E-07  0.4011962E+04  0.7818609E-02  0.8002138E-01
        2   -1    0    0  501    0  0.00000000000E+00  0.00000000000E+00  0.28900853195E+04  0.28900853195E+04  0.25500000920E-02 0.  1.
       -2   -1    0    0    0  501  0.00000000000E+00  0.00000000000E+00 -0.13923322332E+04  0.13923322332E+04  0.25500000920E-02 0. -1.
    10030    2    1    2    0    0  0.00000000000E+00  0.00000000000E+00  0.14977530864E+04  0.42824175527E+04  0.40119615885E+04 0.  0.
        3    1    3    3  502    0 -0.15248494068E+04  0.12961315360E+04  0.89537384859E+03  0.21924454408E+04  0.10100000352E+00 0.  1.
       -3    1    3    3    0  502  0.15248494068E+04 -0.12961315360E+04  0.60237923780E+03  0.20899721119E+04  0.10100000352E+00 0. -1.
</event>
<event>
 5   0  0.1101474E-07  0.3985905E+04  0.7818609E-02  0.8007396E-01
       -2   -1    0    0    0  501  0.00000000000E+00  0.00000000000E+00  0.17109372840E+04  0.17109372840E+04  0.25500000920E-02 0. -1.
        2   -1    0    0  501    0  0.00000000000E+00  0.00000000000E+00 -0.23214519731E+04  0.23214519731E+04  0.25500000920E-02 0.  1.
    10030    2    1    2    0    0  0.00000000000E+00  0.00000000000E+00 -0.61051468915E+03  0.40323892571E+04  0.39859045316E+04 0.  0.
        5    1    3    3  502    0  0.92414038076E+03 -0.13792302659E+04  0.81010895315E+03  0.18473251407E+04  0.46999998093E+01 0. -1.
       -5    1    3    3    0  502 -0.92414038076E+03  0.13792302659E+04 -0.14206236423E+04  0.21850641164E+04  0.46999998093E+01 0.  1.
</event>
<event>
 5   0  0.3399500E-08  0.3981209E+04  0.7818609E-02  0.8008348E-01
        3   -1    0    0  501    0  0.00000000000E+00  0.00000000000E+00  0.22832540237E+04  0.22832540259E+04  0.10100000352E+00 0. -1.
       -3   -1    0    0    0  501  0.00000000000E+00  0.00000000000E+00 -0.17354644505E+04  0.17354644534E+04  0.10100000352E+00 0.  1.
    10030    2    1    2    0    0  0.00000000000E+00  0.00000000000E+00  0.54778957320E+03  0.40187184794E+04  0.39812089621E+04 0.  0.
        4    1    3    3  502    0 -0.11087997929E+04 -0.17931652554E+03 -0.13850346892E+04  0.17832313648E+04  0.12699999809E+01 0.  1.
       -4    1    3    3    0  502  0.11087997929E+04  0.17931652554E+03  0.19328242624E+04  0.22354871146E+04  0.12699999809E+01 0. -1.
</event>
<event>
 5   0  0.1095903E-07  0.3980344E+04  0.7818609E-02  0.8008524E-01
        2   -1    0    0  501    0  0.00000000000E+00  0.00000000000E+00  0.26014079675E+04  0.26014079675E+04  0.25500000920E-02 0.  1.
       -2   -1    0    0    0  501  0.00000000000E+00  0.00000000000E+00 -0.15225540937E+04  0.15225540937E+04  0.25500000920E-02 0. -1.
    10030    2    1    2    0    0  0.00000000000E+00  0.00000000000E+00  0.10788538738E+04  0.41239620612E+04  0.39803438797E+04 0.  0.
        3    1    3    3  502    0  0.14308853529E+04  0.10110849510E+04 -0.43859189391E+03  0.18061252810E+04  0.10100000352E+00 0. -1.
       -3    1    3    3    0  502 -0.14308853529E+04 -0.10110849510E+04  0.15174457677E+04  0.23178367801E+04  0.10100000352E+00 0.  1.
</event>
<event>
 5   0  0.1095109E-07  0.4068500E+04  0.7818609E-02  0.7990869E-01
       -2   -1    0    0    0  501  0.00000000000E+00  0.00000000000E+00  0.12802787071E+04  0.12802787071E+04  0.25500000920E-02 0. -1.
        2   -1    0    0  501    0  0.00000000000E+00  0.00000000000E+00 -0.32322440587E+04  0.32322440587E+04  0.25500000920E-02 0.  1.
    10030    2    1    2    0    0  0.00000000000E+00  0.00000000000E+00 -0.19519653516E+04  0.45125227657E+04  0.40685000894E+04 0.  0.
        4    1    3    3  502    0  0.97636235707E+03  0.12250054598E+04  0.46343996226E+03  0.16336156342E+04  0.12699999809E+01 0. -1.
       -4    1    3    3    0  502 -0.97636235707E+03 -0.12250054598E+04 -0.24154053138E+04  0.28789071315E+04  0.12699999809E+01 0.  1.
</event>
<event>
 5   0  0.1101474E-07  0.4039831E+04  0.7818609E-02  0.7996559E-01
       -2   -1    0    0    0  501  0.00000000000E+00  0.00000000000E+00  0.18531583662E+04  0.18531583662E+04  0.25500000920E-02 0. -1.
        2   -1    0    0  501    0  0.00000000000E+00  0.00000000000E+00 -0.22016780643E+04  0.22016780643E+04  0.25500000920E-02 0.  1.
    10030    2    1    2    0    0  0.00000000000E+00  0.00000000000E+00 -0.34851969809E+03  0.40548364306E+04  0.40398307512E+04 0.  0.
        5    1    3    3  502    0  0.12319191586E+04 -0.63240078365E+03 -0.16502595381E+04  0.21542827571E+04  0.46999998093E+01 0.  1.
       -5    1    3    3    0  502 -0.12319191586E+04  0.63240078365E+03  0.13017398400E+04  0.19005536734E+04  0.46999998093E+01 0. -1.
</event>
<event>
 5   0  0.3399500E-08  0.3787956E+04  0.7818609E-02  0.8048744E-01
        1   -1    0    0  501    0  0.00000000000E+00  0.00000000000E+00  0.16133511456E+04  0.16133511456E+04  0.50400001928E-02 0. -1.
       -1   -1    0    0    0  501  0.00000000000E+00  0.00000000000E+00 -0.22234174252E+04  0.22234174252E+04  0.50400001928E-02 0.  1.
    10030    2    1    2    0    0  0.00000000000E+00  0.00000000000E+00 -0.61006627964E+03  0.38367685708E+04  0.37879562036E+04 0.  0.
        5    1    3    3  502    0 -0.18551565619E+04 -0.30456735313E+03 -0.72369368454E+02  0.18813895283E+04  0.46999998093E+01 0. -1.
       -5    1    3    3    0  502  0.18551565619E+04  0.30456735313E+03 -0.53769691119E+03  0.19553790425E+04  0.46999998093E+01 0.  1.
</event>
<event>
 5   0  0.1095903E-07  0.4002893E+04  0.7818609E-02  0.8003963E-01
        2   -1    0    0  501    0  0.00000000000E+00  0.00000000000E+00  0.17308239219E+04  0.17308239219E+04  0.25500000920E-02 0.  1.
       -2   -1    0    0    0  501  0.00000000000E+00  0.00000000000E+00 -0.23143816567E+04  0.23143816567E+04  0.25500000920E-02 0. -1.
    10030    2    1    2    0    0  0.00000000000E+00  0.00000000000E+00 -0.58355773481E+03  0.40452055786E+04  0.40028925221E+04 0.  0.
        3    1    3    3  502    0  0.26705903354E+02  0.20008358199E+04 -0.24974663392E+03  0.20165392569E+04  0.10100000352E+00 0.  1.
       -3    1    3    3    0  502 -0.26705903354E+02 -0.20008358199E+04 -0.33381110089E+03  0.20286663217E+04  0.10100000352E+00 0. -1.
</event>
<event>
 5   0  0.1073271E-07  0.4004295E+04  0.7818609E-02  0.8003681E-01
       -2   -1    0    0    0  501  0.00000000000E+00  0.00000000000E+00  0.26300751898E+04  0.26300751898E+04  0.25500000920E-02 0.  1.
        2   -1    0    0  501    0  0.00000000000E+00  0.00000000000E+00 -0.15241366931E+04  0.15241366931E+04  0.25500000920E-02 0. -1.
    10030    2    1    2    0    0  0.00000000000E+00  0.00000000000E+00  0.11059384967E+04  0.41542118829E+04  0.40042947456E+04 0.  0.
        1    1    3    3  502    0  0.69989981536E+03 -0.16715972072E+04 -0.33007189784E+03  0.18420218328E+04  0.50400001928E-02 0. -1.
       -1    1    3    3    0  502 -0.69989981536E+03  0.16715972072E+04  0.14360103945E+04  0.23121900501E+04  0.50400001928E-02 0.  1.
</event>
<event>
 5   0  0.1095109E-07  0.3948967E+04  0.7818609E-02  0.8014921E-01
        2   -1    0    0  501    0  0.00000000000E+00  0.00000000000E+00  0.19785374035E+04  0.19785374035E+04  0.25500000920E-02 0. -1.
       -2   -1    0    0    0  501  0.00000000000E+00  0.00000000000E+00 -0.19704376164E+04  0.19704376164E+04  0.25500000920E-02 0.  1.
    10030    2    1    2    0    0  0.00000000000E+00  0.00000000000E+00  0.80997871280E+01  0.39489750199E+04  0.39489667131E+04 0.  0.
        4    1    3    3  502    0  0.44554180505E+02  0.12158064078E+04 -0.15510780081E+04  0.19712977696E+04  0.12699999809E+01 0.  1.
       -4    1    3    3    0  502 -0.44554180505E+02 -0.12158064078E+04  0.15591777953E+04  0.19776772503E+04  0.12699999809E+01 0. -1.
</event>
<event>
 5   0  0.1073271E-07  0.3923413E+04  0.7818609E-02  0.8020177E-01
        2   -1    0    0  501    0  0.00000000000E+00  0.00000000000E+00  0.29849213117E+04  0.29849213117E+04  0.25500000920E-02 0. -1.
       -2   -1    0    0    0  501  0.00000000000E+00  0.00000000000E+00 -0.12892442453E+04  0.12892442453E+04  0.25500000920E-02 0.  1.
    10030    2    1    2    0    0  0.00000000000E+00  0.00000000000E+00  0.16956770664E+04  0.42741655570E+04  0.39234131180E+04 0.  0.
        1    1    3    3  502    0  0.62002642526E+03  0.58175946684E+03 -0.10780945818E+04  0.13730130271E+04  0.50400001928E-02 0.  1.
       -1    1    3    3    0  502 -0.62002642526E+03 -0.58175946684E+03  0.27737716482E+04  0.29011525299E+04  0.50400001928E-02 0. -1.
</event>
<event>
 5   0  0.1095903E-07  0.3998855E+04  0.7818609E-02  0.8004778E-01
        2   -1    0    0  501    0  0.00000000000E+00  0.00000000000E+00  0.13110557336E+04  0.13110557336E+04  0.25500000920E-02 0. -1.
       -2   -1    0    0    0  501  0.00000000000E+00  0.00000000000E+00 -0.30492301746E+04  0.30492301746E+04  0.25500000920E-02 0.  1.
    10030    2    1    2    0    0  0.00000000000E+00  0.00000000000E+00 -0.17381744411E+04  0.43602859082E+04  0.39988551879E+04 0.  0.
        3    1    3    3  502    0  0.14972285371E+04  0.34193617024E+03  0.52690058750E+03  0.16236495546E+04  0.10100000352E+00 0.  1.
       -3    1    3    3    0  502 -0.14972285371E+04 -0.34193617024E+03 -0.22650750286E+04  0.27366363536E+04  0.10100000352E+00 0. -1.
</event>
<event>
 5   0  0.1087688E-07  0.3970781E+04  0.7818609E-02  0.8010467E-01
       -2   -1    0    0    0  501  0.00000000000E+00  0.00000000000E+00  0.29783919481E+04  0.29783919481E+04  0.25500000920E-02 0.  1.
        2   -1    0    0  501    0  0.00000000000E+00  0.00000000000E+00 -0.13234577948E+04  0.13234577948E+04  0.25500000920E-02 0. -1.
    10030    2    1    2    0    0  0.00000000000E+00  0.00000000000E+00  0.16549341533E+04  0.43018497429E+04  0.39707813033E+04 0.  0.
        2    1    3    3  502    0 -0.10214227385E+04  0.36698013196E+02 -0.10165412467E+04  0.14415294867E+04  0.25500000920E-02 0. -1.
       -2    1    3    3    0  502  0.10214227385E+04 -0.36698013196E+02  0.26714754000E+04  0.28603202561E+04  0.25500000920E-02 0.  1.
</event>
<event>
 5   0  0.1073271E-07  0.4044955E+04  0.7818609E-02  0.7995539E-01
       -2   -1    0    0    0  501  0.00000000000E+00  0.00000000000E+00  0.23288344042E+04  0.23288344042E+04  0.25500000920E-02 0.  1.
        2   -1    0    0  501    0  0.00000000000E+00  0.00000000000E+00 -0.17564220803E+04  0.17564220803E+04  0.25500000920E-02 0. -1.
    10030    2    1    2    0    0  0.00000000000E+00  0.00000000000E+00  0.57241232387E+03  0.40852564846E+04  0.40449554603E+04 0.  0.
        1    1    3    3  502    0  0.35431877621E+03 -0.47414790989E+03  0.22393973689E+04  0.23163027893E+04  0.50400001928E-02 0.  1.
       -1    1    3    3    0  502 -0.35431877621E+03  0.47414790989E+03 -0.16669850451E+04  0.17689536953E+04  0.50400001928E-02 0. -1.
</event>
<event>
 5   0  0.1087688E-07  0.3899540E+04  0.7818609E-02  0.8025125E-01
        2   -1    0    0  501    0  0.00000000000E+00  0.00000000000E+00  0.30272787402E+04  0.30272787402E+04  0.25500000920E-02 0. -1.
       -2   -1    0    0    0  501  0.00000000000E+00  0.00000000000E+00 -0.12557823577E+04  0.12557823577E+04  0.25500000920E-02 0.  1.
    10030    2    1    2    0    0  0.00000000000E+00  0.00000000000E+00  0.17714963825E+04  0.42830610979E+04  0.38995400928E+04 0.  0.
        2    1    3    3  502    0 -0.44113938028E+03 -0.79162656010E+03  0.27818987327E+04  0.29257882908E+04  0.25500000920E-02 0. -1.
       -2    1    3    3    0  502  0.44113938028E+03  0.79162656010E+03 -0.10104023502E+04  0.13572728071E+04  0.25500000920E-02 0.  1.
</event>
<event>
 5   0  0.3399500E-08  0.3979467E+04  0.7818609E-02  0.8008702E-01
       -1   -1    0    0    0  501  0.00000000000E+00  0.00000000000E+00  0.24989102492E+04  0.24989102492E+04  0.50400001928E-02 0. -1.
        1   -1    0    0  501    0  0.00000000000E+00  0.00000000000E+00 -0.15843061610E+04  0.15843061610E+04  0.50400001928E-02 0.  1.
    10030    2    1    2    0    0  0.00000000000E+00  0.00000000000E+00  0.91460408820E+03  0.40832164102E+04  0.39794667500E+04 0.  0.
        1    1    3    3  502    0  0.97077230318E+03 -0.26778491276E+03  0.22181226027E+04  0.24360163186E+04  0.50400001928E-02 0. -1.
       -1    1    3    3    0  502 -0.97077230318E+03  0.26778491276E+03 -0.13035185145E+04  0.16472000916E+04  0.50400001928E-02 0.  1.
</event>
<event>
 5   0  0.3399500E-08  0.3995475E+04  0.7818609E-02  0.8005460E-01
       -1   -1    0    0    0  501  0.00000000000E+00  0.00000000000E+00  0.30375332623E+04  0.30375332623E+04  0.50400001928E-02 0. -1.
        1   -1    0    0  501    0  0.00000000000E+00  0.00000000000E+00 -0.13138803547E+04  0.13138803547E+04  0.50400001928E-02 0.  1.
    10030    2    1    2    0    0  0.00000000000E+00  0.00000000000E+00  0.17236529076E+04  0.43514136171E+04  0.39954750807E+04 0.  0.
        2    1    3    3  502    0 -0.24814189076E+03  0.50874070198E+03 -0.12247212945E+04  0.13491974463E+04  0.25500000920E-02 0.  1.
       -2    1    3    3    0  502  0.24814189076E+03 -0.50874070198E+03  0.29483742022E+04  0.30022161708E+04  0.25500000920E-02 0. -1.
</event>
<event>
 5   0  0.3399500E-08  0.4040962E+04  0.7818609E-02  0.7996334E-01
        1   -1    0    0  501    0  0.00000000000E+00  0.00000000000E+00  0.14994211134E+04  0.14994211134E+04  0.50400001928E-02 0. -1.
       -1   -1    0    0    0  501  0.00000000000E+00  0.00000000000E+00 -0.27226131062E+04  0.27226131062E+04  0.50400001928E-02 0.  1.
    10030    2    1    2    0    0  0.00000000000E+00  0.00000000000E+00 -0.12231919928E+04  0.42220342196E+04  0.40409620513E+04 0.  0.
        4    1    3    3  502    0  0.17022070835E+04  0.10466058265E+04 -0.92407823049E+03  0.22015482961E+04  0.12699999809E+01 0. -1.
       -4    1    3    3    0  502 -0.17022070835E+04 -0.10466058265E+04 -0.29911376226E+03  0.20204859235E+04  0.12699999809E+01 0.  1.
</event>
<event>
 5   0  0.1095903E-07  0.4007071E+04  0.7818609E-02  0.8003122E-01
       -2   -1    0    0    0  501  0.00000000000E+00  0.00000000000E+00  0.20079781763E+04  0.20079781763E+04  0.25500000920E-02 0.  1.
        2   -1    0    0  501    0  0.00000000000E+00  0.00000000000E+00 -0.19991023211E+04  0.19991023211E+04  0.25500000920E-02 0. -1.
    10030    2    1    2    0    0  0.00000000000E+00  0.00000000000E+00  0.88758551596E+01  0.40070804974E+04  0.40070706672E+04 0.  0.
        3    1    3    3  502    0 -0.10937827446E+04  0.12725999386E+04  0.10991015316E+04  0.20059649755E+04  0.10100000352E+00 0.  1.
       -3    1    3    3    0  502  0.10937827446E+04 -0.12725999386E+04 -0.10902256765E+04  0.20011155219E+04  0.10100000352E+00 0. -1.
</event>
<event>
 5   0  0.1095903E-07  0.3959284E+04  0.7818609E-02  0.8012811E-01
       -2   -1    0    0    0  501  0.00000000000E+00  0.00000000000E+00  0.20008274467E+04  0.20008274467E+04  0.25500000920E-02 0. -1.
        2   -1    0    0  501    0  0.00000000000E+00  0.00000000000E+00 -0.19586806355E+04  0.19586806355E+04  0.25500000920E-02 0.  1.
    10030    2    1    2    0    0  0.00000000000E+00  0.00000000000E+00  0.42146811187E+02  0.39595080822E+04  0.39592837609E+04 0.  0.
        3    1    3    3  502    0 -0.21735288854E+02  0.19462954623E+04  0.38226351719E+03  0.19835987135E+04  0.10100000352E+00 0. -1.
       -3    1    3    3    0  502  0.21735288854E+02 -0.19462954623E+04 -0.34011670601E+03  0.19759093687E+04  0.10100000352E+00 0.  1.
</event>
<event>
 5   0  0.3399500E-08  0.3986567E+04  0.7818609E-02  0.8007262E-01
        1   -1    0    0  501    0  0.00000000000E+00  0.00000000000E+00  0.17722369648E+04  0.17722369648E+04  0.50400001928E-02 0.  1.
       -1   -1    0    0    0  501  0.00000000000E+00  0.00000000000E+00 -0.22419005081E+04  0.22419005081E+04  0.50400001928E-02 0. -1.
    10030    2    1    2    0    0  0.00000000000E+00  0.00000000000E+00 -0.46966354329E+03  0.40141374730E+04  0.39865669201E+04 0.  0.
        3    1    3    3  502    0  0.10702960543E+04  0.89789114538E+03  0.11967734235E+04  0.18395675552E+04  0.10100000352E+00 0.  1.
       -3    1    3    3    0  502 -0.10702960543E+04 -0.89789114538E+03 -0.16664369667E+04  0.21745699178E+04  0.10100000352E+00 0. -1.
</event>
<event>
 5   0  0.3399500E-08  0.3993929E+04  0.7818609E-02  0.8005772E-01
        1   -1    0    0  501    0  0.00000000000E+00  0.00000000000E+00  0.13391305337E+04  0.13391305337E+04  0.50400001928E-02 0.  1.
       -1   -1    0    0    0  501  0.00000000000E+00  0.00000000000E+00 -0.29779520942E+04  0.29779520942E+04  0.50400001928E-02 0. -1.
    10030    2    1    2    0    0  0.00000000000E+00  0.00000000000E+00 -0.16388215604E+04  0.43170826279E+04  0.39939286811E+04 0.  0.
        4    1    3    3  502    0  0.19221583131E+03  0.52205224698E+03 -0.28925015679E+04  0.29455139463E+04  0.12699999809E+01 0. -1.
       -4    1    3    3    0  502 -0.19221583131E+03 -0.52205224698E+03  0.12536800075E+04  0.13715686816E+04  0.12699999809E+01 0.  1.
</event>
<event>
 5   0  0.3399500E-08  0.4041146E+04  0.7818609E-02  0.7996297E-01
       -3   -1    0    0    0  501  0.00000000000E+00  0.00000000000E+00  0.26872070628E+04  0.26872070647E+04  0.10100000352E+00 0. -1.
        3   -1    0    0  501    0  0.00000000000E+00  0.00000000000E+00 -0.15193157325E+04  0.15193157358E+04  0.10100000352E+00 0.  1.
    10030    2    1    2    0    0  0.00000000000E+00  0.00000000000E+00  0.11678913303E+04  0.42065228006E+04  0.40411463612E+04 0.  0.
        5    1    3    3  502    0  0.61591024246E+03  0.10003854187E+04 -0.11272818069E+04  0.16281593211E+04  0.46999998093E+01 0.  1.
       -5    1    3    3    0  502 -0.61591024246E+03 -0.10003854187E+04  0.22951731372E+04  0.25783634795E+04  0.46999998093E+01 0. -1.
</event>
<event>
 5   0  0.1095109E-07  0.3996964E+04  0.7818609E-02  0.8005159E-01
        2   -1    0    0  501    0  0.00000000000E+00  0.00000000000E+00  0.23891319444E+04  0.23891319444E+04  0.25500000920E-02 0.  1.
       -2   -1    0    0    0  501  0.00000000000E+00  0.00000000000E+00 -0.16717075384E+04  0.16717075384E+04  0.25500000920E-02 0. -1.
    10030    2    1    2    0    0  0.00000000000E+00  0.00000000000E+00  0.71742440600E+03  0.40608394828E+04  0.39969637885E+04 0.  0.
        4    1    3    3  502    0  0.17114303452E+03  0.12041035548E+04 -0.12524341787E+04  0.17457801390E+04  0.12699999809E+01 0. -1.
       -4    1    3    3    0  502 -0.17114303452E+03 -0.12041035548E+04  0.19698585847E+04  0.23150593438E+04  0.12699999809E+01 0.  1.
</event>
<event>
 5   0  0.1095109E-07  0.4019207E+04  0.7818609E-02  0.8000683E-01
        2   -1    0    0  501    0  0.00000000000E+00  0.00000000000E+00  0.25078404237E+04  0.25078404237E+04  0.25500000920E-02 0.  1.
       -2   -1    0    0    0  501  0.00000000000E+00  0.00000000000E+00 -0.16103519038E+04  0.16103519038E+04  0.25500000920E-02 0. -1.
    10030    2    1    2    0    0  0.00000000000E+00  0.00000000000E+00  0.89748851985E+03  0.41181923275E+04  0.40192066883E+04 0.  0.
        4    1    3    3  502    0 -0.10787524294E+04  0.23330198699E+03 -0.12720110771E+04  0.16840874129E+04  0.12699999809E+01 0. -1.
       -4    1    3    3    0  502  0.10787524294E+04 -0.23330198699E+03  0.21694995970E+04  0.24341049146E+04  0.12699999809E+01 0.  1.
</event>
<event>
 5   0  0.1095903E-07  0.3907638E+04  0.7818609E-02  0.8023442E-01
       -2   -1    0    0    0  501  0.00000000000E+00  0.00000000000E+00  0.20149705565E+04  0.20149705565E+04  0.25500000920E-02 0.  1.
        2   -1    0    0  501    0  0.00000000000E+00  0.00000000000E+00 -0.18945235402E+04  0.18945235402E+04  0.25500000920E-02 0. -1.
    10030    2    1    2    0    0  0.00000000000E+00  0.00000000000E+00  0.12044701628E+03  0.39094940967E+04  0.39076382392E+04 0.  0.
        3    1    3    3  502    0  0.57401123445E+03  0.11977130219E+03 -0.18044146011E+04  0.18972996930E+04  0.10100000352E+00 0. -1.
       -3    1    3    3    0  502 -0.57401123445E+03 -0.11977130219E+03  0.19248616174E+04  0.20121944037E+04  0.10100000352E+00 0.  1.
</event>
<event>
 5   0  0.3399500E-08  0.4027972E+04  0.7818609E-02  0.7998927E-01
       -1   -1    0    0    0  501  0.00000000000E+00  0.00000000000E+00  0.22567135515E+04  0.22567135515E+04  0.50400001928E-02 0.  1.
        1   -1    0    0  501    0  0.00000000000E+00  0.00000000000E+00 -0.17973660416E+04  0.17973660416E+04  0.50400001928E-02 0. -1.
    10030    2    1    2    0    0  0.00000000000E+00  0.00000000000E+00  0.45934750994E+03  0.40540795931E+04  0.40279723450E+04 0.  0.
        1    1    3    3  502    0 -0.17869414585E+04  0.86668323664E+03 -0.10691973969E+03  0.19889020688E+04  0.50400001928E-02 0. -1.
       -1    1    3    3    0  502  0.17869414585E+04 -0.86668323664E+03  0.56626724963E+03  0.20651775243E+04  0.50400001928E-02 0.  1.
</event>
<event>
 5   0  0.1095109E-07  0.4003430E+04  0.7818609E-02  0.8003855E-01
        2   -1    0    0  501    0  0.00000000000E+00  0.00000000000E+00  0.33666166857E+04  0.33666166857E+04  0.25500000920E-02 0. -1.
       -2   -1    0    0    0  501  0.00000000000E+00  0.00000000000E+00 -0.11901751064E+04  0.11901751064E+04  0.25500000920E-02 0.  1.
    10030    2    1    2    0    0  0.00000000000E+00  0.00000000000E+00  0.21764415793E+04  0.45567917922E+04  0.40034302154E+04 0.  0.
        4    1    3    3  502    0  0.14133016644E+04 -0.11072547850E+04  0.20956770312E+04  0.27595830456E+04  0.12699999809E+01 0. -1.
       -4    1    3    3    0  502 -0.14133016644E+04  0.11072547850E+04  0.80764548112E+02  0.17972087466E+04  0.12699999809E+01 0.  1.
</event>
<event>
 5   0  0.3399500E-08  0.3972839E+04  0.7818609E-02  0.8010048E-01
        1   -1    0    0  501    0  0.00000000000E+00  0.00000000000E+00  0.21527906975E+04  0.21527906975E+04  0.50400001928E-02 0. -1.
       -1   -1    0    0    0  501  0.00000000000E+00  0.00000000000E+00 -0.18329057584E+04  0.18329057584E+04  0.50400001928E-02 0.  1.
    10030    2    1    2    0    0  0.00000000000E+00  0.00000000000E+00  0.31988493909E+03  0.39856964559E+04  0.39728390182E+04 0.  0.
        4    1    3    3  502    0 -0.76100563708E+03 -0.16847428367E+04 -0.56930259538E+03  0.19343203105E+04  0.12699999809E+01 0. -1.
       -4    1    3    3    0  502  0.76100563708E+03  0.16847428367E+04  0.88918753448E+03  0.20513761454E+04  0.12699999809E+01 0.  1.
</event>
<event>
 5   0  0.1073271E-07  0.3884944E+04  0.7818609E-02  0.8028168E-01
        2   -1    0    0  501    0  0.00000000000E+00  0.00000000000E+00  0.26657750640E+04  0.26657750640E+04  0.25500000920E-02 0. -1.
       -2   -1    0    0    0  501  0.00000000000E+00  0.00000000000E+00 -0.14154224477E+04  0.14154224477E+04  0.25500000920E-02 0.  1.
    10030    2    1    2    0    0  0.00000000000E+00  0.00000000000E+00  0.12503526163E+04  0.40811975118E+04  0.38849442036E+04 0.  0.
        1    1    3    3  502    0  0.63082899156E+03  0.15151725060E+04  0.17166546987E+04  0.23749939566E+04  0.50400001928E-02 0.  1.
       -1    1    3    3    0  502 -0.63082899156E+03 -0.15151725060E+04 -0.46630208240E+03  0.17062035551E+04  0.50400001928E-02 0. -1.
</event>
<event>
 5   0  0.1101474E-07  0.4032896E+04  0.7818609E-02  0.7997943E-01
        2   -1    0    0  501    0  0.00000000000E+00  0.00000000000E+00  0.15546251585E+04  0.15546251585E+04  0.25500000920E-02 0.  1.
       -2   -1    0    0    0  501  0.00000000000E+00  0.00000000000E+00 -0.26154618095E+04  0.26154618095E+04  0.25500000920E-02 0. -1.
    10030    2    1    2    0    0  0.00000000000E+00  0.00000000000E+00 -0.10608366510E+04  0.41700869681E+04  0.40328960960E+04 0.  0.
        5    1    3    3  502    0  0.13195860311E+04 -0.63808521118E+03 -0.19622926256E+04  0.24493008122E+04  0.46999998093E+01 0. -1.
       -5    1    3    3    0  502 -0.13195860311E+04  0.63808521118E+03  0.90145597452E+03  0.17207861559E+04  0.46999998093E+01 0.  1.
</event>
<event>
 5   0  0.3399500E-08  0.4014234E+04  0.7818609E-02  0.8001681E-01
        1   -1    0    0  501    0  0.00000000000E+00  0.00000000000E+00  0.14062152178E+04  0.14062152178E+04  0.50400001928E-02 0. -1.
       -1   -1    0    0    0  501  0.00000000000E+00  0.00000000000E+00 -0.28647954448E+04  0.28647954448E+04  0.50400001928E-02 0.  1.
    10030    2    1    2    0    0  0.00000000000E+00  0.00000000000E+00 -0.14585802270E+04  0.42710106626E+04  0.40142341489E+04 0.  0.
        1    1    3    3  502    0  0.13666376605E+04  0.13893104658E+04 -0.12402565058E+04  0.23100039536E+04  0.50400001928E-02 0.  1.
       -1    1    3    3    0  502 -0.13666376605E+04 -0.13893104658E+04 -0.21832372115E+03  0.19610067090E+04  0.50400001928E-02 0. -1.
</event>
<event>
 5   0  0.3399500E-08  0.4001344E+04  0.7818609E-02  0.8004275E-01
       -1   -1    0    0    0  501  0.00000000000E+00  0.00000000000E+00  0.19501418592E+04  0.19501418592E+04  0.50400001928E-02 0.  1.
        1   -1    0    0  501    0  0.00000000000E+00  0.00000000000E+00 -0.20525113858E+04  0.20525113858E+04  0.50400001928E-02 0. -1.
    10030    2    1    2    0    0  0.00000000000E+00  0.00000000000E+00 -0.10236952659E+03  0.40026532450E+04  0.40013439592E+04 0.  0.
        1    1    3    3  502    0  0.13692999817E+03  0.79848448613E+03  0.17787199788E+04  0.19545260453E+04  0.50400001928E-02 0.  1.
       -1    1    3    3    0  502 -0.13692999817E+03 -0.79848448613E+03 -0.18810895054E+04  0.20481271997E+04  0.50400001928E-02 0. -1.
</event>
<event>
 5   0  0.3399500E-08  0.3985783E+04  0.7818609E-02  0.8007421E-01
       -1   -1    0    0    0  501  0.00000000000E+00  0.00000000000E+00  0.19081264311E+04  0.19081264311E+04  0.50400001928E-02 0.  1.
        1   -1    0    0  501    0  0.00000000000E+00  0.00000000000E+00 -0.20814216581E+04  0.20814216581E+04  0.50400001928E-02 0. -1.
    10030    2    1    2    0    0  0.00000000000E+00  0.00000000000E+00 -0.17329522706E+03  0.39895480892E+04  0.39857825732E+04 0.  0.
        4    1    3    3  502    0 -0.41186810383E+03  0.12529780836E+04 -0.15820552498E+04  0.20597305259E+04  0.12699999809E+01 0. -1.
       -4    1    3    3    0  502  0.41186810383E+03 -0.12529780836E+04  0.14087600228E+04  0.19298175633E+04  0.12699999809E+01 0.  1.
</event>
<event>
 5   0  0.1095109E-07  0.3524835E+04  0.7818609E-02  0.8107929E-01
        2   -1    0    0  501    0  0.00000000000E+00  0.00000000000E+00  0.18975377581E+04  0.18975377581E+04  0.25500000920E-02 0.  1.
       -2   -1    0    0    0  501  0.00000000000E+00  0.00000000000E+00 -0.16369192726E+04  0.16369192726E+04  0.25500000920E-02 0. -1.
    10030    2    1    2    0    0  0.00000000000E+00  0.00000000000E+00  0.26061848545E+03  0.35344570307E+04  0.35248353872E+04 0.  0.
        4    1    3    3  502    0  0.15202707390E+04 -0.20960504553E+03  0.99925253611E+03  0.18313013512E+04  0.12699999809E+01 0.  1.
       -4    1    3    3    0  502 -0.15202707390E+04  0.20960504553E+03 -0.73863405066E+03  0.17031556795E+04  0.12699999809E+01 0. -1.
</event>
<event>
 5   0  0.3399500E-08  0.3968813E+04  0.7818609E-02  0.8010868E-01
        1   -1    0    0  501    0  0.00000000000E+00  0.00000000000E+00  0.24057908261E+04  0.24057908261E+04  0.50400001928E-02 0.  1.
       -1   -1    0    0    0  501  0.00000000000E+00  0.00000000000E+00 -0.16368297420E+04  0.16368297421E+04  0.50400001928E-02 0. -1.
    10030    2    1    2    0    0  0.00000000000E+00  0.00000000000E+00  0.76896108406E+03  0.40426205682E+04  0.39688134133E+04 0.  0.
        1    1    3    3  502    0 -0.73308427420E+03 -0.16968350440E+03  0.22548375188E+04  0.23770774663E+04  0.50400001928E-02 0.  1.
       -1    1    3    3    0  502  0.73308427420E+03  0.16968350440E+03 -0.14858764347E+04  0.16655431018E+04  0.50400001928E-02 0. -1.
</event>
<event>
 5   0  0.1073271E-07  0.4007480E+04  0.7818609E-02  0.8003039E-01
       -2   -1    0    0    0  501  0.00000000000E+00  0.00000000000E+00  0.20756839052E+04  0.20756839052E+04  0.25500000920E-02 0. -1.
        2   -1    0    0  501    0  0.00000000000E+00  0.00000000000E+00 -0.19342894677E+04  0.19342894677E+04  0.25500000920E-02 0.  1.
    10030    2    1    2    0    0  0.00000000000E+00  0.00000000000E+00  0.14139443752E+03  0.40099733730E+04  0.40074797648E+04 0.  0.
        1    1    3    3  502    0  0.13153195466E+04  0.49947420635E+03 -0.13568767240E+04  0.19546494408E+04  0.50400001928E-02 0.  1.
       -1    1    3    3    0  502 -0.13153195466E+04 -0.49947420635E+03  0.14982711615E+04  0.20553239321E+04  0.50400001928E-02 0. -1.
</event>
<event>
 5   0  0.1095903E-07  0.3976508E+04  0.7818609E-02  0.8009302E-01
        2   -1    0    0  501    0  0.00000000000E+00  0.00000000000E+00  0.24939993574E+04  0.24939993574E+04  0.25500000920E-02 0. -1.
       -2   -1    0    0    0  501  0.00000000000E+00  0.00000000000E+00 -0.15850662838E+04  0.15850662838E+04  0.25500000920E-02 0.  1.
    10030    2    1    2    0    0  0.00000000000E+00  0.00000000000E+00  0.90893307355E+03  0.40790656412E+04  0.39765081633E+04 0.  0.
        3    1    3    3  502    0  0.78715171050E+03 -0.18177303814E+04  0.27857188607E+03  0.20003384365E+04  0.10100000352E+00 0.  1.
       -3    1    3    3    0  502 -0.78715171050E+03  0.18177303814E+04  0.63036118748E+03  0.20787272047E+04  0.10100000352E+00 0. -1.
</event>
<event>
 5   0  0.3399500E-08  0.3988099E+04  0.7818609E-02  0.8006952E-01
       -1   -1    0    0    0  501  0.00000000000E+00  0.00000000000E+00  0.13267350782E+04  0.13267350782E+04  0.50400001928E-02 0. -1.
        1   -1    0    0  501    0  0.00000000000E+00  0.00000000000E+00 -0.29970063489E+04  0.29970063490E+04  0.50400001928E-02 0.  1.
    10030    2    1    2    0    0  0.00000000000E+00  0.00000000000E+00 -0.16702712707E+04  0.43237414272E+04  0.39880990222E+04 0.  0.
        1    1    3    3  502    0  0.13738779514E+04  0.11636327732E+03 -0.23969117658E+04  0.27651884295E+04  0.50400001928E-02 0.  1.
       -1    1    3    3    0  502 -0.13738779514E+04 -0.11636327732E+03  0.72664049501E+03  0.15585529977E+04  0.50400001928E-02 0. -1.
</event>
<event>
 5   0  0.1101474E-07  0.4014430E+04  0.7818609E-02  0.8001642E-01
       -2   -1    0    0    0  501  0.00000000000E+00  0.00000000000E+00  0.17150584965E+04  0.17150584965E+04  0.25500000920E-02 0.  1.
        2   -1    0    0  501    0  0.00000000000E+00  0.00000000000E+00 -0.23491397379E+04  0.23491397379E+04  0.25500000920E-02 0. -1.
    10030    2    1    2    0    0  0.00000000000E+00  0.00000000000E+00 -0.63408124144E+03  0.40641982344E+04  0.40144300053E+04 0.  0.
        5    1    3    3  502    0  0.76550202435E+03 -0.68249164931E+03 -0.20638593257E+04  0.23046313386E+04  0.46999998093E+01 0. -1.
       -5    1    3    3    0  502 -0.76550202435E+03  0.68249164931E+03  0.14297780842E+04  0.17595668958E+04  0.46999998093E+01 0.  1.
</event>
<event>
 5   0  0.3399500E-08  0.3950893E+04  0.7818609E-02  0.8014527E-01
        1   -1    0    0  501    0  0.00000000000E+00  0.00000000000E+00  0.12532305042E+04  0.12532305042E+04  0.50400001928E-02 0. -1.
       -1   -1    0    0    0  501  0.00000000000E+00  0.00000000000E+00 -0.31138641393E+04  0.31138641393E+04  0.50400001928E-02 0.  1.
    10030    2    1    2    0    0  0.00000000000E+00  0.00000000000E+00 -0.18606336352E+04  0.43670946435E+04  0.39508933295E+04 0.  0.
        1    1    3    3  502    0 -0.97026792662E+03 -0.17031229192E+04 -0.65879349339E+03  0.20678627601E+04  0.50400001928E-02 0. -1.
       -1    1    3    3    0  502  0.97026792662E+03  0.17031229192E+04 -0.12018401418E+04  0.22992318835E+04  0.50400001928E-02 0.  1.
</event>
<event>
 5   0  0.3399500E-08  0.3991508E+04  0.7818609E-02  0.8006262E-01
        3   -1    0    0  501    0  0.00000000000E+00  0.00000000000E+00  0.17592590217E+04  0.17592590246E+04  0.10100000352E+00 0.  1.
       -3   -1    0    0    0  501  0.00000000000E+00  0.00000000000E+00 -0.22640405174E+04  0.22640405197E+04  0.10100000352E+00 0. -1.
    10030    2    1    2    0    0  0.00000000000E+00  0.00000000000E+00 -0.50478149568E+03  0.40232995443E+04  0.39915078435E+04 0.  0.
        3    1    3    3  502    0  0.97564047936E+03 -0.46969951847E+03  0.14374290714E+04  0.17996372768E+04  0.10100000352E+00 0.  1.
       -3    1    3    3    0  502 -0.97564047936E+03  0.46969951847E+03 -0.19422105671E+04  0.22236622674E+04  0.10100000352E+00 0. -1.
</event>
<event>
 5   0  0.3399500E-08  0.4001016E+04  0.7818609E-02  0.8004342E-01
        1   -1    0    0  501    0  0.00000000000E+00  0.00000000000E+00  0.27012617245E+04  0.27012617245E+04  0.50400001928E-02 0. -1.
       -1   -1    0    0    0  501  0.00000000000E+00  0.00000000000E+00 -0.14815419421E+04  0.14815419421E+04  0.50400001928E-02 0.  1.
    10030    2    1    2    0    0  0.00000000000E+00  0.00000000000E+00  0.12197197824E+04  0.41828036667E+04  0.40010161417E+04 0.  0.
        3    1    3    3  502    0  0.43009868286E+03 -0.17319097022E+04 -0.33539892314E+03  0.18157611466E+04  0.10100000352E+00 0.  1.
       -3    1    3    3    0  502 -0.43009868286E+03  0.17319097022E+04  0.15551187055E+04  0.23670425201E+04  0.10100000352E+00 0. -1.
</event>
<event>
 5   0  0.1095109E-07  0.3997559E+04  0.7818609E-02  0.8005039E-01
       -2   -1    0    0    0  501  0.00000000000E+00  0.00000000000E+00  0.21065065159E+04  0.21065065159E+04  0.25500000920E-02 0.  1.
        2   -1    0    0  501    0  0.00000000000E+00  0.00000000000E+00 -0.18965620882E+04  0.18965620882E+04  0.25500000920E-02 0. -1.
    10030    2    1    2    0    0  0.00000000000E+00  0.00000000000E+00  0.20994442772E+03  0.40030686041E+04  0.39975594538E+04 0.  0.
        4    1    3    3  502    0 -0.17397369018E+04  0.96634552257E+03  0.29126791641E+03  0.20113047428E+04  0.12699999809E+01 0. -1.
       -4    1    3    3    0  502  0.17397369018E+04 -0.96634552257E+03 -0.81323488686E+02  0.19917638613E+04  0.12699999809E+01 0.  1.
</event>
<event>
 5   0  0.3399500E-08  0.4037923E+04  0.7818609E-02  0.7996940E-01
       -1   -1    0    0    0  501  0.00000000000E+00  0.00000000000E+00  0.17909722403E+04  0.17909722403E+04  0.50400001928E-02 0.  1.
        1   -1    0    0  501    0  0.00000000000E+00  0.00000000000E+00 -0.22759732444E+04  0.22759732444E+04  0.50400001928E-02 0. -1.
    10030    2    1    2    0    0  0.00000000000E+00  0.00000000000E+00 -0.48500100411E+03  0.40669454848E+04  0.40379226840E+04 0.  0.
        2    1    3    3  502    0 -0.18726340860E+04  0.37642067216E+03 -0.90123039250E+03  0.21120291576E+04  0.25500000920E-02 0. -1.
       -2    1    3    3    0  502  0.18726340860E+04 -0.37642067216E+03  0.41622938838E+03  0.19549163271E+04  0.25500000920E-02 0.  1.
</event>
<event>
 5   0  0.1073271E-07  0.3933742E+04  0.7818609E-02  0.8018048E-01
       -2   -1    0    0    0  501  0.00000000000E+00  0.00000000000E+00  0.27560466757E+04  0.27560466757E+04  0.25500000920E-02 0.  1.
        2   -1    0    0  501    0  0.00000000000E+00  0.00000000000E+00 -0.14036702455E+04  0.14036702455E+04  0.25500000920E-02 0. -1.
    10030    2    1    2    0    0  0.00000000000E+00  0.00000000000E+00  0.13523764302E+04  0.41597169212E+04  0.39337415848E+04 0.  0.
        1    1    3    3  502    0 -0.35132603289E+03 -0.18897658481E+04  0.23517418662E+03  0.19364792382E+04  0.50400001928E-02 0.  1.
       -1    1    3    3    0  502  0.35132603289E+03  0.18897658481E+04  0.11172022436E+04  0.22232376830E+04  0.50400001928E-02 0. -1.
</event>
<event>
 5   0  0.1095109E-07  0.4004353E+04  0.7818609E-02  0.8003669E-01
       -2   -1    0    0    0  501  0.00000000000E+00  0.00000000000E+00  0.24768552568E+04  0.24768552568E+04  0.25500000920E-02 0.  1.
        2   -1    0    0  501    0  0.00000000000E+00  0.00000000000E+00 -0.16184677907E+04  0.16184677907E+04  0.25500000920E-02 0. -1.
    10030    2    1    2    0    0  0.00000000000E+00  0.00000000000E+00  0.85838746610E+03  0.40953230474E+04  0.40043528592E+04 0.  0.
        4    1    3    3  502    0 -0.11192322568E+04  0.15530755839E+04  0.10290194625E+04  0.21733861325E+04  0.12699999809E+01 0.  1.
       -4    1    3    3    0  502  0.11192322568E+04 -0.15530755839E+04 -0.17063199643E+03  0.19219369149E+04  0.12699999809E+01 0. -1.
</event>
<event>
 5   0  0.1095109E-07  0.4017578E+04  0.7818609E-02  0.8001010E-01
        2   -1    0    0  501    0  0.00000000000E+00  0.00000000000E+00  0.21150438660E+04  0.21150438660E+04  0.25500000920E-02 0.  1.
       -2   -1    0    0    0  501  0.00000000000E+00  0.00000000000E+00 -0.19078718757E+04  0.19078718757E+04  0.25500000920E-02 0. -1.
    10030    2    1    2    0    0  0.00000000000E+00  0.00000000000E+00  0.20717199027E+03  0.40229157417E+04  0.40175777318E+04 0.  0.
        4    1    3    3  502    0 -0.32468087116E+02 -0.10287043464E+04 -0.16237986169E+04  0.19225010716E+04  0.12699999809E+01 0. -1.
       -4    1    3    3    0  502  0.32468087116E+02  0.10287043464E+04  0.18309706072E+04  0.21004146701E+04  0.12699999809E+01 0.  1.
</event>
<event>
 5   0  0.1087688E-07  0.3999680E+04  0.7818609E-02  0.8004611E-01
        2   -1    0    0  501    0  0.00000000000E+00  0.00000000000E+00  0.15762019246E+04  0.15762019246E+04  0.25500000920E-02 0.  1.
       -2   -1    0    0    0  501  0.00000000000E+00  0.00000000000E+00 -0.25373400143E+04  0.25373400143E+04  0.25500000920E-02 0. -1.
    10030    2    1    2    0    0  0.00000000000E+00  0.00000000000E+00 -0.96113808971E+03  0.41135419390E+04  0.39996800942E+04 0.  0.
        2    1    3    3  502    0 -0.76074004248E+02  0.12981942776E+04 -0.20431174010E+04  0.24218638175E+04  0.25500000920E-02 0. -1.
       -2    1    3    3    0  502  0.76074004248E+02 -0.12981942776E+04  0.10819793113E+04  0.16916781214E+04  0.25500000920E-02 0.  1.
</event>
<event>
 5   0  0.1095903E-07  0.4017105E+04  0.7818609E-02  0.8001105E-01
        2   -1    0    0  501    0  0.00000000000E+00  0.00000000000E+00  0.15604386658E+04  0.15604386658E+04  0.25500000920E-02 0. -1.
       -2   -1    0    0    0  501  0.00000000000E+00  0.00000000000E+00 -0.25853521627E+04  0.25853521627E+04  0.25500000920E-02 0.  1.
    10030    2    1    2    0    0  0.00000000000E+00  0.00000000000E+00 -0.10249134969E+04  0.41457908285E+04  0.40171051663E+04 0.  0.
        3    1    3    3  502    0  0.14238297317E+04  0.12708238754E+04 -0.11586117164E+04  0.22326364565E+04  0.10100000352E+00 0.  1.
       -3    1    3    3    0  502 -0.14238297317E+04 -0.12708238754E+04  0.13369821943E+03  0.19131543720E+04  0.10100000352E+00 0. -1.
</event>
<event>
 5   0  0.3399500E-08  0.4113152E+04  0.7818609E-02  0.7982101E-01
       -1   -1    0    0    0  501  0.00000000000E+00  0.00000000000E+00  0.17063001838E+04  0.17063001838E+04  0.50400001928E-02 0. -1.
        1   -1    0    0  501    0  0.00000000000E+00  0.00000000000E+00 -0.24787575935E+04  0.24787575935E+04  0.50400001928E-02 0.  1.
    10030    2    1    2    0    0  0.00000000000E+00  0.00000000000E+00 -0.77245740965E+03  0.41850577773E+04  0.41131518510E+04 0.  0.
        3    1    3    3  502    0 -0.14458891792E+04  0.89480655726E+03 -0.15632711753E+04  0.23097816068E+04  0.10100000352E+00 0.  1.
       -3    1    3    3    0  502  0.14458891792E+04 -0.89480655726E+03  0.79081376564E+03  0.18752761705E+04  0.10100000352E+00 0. -1.
</event>
<event>
 5   0  0.3399500E-08  0.4005339E+04  0.7818609E-02  0.8003470E-01
       -1   -1    0    0    0  501  0.00000000000E+00  0.00000000000E+00  0.17775161225E+04  0.17775161225E+04  0.50400001928E-02 0. -1.
        1   -1    0    0  501    0  0.00000000000E+00  0.00000000000E+00 -0.22563420998E+04  0.22563420998E+04  0.50400001928E-02 0.  1.
    10030    2    1    2    0    0  0.00000000000E+00  0.00000000000E+00 -0.47882597731E+03  0.40338582224E+04  0.40053386675E+04 0.  0.
        4    1    3    3  502    0  0.68437595478E+01 -0.11367858596E+04 -0.18998958085E+04  0.22140313060E+04  0.12699999809E+01 0.  1.
       -4    1    3    3    0  502 -0.68437595478E+01  0.11367858596E+04  0.14210698312E+04  0.18198269164E+04  0.12699999809E+01 0. -1.
</event>
<event>
 5   0  0.1095903E-07  0.4042158E+04  0.7818609E-02  0.7996096E-01
        2   -1    0    0  501    0  0.00000000000E+00  0.00000000000E+00  0.15043839473E+04  0.15043839473E+04  0.25500000920E-02 0. -1.
       -2   -1    0    0    0  501  0.00000000000E+00  0.00000000000E+00 -0.27152374931E+04  0.27152374931E+04  0.25500000920E-02 0.  1.
    10030    2    1    2    0    0  0.00000000000E+00  0.00000000000E+00 -0.12108535458E+04  0.42196214404E+04  0.40421576900E+04 0.  0.
        3    1    3    3  502    0 -0.81773453623E+02  0.70482117027E+03  0.13700893761E+04  0.15429208303E+04  0.10100000352E+00 0. -1.
       -3    1    3    3    0  502  0.81773453623E+02 -0.70482117027E+03 -0.25809429219E+04  0.26767006101E+04  0.10100000352E+00 0.  1.
</event>
<event>
 5   0  0.1087688E-07  0.4019363E+04  0.7818609E-02  0.8000652E-01
        2   -1    0    0  501    0  0.00000000000E+00  0.00000000000E+00  0.29420487085E+04  0.29420487085E+04  0.25500000920E-02 0.  1.
       -2   -1    0    0    0  501  0.00000000000E+00  0.00000000000E+00 -0.13727917091E+04  0.13727917091E+04  0.25500000920E-02 0. -1.
    10030    2    1    2    0    0  0.00000000000E+00  0.00000000000E+00  0.15692569994E+04  0.43148404177E+04  0.40193631709E+04 0.  0.
        2    1    3    3  502    0 -0.16447730896E+03 -0.17083830368E+04 -0.33779369541E+03  0.17492083828E+04  0.25500000920E-02 0. -1.
       -2    1    3    3    0  502  0.16447730896E+03  0.17083830368E+04  0.19070506948E+04  0.25656320349E+04  0.25500000920E-02 0.  1.
</event>
<event>
 5   0  0.3399500E-08  0.3888779E+04  0.7818609E-02  0.8027367E-01
        1   -1    0    0  501    0  0.00000000000E+00  0.00000000000E+00  0.21206785413E+04  0.21206785413E+04  0.50400001928E-02 0. -1.
       -1   -1    0    0    0  501  0.00000000000E+00  0.00000000000E+00 -0.17827550941E+04  0.17827550941E+04  0.50400001928E-02 0.  1.
    10030    2    1    2    0    0  0.00000000000E+00  0.00000000000E+00  0.33792344724E+03  0.39034336354E+04  0.38887789716E+04 0.  0.
        1    1    3    3  502    0  0.49775309990E+03 -0.18731826566E+04  0.32472077561E+03  0.19652010064E+04  0.50400001928E-02 0. -1.
       -1    1    3    3    0  502 -0.49775309990E+03  0.18731826566E+04  0.13202671626E+02  0.19382326290E+04  0.50400001928E-02 0.  1.
</event>
<event>
 5   0  0.1073271E-07  0.4034022E+04  0.7818609E-02  0.7997718E-01
       -2   -1    0    0    0  501  0.00000000000E+00  0.00000000000E+00  0.27937860342E+04  0.27937860342E+04  0.25500000920E-02 0.  1.
        2   -1    0    0  501    0  0.00000000000E+00  0.00000000000E+00 -0.14562077440E+04  0.14562077440E+04  0.25500000920E-02 0. -1.
    10030    2    1    2    0    0  0.00000000000E+00  0.00000000000E+00  0.13375782903E+04  0.42499937782E+04  0.40340217442E+04 0.  0.
        1    1    3    3  502    0  0.17802023599E+04 -0.87120634475E+03  0.27429321334E+03  0.20008392500E+04  0.50400001928E-02 0. -1.
       -1    1    3    3    0  502 -0.17802023599E+04  0.87120634475E+03  0.10632850769E+04  0.22491545283E+04  0.50400001928E-02 0.  1.
</event>
<event>
 5   0  0.3399500E-08  0.4003754E+04  0.7818609E-02  0.8003790E-01
       -1   -1    0    0    0  501  0.00000000000E+00  0.00000000000E+00  0.15276251490E+04  0.15276251490E+04  0.50400001928E-02 0.  1.
        1   -1    0    0  501    0  0.00000000000E+00  0.00000000000E+00 -0.26233608403E+04  0.26233608403E+04  0.50400001928E-02 0. -1.
    10030    2    1    2    0    0  0.00000000000E+00  0.00000000000E+00 -0.10957356913E+04  0.41509859893E+04  0.40037542355E+04 0.  0.
        2    1    3    3  502    0  0.15275197328E+04  0.46747734788E+03 -0.17987427761E+04  0.24056864258E+04  0.25500000920E-02 0. -1.
       -2    1    3    3    0  502 -0.15275197328E+04 -0.46747734788E+03  0.70300708478E+03  0.17452995635E+04  0.25500000920E-02 0.  1.
</event>
<event>
 5   0  0.1101474E-07  0.3979551E+04  0.7818609E-02  0.8008684E-01
       -2   -1    0    0    0  501  0.00000000000E+00  0.00000000000E+00  0.18752130407E+04  0.18752130407E+04  0.25500000920E-02 0. -1.
        2   -1    0    0  501    0  0.00000000000E+00  0.00000000000E+00 -0.21113372461E+04  0.21113372461E+04  0.25500000920E-02 0.  1.
    10030    2    1    2    0    0  0.00000000000E+00  0.00000000000E+00 -0.23612420539E+03  0.39865502867E+04  0.39795512999E+04 0.  0.
        5    1    3    3  502    0 -0.31552213057E+03  0.98495785962E+03 -0.18209013466E+04  0.20941346671E+04  0.46999998093E+01 0.  1.
       -5    1    3    3    0  502  0.31552213057E+03 -0.98495785962E+03  0.15847771412E+04  0.18924156196E+04  0.46999998093E+01 0. -1.
</event>
<event>
 5   0  0.3399500E-08  0.4208779E+04  0.7818609E-02  0.7963704E-01
       -1   -1    0    0    0  501  0.00000000000E+00  0.00000000000E+00  0.21521320644E+04  0.21521320644E+04  0.50400001928E-02 0. -1.
        1   -1    0    0  501    0  0.00000000000E+00  0.00000000000E+00 -0.20577062410E+04  0.20577062410E+04  0.50400001928E-02 0.  1.
    10030    2    1    2    0    0  0.00000000000E+00  0.00000000000E+00  0.94425823417E+02  0.42098383054E+04  0.42087791961E+04 0.  0.
        2    1    3    3  502    0 -0.72377371497E+03 -0.17152122024E+04  0.10286092851E+04  0.21269316752E+04  0.25500000920E-02 0. -1.
       -2    1    3    3    0  502  0.72377371497E+03  0.17152122024E+04 -0.93418346170E+03  0.20829066301E+04  0.25500000920E-02 0.  1.
</event>
<event>
 5   0  0.3399500E-08  0.3990334E+04  0.7818609E-02  0.8006499E-01
        1   -1    0    0  501    0  0.00000000000E+00  0.00000000000E+00  0.19200199009E+04  0.19200199009E+04  0.50400001928E-02 0. -1.
       -1   -1    0    0    0  501  0.00000000000E+00  0.00000000000E+00 -0.20732554738E+04  0.20732554739E+04  0.50400001928E-02 0.  1.
    10030    2    1    2    0    0  0.00000000000E+00  0.00000000000E+00 -0.15323557297E+03  0.39932753747E+04  0.39903342063E+04 0.  0.
        3    1    3    3  502    0  0.57542613543E+02  0.12682515735E+04 -0.16168813915E+04  0.20557428464E+04  0.10100000352E+00 0.  1.
       -3    1    3    3    0  502 -0.57542613543E+02 -0.12682515735E+04  0.14636458185E+04  0.19375325284E+04  0.10100000352E+00 0. -1.
</event>
<event>
 5   0  0.3399500E-08  0.3986455E+04  0.7818609E-02  0.8007285E-01
       -3   -1    0    0    0  501  0.00000000000E+00  0.00000000000E+00  0.15789975424E+04  0.15789975456E+04  0.10100000352E+00 0. -1.
        3   -1    0    0  501    0  0.00000000000E+00  0.00000000000E+00 -0.25161257826E+04  0.25161257847E+04  0.10100000352E+00 0.  1.
    10030    2    1    2    0    0  0.00000000000E+00  0.00000000000E+00 -0.93712824028E+03  0.40951233303E+04  0.39864552865E+04 0.  0.
        5    1    3    3  502    0  0.14833847757E+04  0.10214876120E+03 -0.18321786368E+04  0.23596112835E+04  0.46999998093E+01 0.  1.
       -5    1    3    3    0  502 -0.14833847757E+04 -0.10214876120E+03  0.89505039654E+03  0.17355120468E+04  0.46999998093E+01 0. -1.
</event>
<event>
 5   0  0.1073271E-07  0.3511694E+04  0.7818609E-02  0.8111024E-01
        2   -1    0    0  501    0  0.00000000000E+00  0.00000000000E+00  0.13517681396E+04  0.13517681396E+04  0.25500000920E-02 0.  1.
       -2   -1    0    0    0  501  0.00000000000E+00  0.00000000000E+00 -0.22807158374E+04  0.22807158374E+04  0.25500000920E-02 0. -1.
    10030    2    1    2    0    0  0.00000000000E+00  0.00000000000E+00 -0.92894769772E+03  0.36324839770E+04  0.35116941806E+04 0.  0.
        1    1    3    3  502    0  0.43125595729E+03 -0.24762323867E+03  0.12774018636E+04  0.13707860848E+04  0.50400001928E-02 0.  1.
       -1    1    3    3    0  502 -0.43125595729E+03  0.24762323867E+03 -0.22063495613E+04  0.22616978923E+04  0.50400001928E-02 0. -1.
</event>
<event>
 5   0  0.3399500E-08  0.4024187E+04  0.7818609E-02  0.7999685E-01
       -1   -1    0    0    0  501  0.00000000000E+00  0.00000000000E+00  0.18337925215E+04  0.18337925215E+04  0.50400001928E-02 0. -1.
        1   -1    0    0  501    0  0.00000000000E+00  0.00000000000E+00 -0.22077308871E+04  0.22077308871E+04  0.50400001928E-02 0.  1.
    10030    2    1    2    0    0  0.00000000000E+00  0.00000000000E+00 -0.37393836559E+03  0.40415234085E+04  0.40241870683E+04 0.  0.
        3    1    3    3  502    0  0.83975278216E+02 -0.14363995681E+04  0.12255838437E+04  0.18900664895E+04  0.10100000352E+00 0. -1.
       -3    1    3    3    0  502 -0.83975278216E+02  0.14363995681E+04 -0.15995222093E+04  0.21514569191E+04  0.10100000352E+00 0.  1.
</event>
<event>
 5   0  0.1087688E-07  0.4014147E+04  0.7818609E-02  0.8001699E-01
        2   -1    0    0  501    0  0.00000000000E+00  0.00000000000E+00  0.23887955573E+04  0.23887955573E+04  0.25500000920E-02 0. -1.
       -2   -1    0    0    0  501  0.00000000000E+00  0.00000000000E+00 -0.16863490385E+04  0.16863490385E+04  0.25500000920E-02 0.  1.
    10030    2    1    2    0    0  0.00000000000E+00  0.00000000000E+00  0.70244651876E+03  0.40751445959E+04  0.40141465301E+04 0.  0.
        2    1    3    3  502    0 -0.86406824024E+03 -0.89860228051E+03 -0.12456519772E+04  0.17623134882E+04  0.25500000920E-02 0.  1.
       -2    1    3    3    0  502  0.86406824024E+03  0.89860228051E+03  0.19480984960E+04  0.23128311076E+04  0.25500000920E-02 0. -1.
</event>
<event>
 5   0  0.3399500E-08  0.4018930E+04  0.7818609E-02  0.8000739E-01
        1   -1    0    0  501    0  0.00000000000E+00  0.00000000000E+00  0.18066671119E+04  0.18066671119E+04  0.50400001928E-02 0.  1.
       -1   -1    0    0    0  501  0.00000000000E+00  0.00000000000E+00 -0.22350272964E+04  0.22350272964E+04  0.50400001928E-02 0. -1.
    10030    2    1    2    0    0  0.00000000000E+00  0.00000000000E+00 -0.42836018450E+03  0.40416944083E+04  0.40189303605E+04 0.  0.
        4    1    3    3  502    0 -0.15819126999E+04 -0.11245355854E+04 -0.73762867325E+03  0.20763250578E+04  0.12699999809E+01 0.  1.
       -4    1    3    3    0  502  0.15819126999E+04  0.11245355854E+04  0.30926848875E+03  0.19653693506E+04  0.12699999809E+01 0. -1.
</event>
<event>
 5   0  0.3399500E-08  0.3983220E+04  0.7818609E-02  0.8007940E-01
        1   -1    0    0  501    0  0.00000000000E+00  0.00000000000E+00  0.27460415837E+04  0.27460415837E+04  0.50400001928E-02 0. -1.
       -1   -1    0    0    0  501  0.00000000000E+00  0.00000000000E+00 -0.14444466345E+04  0.14444466345E+04  0.50400001928E-02 0.  1.
    10030    2    1    2    0    0  0.00000000000E+00  0.00000000000E+00  0.13015949492E+04  0.41904882182E+04  0.39832200661E+04 0.  0.
        5    1    3    3  502    0 -0.34472092943E+03  0.11932153209E+04 -0.98710128931E+03  0.15865012974E+04  0.46999998093E+01 0.  1.
       -5    1    3    3    0  502  0.34472092943E+03 -0.11932153209E+04  0.22886962385E+04  0.26039869208E+04  0.46999998093E+01 0. -1.
</event>
<event>
 5   0  0.1101474E-07  0.4036939E+04  0.7818609E-02  0.7997136E-01
        2   -1    0    0  501    0  0.00000000000E+00  0.00000000000E+00  0.25767453075E+04  0.25767453075E+04  0.25500000920E-02 0.  1.
       -2   -1    0    0    0  501  0.00000000000E+00  0.00000000000E+00 -0.15811490577E+04  0.15811490577E+04  0.25500000920E-02 0. -1.
    10030    2    1    2    0    0  0.00000000000E+00  0.00000000000E+00  0.99559624985E+03  0.41578943652E+04  0.40369386494E+04 0.  0.
        5    1    3    3  502    0 -0.16839984439E+04  0.67680537627E+03  0.14075994254E+04  0.22967965754E+04  0.46999998093E+01 0.  1.
       -5    1    3    3    0  502  0.16839984439E+04 -0.67680537627E+03 -0.41200317559E+03  0.18610977898E+04  0.46999998093E+01 0. -1.
</event>
<event>
 5   0  0.3399500E-08  0.4013924E+04  0.7818609E-02  0.8001744E-01
        3   -1    0    0  501    0  0.00000000000E+00  0.00000000000E+00  0.15582402025E+04  0.15582402058E+04  0.10100000352E+00 0. -1.
       -3   -1    0    0    0  501  0.00000000000E+00  0.00000000000E+00 -0.25849007508E+04  0.25849007528E+04  0.10100000352E+00 0.  1.
    10030    2    1    2    0    0  0.00000000000E+00  0.00000000000E+00 -0.10266605483E+04  0.41431409586E+04  0.40139239057E+04 0.  0.
        1    1    3    3  502    0  0.18022244271E+04  0.28222432189E+03  0.35040728956E+03  0.18575383501E+04  0.50400001928E-02 0. -1.
       -1    1    3    3    0  502 -0.18022244271E+04 -0.28222432189E+03 -0.13770678379E+04  0.22856026084E+04  0.50400001928E-02 0.  1.
</event>
<event>
 5   0  0.3399500E-08  0.4012857E+04  0.7818609E-02  0.8001958E-01
        1   -1    0    0  501    0  0.00000000000E+00  0.00000000000E+00  0.29456655452E+04  0.29456655452E+04  0.50400001928E-02 0.  1.
       -1   -1    0    0    0  501  0.00000000000E+00  0.00000000000E+00 -0.13666706517E+04  0.13666706517E+04  0.50400001928E-02 0. -1.
    10030    2    1    2    0    0  0.00000000000E+00  0.00000000000E+00  0.15789948934E+04  0.43123361969E+04  0.40128566635E+04 0.  0.
        2    1    3    3  502    0 -0.91841711213E+02 -0.14228944065E+03  0.29379710877E+04  0.29428481607E+04  0.25500000920E-02 0.  1.
       -2    1    3    3    0  502  0.91841711213E+02  0.14228944065E+03 -0.13589761942E+04  0.13694880362E+04  0.25500000920E-02 0. -1.
</event>
<event>
 5   0  0.1073271E-07  0.3849821E+04  0.7818609E-02  0.8035547E-01
       -2   -1    0    0    0  501  0.00000000000E+00  0.00000000000E+00  0.21262555205E+04  0.21262555205E+04  0.25500000920E-02 0. -1.
        2   -1    0    0  501    0  0.00000000000E+00  0.00000000000E+00 -0.17426313550E+04  0.17426313550E+04  0.25500000920E-02 0.  1.
    10030    2    1    2    0    0  0.00000000000E+00  0.00000000000E+00  0.38362416555E+03  0.38688868755E+04  0.38498205354E+04 0.  0.
        1    1    3    3  502    0 -0.53711043536E+03 -0.61035868877E+03  0.19452322720E+04  0.21083059410E+04  0.50400001928E-02 0. -1.
       -1    1    3    3    0  502  0.53711043536E+03  0.61035868877E+03 -0.15616081064E+04  0.17605809345E+04  0.50400001928E-02 0.  1.
</event>
<event>
 5   0  0.3399500E-08  0.3998514E+04  0.7818609E-02  0.8004846E-01
       -1   -1    0    0    0  501  0.00000000000E+00  0.00000000000E+00  0.21425221166E+04  0.21425221166E+04  0.50400001928E-02 0. -1.
        1   -1    0    0  501    0  0.00000000000E+00  0.00000000000E+00 -0.18655717970E+04  0.18655717971E+04  0.50400001928E-02 0.  1.
    10030    2    1    2    0    0  0.00000000000E+00  0.00000000000E+00  0.27695031952E+03  0.40080939136E+04  0.39985141416E+04 0.  0.
        1    1    3    3  502    0  0.91371401363E+03 -0.12176015122E+04 -0.11606244620E+04  0.19142820803E+04  0.50400001928E-02 0.  1.
       -1    1    3    3    0  502 -0.91371401363E+03  0.12176015122E+04  0.14375747815E+04  0.20938118334E+04  0.50400001928E-02 0. -1.
</event>
<event>
 5   0  0.1073271E-07  0.4021407E+04  0.7818609E-02  0.8000242E-01
        2   -1    0    0  501    0  0.00000000000E+00  0.00000000000E+00  0.20462498146E+04  0.20462498146E+04  0.25500000920E-02 0.  1.
       -2   -1    0    0    0  501  0.00000000000E+00  0.00000000000E+00 -0.19757748730E+04  0.19757748730E+04  0.25500000920E-02 0. -1.
    10030    2    1    2    0    0  0.00000000000E+00  0.00000000000E+00  0.70474941616E+02  0.40220246876E+04  0.40214072002E+04 0.  0.
        1    1    3    3  502    0 -0.31396283654E+03  0.30439932496E+03  0.19981129899E+04  0.20454063489E+04  0.50400001928E-02 0.  1.
       -1    1    3    3    0  502  0.31396283654E+03 -0.30439932496E+03 -0.19276380482E+04  0.19766183387E+04  0.50400001928E-02 0. -1.
</event>
<event>
 5   0  0.1073271E-07  0.3976953E+04  0.7818609E-02  0.8009212E-01
        2   -1    0    0  501    0  0.00000000000E+00  0.00000000000E+00  0.17098890661E+04  0.17098890661E+04  0.25500000920E-02 0. -1.
       -2   -1    0    0    0  501  0.00000000000E+00  0.00000000000E+00 -0.23124529826E+04  0.23124529826E+04  0.25500000920E-02 0.  1.
    10030    2    1    2    0    0  0.00000000000E+00  0.00000000000E+00 -0.60256391656E+03  0.40223420487E+04  0.39769526378E+04 0.  0.
        1    1    3    3  502    0 -0.12823138686E+04 -0.80342792919E+03 -0.16060490840E+04  0.22066306795E+04  0.50400001928E-02 0.  1.
       -1    1    3    3    0  502  0.12823138686E+04  0.80342792919E+03  0.10034851675E+04  0.18157113693E+04  0.50400001928E-02 0. -1.
</event>
<event>
 5   0  0.3399500E-08  0.3971373E+04  0.7818609E-02  0.8010347E-01
       -1   -1    0    0    0  501  0.00000000000E+00  0.00000000000E+00  0.20878392518E+04  0.20878392519E+04  0.50400001928E-02 0.  1.
        1   -1    0    0  501    0  0.00000000000E+00  0.00000000000E+00 -0.18885313902E+04  0.18885313902E+04  0.50400001928E-02 0. -1.
    10030    2    1    2    0    0  0.00000000000E+00  0.00000000000E+00  0.19930786165E+03  0.39763706421E+04  0.39713725410E+04 0.  0.
        4    1    3    3  502    0  0.32458655492E+03  0.15514848163E+04 -0.10978809032E+04  0.19281612115E+04  0.12699999809E+01 0. -1.
       -4    1    3    3    0  502 -0.32458655492E+03 -0.15514848163E+04  0.12971887649E+04  0.20482094306E+04  0.12699999809E+01 0.  1.
</event>
<event>
 5   0  0.3399500E-08  0.3971319E+04  0.7818609E-02  0.8010357E-01
        1   -1    0    0  501    0  0.00000000000E+00  0.00000000000E+00  0.19298762289E+04  0.19298762289E+04  0.50400001928E-02 0.  1.
       -1   -1    0    0    0  501  0.00000000000E+00  0.00000000000E+00 -0.20430554316E+04  0.20430554316E+04  0.50400001928E-02 0. -1.
    10030    2    1    2    0    0  0.00000000000E+00  0.00000000000E+00 -0.11317920278E+03  0.39729316605E+04  0.39713192326E+04 0.  0.
        5    1    3    3  502    0 -0.10227902689E+04  0.53962566403E+02  0.16452213415E+04  0.19379853573E+04  0.46999998093E+01 0.  1.
       -5    1    3    3    0  502  0.10227902689E+04 -0.53962566403E+02 -0.17584005443E+04  0.20349463032E+04  0.46999998093E+01 0. -1.
</event>
<event>
 5   0  0.1095109E-07  0.4116525E+04  0.7818609E-02  0.7981444E-01
        2   -1    0    0  501    0  0.00000000000E+00  0.00000000000E+00  0.25906708436E+04  0.25906708436E+04  0.25500000920E-02 0.  1.
       -2   -1    0    0    0  501  0.00000000000E+00  0.00000000000E+00 -0.16352694456E+04  0.16352694456E+04  0.25500000920E-02 0. -1.
    10030    2    1    2    0    0  0.00000000000E+00  0.00000000000E+00  0.95540139800E+03  0.42259402893E+04  0.41165251727E+04 0.  0.
        4    1    3    3  502    0 -0.35984531747E+02  0.13281410091E+04  0.20914855537E+04  0.24778149367E+04  0.12699999809E+01 0.  1.
       -4    1    3    3    0  502  0.35984531747E+02 -0.13281410091E+04 -0.11360841557E+04  0.17481253526E+04  0.12699999809E+01 0. -1.
</event>
<event>
 5   0  0.3399500E-08  0.3920616E+04  0.7818609E-02  0.8020755E-01
        1   -1    0    0  501    0  0.00000000000E+00  0.00000000000E+00  0.20383484633E+04  0.20383484633E+04  0.50400001928E-02 0.  1.
       -1   -1    0    0    0  501  0.00000000000E+00  0.00000000000E+00 -0.18852555341E+04  0.18852555341E+04  0.50400001928E-02 0. -1.
    10030    2    1    2    0    0  0.00000000000E+00  0.00000000000E+00  0.15309292920E+03  0.39236039975E+04  0.39206161358E+04 0.  0.
        4    1    3    3  502    0  0.42903606538E+03  0.45040398354E+03  0.19369603403E+04  0.20343924564E+04  0.12699999809E+01 0.  1.
       -4    1    3    3    0  502 -0.42903606538E+03 -0.45040398354E+03 -0.17838674111E+04  0.18892115411E+04  0.12699999809E+01 0. -1.
</event>
<event>
 5   0  0.3399500E-08  0.3964408E+04  0.7818609E-02  0.8011765E-01
        1   -1    0    0  501    0  0.00000000000E+00  0.00000000000E+00  0.26829894602E+04  0.26829894602E+04  0.50400001928E-02 0.  1.
       -1   -1    0    0    0  501  0.00000000000E+00  0.00000000000E+00 -0.14644605375E+04  0.14644605375E+04  0.50400001928E-02 0. -1.
    10030    2    1    2    0    0  0.00000000000E+00  0.00000000000E+00  0.12185289227E+04  0.41474499977E+04  0.39644077424E+04 0.  0.
        1    1    3    3  502    0 -0.13017218429E+04  0.24071073615E+03 -0.93422335764E+03  0.16202452582E+04  0.50400001928E-02 0. -1.
       -1    1    3    3    0  502  0.13017218429E+04 -0.24071073615E+03  0.21527522803E+04  0.25272047395E+04  0.50400001928E-02 0.  1.
</event>
<event>
 5   0  0.3399500E-08  0.3985356E+04  0.7818609E-02  0.8007507E-01
        3   -1    0    0  501    0  0.00000000000E+00  0.00000000000E+00  0.32338610535E+04  0.32338610550E+04  0.10100000352E+00 0.  1.
       -3   -1    0    0    0  501  0.00000000000E+00  0.00000000000E+00 -0.12278712158E+04  0.12278712200E+04  0.10100000352E+00 0. -1.
    10030    2    1    2    0    0  0.00000000000E+00  0.00000000000E+00  0.20059898376E+04  0.44617322750E+04  0.39853556511E+04 0.  0.
        1    1    3    3  502    0 -0.16932716702E+04 -0.55431038963E+03  0.20020388521E+04  0.26800351719E+04  0.50400001928E-02 0.  1.
       -1    1    3    3    0  502  0.16932716702E+04  0.55431038963E+03  0.39509855344E+01  0.17816971032E+04  0.50400001928E-02 0. -1.
</event>
<event>
 5   0  0.1095109E-07  0.3978601E+04  0.7818609E-02  0.8008877E-01
        2   -1    0    0  501    0  0.00000000000E+00  0.00000000000E+00  0.32853756487E+04  0.32853756487E+04  0.25500000920E-02 0.  1.
       -2   -1    0    0    0  501  0.00000000000E+00  0.00000000000E+00 -0.12045247474E+04  0.12045247474E+04  0.25500000920E-02 0. -1.
    10030    2    1    2    0    0  0.00000000000E+00  0.00000000000E+00  0.20808509014E+04  0.44899003961E+04  0.39786008964E+04 0.  0.
        4    1    3    3  502    0 -0.78340687399E+03 -0.10704239668E+04 -0.63258450044E+03  0.14695912908E+04  0.12699999809E+01 0. -1.
       -4    1    3    3    0  502  0.78340687399E+03  0.10704239668E+04  0.27134354018E+04  0.30203091053E+04  0.12699999809E+01 0.  1.
</event>
<event>
 5   0  0.1087688E-07  0.3997888E+04  0.7818609E-02  0.8004973E-01
       -2   -1    0    0    0  501  0.00000000000E+00  0.00000000000E+00  0.26044369963E+04  0.26044369963E+04  0.25500000920E-02 0. -1.
        2   -1    0    0  501    0  0.00000000000E+00  0.00000000000E+00 -0.15342191715E+04  0.15342191715E+04  0.25500000920E-02 0.  1.
    10030    2    1    2    0    0  0.00000000000E+00  0.00000000000E+00  0.10702178248E+04  0.41386561679E+04  0.39978880278E+04 0.  0.
        2    1    3    3  502    0 -0.14464025652E+04  0.57919643156E+03 -0.76127419217E+03  0.17340955229E+04  0.25500000920E-02 0.  1.
       -2    1    3    3    0  502  0.14464025652E+04 -0.57919643156E+03  0.18314920170E+04  0.24045606449E+04  0.25500000920E-02 0. -1.
</event>
<event>
 5   0  0.3399500E-08  0.3635544E+04  0.7818609E-02  0.8082398E-01
       -1   -1    0    0    0  501  0.00000000000E+00  0.00000000000E+00  0.13215576433E+04  0.13215576433E+04  0.50400001928E-02 0.  1.
        1   -1    0    0  501    0  0.00000000000E+00  0.00000000000E+00 -0.25003040427E+04  0.25003040427E+04  0.50400001928E-02 0. -1.
    10030    2    1    2    0    0  0.00000000000E+00  0.00000000000E+00 -0.11787463994E+04  0.38218616860E+04  0.36355444809E+04 0.  0.
        5    1    3    3  502    0 -0.98044794422E+03  0.42427692285E+03  0.95670776036E+03  0.14340853905E+04  0.46999998093E+01 0.  1.
       -5    1    3    3    0  502  0.98044794422E+03 -0.42427692285E+03 -0.21354541598E+04  0.23877762955E+04  0.46999998093E+01 0. -1.
</event>
<event>
 5   0  0.3399500E-08  0.3991978E+04  0.7818609E-02  0.8006167E-01
       -1   -1    0    0    0  501  0.00000000000E+00  0.00000000000E+00  0.26647012884E+04  0.26647012884E+04  0.50400001928E-02 0.  1.
        1   -1    0    0  501    0  0.00000000000E+00  0.00000000000E+00 -0.14950917433E+04  0.14950917433E+04  0.50400001928E-02 0. -1.
    10030    2    1    2    0    0  0.00000000000E+00  0.00000000000E+00  0.11696095450E+04  0.41597930317E+04  0.39919784041E+04 0.  0.
        1    1    3    3  502    0 -0.19227811891E+04 -0.13515784324E+03  0.11248758177E+04  0.22317483615E+04  0.50400001928E-02 0.  1.
       -1    1    3    3    0  502  0.19227811891E+04  0.13515784324E+03  0.44733727304E+02  0.19280446702E+04  0.50400001928E-02 0. -1.
</event>
<event>
 5   0  0.1095903E-07  0.3989903E+04  0.7818609E-02  0.8006587E-01
       -2   -1    0    0    0  501  0.00000000000E+00  0.00000000000E+00  0.27246368490E+04  0.27246368490E+04  0.25500000920E-02 0. -1.
        2   -1    0    0  501    0  0.00000000000E+00  0.00000000000E+00 -0.14606831816E+04  0.14606831816E+04  0.25500000920E-02 0.  1.
    10030    2    1    2    0    0  0.00000000000E+00  0.00000000000E+00  0.12639536674E+04  0.41853200306E+04  0.39899028666E+04 0.  0.
        3    1    3    3  502    0  0.54707600300E+03  0.53827351882E+03 -0.12996244241E+04  0.15093224268E+04  0.10100000352E+00 0.  1.
       -3    1    3    3    0  502 -0.54707600300E+03 -0.53827351882E+03  0.25635780915E+04  0.26759976038E+04  0.10100000352E+00 0. -1.
</event>
<event>
 5   0  0.1095109E-07  0.4017039E+04  0.7818609E-02  0.8001118E-01
        2   -1    0    0  501    0  0.00000000000E+00  0.00000000000E+00  0.27403364599E+04  0.27403364599E+04  0.25500000920E-02 0. -1.
       -2   -1    0    0    0  501  0.00000000000E+00  0.00000000000E+00 -0.14721367579E+04  0.14721367579E+04  0.25500000920E-02 0.  1.
    10030    2    1    2    0    0  0.00000000000E+00  0.00000000000E+00  0.12681997020E+04  0.42124732178E+04  0.40170387260E+04 0.  0.
        4    1    3    3  502    0  0.13981022444E+04 -0.14410589336E+04  0.57853436082E+03  0.20895081611E+04  0.12699999809E+01 0.  1.
       -4    1    3    3    0  502 -0.13981022444E+04  0.14410589336E+04  0.68966534120E+03  0.21229650566E+04  0.12699999809E+01 0. -1.
</event>
<event>
 5   0  0.1095109E-07  0.4010383E+04  0.7818609E-02  0.8002455E-01
       -2   -1    0    0    0  501  0.00000000000E+00  0.00000000000E+00  0.15702747960E+04  0.15702747960E+04  0.25500000920E-02 0. -1.
        2   -1    0    0  501    0  0.00000000000E+00  0.00000000000E+00 -0.25605666338E+04  0.25605666338E+04  0.25500000920E-02 0.  1.
    10030    2    1    2    0    0  0.00000000000E+00  0.00000000000E+00 -0.99029183776E+03  0.41308414298E+04  0.40103831481E+04 0.  0.
        4    1    3    3  502    0 -0.10265948036E+04  0.74897892685E+03  0.11025485366E+04  0.16824034035E+04  0.12699999809E+01 0. -1.
       -4    1    3    3    0  502  0.10265948036E+04 -0.74897892685E+03 -0.20928403743E+04  0.24484380264E+04  0.12699999809E+01 0.  1.
</event>
<event>
 5   0  0.3399500E-08  0.3971357E+04  0.7818609E-02  0.8010350E-01
       -1   -1    0    0    0  501  0.00000000000E+00  0.00000000000E+00  0.17752614093E+04  0.17752614094E+04  0.50400001928E-02 0.  1.
        1   -1    0    0  501    0  0.00000000000E+00  0.00000000000E+00 -0.22210352937E+04  0.22210352937E+04  0.50400001928E-02 0. -1.
    10030    2    1    2    0    0  0.00000000000E+00  0.00000000000E+00 -0.44577388437E+03  0.39962967031E+04  0.39713565671E+04 0.  0.
        3    1    3    3  502    0  0.48542457666E+03 -0.16588994340E+04  0.76066303743E+03  0.18884365540E+04  0.10100000352E+00 0.  1.
       -3    1    3    3    0  502 -0.48542457666E+03  0.16588994340E+04 -0.12064369218E+04  0.21078601491E+04  0.10100000352E+00 0. -1.
</event>
<event>
 5   0  0.3399500E-08  0.3998506E+04  0.7818609E-02  0.8004848E-01
        1   -1    0    0  501    0  0.00000000000E+00  0.00000000000E+00  0.14091877200E+04  0.14091877200E+04  0.50400001928E-02 0.  1.
       -1   -1    0    0    0  501  0.00000000000E+00  0.00000000000E+00 -0.28363947775E+04  0.28363947775E+04  0.50400001928E-02 0. -1.
    10030    2    1    2    0    0  0.00000000000E+00  0.00000000000E+00 -0.14272070575E+04  0.42455824976E+04  0.39985060659E+04 0.  0.
        5    1    3    3  502    0 -0.25081240612E+03  0.18270584095E+04 -0.15332777351E+04  0.23983352555E+04  0.46999998093E+01 0. -1.
       -5    1    3    3    0  502  0.25081240612E+03 -0.18270584095E+04  0.10607067757E+03  0.18472472421E+04  0.46999998093E+01 0.  1.
</event>
<event>
 5   0  0.3399500E-08  0.4014468E+04  0.7818609E-02  0.8001634E-01
       -1   -1    0    0    0  501  0.00000000000E+00  0.00000000000E+00  0.17446910518E+04  0.17446910518E+04  0.50400001928E-02 0.  1.
        1   -1    0    0  501    0  0.00000000000E+00  0.00000000000E+00 -0.23092844502E+04  0.23092844502E+04  0.50400001928E-02 0. -1.
    10030    2    1    2    0    0  0.00000000000E+00  0.00000000000E+00 -0.56459339834E+03  0.40539755020E+04  0.40144677935E+04 0.  0.
        3    1    3    3  502    0  0.18642288865E+04  0.74368610776E+03 -0.25819683991E+03  0.20236313860E+04  0.10100000352E+00 0.  1.
       -3    1    3    3    0  502 -0.18642288865E+04 -0.74368610776E+03 -0.30639655842E+03  0.20303441160E+04  0.10100000352E+00 0. -1.
</event>
<event>
 5   0  0.3399500E-08  0.4008628E+04  0.7818609E-02  0.8002808E-01
       -1   -1    0    0    0  501  0.00000000000E+00  0.00000000000E+00  0.15778501473E+04  0.15778501473E+04  0.50400001928E-02 0.  1.
        1   -1    0    0  501    0  0.00000000000E+00  0.00000000000E+00 -0.25460426676E+04  0.25460426676E+04  0.50400001928E-02 0. -1.
    10030    2    1    2    0    0  0.00000000000E+00  0.00000000000E+00 -0.96819252032E+03  0.41238928149E+04  0.40086275946E+04 0.  0.
        2    1    3    3  502    0  0.30859828895E+03  0.16356304167E+04  0.66459164483E+03  0.17922616490E+04  0.25500000920E-02 0.  1.
       -2    1    3    3    0  502 -0.30859828895E+03 -0.16356304167E+04 -0.16327841652E+04  0.23316311659E+04  0.25500000920E-02 0. -1.
</event>
<event>
 5   0  0.1095903E-07  0.3997196E+04  0.7818609E-02  0.8005112E-01
        2   -1    0    0  501    0  0.00000000000E+00  0.00000000000E+00  0.30240331699E+04  0.30240331699E+04  0.25500000920E-02 0.  1.
       -2   -1    0    0    0  501  0.00000000000E+00  0.00000000000E+00 -0.13208832337E+04  0.13208832337E+04  0.25500000920E-02 0. -1.
    10030    2    1    2    0    0  0.00000000000E+00  0.00000000000E+00  0.17031499362E+04  0.43449164036E+04  0.39971963736E+04 0.  0.
        3    1    3    3  502    0  0.16587807602E+04  0.11129130715E+04  0.78058199780E+03  0.21446298936E+04  0.10100000352E+00 0.  1.
       -3    1    3    3    0  502 -0.16587807602E+04 -0.11129130715E+04  0.92256793842E+03  0.22002865100E+04  0.10100000352E+00 0. -1.
</event>
<event>
 5   0  0.1095903E-07  0.3913153E+04  0.7818609E-02  0.8022299E-01
       -2   -1    0    0    0  501  0.00000000000E+00  0.00000000000E+00  0.12861423690E+04  0.12861423690E+04  0.25500000920E-02 0. -1.
        2   -1    0    0  501    0  0.00000000000E+00  0.00000000000E+00 -0.29764915760E+04  0.29764915760E+04  0.25500000920E-02 0.  1.
    10030    2    1    2    0    0  0.00000000000E+00  0.00000000000E+00 -0.16903492069E+04  0.42626339450E+04  0.39131531669E+04 0.  0.
        3    1    3    3  502    0 -0.14448335552E+03  0.72475169333E+03  0.11282652066E+04  0.13487486214E+04  0.10100000352E+00 0. -1.
       -3    1    3    3    0  502  0.14448335552E+03 -0.72475169333E+03 -0.28186144135E+04  0.29138853236E+04  0.10100000352E+00 0.  1.
</event>
<event>
 5   0  0.3399500E-08  0.3934437E+04  0.7818609E-02  0.8017905E-01
       -1   -1    0    0    0  501  0.00000000000E+00  0.00000000000E+00  0.17440179847E+04  0.17440179847E+04  0.50400001928E-02 0. -1.
        1   -1    0    0  501    0  0.00000000000E+00  0.00000000000E+00 -0.22189841940E+04  0.22189841940E+04  0.50400001928E-02 0.  1.
    10030    2    1    2    0    0  0.00000000000E+00  0.00000000000E+00 -0.47496620924E+03  0.39630021787E+04  0.39344368553E+04 0.  0.
        5    1    3    3  502    0  0.62559244549E+03  0.11377768333E+03  0.16376490786E+04  0.17567663088E+04  0.46999998093E+01 0. -1.
       -5    1    3    3    0  502 -0.62559244549E+03 -0.11377768333E+03 -0.21126152879E+04  0.22062358699E+04  0.46999998093E+01 0.  1.
</event>
<event>
 5   0  0.1087688E-07  0.4006884E+04  0.7818609E-02  0.8003159E-01
        2   -1    0    0  501    0  0.00000000000E+00  0.00000000000E+00  0.18571623619E+04  0.18571623619E+04  0.25500000920E-02 0.  1.
       -2   -1    0    0    0  501  0.00000000000E+00  0.00000000000E+00 -0.21612432099E+04  0.21612432099E+04  0.25500000920E-02 0. -1.
    10030    2    1    2    0    0  0.00000000000E+00  0.00000000000E+00 -0.30408084802E+03  0.40184055719E+04  0.40068838488E+04 0.  0.
        2    1    3    3  502    0 -0.66838310503E+03 -0.20852876652E+03  0.17304718126E+04  0.18667492911E+04  0.25500000920E-02 0.  1.
       -2    1    3    3    0  502  0.66838310503E+03  0.20852876652E+03 -0.20345526606E+04  0.21516562808E+04  0.25500000920E-02 0. -1.
</event>
<event>
 5   0  0.1073271E-07  0.3988477E+04  0.7818609E-02  0.8006875E-01
       -2   -1    0    0    0  501  0.00000000000E+00  0.00000000000E+00  0.15152683258E+04  0.15152683258E+04  0.25500000920E-02 0. -1.
        2   -1    0    0  501    0  0.00000000000E+00  0.00000000000E+00 -0.26246095726E+04  0.26246095726E+04  0.25500000920E-02 0.  1.
    10030    2    1    2    0    0  0.00000000000E+00  0.00000000000E+00 -0.11093412468E+04  0.41398778984E+04  0.39884772799E+04 0.  0.
        1    1    3    3  502    0  0.74303075252E+03  0.16320833896E+04 -0.14602549655E+04  0.23126036093E+04  0.50400001928E-02 0.  1.
       -1    1    3    3    0  502 -0.74303075252E+03 -0.16320833896E+04  0.35091371870E+03  0.18272742891E+04  0.50400001928E-02 0. -1.
</event>
<event>
 5   0  0.1095109E-07  0.4036954E+04  0.7818609E-02  0.7997133E-01
       -2   -1    0    0    0  501  0.00000000000E+00  0.00000000000E+00  0.19805146397E+04  0.19805146397E+04  0.25500000920E-02 0. -1.
        2   -1    0    0  501    0  0.00000000000E+00  0.00000000000E+00 -0.20571665789E+04  0.20571665789E+04  0.25500000920E-02 0.  1.
    10030    2    1    2    0    0  0.00000000000E+00  0.00000000000E+00 -0.76651939266E+02  0.40376812186E+04  0.40369535672E+04 0.  0.
        4    1    3    3  502    0  0.11190413520E+04  0.12682314672E+04  0.10634997159E+04  0.19979233870E+04  0.12699999809E+01 0. -1.
       -4    1    3    3    0  502 -0.11190413520E+04 -0.12682314672E+04 -0.11401516552E+04  0.20397578316E+04  0.12699999809E+01 0.  1.
</event>
<event>
 5   0  0.3399500E-08  0.3551393E+04  0.7818609E-02  0.8101717E-01
       -1   -1    0    0    0  501  0.00000000000E+00  0.00000000000E+00  0.20092387025E+04  0.20092387025E+04  0.50400001928E-02 0. -1.
        1   -1    0    0  501    0  0.00000000000E+00  0.00000000000E+00 -0.15692997693E+04  0.15692997693E+04  0.50400001928E-02 0.  1.
    10030    2    1    2    0    0  0.00000000000E+00  0.00000000000E+00  0.43993893322E+03  0.35785384718E+04  0.35513928717E+04 0.  0.
        5    1    3    3  502    0  0.57664032942E+03 -0.89669464463E+03 -0.12109201321E+04  0.16133583023E+04  0.46999998093E+01 0.  1.
       -5    1    3    3    0  502 -0.57664032942E+03  0.89669464463E+03  0.16508590653E+04  0.19651801695E+04  0.46999998093E+01 0. -1.
</event>
<event>
 5   0  0.1073271E-07  0.3999564E+04  0.7818609E-02  0.8004635E-01
       -2   -1    0    0    0  501  0.00000000000E+00  0.00000000000E+00  0.20552427210E+04  0.20552427210E+04  0.25500000920E-02 0. -1.
        2   -1    0    0  501    0  0.00000000000E+00  0.00000000000E+00 -0.19458178264E+04  0.19458178264E+04  0.25500000920E-02 0.  1.
    10030    2    1    2    0    0  0.00000000000E+00  0.00000000000E+00  0.10942489457E+03  0.40010605474E+04  0.39995639383E+04 0.  0.
        1    1    3    3  502    0 -0.98599127877E+02  0.19267147373E+04  0.58138495550E+03  0.20149342256E+04  0.50400001928E-02 0. -1.
       -1    1    3    3    0  502  0.98599127877E+02 -0.19267147373E+04 -0.47196006094E+03  0.19861263218E+04  0.50400001928E-02 0.  1.
</event>
<event>
 5   0  0.1095903E-07  0.3993977E+04  0.7818609E-02  0.8005763E-01
        2   -1    0    0  501    0  0.00000000000E+00  0.00000000000E+00  0.13590494314E+04  0.13590494314E+04  0.25500000920E-02 0.  1.
       -2   -1    0    0    0  501  0.00000000000E+00  0.00000000000E+00 -0.29343763731E+04  0.29343763731E+04  0.25500000920E-02 0. -1.
    10030    2    1    2    0    0  0.00000000000E+00  0.00000000000E+00 -0.15753269417E+04  0.42934258045E+04  0.39939767357E+04 0.  0.
        3    1    3    3  502    0 -0.15255179473E+04 -0.91289410058E+02 -0.21695078865E+04  0.26537338306E+04  0.10100000352E+00 0. -1.
       -3    1    3    3    0  502  0.15255179473E+04  0.91289410058E+02  0.59418094479E+03  0.16396919739E+04  0.10100000352E+00 0.  1.
</event>
<event>
 5   0  0.3399500E-08  0.4023567E+04  0.7818609E-02  0.7999809E-01
        1   -1    0    0  501    0  0.00000000000E+00  0.00000000000E+00  0.21699679791E+04  0.21699679791E+04  0.50400001928E-02 0. -1.
       -1   -1    0    0    0  501  0.00000000000E+00  0.00000000000E+00 -0.18651304803E+04  0.18651304803E+04  0.50400001928E-02 0.  1.
    10030    2    1    2    0    0  0.00000000000E+00  0.00000000000E+00  0.30483749881E+03  0.40350984593E+04  0.40235672824E+04 0.  0.
        4    1    3    3  502    0 -0.42554217022E+03 -0.27778973213E+03  0.21045375000E+04  0.21650249365E+04  0.12699999809E+01 0. -1.
       -4    1    3    3    0  502  0.42554217022E+03  0.27778973213E+03 -0.17997000011E+04  0.18700735229E+04  0.12699999809E+01 0.  1.
</event>
<event>
 5   0  0.1101474E-07  0.4020718E+04  0.7818609E-02  0.8000380E-01
       -2   -1    0    0    0  501  0.00000000000E+00  0.00000000000E+00  0.32869044919E+04  0.32869044919E+04  0.25500000920E-02 0.  1.
        2   -1    0    0  501    0  0.00000000000E+00  0.00000000000E+00 -0.12295894610E+04  0.12295894610E+04  0.25500000920E-02 0. -1.
    10030    2    1    2    0    0  0.00000000000E+00  0.00000000000E+00  0.20573150308E+04  0.45164939529E+04  0.40207179073E+04 0.  0.
        5    1    3    3  502    0 -0.69216889489E+03  0.78114371613E+03 -0.90141440922E+03  0.13790769781E+04  0.46999998093E+01 0. -1.
       -5    1    3    3    0  502  0.69216889489E+03 -0.78114371613E+03  0.29587294401E+04  0.31374169748E+04  0.46999998093E+01 0.  1.
</event>
<event>
 5   0  0.1087688E-07  0.3721443E+04  0.7818609E-02  0.8063226E-01
        2   -1    0    0  501    0  0.00000000000E+00  0.00000000000E+00  0.20220050186E+04  0.20220050186E+04  0.25500000920E-02 0.  1.
       -2   -1    0    0    0  501  0.00000000000E+00  0.00000000000E+00 -0.17123027334E+04  0.17123027334E+04  0.25500000920E-02 0. -1.
    10030    2    1    2    0    0  0.00000000000E+00  0.00000000000E+00  0.30970228516E+03  0.37343077520E+04  0.37214431181E+04 0.  0.
        2    1    3    3  502    0  0.14164018419E+04  0.24692221045E+03  0.13400862246E+04  0.19654505451E+04  0.25500000920E-02 0.  1.
       -2    1    3    3    0  502 -0.14164018419E+04 -0.24692221045E+03 -0.10303839395E+04  0.17688572069E+04  0.25500000920E-02 0. -1.
</event>
<event>
 5   0  0.1087688E-07  0.4013054E+04  0.7818609E-02  0.8001918E-01
        2   -1    0    0  501    0  0.00000000000E+00  0.00000000000E+00  0.24811784122E+04  0.24811784122E+04  0.25500000920E-02 0.  1.
       -2   -1    0    0    0  501  0.00000000000E+00  0.00000000000E+00 -0.16226771850E+04  0.16226771850E+04  0.25500000920E-02 0. -1.
    10030    2    1    2    0    0  0.00000000000E+00  0.00000000000E+00  0.85850122719E+03  0.41038555972E+04  0.40130544982E+04 0.  0.
        2    1    3    3  502    0 -0.11108269530E+04  0.13139560643E+04 -0.62645184863E+03  0.18310813683E+04  0.25500000920E-02 0. -1.
       -2    1    3    3    0  502  0.11108269530E+04 -0.13139560643E+04  0.14849530758E+04  0.22727742290E+04  0.25500000920E-02 0.  1.
</event>
<event>
 5   0  0.3399500E-08  0.3991755E+04  0.7818609E-02  0.8006212E-01
       -1   -1    0    0    0  501  0.00000000000E+00  0.00000000000E+00  0.17749207340E+04  0.17749207340E+04  0.50400001928E-02 0. -1.
        1   -1    0    0  501    0  0.00000000000E+00  0.00000000000E+00 -0.22443405779E+04  0.22443405779E+04  0.50400001928E-02 0.  1.
    10030    2    1    2    0    0  0.00000000000E+00  0.00000000000E+00 -0.46941984396E+03  0.40192613119E+04  0.39917548150E+04 0.  0.
        3    1    3    3  502    0 -0.27062487532E+03  0.77934774972E+03 -0.20646230962E+04  0.22233509120E+04  0.10100000352E+00 0.  1.
       -3    1    3    3    0  502  0.27062487532E+03 -0.77934774972E+03  0.15952032523E+04  0.17959103999E+04  0.10100000352E+00 0. -1.
</event>
<event>
 5   0  0.3399500E-08  0.3988734E+04  0.7818609E-02  0.8006823E-01
        1   -1    0    0  501    0  0.00000000000E+00  0.00000000000E+00  0.12602858276E+04  0.12602858276E+04  0.50400001928E-02 0. -1.
       -1   -1    0    0    0  501  0.00000000000E+00  0.00000000000E+00 -0.31560297910E+04  0.31560297910E+04  0.50400001928E-02 0.  1.
    10030    2    1    2    0    0  0.00000000000E+00  0.00000000000E+00 -0.18957439634E+04  0.44163156186E+04  0.39887339430E+04 0.  0.
        2    1    3    3  502    0 -0.13782963573E+04  0.14340932985E+04 -0.11089879504E+04  0.22773183158E+04  0.25500000920E-02 0. -1.
       -2    1    3    3    0  502  0.13782963573E+04 -0.14340932985E+04 -0.78675601309E+03  0.21389973028E+04  0.25500000920E-02 0.  1.
</event>
<event>
 5   0  0.1073271E-07  0.3977248E+04  0.7818609E-02  0.8009152E-01
       -2   -1    0    0    0  501  0.00000000000E+00  0.00000000000E+00  0.19179528924E+04  0.19179528924E+04  0.25500000920E-02 0.  1.
        2   -1    0    0  501    0  0.00000000000E+00  0.00000000000E+00 -0.20618996139E+04  0.20618996139E+04  0.25500000920E-02 0. -1.
    10030    2    1    2    0    0  0.00000000000E+00  0.00000000000E+00 -0.14394672148E+03  0.39798525063E+04  0.39772484601E+04 0.  0.
        1    1    3    3  502    0 -0.14216879926E+04 -0.32418573328E+03  0.12810706606E+04  0.19409881956E+04  0.50400001928E-02 0.  1.
       -1    1    3    3    0  502  0.14216879926E+04  0.32418573328E+03 -0.14250173821E+04  0.20388643107E+04  0.50400001928E-02 0. -1.
</event>
<event>
 5   0  0.3399500E-08  0.4023426E+04  0.7818609E-02  0.7999837E-01
        1   -1    0    0  501    0  0.00000000000E+00  0.00000000000E+00  0.20619934336E+04  0.20619934336E+04  0.50400001928E-02 0.  1.
       -1   -1    0    0    0  501  0.00000000000E+00  0.00000000000E+00 -0.19626589973E+04  0.19626589973E+04  0.50400001928E-02 0. -1.
    10030    2    1    2    0    0  0.00000000000E+00  0.00000000000E+00  0.99334436334E+02  0.40246524309E+04  0.40234263829E+04 0.  0.
        2    1    3    3  502    0  0.13364975484E+04  0.15029799588E+04  0.70454150284E+01  0.20112742456E+04  0.25500000920E-02 0.  1.
       -2    1    3    3    0  502 -0.13364975484E+04 -0.15029799588E+04  0.92289021306E+02  0.20133781852E+04  0.25500000920E-02 0. -1.
</event>
<event>
 5   0  0.3399500E-08  0.4009812E+04  0.7818609E-02  0.8002570E-01
        1   -1    0    0  501    0  0.00000000000E+00  0.00000000000E+00  0.21100238706E+04  0.21100238706E+04  0.50400001928E-02 0.  1.
       -1   -1    0    0    0  501  0.00000000000E+00  0.00000000000E+00 -0.19050249105E+04  0.19050249105E+04  0.50400001928E-02 0. -1.
    10030    2    1    2    0    0  0.00000000000E+00  0.00000000000E+00  0.20499896008E+03  0.40150487812E+04  0.40098119833E+04 0.  0.
        5    1    3    3  502    0  0.45076935423E+03  0.41020401513E+03 -0.18100121673E+04  0.19098760380E+04  0.46999998093E+01 0. -1.
       -5    1    3    3    0  502 -0.45076935423E+03 -0.41020401513E+03  0.20150111274E+04  0.21051727431E+04  0.46999998093E+01 0.  1.
</event>
<event>
 5   0  0.1101474E-07  0.3995077E+04  0.7818609E-02  0.8005540E-01
       -2   -1    0    0    0  501  0.00000000000E+00  0.00000000000E+00  0.28813332814E+04  0.28813332814E+04  0.25500000920E-02 0.  1.
        2   -1    0    0  501    0  0.00000000000E+00  0.00000000000E+00 -0.13848312520E+04  0.13848312520E+04  0.25500000920E-02 0. -1.
    10030    2    1    2    0    0  0.00000000000E+00  0.00000000000E+00  0.14965020294E+04  0.42661645333E+04  0.39950771584E+04 0.  0.
        5    1    3    3  502    0 -0.83906098420E+03  0.16635792629E+04 -0.20767215730E+02  0.18633230172E+04  0.46999998093E+01 0. -1.
       -5    1    3    3    0  502  0.83906098420E+03 -0.16635792629E+04  0.15172692451E+04  0.24028415161E+04  0.46999998093E+01 0.  1.
</event>
<event>
 5   0  0.3399500E-08  0.3981691E+04  0.7818609E-02  0.8008250E-01
       -1   -1    0    0    0  501  0.00000000000E+00  0.00000000000E+00  0.25130210421E+04  0.25130210421E+04  0.50400001928E-02 0.  1.
        1   -1    0    0  501    0  0.00000000000E+00  0.00000000000E+00 -0.15771718238E+04  0.15771718238E+04  0.50400001928E-02 0. -1.
    10030    2    1    2    0    0  0.00000000000E+00  0.00000000000E+00  0.93584921833E+03  0.40901928659E+04  0.39816910881E+04 0.  0.
        2    1    3    3  502    0  0.76544769752E+03  0.16332328795E+04  0.13335657029E+04  0.22431578857E+04  0.25500000920E-02 0.  1.
       -2    1    3    3    0  502 -0.76544769752E+03 -0.16332328795E+04 -0.39771648455E+03  0.18470349803E+04  0.25500000920E-02 0. -1.
</event>
<event>
 5   0  0.3399500E-08  0.4013732E+04  0.7818609E-02  0.8001782E-01
       -1   -1    0    0    0  501  0.00000000000E+00  0.00000000000E+00  0.31050433244E+04  0.31050433244E+04  0.50400001928E-02 0. -1.
        1   -1    0    0  501    0  0.00000000000E+00  0.00000000000E+00 -0.12970870053E+04  0.12970870053E+04  0.50400001928E-02 0.  1.
    10030    2    1    2    0    0  0.00000000000E+00  0.00000000000E+00  0.18079563191E+04  0.44021303298E+04  0.40137321022E+04 0.  0.
        3    1    3    3  502    0 -0.83045751132E+03 -0.22464636959E+03 -0.10845870765E+04  0.13843607933E+04  0.10100000352E+00 0.  1.
       -3    1    3    3    0  502  0.83045751132E+03  0.22464636959E+03  0.28925433956E+04  0.30177695364E+04  0.10100000352E+00 0. -1.
</event>
<event>
 5   0  0.3399500E-08  0.3942525E+04  0.7818609E-02  0.8016242E-01
        1   -1    0    0  501    0  0.00000000000E+00  0.00000000000E+00  0.23588460483E+04  0.23588460483E+04  0.50400001928E-02 0.  1.
       -1   -1    0    0    0  501  0.00000000000E+00  0.00000000000E+00 -0.16473632260E+04  0.16473632261E+04  0.50400001928E-02 0. -1.
    10030    2    1    2    0    0  0.00000000000E+00  0.00000000000E+00  0.71148282226E+03  0.40062092744E+04  0.39425251989E+04 0.  0.
        5    1    3    3  502    0  0.18852392028E+04 -0.28154248043E+03 -0.15482990395E+03  0.19124297135E+04  0.46999998093E+01 0.  1.
       -5    1    3    3    0  502 -0.18852392028E+04  0.28154248043E+03  0.86631272622E+03  0.20937795609E+04  0.46999998093E+01 0. -1.
</event>
<event>
 5   0  0.1087688E-07  0.4000312E+04  0.7818609E-02  0.8004484E-01
        2   -1    0    0  501    0  0.00000000000E+00  0.00000000000E+00  0.19116394297E+04  0.19116394297E+04  0.25500000920E-02 0.  1.
       -2   -1    0    0    0  501  0.00000000000E+00  0.00000000000E+00 -0.20927708313E+04  0.20927708313E+04  0.25500000920E-02 0. -1.
    10030    2    1    2    0    0  0.00000000000E+00  0.00000000000E+00 -0.18113140164E+03  0.40044102610E+04  0.40003116071E+04 0.  0.
        2    1    3    3  502    0  0.13985842582E+04 -0.58222714288E+03 -0.13978888090E+04  0.20613392480E+04  0.25500000920E-02 0. -1.
       -2    1    3    3    0  502 -0.13985842582E+04  0.58222714288E+03  0.12167574074E+04  0.19430710130E+04  0.25500000920E-02 0.  1.
</event>
<event>
 5   0  0.1073271E-07  0.3944311E+04  0.7818609E-02  0.8015876E-01
        2   -1    0    0  501    0  0.00000000000E+00  0.00000000000E+00  0.18725477149E+04  0.18725477149E+04  0.25500000920E-02 0.  1.
       -2   -1    0    0    0  501  0.00000000000E+00  0.00000000000E+00 -0.20770618904E+04  0.20770618904E+04  0.25500000920E-02 0. -1.
    10030    2    1    2    0    0  0.00000000000E+00  0.00000000000E+00 -0.20451417551E+03  0.39496096053E+04  0.39443110915E+04 0.  0.
        1    1    3    3  502    0 -0.20423996141E+03 -0.19462502835E+04 -0.34711239458E+03  0.19874836206E+04  0.50400001928E-02 0. -1.
       -1    1    3    3    0  502  0.20423996141E+03  0.19462502835E+04  0.14259821906E+03  0.19621259847E+04  0.50400001928E-02 0.  1.
</event>
<event>
 5   0  0.3399500E-08  0.3998301E+04  0.7818609E-02  0.8004889E-01
       -1   -1    0    0    0  501  0.00000000000E+00  0.00000000000E+00  0.28390871226E+04  0.28390871226E+04  0.50400001928E-02 0. -1.
        1   -1    0    0  501    0  0.00000000000E+00  0.00000000000E+00 -0.14077067870E+04  0.14077067870E+04  0.50400001928E-02 0.  1.
    10030    2    1    2    0    0  0.00000000000E+00  0.00000000000E+00  0.14313803356E+04  0.42467939096E+04  0.39983007447E+04 0.  0.
        3    1    3    3  502    0 -0.94032649159E+03 -0.14810630899E+04 -0.30244578205E+03  0.17802346049E+04  0.10100000352E+00 0.  1.
       -3    1    3    3    0  502  0.94032649159E+03  0.14810630899E+04  0.17338261177E+04  0.24665593047E+04  0.10100000352E+00 0. -1.
</event>
<event>
 5   0  0.1073271E-07  0.4044768E+04  0.7818609E-02  0.7995576E-01
       -2   -1    0    0    0  501  0.00000000000E+00  0.00000000000E+00  0.26165621487E+04  0.26165621487E+04  0.25500000920E-02 0. -1.
        2   -1    0    0  501    0  0.00000000000E+00  0.00000000000E+00 -0.15631341757E+04  0.15631341757E+04  0.25500000920E-02 0.  1.
    10030    2    1    2    0    0  0.00000000000E+00  0.00000000000E+00  0.10534279730E+04  0.41796963244E+04  0.40447683333E+04 0.  0.
        1    1    3    3  502    0  0.73954236306E+03 -0.12676759037E+04 -0.91114529217E+03  0.17274579147E+04  0.50400001928E-02 0.  1.
       -1    1    3    3    0  502 -0.73954236306E+03  0.12676759037E+04  0.19645732652E+04  0.24522384097E+04  0.50400001928E-02 0. -1.
</event>
<event>
 5   0  0.1073271E-07  0.4032848E+04  0.7818609E-02  0.7997953E-01
        2   -1    0    0  501    0  0.00000000000E+00  0.00000000000E+00  0.20447550712E+04  0.20447550712E+04  0.25500000920E-02 0.  1.
       -2   -1    0    0    0  501  0.00000000000E+00  0.00000000000E+00 -0.19884850241E+04  0.19884850241E+04  0.25500000920E-02 0. -1.
    10030    2    1    2    0    0  0.00000000000E+00  0.00000000000E+00  0.56270047050E+02  0.40332400953E+04  0.40328475483E+04 0.  0.
        1    1    3    3  502    0  0.11464966063E+04 -0.13756019331E+04 -0.89890163643E+03  0.20036864272E+04  0.50400001928E-02 0. -1.
       -1    1    3    3    0  502 -0.11464966063E+04  0.13756019331E+04  0.95517168348E+03  0.20295536681E+04  0.50400001928E-02 0.  1.
</event>
<event>
 5   0  0.1101474E-07  0.3956292E+04  0.7818609E-02  0.8013422E-01
       -2   -1    0    0    0  501  0.00000000000E+00  0.00000000000E+00  0.18773185738E+04  0.18773185738E+04  0.25500000920E-02 0. -1.
        2   -1    0    0  501    0  0.00000000000E+00  0.00000000000E+00 -0.20843884613E+04  0.20843884613E+04  0.25500000920E-02 0.  1.
    10030    2    1    2    0    0  0.00000000000E+00  0.00000000000E+00 -0.20706988758E+03  0.39617070351E+04  0.39562917857E+04 0.  0.
        5    1    3    3  502    0 -0.96245008854E+03  0.25678157219E+03  0.16078368411E+04  0.18914038031E+04  0.46999998093E+01 0. -1.
       -5    1    3    3    0  502  0.96245008854E+03 -0.25678157219E+03 -0.18149067287E+04  0.20703032320E+04  0.46999998093E+01 0.  1.
</event>
<event>
 5   0  0.1095903E-07  0.3987578E+04  0.7818609E-02  0.8007057E-01
       -2   -1    0    0    0  501  0.00000000000E+00  0.00000000000E+00  0.17526418805E+04  0.17526418805E+04  0.25500000920E-02 0.  1.
        2   -1    0    0  501    0  0.00000000000E+00  0.00000000000E+00 -0.22681159216E+04  0.22681159216E+04  0.25500000920E-02 0. -1.
    10030    2    1    2    0    0  0.00000000000E+00  0.00000000000E+00 -0.51547404107E+03  0.40207578021E+04  0.39875781894E+04 0.  0.
        3    1    3    3  502    0  0.22680141981E+03 -0.18921978598E+03  0.17304587471E+04  0.17554858293E+04  0.10100000352E+00 0.  1.
       -3    1    3    3    0  502 -0.22680141981E+03  0.18921978598E+03 -0.22459327882E+04  0.22652719728E+04  0.10100000352E+00 0. -1.
</event>
<event>
 5   0  0.3399500E-08  0.3973612E+04  0.7818609E-02  0.8009891E-01
       -1   -1    0    0    0  501  0.00000000000E+00  0.00000000000E+00  0.29539366895E+04  0.29539366895E+04  0.50400001928E-02 0.  1.
        1   -1    0    0  501    0  0.00000000000E+00  0.00000000000E+00 -0.13363178467E+04  0.13363178467E+04  0.50400001928E-02 0. -1.
    10030    2    1    2    0    0  0.00000000000E+00  0.00000000000E+00  0.16176188428E+04  0.42902545362E+04  0.39736121180E+04 0.  0.
        1    1    3    3  502    0  0.10641033362E+04  0.84855812754E+03 -0.75395266857E+03  0.15558957010E+04  0.50400001928E-02 0. -1.
       -1    1    3    3    0  502 -0.10641033362E+04 -0.84855812754E+03  0.23715715114E+04  0.27343588352E+04  0.50400001928E-02 0.  1.
</event>
<event>
 5   0  0.3399500E-08  0.4094369E+04  0.7818609E-02  0.7985775E-01
       -1   -1    0    0    0  501  0.00000000000E+00  0.00000000000E+00  0.22465292678E+04  0.22465292678E+04  0.50400001928E-02 0.  1.
        1   -1    0    0  501    0  0.00000000000E+00  0.00000000000E+00 -0.18655285349E+04  0.18655285349E+04  0.50400001928E-02 0. -1.
    10030    2    1    2    0    0  0.00000000000E+00  0.00000000000E+00  0.38100073296E+03  0.41120578027E+04  0.40943690374E+04 0.  0.
        3    1    3    3  502    0  0.15376433350E+04  0.73495447632E+03 -0.94862168187E+03  0.19504840972E+04  0.10100000352E+00 0. -1.
       -3    1    3    3    0  502 -0.15376433350E+04 -0.73495447632E+03  0.13296224148E+04  0.21615737055E+04  0.10100000352E+00 0.  1.
</event>
<event>
 5   0  0.3399500E-08  0.3895362E+04  0.7818609E-02  0.8025995E-01
       -1   -1    0    0    0  501  0.00000000000E+00  0.00000000000E+00  0.13555369075E+04  0.13555369075E+04  0.50400001928E-02 0.  1.
        1   -1    0    0  501    0  0.00000000000E+00  0.00000000000E+00 -0.27984935692E+04  0.27984935692E+04  0.50400001928E-02 0. -1.
    10030    2    1    2    0    0  0.00000000000E+00  0.00000000000E+00 -0.14429566617E+04  0.41540304767E+04  0.38953620209E+04 0.  0.
        3    1    3    3  502    0  0.82609199733E+03  0.86754223143E+03 -0.23591654588E+04  0.26458872205E+04  0.10100000352E+00 0. -1.
       -3    1    3    3    0  502 -0.82609199733E+03 -0.86754223143E+03  0.91620879703E+03  0.15081432562E+04  0.10100000352E+00 0.  1.
</event>
<event>
 5   0  0.1101474E-07  0.4009750E+04  0.7818609E-02  0.8002583E-01
        2   -1    0    0  501    0  0.00000000000E+00  0.00000000000E+00  0.26806979043E+04  0.26806979043E+04  0.25500000920E-02 0. -1.
       -2   -1    0    0    0  501  0.00000000000E+00  0.00000000000E+00 -0.14994319372E+04  0.14994319372E+04  0.25500000920E-02 0.  1.
    10030    2    1    2    0    0  0.00000000000E+00  0.00000000000E+00  0.11812659671E+04  0.41801298416E+04  0.40097501428E+04 0.  0.
        5    1    3    3  502    0  0.80879413143E+03 -0.46179800884E+03  0.24414872337E+04  0.26130991849E+04  0.46999998093E+01 0. -1.
       -5    1    3    3    0  502 -0.80879413143E+03  0.46179800884E+03 -0.12602212666E+04  0.15670306566E+04  0.46999998093E+01 0.  1.
</event>
<event>
 5   0  0.1073271E-07  0.4024590E+04  0.7818609E-02  0.7999604E-01
        2   -1    0    0  501    0  0.00000000000E+00  0.00000000000E+00  0.17489310057E+04  0.17489310057E+04  0.25500000920E-02 0. -1.
       -2   -1    0    0    0  501  0.00000000000E+00  0.00000000000E+00 -0.23153179167E+04  0.23153179167E+04  0.25500000920E-02 0.  1.
    10030    2    1    2    0    0  0.00000000000E+00  0.00000000000E+00 -0.56638691095E+03  0.40642489225E+04  0.40245900624E+04 0.  0.
        1    1    3    3  502    0 -0.10039630113E+04 -0.11498706175E+04  0.10409048327E+04  0.18476003453E+04  0.50400001928E-02 0. -1.
       -1    1    3    3    0  502  0.10039630113E+04  0.11498706175E+04 -0.16072917437E+04  0.22166485771E+04  0.50400001928E-02 0.  1.
</event>
<event>
 5   0  0.3399500E-08  0.3999921E+04  0.7818609E-02  0.8004563E-01
        1   -1    0    0  501    0  0.00000000000E+00  0.00000000000E+00  0.19401650747E+04  0.19401650748E+04  0.50400001928E-02 0. -1.
       -1   -1    0    0    0  501  0.00000000000E+00  0.00000000000E+00 -0.20615985203E+04  0.20615985203E+04  0.50400001928E-02 0.  1.
    10030    2    1    2    0    0  0.00000000000E+00  0.00000000000E+00 -0.12143344555E+03  0.40017635951E+04  0.39999207228E+04 0.  0.
        5    1    3    3  502    0 -0.10857518857E+04 -0.11706684200E+04  0.11442042397E+04  0.19643184922E+04  0.46999998093E+01 0. -1.
       -5    1    3    3    0  502  0.10857518857E+04  0.11706684200E+04 -0.12656376852E+04  0.20374451028E+04  0.46999998093E+01 0.  1.
</event>
<event>
 5   0  0.3399500E-08  0.4026150E+04  0.7818609E-02  0.7999292E-01
        1   -1    0    0  501    0  0.00000000000E+00  0.00000000000E+00  0.16978884312E+04  0.16978884312E+04  0.50400001928E-02 0.  1.
       -1   -1    0    0    0  501  0.00000000000E+00  0.00000000000E+00 -0.23867716083E+04  0.23867716083E+04  0.50400001928E-02 0. -1.
    10030    2    1    2    0    0  0.00000000000E+00  0.00000000000E+00 -0.68888317710E+03  0.40846600395E+04  0.40261504700E+04 0.  0.
        5    1    3    3  502    0 -0.15751590022E+04 -0.12533961047E+04 -0.36265051598E+03  0.20454009788E+04  0.46999998093E+01 0. -1.
       -5    1    3    3    0  502  0.15751590022E+04  0.12533961047E+04 -0.32623266112E+03  0.20392590607E+04  0.46999998093E+01 0.  1.
</event>
<event>
 5   0  0.1073271E-07  0.4014229E+04  0.7818609E-02  0.8001682E-01
       -2   -1    0    0    0  501  0.00000000000E+00  0.00000000000E+00  0.26358658802E+04  0.26358658802E+04  0.25500000920E-02 0. -1.
        2   -1    0    0  501    0  0.00000000000E+00  0.00000000000E+00 -0.15283435621E+04  0.15283435621E+04  0.25500000920E-02 0.  1.
    10030    2    1    2    0    0  0.00000000000E+00  0.00000000000E+00  0.11075223181E+04  0.41642094423E+04  0.40142290162E+04 0.  0.
        1    1    3    3  502    0  0.10893279393E+04  0.15887220729E+04  0.11385937896E+04  0.22376480961E+04  0.50400001928E-02 0. -1.
       -1    1    3    3    0  502 -0.10893279393E+04 -0.15887220729E+04 -0.31071471528E+02  0.19265613462E+04  0.50400001928E-02 0.  1.
</event>
<event>
 5   0  0.3399500E-08  0.4017839E+04  0.7818609E-02  0.8000957E-01
       -1   -1    0    0    0  501  0.00000000000E+00  0.00000000000E+00  0.21599006583E+04  0.21599006583E+04  0.50400001928E-02 0. -1.
        1   -1    0    0  501    0  0.00000000000E+00  0.00000000000E+00 -0.18684924344E+04  0.18684924344E+04  0.50400001928E-02 0.  1.
    10030    2    1    2    0    0  0.00000000000E+00  0.00000000000E+00  0.29140822383E+03  0.40283930927E+04  0.40178392397E+04 0.  0.
        3    1    3    3  502    0  0.19179712211E+04  0.22801904959E+03  0.69956055186E+03  0.20542617331E+04  0.10100000352E+00 0. -1.
       -3    1    3    3    0  502 -0.19179712211E+04 -0.22801904959E+03 -0.40815232803E+03  0.19741313596E+04  0.10100000352E+00 0.  1.
</event>
<event>
 5   0  0.3399500E-08  0.4011000E+04  0.7818609E-02  0.8002331E-01
        1   -1    0    0  501    0  0.00000000000E+00  0.00000000000E+00  0.17917885546E+04  0.17917885546E+04  0.50400001928E-02 0. -1.
       -1   -1    0    0    0  501  0.00000000000E+00  0.00000000000E+00 -0.22447014465E+04  0.22447014465E+04  0.50400001928E-02 0.  1.
    10030    2    1    2    0    0  0.00000000000E+00  0.00000000000E+00 -0.45291289192E+03  0.40364900011E+04  0.40110000550E+04 0.  0.
        2    1    3    3  502    0 -0.17499651683E+04  0.51013134863E+03 -0.10680835276E+04  0.21126794610E+04  0.25500000920E-02 0.  1.
       -2    1    3    3    0  502  0.17499651683E+04 -0.51013134863E+03  0.61517063573E+03  0.19238105401E+04  0.25500000920E-02 0. -1.
</event>
<event>
 5   0  0.3399500E-08  0.3979227E+04  0.7818609E-02  0.8008750E-01
       -1   -1    0    0    0  501  0.00000000000E+00  0.00000000000E+00  0.19584896581E+04  0.19584896581E+04  0.50400001928E-02 0. -1.
        1   -1    0    0  501    0  0.00000000000E+00  0.00000000000E+00 -0.20212319059E+04  0.20212319059E+04  0.50400001928E-02 0.  1.
    10030    2    1    2    0    0  0.00000000000E+00  0.00000000000E+00 -0.62742247788E+02  0.39797215640E+04  0.39792269522E+04 0.  0.
        4    1    3    3  502    0  0.11929627209E+04  0.12217906563E+04  0.98984722702E+03  0.19737607775E+04  0.12699999809E+01 0. -1.
       -4    1    3    3    0  502 -0.11929627209E+04 -0.12217906563E+04 -0.10525894748E+04  0.20059607864E+04  0.12699999809E+01 0.  1.
</event>
<event>
 5   0  0.3399500E-08  0.4024374E+04  0.7818609E-02  0.7999648E-01
       -1   -1    0    0    0  501  0.00000000000E+00  0.00000000000E+00  0.20674514996E+04  0.20674514996E+04  0.50400001928E-02 0. -1.
        1   -1    0    0  501    0  0.00000000000E+00  0.00000000000E+00 -0.19583997600E+04  0.19583997600E+04  0.50400001928E-02 0.  1.
    10030    2    1    2    0    0  0.00000000000E+00  0.00000000000E+00  0.10905173962E+03  0.40258512596E+04  0.40243739989E+04 0.  0.
        4    1    3    3  502    0  0.92437506200E+02  0.93747225906E+03  0.18332381676E+04  0.20611071591E+04  0.12699999809E+01 0. -1.
       -4    1    3    3    0  502 -0.92437506200E+02 -0.93747225906E+03 -0.17241864280E+04  0.19647441005E+04  0.12699999809E+01 0.  1.
</event>
<event>
 5   0  0.3399500E-08  0.4106986E+04  0.7818609E-02  0.7983305E-01
        1   -1    0    0  501    0  0.00000000000E+00  0.00000000000E+00  0.25745064119E+04  0.25745064119E+04  0.50400001928E-02 0. -1.
       -1   -1    0    0    0  501  0.00000000000E+00  0.00000000000E+00 -0.16379191707E+04  0.16379191707E+04  0.50400001928E-02 0.  1.
    10030    2    1    2    0    0  0.00000000000E+00  0.00000000000E+00  0.93658724125E+03  0.42124255826E+04  0.41069859542E+04 0.  0.
        1    1    3    3  502    0 -0.63187097845E+03  0.34195627355E+03  0.24413856783E+04  0.25449084574E+04  0.50400001928E-02 0. -1.
       -1    1    3    3    0  502  0.63187097845E+03 -0.34195627355E+03 -0.15047984371E+04  0.16675171251E+04  0.50400001928E-02 0.  1.
</event>
<event>
 5   0  0.3399500E-08  0.4069603E+04  0.7818609E-02  0.7990651E-01
       -1   -1    0    0    0  501  0.00000000000E+00  0.00000000000E+00  0.20545677490E+04  0.20545677490E+04  0.50400001928E-02 0. -1.
        1   -1    0    0  501    0  0.00000000000E+00  0.00000000000E+00 -0.20152254013E+04  0.20152254013E+04  0.50400001928E-02 0.  1.
    10030    2    1    2    0    0  0.00000000000E+00  0.00000000000E+00  0.39342347650E+02  0.40697931503E+04  0.40696029863E+04 0.  0.
        3    1    3    3  502    0 -0.52909946362E+03  0.86606610087E+03  0.17833863052E+04  0.20519462608E+04  0.10100000352E+00 0. -1.
       -3    1    3    3    0  502  0.52909946362E+03 -0.86606610087E+03 -0.17440439575E+04  0.20178468895E+04  0.10100000352E+00 0.  1.
</event>
<event>
 5   0  0.3399500E-08  0.4008858E+04  0.7818609E-02  0.8002762E-01
       -1   -1    0    0    0  501  0.00000000000E+00  0.00000000000E+00  0.21127880958E+04  0.21127880958E+04  0.50400001928E-02 0.  1.
        1   -1    0    0  501    0  0.00000000000E+00  0.00000000000E+00 -0.19016271704E+04  0.19016271705E+04  0.50400001928E-02 0. -1.
    10030    2    1    2    0    0  0.00000000000E+00  0.00000000000E+00  0.21116092536E+03  0.40144152663E+04  0.40088578166E+04 0.  0.
        4    1    3    3  502    0 -0.14459744295E+04  0.14005174175E+02 -0.12843983391E+04  0.19340938194E+04  0.12699999809E+01 0. -1.
       -4    1    3    3    0  502  0.14459744295E+04 -0.14005174175E+02  0.14955592645E+04  0.20803214469E+04  0.12699999809E+01 0.  1.
</event>
<event>
 5   0  0.1095903E-07  0.4015907E+04  0.7818609E-02  0.8001345E-01
        2   -1    0    0  501    0  0.00000000000E+00  0.00000000000E+00  0.18174794698E+04  0.18174794698E+04  0.25500000920E-02 0. -1.
       -2   -1    0    0    0  501  0.00000000000E+00  0.00000000000E+00 -0.22183899734E+04  0.22183899734E+04  0.25500000920E-02 0.  1.
    10030    2    1    2    0    0  0.00000000000E+00  0.00000000000E+00 -0.40091050363E+03  0.40358694432E+04  0.40159074853E+04 0.  0.
        3    1    3    3  502    0 -0.15199082924E+04 -0.53007032270E+03  0.10058372143E+04  0.18981054439E+04  0.10100000352E+00 0. -1.
       -3    1    3    3    0  502  0.15199082924E+04  0.53007032270E+03 -0.14067477179E+04  0.21377639992E+04  0.10100000352E+00 0.  1.
</event>
<event>
 5   0  0.3399500E-08  0.4001778E+04  0.7818609E-02  0.8004188E-01
       -1   -1    0    0    0  501  0.00000000000E+00  0.00000000000E+00  0.18595912252E+04  0.18595912252E+04  0.50400001928E-02 0. -1.
        1   -1    0    0  501    0  0.00000000000E+00  0.00000000000E+00 -0.21529233071E+04  0.21529233071E+04  0.50400001928E-02 0.  1.
    10030    2    1    2    0    0  0.00000000000E+00  0.00000000000E+00 -0.29333208186E+03  0.40125145323E+04  0.40017782499E+04 0.  0.
        2    1    3    3  502    0  0.19933102336E+03 -0.13816427451E+04  0.12906678016E+04  0.19011819761E+04  0.25500000920E-02 0. -1.
       -2    1    3    3    0  502 -0.19933102336E+03  0.13816427451E+04 -0.15839998835E+04  0.21113325562E+04  0.25500000920E-02 0.  1.
</event>
<event>
 5   0  0.3399500E-08  0.3977712E+04  0.7818609E-02  0.8009058E-01
        1   -1    0    0  501    0  0.00000000000E+00  0.00000000000E+00  0.16182235171E+04  0.16182235171E+04  0.50400001928E-02 0.  1.
       -1   -1    0    0    0  501  0.00000000000E+00  0.00000000000E+00 -0.24443763261E+04  0.24443763261E+04  0.50400001928E-02 0. -1.
    10030    2    1    2    0    0  0.00000000000E+00  0.00000000000E+00 -0.82615280905E+03  0.40625998432E+04  0.39777115307E+04 0.  0.
        3    1    3    3  502    0 -0.16104317350E+04 -0.10720321434E+04 -0.88422794073E+03  0.21271112690E+04  0.10100000352E+00 0. -1.
       -3    1    3    3    0  502  0.16104317350E+04  0.10720321434E+04  0.58075131682E+02  0.19354885741E+04  0.10100000352E+00 0.  1.
</event>
<event>
 5   0  0.3399500E-08  0.3989068E+04  0.7818609E-02  0.8006756E-01
       -1   -1    0    0    0  501  0.00000000000E+00  0.00000000000E+00  0.28103605894E+04  0.28103605894E+04  0.50400001928E-02 0. -1.
        1   -1    0    0  501    0  0.00000000000E+00  0.00000000000E+00 -0.14155354748E+04  0.14155354749E+04  0.50400001928E-02 0.  1.
    10030    2    1    2    0    0  0.00000000000E+00  0.00000000000E+00  0.13948251145E+04  0.42258960642E+04  0.39890676161E+04 0.  0.
        2    1    3    3  502    0 -0.86813719413E+03 -0.91610093529E+03  0.23335337054E+04  0.26529761902E+04  0.25500000920E-02 0. -1.
       -2    1    3    3    0  502  0.86813719413E+03  0.91610093529E+03 -0.93870859089E+03  0.15729198740E+04  0.25500000920E-02 0.  1.
</event>
<event>
 5   0  0.1073271E-07  0.4014213E+04  0.7818609E-02  0.8001685E-01
       -2   -1    0    0    0  501  0.00000000000E+00  0.00000000000E+00  0.20424928680E+04  0.20424928680E+04  0.25500000920E-02 0. -1.
        2   -1    0    0  501    0  0.00000000000E+00  0.00000000000E+00 -0.19723332142E+04  0.19723332142E+04  0.25500000920E-02 0.  1.
    10030    2    1    2    0    0  0.00000000000E+00  0.00000000000E+00  0.70159653785E+02  0.40148260822E+04  0.40142130105E+04 0.  0.
        1    1    3    3  502    0  0.15618087981E+03  0.16330578888E+04  0.11916326659E+04  0.20276239656E+04  0.50400001928E-02 0. -1.
       -1    1    3    3    0  502 -0.15618087981E+03 -0.16330578888E+04 -0.11214730121E+04  0.19872021166E+04  0.50400001928E-02 0.  1.
</event>
<event>
 5   0  0.3399500E-08  0.4007764E+04  0.7818609E-02  0.8002982E-01
        1   -1    0    0  501    0  0.00000000000E+00  0.00000000000E+00  0.21439707644E+04  0.21439707644E+04  0.50400001928E-02 0. -1.
       -1   -1    0    0    0  501  0.00000000000E+00  0.00000000000E+00 -0.18729470857E+04  0.18729470857E+04  0.50400001928E-02 0.  1.
    10030    2    1    2    0    0  0.00000000000E+00  0.00000000000E+00  0.27102367870E+03  0.40169178501E+04  0.40077643619E+04 0.  0.
        3    1    3    3  502    0  0.13771082747E+04  0.15238776660E+03 -0.13155151334E+04  0.19105573292E+04  0.10100000352E+00 0.  1.
       -3    1    3    3    0  502 -0.13771082747E+04 -0.15238776660E+03  0.15865388121E+04  0.21063605209E+04  0.10100000352E+00 0. -1.
</event>
<event>
 5   0  0.1087688E-07  0.3945975E+04  0.7818609E-02  0.8015535E-01
       -2   -1    0    0    0  501  0.00000000000E+00  0.00000000000E+00  0.13980473650E+04  0.13980473650E+04  0.25500000920E-02 0.  1.
        2   -1    0    0  501    0  0.00000000000E+00  0.00000000000E+00 -0.27843693881E+04  0.27843693881E+04  0.25500000920E-02 0. -1.
    10030    2    1    2    0    0  0.00000000000E+00  0.00000000000E+00 -0.13863220231E+04  0.41824167531E+04  0.39459753097E+04 0.  0.
        2    1    3    3  502    0 -0.91594675880E+03 -0.68926382936E+03 -0.23951943533E+04  0.26553717407E+04  0.25500000920E-02 0. -1.
       -2    1    3    3    0  502  0.91594675880E+03  0.68926382936E+03  0.10088723301E+04  0.15270450124E+04  0.25500000920E-02 0.  1.
</event>
<event>
 5   0  0.3399500E-08  0.3880908E+04  0.7818609E-02  0.8029012E-01
       -1   -1    0    0    0  501  0.00000000000E+00  0.00000000000E+00  0.36151216245E+04  0.36151216245E+04  0.50400001928E-02 0. -1.
        1   -1    0    0  501    0  0.00000000000E+00  0.00000000000E+00 -0.10415585855E+04  0.10415585856E+04  0.50400001928E-02 0.  1.
    10030    2    1    2    0    0  0.00000000000E+00  0.00000000000E+00  0.25735630389E+04  0.46566802100E+04  0.38809076082E+04 0.  0.
        1    1    3    3  502    0  0.14445936448E+04  0.75882216637E+03  0.25467846328E+04  0.30246940085E+04  0.50400001928E-02 0. -1.
       -1    1    3    3    0  502 -0.14445936448E+04 -0.75882216637E+03  0.26778406066E+02  0.16319862015E+04  0.50400001928E-02 0.  1.
</event>
<event>
 5   0  0.3399500E-08  0.3998349E+04  0.7818609E-02  0.8004880E-01
       -1   -1    0    0    0  501  0.00000000000E+00  0.00000000000E+00  0.14231478126E+04  0.14231478126E+04  0.50400001928E-02 0. -1.
        1   -1    0    0  501    0  0.00000000000E+00  0.00000000000E+00 -0.28083511897E+04  0.28083511897E+04  0.50400001928E-02 0.  1.
    10030    2    1    2    0    0  0.00000000000E+00  0.00000000000E+00 -0.13852033770E+04  0.42314990023E+04  0.39983490856E+04 0.  0.
        3    1    3    3  502    0  0.17353799169E+04 -0.81209964141E+03 -0.12965347171E+04  0.23134501434E+04  0.10100000352E+00 0. -1.
       -3    1    3    3    0  502 -0.17353799169E+04  0.81209964141E+03 -0.88668659974E+02  0.19180488588E+04  0.10100000352E+00 0.  1.
</event>
<event>
 5   0  0.1095903E-07  0.4015970E+04  0.7818609E-02  0.8001333E-01
       -2   -1    0    0    0  501  0.00000000000E+00  0.00000000000E+00  0.15968852072E+04  0.15968852072E+04  0.25500000920E-02 0.  1.
        2   -1    0    0  501    0  0.00000000000E+00  0.00000000000E+00 -0.25249179966E+04  0.25249179966E+04  0.25500000920E-02 0. -1.
    10030    2    1    2    0    0  0.00000000000E+00  0.00000000000E+00 -0.92803278938E+03  0.41218032038E+04  0.40159702181E+04 0.  0.
        3    1    3    3  502    0  0.11399698154E+04  0.44915309654E+03  0.11687349951E+04  0.16932841413E+04  0.10100000352E+00 0.  1.
       -3    1    3    3    0  502 -0.11399698154E+04 -0.44915309654E+03 -0.20967677845E+04  0.24285190624E+04  0.10100000352E+00 0. -1.
</event>
<event>
 5   0  0.1095109E-07  0.4048628E+04  0.7818609E-02  0.7994808E-01
        2   -1    0    0  501    0  0.00000000000E+00  0.00000000000E+00  0.19018146934E+04  0.19018146934E+04  0.25500000920E-02 0.  1.
       -2   -1    0    0    0  501  0.00000000000E+00  0.00000000000E+00 -0.21547032736E+04  0.21547032736E+04  0.25500000920E-02 0. -1.
    10030    2    1    2    0    0  0.00000000000E+00  0.00000000000E+00 -0.25288858017E+03  0.40565179670E+04  0.40486275925E+04 0.  0.
        4    1    3    3  502    0  0.21882035747E+03 -0.97417124058E+03  0.16379398677E+04  0.19182649916E+04  0.12699999809E+01 0.  1.
       -4    1    3    3    0  502 -0.21882035747E+03  0.97417124058E+03 -0.18908284479E+04  0.21382529754E+04  0.12699999809E+01 0. -1.
</event>
<event>
 5   0  0.3399500E-08  0.4014239E+04  0.7818609E-02  0.8001680E-01
       -1   -1    0    0    0  501  0.00000000000E+00  0.00000000000E+00  0.21877245055E+04  0.21877245055E+04  0.50400001928E-02 0. -1.
        1   -1    0    0  501    0  0.00000000000E+00  0.00000000000E+00 -0.18414245108E+04  0.18414245108E+04  0.50400001928E-02 0.  1.
    10030    2    1    2    0    0  0.00000000000E+00  0.00000000000E+00  0.34629999470E+03  0.40291490162E+04  0.40142394185E+04 0.  0.
        1    1    3    3  502    0  0.13520175331E+04 -0.13908118223E+04 -0.34473207992E+03  0.19700632329E+04  0.50400001928E-02 0. -1.
       -1    1    3    3    0  502 -0.13520175331E+04  0.13908118223E+04  0.69103207462E+03  0.20590857833E+04  0.50400001928E-02 0.  1.
</event>
<event>
 5   0  0.3399500E-08  0.3999944E+04  0.7818609E-02  0.8004558E-01
        1   -1    0    0  501    0  0.00000000000E+00  0.00000000000E+00  0.14850533229E+04  0.14850533229E+04  0.50400001928E-02 0.  1.
       -1   -1    0    0    0  501  0.00000000000E+00  0.00000000000E+00 -0.26934306862E+04  0.26934306862E+04  0.50400001928E-02 0. -1.
    10030    2    1    2    0    0  0.00000000000E+00  0.00000000000E+00 -0.12083773633E+04  0.41784840090E+04  0.39999440948E+04 0.  0.
        5    1    3    3  502    0  0.17516478704E+04 -0.88708105779E+03 -0.10015390582E+04  0.22041519095E+04  0.46999998093E+01 0. -1.
       -5    1    3    3    0  502 -0.17516478704E+04  0.88708105779E+03 -0.20683830513E+03  0.19743320996E+04  0.46999998093E+01 0.  1.
</event>
<event>
 5   0  0.1095903E-07  0.3986287E+04  0.7818609E-02  0.8007319E-01
       -2   -1    0    0    0  501  0.00000000000E+00  0.00000000000E+00  0.19363390789E+04  0.19363390789E+04  0.25500000920E-02 0.  1.
        2   -1    0    0  501    0  0.00000000000E+00  0.00000000000E+00 -0.20516141447E+04  0.20516141447E+04  0.25500000920E-02 0. -1.
    10030    2    1    2    0    0  0.00000000000E+00  0.00000000000E+00 -0.11527506584E+03  0.39879532236E+04  0.39862868152E+04 0.  0.
        3    1    3    3  502    0 -0.17304035600E+04 -0.34823627942E+03  0.86852247220E+03  0.19672051956E+04  0.10100000352E+00 0.  1.
       -3    1    3    3    0  502  0.17304035600E+04  0.34823627942E+03 -0.98379753804E+03  0.20207480280E+04  0.10100000352E+00 0. -1.
</event>
<event>
 5   0  0.3399500E-08  0.4010911E+04  0.7818609E-02  0.8002349E-01
        1   -1    0    0  501    0  0.00000000000E+00  0.00000000000E+00  0.28939296429E+04  0.28939296429E+04  0.50400001928E-02 0. -1.
       -1   -1    0    0    0  501  0.00000000000E+00  0.00000000000E+00 -0.13897544000E+04  0.13897544000E+04  0.50400001928E-02 0.  1.
    10030    2    1    2    0    0  0.00000000000E+00  0.00000000000E+00  0.15041752429E+04  0.42836840429E+04  0.40109108464E+04 0.  0.
        4    1    3    3  502    0 -0.64814584736E+02 -0.17431113125E+04  0.18089361695E+04  0.25129444196E+04  0.12699999809E+01 0. -1.
       -4    1    3    3    0  502  0.64814584736E+02  0.17431113125E+04 -0.30476092658E+03  0.17707396232E+04  0.12699999809E+01 0.  1.
</event>
<event>
 5   0  0.1095903E-07  0.4100919E+04  0.7818609E-02  0.7984492E-01
       -2   -1    0    0    0  501  0.00000000000E+00  0.00000000000E+00  0.26137709629E+04  0.26137709629E+04  0.25500000920E-02 0. -1.
        2   -1    0    0  501    0  0.00000000000E+00  0.00000000000E+00 -0.16085509732E+04  0.16085509732E+04  0.25500000920E-02 0.  1.
    10030    2    1    2    0    0  0.00000000000E+00  0.00000000000E+00  0.10052199897E+04  0.42223219361E+04  0.41009188366E+04 0.  0.
        3    1    3    3  502    0  0.33768941610E+02  0.66040048439E+03  0.25009739604E+04  0.25869170651E+04  0.10100000352E+00 0. -1.
       -3    1    3    3    0  502 -0.33768941610E+02 -0.66040048439E+03 -0.14957539707E+04  0.16354048710E+04  0.10100000352E+00 0.  1.
</event>
<event>
 5   0  0.3399500E-08  0.4007014E+04  0.7818609E-02  0.8003133E-01
       -1   -1    0    0    0  501  0.00000000000E+00  0.00000000000E+00  0.17338079230E+04  0.17338079230E+04  0.50400001928E-02 0.  1.
        1   -1    0    0  501    0  0.00000000000E+00  0.00000000000E+00 -0.23151584821E+04  0.23151584821E+04  0.50400001928E-02 0. -1.
    10030    2    1    2    0    0  0.00000000000E+00  0.00000000000E+00 -0.58135055914E+03  0.40489664051E+04  0.40070139102E+04 0.  0.
        2    1    3    3  502    0 -0.66563417965E+03 -0.29348281669E+03 -0.21769923215E+04  0.22953205860E+04  0.25500000920E-02 0. -1.
       -2    1    3    3    0  502  0.66563417965E+03  0.29348281669E+03  0.15956417624E+04  0.17536458190E+04  0.25500000920E-02 0.  1.
</event>
<event>
 5   0  0.1101474E-07  0.3810471E+04  0.7818609E-02  0.8043912E-01
       -2   -1    0    0    0  501  0.00000000000E+00  0.00000000000E+00  0.21575709035E+04  0.21575709035E+04  0.25500000920E-02 0.  1.
        2   -1    0    0  501    0  0.00000000000E+00  0.00000000000E+00 -0.16824118497E+04  0.16824118497E+04  0.25500000920E-02 0. -1.
    10030    2    1    2    0    0  0.00000000000E+00  0.00000000000E+00  0.47515905381E+03  0.38399827532E+04  0.38104712856E+04 0.  0.
        5    1    3    3  502    0  0.18077377167E+04  0.72982651175E+02  0.83941385793E+03  0.19944622921E+04  0.46999998093E+01 0.  1.
       -5    1    3    3    0  502 -0.18077377167E+04 -0.72982651175E+02 -0.36425480412E+03  0.18455204610E+04  0.46999998093E+01 0. -1.
</event>
<event>
 5   0  0.3399500E-08  0.4000879E+04  0.7818609E-02  0.8004369E-01
        1   -1    0    0  501    0  0.00000000000E+00  0.00000000000E+00  0.23389836801E+04  0.23389836801E+04  0.50400001928E-02 0. -1.
       -1   -1    0    0    0  501  0.00000000000E+00  0.00000000000E+00 -0.17108959436E+04  0.17108959436E+04  0.50400001928E-02 0.  1.
    10030    2    1    2    0    0  0.00000000000E+00  0.00000000000E+00  0.62808773649E+03  0.40498796237E+04  0.40008787487E+04 0.  0.
        1    1    3    3  502    0  0.62348871746E+03  0.95873853342E+03 -0.13473500574E+04  0.17672775485E+04  0.50400001928E-02 0.  1.
       -1    1    3    3    0  502 -0.62348871746E+03 -0.95873853342E+03  0.19754377939E+04  0.22826020752E+04  0.50400001928E-02 0. -1.
</event>
<event>
 5   0  0.3399500E-08  0.4040513E+04  0.7818609E-02  0.7996423E-01
       -1   -1    0    0    0  501  0.00000000000E+00  0.00000000000E+00  0.17777059318E+04  0.17777059318E+04  0.50400001928E-02 0. -1.
        1   -1    0    0  501    0  0.00000000000E+00  0.00000000000E+00 -0.22959009143E+04  0.22959009143E+04  0.50400001928E-02 0.  1.
    10030    2    1    2    0    0  0.00000000000E+00  0.00000000000E+00 -0.51819498252E+03  0.40736068460E+04  0.40405131724E+04 0.  0.
        1    1    3    3  502    0 -0.77766996279E+03 -0.46779742473E+02  0.16201645986E+04  0.17977464343E+04  0.50400001928E-02 0. -1.
       -1    1    3    3    0  502  0.77766996279E+03  0.46779742473E+02 -0.21383595812E+04  0.22758604117E+04  0.50400001928E-02 0.  1.
</event>
<event>
 5   0  0.1095903E-07  0.3967674E+04  0.7818609E-02  0.8011100E-01
       -2   -1    0    0    0  501  0.00000000000E+00  0.00000000000E+00  0.16817501665E+04  0.16817501665E+04  0.25500000920E-02 0.  1.
        2   -1    0    0  501    0  0.00000000000E+00  0.00000000000E+00 -0.23401870320E+04  0.23401870320E+04  0.25500000920E-02 0. -1.
    10030    2    1    2    0    0  0.00000000000E+00  0.00000000000E+00 -0.65843686544E+03  0.40219371985E+04  0.39676743469E+04 0.  0.
        3    1    3    3  502    0  0.13482019055E+04 -0.13445516729E+04  0.23530216925E+03  0.19185501558E+04  0.10100000352E+00 0.  1.
       -3    1    3    3    0  502 -0.13482019055E+04  0.13445516729E+04 -0.89373903470E+03  0.21033870427E+04  0.10100000352E+00 0. -1.
</event>
<event>
 5   0  0.3399500E-08  0.4030805E+04  0.7818609E-02  0.7998361E-01
       -1   -1    0    0    0  501  0.00000000000E+00  0.00000000000E+00  0.20221452688E+04  0.20221452688E+04  0.50400001928E-02 0. -1.
        1   -1    0    0  501    0  0.00000000000E+00  0.00000000000E+00 -0.20086825359E+04  0.20086825359E+04  0.50400001928E-02 0.  1.
    10030    2    1    2    0    0  0.00000000000E+00  0.00000000000E+00  0.13462732878E+02  0.40308278047E+04  0.40308053223E+04 0.  0.
        4    1    3    3  502    0  0.14326387746E+04 -0.94245885644E+03  0.10655874596E+04  0.20189504208E+04  0.12699999809E+01 0.  1.
       -4    1    3    3    0  502 -0.14326387746E+04  0.94245885644E+03 -0.10521247267E+04  0.20118773839E+04  0.12699999809E+01 0. -1.
</event>
<event>
 5   0  0.3399500E-08  0.4035005E+04  0.7818609E-02  0.7997522E-01
       -1   -1    0    0    0  501  0.00000000000E+00  0.00000000000E+00  0.23992572842E+04  0.23992572842E+04  0.50400001928E-02 0.  1.
        1   -1    0    0  501    0  0.00000000000E+00  0.00000000000E+00 -0.16964902195E+04  0.16964902195E+04  0.50400001928E-02 0. -1.
    10030    2    1    2    0    0  0.00000000000E+00  0.00000000000E+00  0.70276706465E+03  0.40957475037E+04  0.40350050889E+04 0.  0.
        1    1    3    3  502    0 -0.63015111061E+02  0.63026931577E+03 -0.15929431215E+04  0.17142573036E+04  0.50400001928E-02 0. -1.
       -1    1    3    3    0  502  0.63015111061E+02 -0.63026931577E+03  0.22957101861E+04  0.23814902001E+04  0.50400001928E-02 0.  1.
</event>
<event>
 5   0  0.1101474E-07  0.3998661E+04  0.7818609E-02  0.8004817E-01
       -2   -1    0    0    0  501  0.00000000000E+00  0.00000000000E+00  0.21013651022E+04  0.21013651022E+04  0.25500000920E-02 0. -1.
        2   -1    0    0  501    0  0.00000000000E+00  0.00000000000E+00 -0.19022506168E+04  0.19022506168E+04  0.25500000920E-02 0.  1.
    10030    2    1    2    0    0  0.00000000000E+00  0.00000000000E+00  0.19911448545E+03  0.40036157190E+04  0.39986613068E+04 0.  0.
        5    1    3    3  502    0 -0.16430741935E+04 -0.53730074536E+03  0.11052499165E+04  0.20518246426E+04  0.46999998093E+01 0. -1.
       -5    1    3    3    0  502  0.16430741935E+04  0.53730074536E+03 -0.90613543108E+03  0.19517910763E+04  0.46999998093E+01 0.  1.
</event>
<event>
 5   0  0.3399500E-08  0.4003714E+04  0.7818609E-02  0.8003798E-01
       -1   -1    0    0    0  501  0.00000000000E+00  0.00000000000E+00  0.26483695529E+04  0.26483695529E+04  0.50400001928E-02 0.  1.
        1   -1    0    0  501    0  0.00000000000E+00  0.00000000000E+00 -0.15131692055E+04  0.15131692055E+04  0.50400001928E-02 0. -1.
    10030    2    1    2    0    0  0.00000000000E+00  0.00000000000E+00  0.11352003474E+04  0.41615387584E+04  0.40037139019E+04 0.  0.
        5    1    3    3  502    0  0.12639913263E+04 -0.15504343352E+04  0.48783894677E+03  0.20590118088E+04  0.46999998093E+01 0. -1.
       -5    1    3    3    0  502 -0.12639913263E+04  0.15504343352E+04  0.64736140063E+03  0.21025269496E+04  0.46999998093E+01 0.  1.
</event>
<event>
 5   0  0.1095903E-07  0.4061414E+04  0.7818609E-02  0.7992271E-01
       -2   -1    0    0    0  501  0.00000000000E+00  0.00000000000E+00  0.14673829171E+04  0.14673829171E+04  0.25500000920E-02 0.  1.
        2   -1    0    0  501    0  0.00000000000E+00  0.00000000000E+00 -0.28102895234E+04  0.28102895234E+04  0.25500000920E-02 0. -1.
    10030    2    1    2    0    0  0.00000000000E+00  0.00000000000E+00 -0.13429066063E+04  0.42776724405E+04  0.40614139600E+04 0.  0.
        3    1    3    3  502    0 -0.30248062458E+03 -0.18413808680E+04  0.17219222539E+03  0.18739872470E+04  0.10100000352E+00 0.  1.
       -3    1    3    3    0  502  0.30248062458E+03  0.18413808680E+04 -0.15150988317E+04  0.24036851935E+04  0.10100000352E+00 0. -1.
</event>
<event>
 5   0  0.3399500E-08  0.3972940E+04  0.7818609E-02  0.8010028E-01
        1   -1    0    0  501    0  0.00000000000E+00  0.00000000000E+00  0.28622335166E+04  0.28622335166E+04  0.50400001928E-02 0.  1.
       -1   -1    0    0    0  501  0.00000000000E+00  0.00000000000E+00 -0.13786654501E+04  0.13786654501E+04  0.50400001928E-02 0. -1.
    10030    2    1    2    0    0  0.00000000000E+00  0.00000000000E+00  0.14835680665E+04  0.42408989667E+04  0.39729396973E+04 0.  0.
        2    1    3    3  502    0  0.87896262295E+03  0.15879982258E+04 -0.11997545463E+03  0.18189853676E+04  0.25500000920E-02 0. -1.
       -2    1    3    3    0  502 -0.87896262295E+03 -0.15879982258E+04  0.16035435212E+04  0.24219135992E+04  0.25500000920E-02 0.  1.
</event>
<event>
 5   0  0.3399500E-08  0.3982642E+04  0.7818609E-02  0.8008057E-01
        1   -1    0    0  501    0  0.00000000000E+00  0.00000000000E+00  0.21488775624E+04  0.21488775624E+04  0.50400001928E-02 0. -1.
       -1   -1    0    0    0  501  0.00000000000E+00  0.00000000000E+00 -0.18453161450E+04  0.18453161450E+04  0.50400001928E-02 0.  1.
    10030    2    1    2    0    0  0.00000000000E+00  0.00000000000E+00  0.30356141739E+03  0.39941937074E+04  0.39826415653E+04 0.  0.
        4    1    3    3  502    0  0.15889206378E+04  0.88664902445E+03 -0.65960343239E+03  0.19354311114E+04  0.12699999809E+01 0.  1.
       -4    1    3    3    0  502 -0.15889206378E+04 -0.88664902445E+03  0.96316484978E+03  0.20587625960E+04  0.12699999809E+01 0. -1.
</event>
<event>
 5   0  0.3399500E-08  0.4024170E+04  0.7818609E-02  0.7999688E-01
        1   -1    0    0  501    0  0.00000000000E+00  0.00000000000E+00  0.26824674794E+04  0.26824674794E+04  0.50400001928E-02 0.  1.
       -1   -1    0    0    0  501  0.00000000000E+00  0.00000000000E+00 -0.15092397032E+04  0.15092397032E+04  0.50400001928E-02 0. -1.
    10030    2    1    2    0    0  0.00000000000E+00  0.00000000000E+00  0.11732277762E+04  0.41917071825E+04  0.40241701864E+04 0.  0.
        1    1    3    3  502    0  0.25020029025E+03 -0.16015362766E+04 -0.65505761701E+03  0.17483189389E+04  0.50400001928E-02 0. -1.
       -1    1    3    3    0  502 -0.25020029025E+03  0.16015362766E+04  0.18282853932E+04  0.24433882437E+04  0.50400001928E-02 0.  1.
</event>
<event>
 5   0  0.3399500E-08  0.3984922E+04  0.7818609E-02  0.8007595E-01
       -1   -1    0    0    0  501  0.00000000000E+00  0.00000000000E+00  0.18186722851E+04  0.18186722851E+04  0.50400001928E-02 0. -1.
        1   -1    0    0  501    0  0.00000000000E+00  0.00000000000E+00 -0.21828565448E+04  0.21828565448E+04  0.50400001928E-02 0.  1.
    10030    2    1    2    0    0  0.00000000000E+00  0.00000000000E+00 -0.36418425976E+03  0.40015288299E+04  0.39849219316E+04 0.  0.
        4    1    3    3  502    0  0.67435460247E+03  0.16068448976E+04  0.78795358655E+03  0.19124793129E+04  0.12699999809E+01 0. -1.
       -4    1    3    3    0  502 -0.67435460247E+03 -0.16068448976E+04 -0.11521378463E+04  0.20890495170E+04  0.12699999809E+01 0.  1.
</event>
<event>
 5   0  0.1087688E-07  0.3958702E+04  0.7818609E-02  0.8012930E-01
        2   -1    0    0  501    0  0.00000000000E+00  0.00000000000E+00  0.22639399622E+04  0.22639399622E+04  0.25500000920E-02 0.  1.
       -2   -1    0    0    0  501  0.00000000000E+00  0.00000000000E+00 -0.17305362878E+04  0.17305362878E+04  0.25500000920E-02 0. -1.
    10030    2    1    2    0    0  0.00000000000E+00  0.00000000000E+00  0.53340367436E+03  0.39944762501E+04  0.39587019378E+04 0.  0.
        2    1    3    3  502    0 -0.15737560012E+04 -0.84488009456E+03 -0.59382379944E+03  0.18823275566E+04  0.25500000920E-02 0. -1.
       -2    1    3    3    0  502  0.15737560012E+04  0.84488009456E+03  0.11272274738E+04  0.21121486935E+04  0.25500000920E-02 0.  1.
</event>
<event>
 5   0  0.1073271E-07  0.4092215E+04  0.7818609E-02  0.7986198E-01
        2   -1    0    0  501    0  0.00000000000E+00  0.00000000000E+00  0.26370629389E+04  0.26370629389E+04  0.25500000920E-02 0. -1.
       -2   -1    0    0    0  501  0.00000000000E+00  0.00000000000E+00 -0.15875831861E+04  0.15875831861E+04  0.25500000920E-02 0.  1.
    10030    2    1    2    0    0  0.00000000000E+00  0.00000000000E+00  0.10494797528E+04  0.42246461250E+04  0.40922154306E+04 0.  0.
        1    1    3    3  502    0  0.18738294427E+04  0.64809615974E+03  0.31250650754E+01  0.19827443553E+04  0.50400001928E-02 0.  1.
       -1    1    3    3    0  502 -0.18738294427E+04 -0.64809615974E+03  0.10463546877E+04  0.22419017697E+04  0.50400001928E-02 0. -1.
</event>
<event>
 5   0  0.1095903E-07  0.4108044E+04  0.7818609E-02  0.7983098E-01
       -2   -1    0    0    0  501  0.00000000000E+00  0.00000000000E+00  0.20661260368E+04  0.20661260368E+04  0.25500000920E-02 0. -1.
        2   -1    0    0  501    0  0.00000000000E+00  0.00000000000E+00 -0.20419887902E+04  0.20419887902E+04  0.25500000920E-02 0.  1.
    10030    2    1    2    0    0  0.00000000000E+00  0.00000000000E+00  0.24137246643E+02  0.41081148270E+04  0.41080439172E+04 0.  0.
        3    1    3    3  502    0 -0.70210846673E+03  0.12026823423E+04  0.15219307955E+04  0.20629286153E+04  0.10100000352E+00 0. -1.
       -3    1    3    3    0  502  0.70210846673E+03 -0.12026823423E+04 -0.14977935488E+04  0.20451862117E+04  0.10100000352E+00 0.  1.
</event>
<event>
 5   0  0.1073271E-07  0.3986859E+04  0.7818609E-02  0.8007203E-01
       -2   -1    0    0    0  501  0.00000000000E+00  0.00000000000E+00  0.18598729853E+04  0.18598729853E+04  0.25500000920E-02 0. -1.
        2   -1    0    0  501    0  0.00000000000E+00  0.00000000000E+00 -0.21365762657E+04  0.21365762657E+04  0.25500000920E-02 0.  1.
    10030    2    1    2    0    0  0.00000000000E+00  0.00000000000E+00 -0.27670328037E+03  0.39964492510E+04  0.39868586520E+04 0.  0.
        1    1    3    3  502    0  0.40300461020E+03 -0.17058036023E+04  0.81344910302E+03  0.19323245299E+04  0.50400001928E-02 0. -1.
       -1    1    3    3    0  502 -0.40300461020E+03  0.17058036023E+04 -0.10901523834E+04  0.20641247212E+04  0.50400001928E-02 0.  1.
</event>
<event>
 5   0  0.1095109E-07  0.4009308E+04  0.7818609E-02  0.8002671E-01
       -2   -1    0    0    0  501  0.00000000000E+00  0.00000000000E+00  0.15898019777E+04  0.15898019777E+04  0.25500000920E-02 0.  1.
        2   -1    0    0  501    0  0.00000000000E+00  0.00000000000E+00 -0.25277601935E+04  0.25277601935E+04  0.25500000920E-02 0. -1.
    10030    2    1    2    0    0  0.00000000000E+00  0.00000000000E+00 -0.93795821576E+03  0.41175621712E+04  0.40093082470E+04 0.  0.
        4    1    3    3  502    0 -0.32274832813E+03 -0.11512534842E+04 -0.21214884069E+04  0.24352136953E+04  0.12699999809E+01 0. -1.
       -4    1    3    3    0  502  0.32274832813E+03  0.11512534842E+04  0.11835301911E+04  0.16823484759E+04  0.12699999809E+01 0.  1.
</event>
<event>
 5   0  0.3399500E-08  0.4088039E+04  0.7818609E-02  0.7987018E-01
       -1   -1    0    0    0  501  0.00000000000E+00  0.00000000000E+00  0.23196469126E+04  0.23196469126E+04  0.50400001928E-02 0.  1.
        1   -1    0    0  501    0  0.00000000000E+00  0.00000000000E+00 -0.18011431371E+04  0.18011431371E+04  0.50400001928E-02 0. -1.
    10030    2    1    2    0    0  0.00000000000E+00  0.00000000000E+00  0.51850377550E+03  0.41207900497E+04  0.40880391961E+04 0.  0.
        3    1    3    3  502    0 -0.32042124929E+03 -0.95273402778E+03  0.20532981357E+04  0.22861332308E+04  0.10100000352E+00 0.  1.
       -3    1    3    3    0  502  0.32042124929E+03  0.95273402778E+03 -0.15347943602E+04  0.18346568189E+04  0.10100000352E+00 0. -1.
</event>
<event>
 5   0  0.3399500E-08  0.3996897E+04  0.7818609E-02  0.8005173E-01
        1   -1    0    0  501    0  0.00000000000E+00  0.00000000000E+00  0.29276580643E+04  0.29276580643E+04  0.50400001928E-02 0.  1.
       -1   -1    0    0    0  501  0.00000000000E+00  0.00000000000E+00 -0.13641610045E+04  0.13641610045E+04  0.50400001928E-02 0. -1.
    10030    2    1    2    0    0  0.00000000000E+00  0.00000000000E+00  0.15634970598E+04  0.42918190689E+04  0.39968972796E+04 0.  0.
        1    1    3    3  502    0  0.20223854073E+03  0.57953626165E+02 -0.13522374495E+04  0.13685047205E+04  0.50400001928E-02 0. -1.
       -1    1    3    3    0  502 -0.20223854073E+03 -0.57953626165E+02  0.29157345093E+04  0.29233143483E+04  0.50400001928E-02 0.  1.
</event>
<event>
 5   0  0.3399500E-08  0.4012994E+04  0.7818609E-02  0.8001930E-01
       -1   -1    0    0    0  501  0.00000000000E+00  0.00000000000E+00  0.14437654466E+04  0.14437654467E+04  0.50400001928E-02 0.  1.
        1   -1    0    0  501    0  0.00000000000E+00  0.00000000000E+00 -0.27885629333E+04  0.27885629333E+04  0.50400001928E-02 0. -1.
    10030    2    1    2    0    0  0.00000000000E+00  0.00000000000E+00 -0.13447974866E+04  0.42323283799E+04  0.40129942980E+04 0.  0.
        1    1    3    3  502    0  0.84712618792E+03 -0.29091864712E+03  0.12212225702E+04  0.15144771387E+04  0.50400001928E-02 0.  1.
       -1    1    3    3    0  502 -0.84712618792E+03  0.29091864712E+03 -0.25660200568E+04  0.27178512413E+04  0.50400001928E-02 0. -1.
</event>
<event>
 5   0  0.3399500E-08  0.3979076E+04  0.7818609E-02  0.8008781E-01
       -1   -1    0    0    0  501  0.00000000000E+00  0.00000000000E+00  0.23500878833E+04  0.23500878833E+04  0.50400001928E-02 0. -1.
        1   -1    0    0  501    0  0.00000000000E+00  0.00000000000E+00 -0.16843039047E+04  0.16843039047E+04  0.50400001928E-02 0.  1.
    10030    2    1    2    0    0  0.00000000000E+00  0.00000000000E+00  0.66578397864E+03  0.40343917880E+04  0.39790763744E+04 0.  0.
        4    1    3    3  502    0  0.66415750503E+03 -0.17590455510E+04  0.99225093200E+03  0.21260079885E+04  0.12699999809E+01 0. -1.
       -4    1    3    3    0  502 -0.66415750503E+03  0.17590455510E+04 -0.32646695336E+03  0.19083837996E+04  0.12699999809E+01 0.  1.
</event>
<event>
 5   0  0.3399500E-08  0.3876290E+04  0.7818609E-02  0.8029979E-01
       -1   -1    0    0    0  501  0.00000000000E+00  0.00000000000E+00  0.16131783377E+04  0.16131783377E+04  0.50400001928E-02 0. -1.
        1   -1    0    0  501    0  0.00000000000E+00  0.00000000000E+00 -0.23285742181E+04  0.23285742181E+04  0.50400001928E-02 0.  1.
    10030    2    1    2    0    0  0.00000000000E+00  0.00000000000E+00 -0.71539588036E+03  0.39417525558E+04  0.38762897138E+04 0.  0.
        3    1    3    3  502    0 -0.11396690080E+04 -0.13079312105E+03  0.12308794238E+04  0.16825624668E+04  0.10100000352E+00 0. -1.
       -3    1    3    3    0  502  0.11396690080E+04  0.13079312105E+03 -0.19462753042E+04  0.22591900890E+04  0.10100000352E+00 0.  1.
</event>
<event>
 5   0  0.1095109E-07  0.3984620E+04  0.7818609E-02  0.8007656E-01
       -2   -1    0    0    0  501  0.00000000000E+00  0.00000000000E+00  0.15234754145E+04  0.15234754145E+04  0.25500000920E-02 0.  1.
        2   -1    0    0  501    0  0.00000000000E+00  0.00000000000E+00 -0.26054237796E+04  0.26054237796E+04  0.25500000920E-02 0. -1.
    10030    2    1    2    0    0  0.00000000000E+00  0.00000000000E+00 -0.10819483651E+04  0.41288991941E+04  0.39846199681E+04 0.  0.
        4    1    3    3  502    0  0.13596121155E+04 -0.13063645950E+04  0.12588401406E+03  0.18897041984E+04  0.12699999809E+01 0.  1.
       -4    1    3    3    0  502 -0.13596121155E+04  0.13063645950E+04 -0.12078323791E+04  0.22391949957E+04  0.12699999809E+01 0. -1.
</event>
<event>
 5   0  0.3399500E-08  0.4004165E+04  0.7818609E-02  0.8003707E-01
        1   -1    0    0  501    0  0.00000000000E+00  0.00000000000E+00  0.16469452921E+04  0.16469452921E+04  0.50400001928E-02 0. -1.
       -1   -1    0    0    0  501  0.00000000000E+00  0.00000000000E+00 -0.24337991805E+04  0.24337991805E+04  0.50400001928E-02 0.  1.
    10030    2    1    2    0    0  0.00000000000E+00  0.00000000000E+00 -0.78685388838E+03  0.40807444726E+04  0.40041648829E+04 0.  0.
        2    1    3    3  502    0  0.10008854543E+04  0.31317331634E+03 -0.21314712934E+04  0.23755039662E+04  0.25500000920E-02 0.  1.
       -2    1    3    3    0  502 -0.10008854543E+04 -0.31317331634E+03  0.13446174051E+04  0.17052405064E+04  0.25500000920E-02 0. -1.
</event>
<event>
 5   0  0.3399500E-08  0.4000024E+04  0.7818609E-02  0.8004542E-01
        1   -1    0    0  501    0  0.00000000000E+00  0.00000000000E+00  0.12819094526E+04  0.12819094527E+04  0.50400001928E-02 0.  1.
       -1   -1    0    0    0  501  0.00000000000E+00  0.00000000000E+00 -0.31203821205E+04  0.31203821205E+04  0.50400001928E-02 0. -1.
    10030    2    1    2    0    0  0.00000000000E+00  0.00000000000E+00 -0.18384726678E+04  0.44022915731E+04  0.40000236680E+04 0.  0.
        3    1    3    3  502    0  0.84557774354E+03  0.17288513634E+04 -0.32034357366E+03  0.19510378706E+04  0.10100000352E+00 0. -1.
       -3    1    3    3    0  502 -0.84557774354E+03 -0.17288513634E+04 -0.15181290942E+04  0.24512537025E+04  0.10100000352E+00 0.  1.
</event>
<event>
 5   0  0.1101474E-07  0.3993923E+04  0.7818609E-02  0.8005774E-01
        2   -1    0    0  501    0  0.00000000000E+00  0.00000000000E+00  0.32841071391E+04  0.32841071391E+04  0.25500000920E-02 0.  1.
       -2   -1    0    0    0  501  0.00000000000E+00  0.00000000000E+00 -0.12142891216E+04  0.12142891216E+04  0.25500000920E-02 0. -1.
    10030    2    1    2    0    0  0.00000000000E+00  0.00000000000E+00  0.20698180175E+04  0.44983962607E+04  0.39939231707E+04 0.  0.
        5    1    3    3  502    0 -0.13755125436E+03  0.19895545208E+04  0.11507928311E+04  0.23025190051E+04  0.46999998093E+01 0.  1.
       -5    1    3    3    0  502  0.13755125436E+03 -0.19895545208E+04  0.91902518631E+03  0.21958772556E+04  0.46999998093E+01 0. -1.
</event>
<event>
 5   0  0.3399500E-08  0.3983552E+04  0.7818609E-02  0.8007873E-01
       -1   -1    0    0    0  501  0.00000000000E+00  0.00000000000E+00  0.30423547302E+04  0.30423547302E+04  0.50400001928E-02 0. -1.
        1   -1    0    0  501    0  0.00000000000E+00  0.00000000000E+00 -0.13039803347E+04  0.13039803347E+04  0.50400001928E-02 0.  1.
    10030    2    1    2    0    0  0.00000000000E+00  0.00000000000E+00  0.17383743955E+04  0.43463350649E+04  0.39835515507E+04 0.  0.
        2    1    3    3  502    0 -0.13255425206E+04 -0.12417095059E+04 -0.22735481516E+02  0.18164312189E+04  0.25500000920E-02 0.  1.
       -2    1    3    3    0  502  0.13255425206E+04  0.12417095059E+04  0.17611098770E+04  0.25299038460E+04  0.25500000920E-02 0. -1.
</event>
<event>
 5   0  0.3399500E-08  0.3996087E+04  0.7818609E-02  0.8005336E-01
        1   -1    0    0  501    0  0.00000000000E+00  0.00000000000E+00  0.25920868690E+04  0.25920868690E+04  0.50400001928E-02 0. -1.
       -1   -1    0    0    0  501  0.00000000000E+00  0.00000000000E+00 -0.15401408044E+04  0.15401408044E+04  0.50400001928E-02 0.  1.
    10030    2    1    2    0    0  0.00000000000E+00  0.00000000000E+00  0.10519460646E+04  0.41322276734E+04  0.39960874643E+04 0.  0.
        5    1    3    3  502    0 -0.18014796336E+04 -0.82207890870E+03  0.80153637078E+03  0.21362643203E+04  0.46999998093E+01 0. -1.
       -5    1    3    3    0  502  0.18014796336E+04  0.82207890870E+03  0.25040969382E+03  0.19959633531E+04  0.46999998093E+01 0.  1.
</event>
<event>
 5   0  0.3399500E-08  0.3969396E+04  0.7818609E-02  0.8010749E-01
        1   -1    0    0  501    0  0.00000000000E+00  0.00000000000E+00  0.24195158691E+04  0.24195158691E+04  0.50400001928E-02 0. -1.
       -1   -1    0    0    0  501  0.00000000000E+00  0.00000000000E+00 -0.16280220448E+04  0.16280220448E+04  0.50400001928E-02 0.  1.
    10030    2    1    2    0    0  0.00000000000E+00  0.00000000000E+00  0.79149382434E+03  0.40475379139E+04  0.39693955069E+04 0.  0.
        5    1    3    3  502    0 -0.20391572043E+03  0.90102455659E+03 -0.13954143599E+04  0.16735083503E+04  0.46999998093E+01 0.  1.
       -5    1    3    3    0  502  0.20391572043E+03 -0.90102455659E+03  0.21869081842E+04  0.23740295636E+04  0.46999998093E+01 0. -1.
</event>
<event>
 5   0  0.1087688E-07  0.3987994E+04  0.7818609E-02  0.8006973E-01
        2   -1    0    0  501    0  0.00000000000E+00  0.00000000000E+00  0.17326526595E+04  0.17326526595E+04  0.25500000920E-02 0. -1.
       -2   -1    0    0    0  501  0.00000000000E+00  0.00000000000E+00 -0.22947617075E+04  0.22947617075E+04  0.25500000920E-02 0.  1.
    10030    2    1    2    0    0  0.00000000000E+00  0.00000000000E+00 -0.56210904802E+03  0.40274143670E+04  0.39879944711E+04 0.  0.
        2    1    3    3  502    0  0.44495989171E+03  0.59868256634E+03 -0.21485534682E+04  0.22743553210E+04  0.25500000920E-02 0.  1.
       -2    1    3    3    0  502 -0.44495989171E+03 -0.59868256634E+03  0.15864444202E+04  0.17530590460E+04  0.25500000920E-02 0. -1.
</event>
<event>
 5   0  0.1087688E-07  0.4001059E+04  0.7818609E-02  0.8004333E-01
       -2   -1    0    0    0  501  0.00000000000E+00  0.00000000000E+00  0.17049316500E+04  0.17049316500E+04  0.25500000920E-02 0. -1.
        2   -1    0    0  501    0  0.00000000000E+00  0.00000000000E+00 -0.23473773109E+04  0.23473773109E+04  0.25500000920E-02 0.  1.
    10030    2    1    2    0    0  0.00000000000E+00  0.00000000000E+00 -0.64244566086E+03  0.40523089609E+04  0.40010587958E+04 0.  0.
        2    1    3    3  502    0  0.30089218641E+03  0.13260940964E+04  0.11649020351E+04  0.17905469588E+04  0.25500000920E-02 0. -1.
       -2    1    3    3    0  502 -0.30089218641E+03 -0.13260940964E+04 -0.18073476959E+04  0.22617620021E+04  0.25500000920E-02 0.  1.
</event>
<event>
 5   0  0.1095903E-07  0.4005913E+04  0.7818609E-02  0.8003355E-01
        2   -1    0    0  501    0  0.00000000000E+00  0.00000000000E+00  0.21527819924E+04  0.21527819924E+04  0.25500000920E-02 0.  1.
       -2   -1    0    0    0  501  0.00000000000E+00  0.00000000000E+00 -0.18635586782E+04  0.18635586782E+04  0.25500000920E-02 0. -1.
    10030    2    1    2    0    0  0.00000000000E+00  0.00000000000E+00  0.28922331418E+03  0.40163406707E+04  0.40059134111E+04 0.  0.
        3    1    3    3  502    0 -0.30192351156E+03 -0.18896105345E+04 -0.44857843284E+03  0.19654537389E+04  0.10100000352E+00 0. -1.
       -3    1    3    3    0  502  0.30192351156E+03  0.18896105345E+04  0.73780174702E+03  0.20508869318E+04  0.10100000352E+00 0.  1.
</event>
<event>
 5   0  0.1095109E-07  0.3896899E+04  0.7818609E-02  0.8025674E-01
       -2   -1    0    0    0  501  0.00000000000E+00  0.00000000000E+00  0.13969343141E+04  0.13969343141E+04  0.25500000920E-02 0. -1.
        2   -1    0    0  501    0  0.00000000000E+00  0.00000000000E+00 -0.27177051279E+04  0.27177051279E+04  0.25500000920E-02 0.  1.
    10030    2    1    2    0    0  0.00000000000E+00  0.00000000000E+00 -0.13207708138E+04  0.41146394420E+04  0.38968990486E+04 0.  0.
        4    1    3    3  502    0 -0.19343092492E+04  0.22166868540E+03 -0.58021770877E+03  0.20315864442E+04  0.12699999809E+01 0.  1.
       -4    1    3    3    0  502  0.19343092492E+04 -0.22166868540E+03 -0.74055310507E+03  0.20830529979E+04  0.12699999809E+01 0. -1.
</event>
<event>
 5   0  0.3399500E-08  0.4022455E+04  0.7818609E-02  0.8000032E-01
       -1   -1    0    0    0  501  0.00000000000E+00  0.00000000000E+00  0.17494930499E+04  0.17494930500E+04  0.50400001928E-02 0. -1.
        1   -1    0    0  501    0  0.00000000000E+00  0.00000000000E+00 -0.23121187803E+04  0.23121187803E+04  0.50400001928E-02 0.  1.
    10030    2    1    2    0    0  0.00000000000E+00  0.00000000000E+00 -0.56262573032E+03  0.40616118302E+04  0.40224548409E+04 0.  0.
        3    1    3    3  502    0 -0.19248768642E+04  0.29345845165E+01 -0.86997702833E+03  0.21123493069E+04  0.10100000352E+00 0.  1.
       -3    1    3    3    0  502  0.19248768642E+04 -0.29345845165E+01  0.30735129801E+03  0.19492625233E+04  0.10100000352E+00 0. -1.
</event>
<event>
 5   0  0.1095109E-07  0.3970745E+04  0.7818609E-02  0.8010474E-01
        2   -1    0    0  501    0  0.00000000000E+00  0.00000000000E+00  0.23441363694E+04  0.23441363694E+04  0.25500000920E-02 0.  1.
       -2   -1    0    0    0  501  0.00000000000E+00  0.00000000000E+00 -0.16815164357E+04  0.16815164357E+04  0.25500000920E-02 0. -1.
    10030    2    1    2    0    0  0.00000000000E+00  0.00000000000E+00  0.66261993367E+03  0.40256528051E+04  0.39707449340E+04 0.  0.
        4    1    3    3  502    0  0.44531473061E+03 -0.39889782485E+03 -0.15880884881E+04  0.16968946175E+04  0.12699999809E+01 0. -1.
       -4    1    3    3    0  502 -0.44531473061E+03  0.39889782485E+03  0.22507084217E+04  0.23287581877E+04  0.12699999809E+01 0.  1.
</event>
<event>
 5   0  0.3399500E-08  0.4009995E+04  0.7818609E-02  0.8002533E-01
       -1   -1    0    0    0  501  0.00000000000E+00  0.00000000000E+00  0.20882366964E+04  0.20882366964E+04  0.50400001928E-02 0.  1.
        1   -1    0    0  501    0  0.00000000000E+00  0.00000000000E+00 -0.19250767408E+04  0.19250767408E+04  0.50400001928E-02 0. -1.
    10030    2    1    2    0    0  0.00000000000E+00  0.00000000000E+00  0.16315995569E+03  0.40133134372E+04  0.40099954581E+04 0.  0.
        4    1    3    3  502    0 -0.13366905295E+04 -0.12153554434E+04  0.95188782382E+03  0.20420388017E+04  0.12699999809E+01 0.  1.
       -4    1    3    3    0  502  0.13366905295E+04  0.12153554434E+04 -0.78872786813E+03  0.19712746355E+04  0.12699999809E+01 0. -1.
</event>
<event>
 5   0  0.1073271E-07  0.4007501E+04  0.7818609E-02  0.8003035E-01
       -2   -1    0    0    0  501  0.00000000000E+00  0.00000000000E+00  0.23664743618E+04  0.23664743618E+04  0.25500000920E-02 0.  1.
        2   -1    0    0  501    0  0.00000000000E+00  0.00000000000E+00 -0.16966238354E+04  0.16966238354E+04  0.25500000920E-02 0. -1.
    10030    2    1    2    0    0  0.00000000000E+00  0.00000000000E+00  0.66985052637E+03  0.40630981973E+04  0.40075013703E+04 0.  0.
        1    1    3    3  502    0 -0.99768256546E+03  0.11680585721E+04  0.16393532003E+04  0.22465997073E+04  0.50400001928E-02 0.  1.
       -1    1    3    3    0  502  0.99768256546E+03 -0.11680585721E+04 -0.96950267393E+03  0.18164984900E+04  0.50400001928E-02 0. -1.
</event>
<event>
 5   0  0.3399500E-08  0.3951484E+04  0.7818609E-02  0.8014406E-01
       -1   -1    0    0    0  501  0.00000000000E+00  0.00000000000E+00  0.16418600508E+04  0.16418600508E+04  0.50400001928E-02 0. -1.
        1   -1    0    0  501    0  0.00000000000E+00  0.00000000000E+00 -0.23775212537E+04  0.23775212538E+04  0.50400001928E-02 0.  1.
    10030    2    1    2    0    0  0.00000000000E+00  0.00000000000E+00 -0.73566120292E+03  0.40193813046E+04  0.39514843624E+04 0.  0.
        5    1    3    3  502    0 -0.17865665504E+04  0.78034983374E+03 -0.69391526581E+03  0.20693734289E+04  0.46999998093E+01 0.  1.
       -5    1    3    3    0  502  0.17865665504E+04 -0.78034983374E+03 -0.41745937110E+02  0.19500078757E+04  0.46999998093E+01 0. -1.
</event>
<event>
 5   0  0.1095903E-07  0.3995391E+04  0.7818609E-02  0.8005477E-01
        2   -1    0    0  501    0  0.00000000000E+00  0.00000000000E+00  0.21511810404E+04  0.21511810404E+04  0.25500000920E-02 0.  1.
       -2   -1    0    0    0  501  0.00000000000E+00  0.00000000000E+00 -0.18551607392E+04  0.18551607392E+04  0.25500000920E-02 0. -1.
    10030    2    1    2    0    0  0.00000000000E+00  0.00000000000E+00  0.29602030116E+03  0.40063417796E+04  0.39953906487E+04 0.  0.
        3    1    3    3  502    0  0.45006986499E+03  0.16510953450E+03  0.20926458405E+04  0.21468559956E+04  0.10100000352E+00 0.  1.
       -3    1    3    3    0  502 -0.45006986499E+03 -0.16510953450E+03 -0.17966255394E+04  0.18594857839E+04  0.10100000352E+00 0. -1.
</event>
<event>
 5   0  0.3399500E-08  0.4003764E+04  0.7818609E-02  0.8003788E-01
        1   -1    0    0  501    0  0.00000000000E+00  0.00000000000E+00  0.25399935215E+04  0.25399935215E+04  0.50400001928E-02 0. -1.
       -1   -1    0    0    0  501  0.00000000000E+00  0.00000000000E+00 -0.15777720303E+04  0.15777720303E+04  0.50400001928E-02 0.  1.
    10030    2    1    2    0    0  0.00000000000E+00  0.00000000000E+00  0.96222149118E+03  0.41177655519E+04  0.40037635972E+04 0.  0.
        5    1    3    3  502    0 -0.13544997121E+04 -0.14711251994E+04  0.57665270463E+03  0.20812086041E+04  0.46999998093E+01 0. -1.
       -5    1    3    3    0  502  0.13544997121E+04  0.14711251994E+04  0.38556878655E+03  0.20365569477E+04  0.46999998093E+01 0.  1.
</event>
<event>
 5   0  0.1073271E-07  0.3946816E+04  0.7818609E-02  0.8015362E-01
       -2   -1    0    0    0  501  0.00000000000E+00  0.00000000000E+00  0.20730488975E+04  0.20730488975E+04  0.25500000920E-02 0.  1.
        2   -1    0    0  501    0  0.00000000000E+00  0.00000000000E+00 -0.18785563767E+04  0.18785563767E+04  0.25500000920E-02 0. -1.
    10030    2    1    2    0    0  0.00000000000E+00  0.00000000000E+00  0.19449252075E+03  0.39516052742E+04  0.39468160462E+04 0.  0.
        1    1    3    3  502    0 -0.32601870501E+03 -0.19458599452E+04  0.13828506094E+03  0.19778225099E+04  0.50400001928E-02 0.  1.
       -1    1    3    3    0  502  0.32601870501E+03  0.19458599452E+04  0.56207459808E+02  0.19737827644E+04  0.50400001928E-02 0. -1.
</event>
<event>
 5   0  0.1095903E-07  0.3753220E+04  0.7818609E-02  0.8056269E-01
        2   -1    0    0  501    0  0.00000000000E+00  0.00000000000E+00  0.13887898164E+04  0.13887898164E+04  0.25500000920E-02 0. -1.
       -2   -1    0    0    0  501  0.00000000000E+00  0.00000000000E+00 -0.25357800734E+04  0.25357800734E+04  0.25500000920E-02 0.  1.
    10030    2    1    2    0    0  0.00000000000E+00  0.00000000000E+00 -0.11469902570E+04  0.39245698899E+04  0.37532202401E+04 0.  0.
        3    1    3    3  502    0  0.14765615250E+04 -0.20205028130E+03  0.61901234095E+03  0.16137640911E+04  0.10100000352E+00 0. -1.
       -3    1    3    3    0  502 -0.14765615250E+04  0.20205028130E+03 -0.17660025979E+04  0.23108057987E+04  0.10100000352E+00 0.  1.
</event>
<event>
 5   0  0.3399500E-08  0.4443901E+04  0.7818609E-02  0.7920532E-01
        1   -1    0    0  501    0  0.00000000000E+00  0.00000000000E+00  0.22478631518E+04  0.22478631518E+04  0.50400001928E-02 0.  1.
       -1   -1    0    0    0  501  0.00000000000E+00  0.00000000000E+00 -0.21963368787E+04  0.21963368787E+04  0.50400001928E-02 0. -1.
    10030    2    1    2    0    0  0.00000000000E+00  0.00000000000E+00  0.51526273126E+02  0.44442000305E+04  0.44439013214E+04 0.  0.
        4    1    3    3  502    0  0.14288482546E+04  0.14990983354E+04  0.83090108148E+03  0.22314348241E+04  0.12699999809E+01 0. -1.
       -4    1    3    3    0  502 -0.14288482546E+04 -0.14990983354E+04 -0.77937480835E+03  0.22127652064E+04  0.12699999809E+01 0.  1.
</event>
<event>
 5   0  0.3399500E-08  0.3986618E+04  0.7818609E-02  0.8007252E-01
       -1   -1    0    0    0  501  0.00000000000E+00  0.00000000000E+00  0.16742767116E+04  0.16742767116E+04  0.50400001928E-02 0. -1.
        1   -1    0    0  501    0  0.00000000000E+00  0.00000000000E+00 -0.23731327263E+04  0.23731327263E+04  0.50400001928E-02 0.  1.
    10030    2    1    2    0    0  0.00000000000E+00  0.00000000000E+00 -0.69885601469E+03  0.40474094379E+04  0.39866180440E+04 0.  0.
        2    1    3    3  502    0 -0.16437132224E+04  0.97132577687E+03  0.23203040608E+03  0.19233057561E+04  0.25500000920E-02 0. -1.
       -2    1    3    3    0  502  0.16437132224E+04 -0.97132577687E+03 -0.93088642077E+03  0.21241036817E+04  0.25500000920E-02 0.  1.
</event>
<event>
 5   0  0.1095109E-07  0.3976718E+04  0.7818609E-02  0.8009260E-01
       -2   -1    0    0    0  501  0.00000000000E+00  0.00000000000E+00  0.15722008633E+04  0.15722008633E+04  0.25500000920E-02 0.  1.
        2   -1    0    0  501    0  0.00000000000E+00  0.00000000000E+00 -0.25146737916E+04  0.25146737916E+04  0.25500000920E-02 0. -1.
    10030    2    1    2    0    0  0.00000000000E+00  0.00000000000E+00 -0.94247292829E+03  0.40868746549E+04  0.39767183989E+04 0.  0.
        4    1    3    3  502    0 -0.21909005166E+03  0.58127140274E+03  0.14699187649E+04  0.15957881071E+04  0.12699999809E+01 0.  1.
       -4    1    3    3    0  502  0.21909005166E+03 -0.58127140274E+03 -0.24123916932E+04  0.24910865478E+04  0.12699999809E+01 0. -1.
</event>
<event>
 5   0  0.1073271E-07  0.4025005E+04  0.7818609E-02  0.7999521E-01
        2   -1    0    0  501    0  0.00000000000E+00  0.00000000000E+00  0.25817355613E+04  0.25817355613E+04  0.25500000920E-02 0. -1.
       -2   -1    0    0    0  501  0.00000000000E+00  0.00000000000E+00 -0.15687768910E+04  0.15687768910E+04  0.25500000920E-02 0.  1.
    10030    2    1    2    0    0  0.00000000000E+00  0.00000000000E+00  0.10129586702E+04  0.41505124523E+04  0.40250053850E+04 0.  0.
        1    1    3    3  502    0 -0.10479450122E+04 -0.13826956877E+04  0.15581488138E+04  0.23319227773E+04  0.50400001928E-02 0. -1.
       -1    1    3    3    0  502  0.10479450122E+04  0.13826956877E+04 -0.54519014358E+03  0.18185896750E+04  0.50400001928E-02 0.  1.
</event>
<event>
 5   0  0.3399500E-08  0.4002181E+04  0.7818609E-02  0.8004107E-01
        1   -1    0    0  501    0  0.00000000000E+00  0.00000000000E+00  0.21858297699E+04  0.21858297699E+04  0.50400001928E-02 0. -1.
       -1   -1    0    0    0  501  0.00000000000E+00  0.00000000000E+00 -0.18319649509E+04  0.18319649509E+04  0.50400001928E-02 0.  1.
    10030    2    1    2    0    0  0.00000000000E+00  0.00000000000E+00  0.35386481898E+03  0.40177947208E+04  0.40021811688E+04 0.  0.
        1    1    3    3  502    0  0.13124357247E+04  0.67419296820E+03 -0.11801326246E+04  0.18893746854E+04  0.50400001928E-02 0.  1.
       -1    1    3    3    0  502 -0.13124357247E+04 -0.67419296820E+03  0.15339974436E+04  0.21284200354E+04  0.50400001928E-02 0. -1.
</event>
<event>
 5   0  0.1101474E-07  0.3959532E+04  0.7818609E-02  0.8012760E-01
       -2   -1    0    0    0  501  0.00000000000E+00  0.00000000000E+00  0.16383709099E+04  0.16383709099E+04  0.25500000920E-02 0.  1.
        2   -1    0    0  501    0  0.00000000000E+00  0.00000000000E+00 -0.23922988980E+04  0.23922988980E+04  0.25500000920E-02 0. -1.
    10030    2    1    2    0    0  0.00000000000E+00  0.00000000000E+00 -0.75392798814E+03  0.40306698079E+04  0.39595317512E+04 0.  0.
        5    1    3    3  502    0 -0.15304533281E+04 -0.10429352802E+04  0.33521196994E+03  0.18821239446E+04  0.46999998093E+01 0. -1.
       -5    1    3    3    0  502  0.15304533281E+04  0.10429352802E+04 -0.10891399581E+04  0.21485458632E+04  0.46999998093E+01 0.  1.
</event>
<event>
 5   0  0.3399500E-08  0.4023583E+04  0.7818609E-02  0.7999806E-01
       -1   -1    0    0    0  501  0.00000000000E+00  0.00000000000E+00  0.28267608187E+04  0.28267608187E+04  0.50400001928E-02 0. -1.
        1   -1    0    0  501    0  0.00000000000E+00  0.00000000000E+00 -0.14317819774E+04  0.14317819774E+04  0.50400001928E-02 0.  1.
    10030    2    1    2    0    0  0.00000000000E+00  0.00000000000E+00  0.13949788413E+04  0.42585427961E+04  0.40235830771E+04 0.  0.
        4    1    3    3  502    0 -0.93271400508E+03 -0.45343066933E+03 -0.11270535276E+04  0.15316024465E+04  0.12699999809E+01 0.  1.
       -4    1    3    3    0  502  0.93271400508E+03  0.45343066933E+03  0.25220323690E+04  0.27269403496E+04  0.12699999809E+01 0. -1.
</event>
<event>
 5   0  0.3399500E-08  0.4001662E+04  0.7818609E-02  0.8004211E-01
        1   -1    0    0  501    0  0.00000000000E+00  0.00000000000E+00  0.19566684257E+04  0.19566684257E+04  0.50400001928E-02 0. -1.
       -1   -1    0    0    0  501  0.00000000000E+00  0.00000000000E+00 -0.20459907492E+04  0.20459907492E+04  0.50400001928E-02 0.  1.
    10030    2    1    2    0    0  0.00000000000E+00  0.00000000000E+00 -0.89322323446E+02  0.40026591749E+04  0.40016624037E+04 0.  0.
        5    1    3    3  502    0  0.10013187809E+04 -0.14949391753E+04  0.83066879459E+03  0.19817959469E+04  0.46999998093E+01 0. -1.
       -5    1    3    3    0  502 -0.10013187809E+04  0.14949391753E+04 -0.91999111804E+03  0.20208632280E+04  0.46999998093E+01 0.  1.
</event>
<event>
 5   0  0.3399500E-08  0.3987913E+04  0.7818609E-02  0.8006989E-01
        1   -1    0    0  501    0  0.00000000000E+00  0.00000000000E+00  0.26431171087E+04  0.26431171088E+04  0.50400001928E-02 0. -1.
       -1   -1    0    0    0  501  0.00000000000E+00  0.00000000000E+00 -0.15042323474E+04  0.15042323474E+04  0.50400001928E-02 0.  1.
    10030    2    1    2    0    0  0.00000000000E+00  0.00000000000E+00  0.11388847613E+04  0.41473494562E+04  0.39879128642E+04 0.  0.
        2    1    3    3  502    0 -0.12154513649E+03 -0.96397176718E+03 -0.12413916357E+04  0.15764098392E+04  0.25500000920E-02 0.  1.
       -2    1    3    3    0  502  0.12154513649E+03  0.96397176718E+03  0.23802763970E+04  0.25709396170E+04  0.25500000920E-02 0. -1.
</event>
<event>
 5   0  0.1095109E-07  0.3759015E+04  0.7818609E-02  0.8055008E-01
        2   -1    0    0  501    0  0.00000000000E+00  0.00000000000E+00  0.13101667246E+04  0.13101667246E+04  0.25500000920E-02 0.  1.
       -2   -1    0    0    0  501  0.00000000000E+00  0.00000000000E+00 -0.26962589184E+04  0.26962589184E+04  0.25500000920E-02 0. -1.
    10030    2    1    2    0    0  0.00000000000E+00  0.00000000000E+00 -0.13860921938E+04  0.40064256430E+04  0.37590151454E+04 0.  0.
        4    1    3    3  502    0 -0.99144110503E+03  0.50629860993E+03  0.92097434265E+03  0.14448145555E+04  0.12699999809E+01 0.  1.
       -4    1    3    3    0  502  0.99144110503E+03 -0.50629860993E+03 -0.23070665364E+04  0.25616110875E+04  0.12699999809E+01 0. -1.
</event>
<event>
 5   0  0.3399500E-08  0.4003393E+04  0.7818609E-02  0.8003862E-01
        1   -1    0    0  501    0  0.00000000000E+00  0.00000000000E+00  0.28454676554E+04  0.28454676554E+04  0.50400001928E-02 0. -1.
       -1   -1    0    0    0  501  0.00000000000E+00  0.00000000000E+00 -0.14081304424E+04  0.14081304424E+04  0.50400001928E-02 0.  1.
    10030    2    1    2    0    0  0.00000000000E+00  0.00000000000E+00  0.14373372130E+04  0.42535980978E+04  0.40033933749E+04 0.  0.
        1    1    3    3  502    0 -0.17889906290E+04  0.23358471278E+03  0.16398859695E+04  0.24380884483E+04  0.50400001928E-02 0. -1.
       -1    1    3    3    0  502  0.17889906290E+04 -0.23358471278E+03 -0.20254875655E+03  0.18155096495E+04  0.50400001928E-02 0.  1.
</event>
<event>
 5   0  0.3399500E-08  0.4001906E+04  0.7818609E-02  0.8004162E-01
        1   -1    0    0  501    0  0.00000000000E+00  0.00000000000E+00  0.28656538061E+04  0.28656538061E+04  0.50400001928E-02 0. -1.
       -1   -1    0    0    0  501  0.00000000000E+00  0.00000000000E+00 -0.13971727025E+04  0.13971727025E+04  0.50400001928E-02 0.  1.
    10030    2    1    2    0    0  0.00000000000E+00  0.00000000000E+00  0.14684811036E+04  0.42628265086E+04  0.40019061821E+04 0.  0.
        5    1    3    3  502    0  0.12632033139E+04  0.70877519670E+03  0.22047346854E+04  0.26379768791E+04  0.46999998093E+01 0. -1.
       -5    1    3    3    0  502 -0.12632033139E+04 -0.70877519670E+03 -0.73625358181E+03  0.16248496294E+04  0.46999998093E+01 0.  1.
</event>
<event>
 5   0  0.1087688E-07  0.4004197E+04  0.7818609E-02  0.8003700E-01
       -2   -1    0    0    0  501  0.00000000000E+00  0.00000000000E+00  0.17583689571E+04  0.17583689571E+04  0.25500000920E-02 0.  1.
        2   -1    0    0  501    0  0.00000000000E+00  0.00000000000E+00 -0.22796120812E+04  0.22796120812E+04  0.25500000920E-02 0. -1.
    10030    2    1    2    0    0  0.00000000000E+00  0.00000000000E+00 -0.52124312410E+03  0.40379810382E+04  0.40041973566E+04 0.  0.
        2    1    3    3  502    0 -0.18813986460E+04  0.17638375124E+03  0.40649368592E+03  0.19328758909E+04  0.25500000920E-02 0.  1.
       -2    1    3    3    0  502  0.18813986460E+04 -0.17638375124E+03 -0.92773681002E+03  0.21051051474E+04  0.25500000920E-02 0. -1.
</event>
<event>
 5   0  0.1095109E-07  0.3912431E+04  0.7818609E-02  0.8022449E-01
        2   -1    0    0  501    0  0.00000000000E+00  0.00000000000E+00  0.14619487931E+04  0.14619487931E+04  0.25500000920E-02 0.  1.
       -2   -1    0    0    0  501  0.00000000000E+00  0.00000000000E+00 -0.26175879263E+04  0.26175879263E+04  0.25500000920E-02 0. -1.
    10030    2    1    2    0    0  0.00000000000E+00  0.00000000000E+00 -0.11556391332E+04  0.40795367194E+04  0.39124312185E+04 0.  0.
        4    1    3    3  502    0 -0.82399198651E+03  0.14546004039E+04 -0.16370587579E+04  0.23398265146E+04  0.12699999809E+01 0. -1.
       -4    1    3    3    0  502  0.82399198651E+03 -0.14546004039E+04  0.48141962470E+03  0.17397102048E+04  0.12699999809E+01 0.  1.
</event>
<event>
 5   0  0.3399500E-08  0.3946851E+04  0.7818609E-02  0.8015355E-01
        1   -1    0    0  501    0  0.00000000000E+00  0.00000000000E+00  0.20952796761E+04  0.20952796761E+04  0.50400001928E-02 0.  1.
       -1   -1    0    0    0  501  0.00000000000E+00  0.00000000000E+00 -0.18586579463E+04  0.18586579463E+04  0.50400001928E-02 0. -1.
    10030    2    1    2    0    0  0.00000000000E+00  0.00000000000E+00  0.23662172975E+03  0.39539376224E+04  0.39468510079E+04 0.  0.
        5    1    3    3  502    0 -0.56991261231E+01  0.20645906974E+03  0.20844167524E+04  0.20946295890E+04  0.46999998093E+01 0.  1.
       -5    1    3    3    0  502  0.56991261231E+01 -0.20645906974E+03 -0.18477950226E+04  0.18593080334E+04  0.46999998093E+01 0. -1.
</event>
<event>
 5   0  0.1095109E-07  0.3979189E+04  0.7818609E-02  0.8008758E-01
        2   -1    0    0  501    0  0.00000000000E+00  0.00000000000E+00  0.22589163784E+04  0.22589163784E+04  0.25500000920E-02 0.  1.
       -2   -1    0    0    0  501  0.00000000000E+00  0.00000000000E+00 -0.17523826003E+04  0.17523826003E+04  0.25500000920E-02 0. -1.
    10030    2    1    2    0    0  0.00000000000E+00  0.00000000000E+00  0.50653377807E+03  0.40112989786E+04  0.39791887399E+04 0.  0.
        4    1    3    3  502    0  0.15233815837E+04  0.34326545934E+03  0.14960827595E+04  0.21625882320E+04  0.12699999809E+01 0.  1.
       -4    1    3    3    0  502 -0.15233815837E+04 -0.34326545934E+03 -0.98954898138E+03  0.18487107466E+04  0.12699999809E+01 0. -1.
</event>
<event>
 5   0  0.3399500E-08  0.4042238E+04  0.7818609E-02  0.7996080E-01
       -1   -1    0    0    0  501  0.00000000000E+00  0.00000000000E+00  0.25828826690E+04  0.25828826690E+04  0.50400001928E-02 0.  1.
        1   -1    0    0  501    0  0.00000000000E+00  0.00000000000E+00 -0.15815359406E+04  0.15815359406E+04  0.50400001928E-02 0. -1.
    10030    2    1    2    0    0  0.00000000000E+00  0.00000000000E+00  0.10013467283E+04  0.41644186096E+04  0.40422378809E+04 0.  0.
        2    1    3    3  502    0  0.12011797893E+04 -0.12286360966E+04  0.15970498507E+04  0.23458362623E+04  0.25500000920E-02 0.  1.
       -2    1    3    3    0  502 -0.12011797893E+04  0.12286360966E+04 -0.59570312233E+03  0.18185823473E+04  0.25500000920E-02 0. -1.
</event>
<event>
 5   0  0.1101474E-07  0.3978800E+04  0.7818609E-02  0.8008837E-01
       -2   -1    0    0    0  501  0.00000000000E+00  0.00000000000E+00  0.31437436557E+04  0.31437436557E+04  0.25500000920E-02 0. -1.
        2   -1    0    0  501    0  0.00000000000E+00  0.00000000000E+00 -0.12589171037E+04  0.12589171037E+04  0.25500000920E-02 0.  1.
    10030    2    1    2    0    0  0.00000000000E+00  0.00000000000E+00  0.18848265520E+04  0.44026607594E+04  0.39788001497E+04 0.  0.
        5    1    3    3  502    0  0.71314221575E+03  0.77308587814E+02 -0.11108307714E+04  0.13223144597E+04  0.46999998093E+01 0.  1.
       -5    1    3    3    0  502 -0.71314221575E+03 -0.77308587814E+02  0.29956573234E+04  0.30803462998E+04  0.46999998093E+01 0. -1.
</event>
<event>
 5   0  0.3399500E-08  0.4087355E+04  0.7818609E-02  0.7987153E-01
       -1   -1    0    0    0  501  0.00000000000E+00  0.00000000000E+00  0.27078488789E+04  0.27078488789E+04  0.50400001928E-02 0. -1.
        1   -1    0    0  501    0  0.00000000000E+00  0.00000000000E+00 -0.15424112994E+04  0.15424112994E+04  0.50400001928E-02 0.  1.
    10030    2    1    2    0    0  0.00000000000E+00  0.00000000000E+00  0.11654375795E+04  0.42502601784E+04  0.40873545029E+04 0.  0.
        4    1    3    3  502    0 -0.19946383710E+04 -0.43233555281E+03  0.69236732470E+03  0.21551961364E+04  0.12699999809E+01 0. -1.
       -4    1    3    3    0  502  0.19946383710E+04  0.43233555281E+03  0.47307025478E+03  0.20950640420E+04  0.12699999809E+01 0.  1.
</event>
<event>
 5   0  0.1095903E-07  0.4049761E+04  0.7818609E-02  0.7994583E-01
       -2   -1    0    0    0  501  0.00000000000E+00  0.00000000000E+00  0.14551001691E+04  0.14551001691E+04  0.25500000920E-02 0. -1.
        2   -1    0    0  501    0  0.00000000000E+00  0.00000000000E+00 -0.28177719545E+04  0.28177719545E+04  0.25500000920E-02 0.  1.
    10030    2    1    2    0    0  0.00000000000E+00  0.00000000000E+00 -0.13626717854E+04  0.42728721236E+04  0.40497607077E+04 0.  0.
        3    1    3    3  502    0  0.32537960098E+03  0.18160770553E+04 -0.15616477365E+04  0.24171784003E+04  0.10100000352E+00 0.  1.
       -3    1    3    3    0  502 -0.32537960098E+03 -0.18160770553E+04  0.19897595112E+03  0.18556937233E+04  0.10100000352E+00 0. -1.
</event>
<event>
 5   0  0.3399500E-08  0.3987891E+04  0.7818609E-02  0.8006994E-01
        1   -1    0    0  501    0  0.00000000000E+00  0.00000000000E+00  0.26943654901E+04  0.26943654901E+04  0.50400001928E-02 0. -1.
       -1   -1    0    0    0  501  0.00000000000E+00  0.00000000000E+00 -0.14756046939E+04  0.14756046939E+04  0.50400001928E-02 0.  1.
    10030    2    1    2    0    0  0.00000000000E+00  0.00000000000E+00  0.12187607962E+04  0.41699701840E+04  0.39878908532E+04 0.  0.
        2    1    3    3  502    0 -0.18131587798E+04 -0.64506802684E+03  0.11548901365E+04  0.22444216955E+04  0.25500000920E-02 0. -1.
       -2    1    3    3    0  502  0.18131587798E+04  0.64506802684E+03  0.63870659797E+02  0.19255484884E+04  0.25500000920E-02 0.  1.
</event>
<event>
 5   0  0.1087688E-07  0.4002617E+04  0.7818609E-02  0.8004019E-01
        2   -1    0    0  501    0  0.00000000000E+00  0.00000000000E+00  0.13959379001E+04  0.13959379001E+04  0.25500000920E-02 0. -1.
       -2   -1    0    0    0  501  0.00000000000E+00  0.00000000000E+00 -0.28692071825E+04  0.28692071825E+04  0.25500000920E-02 0.  1.
    10030    2    1    2    0    0  0.00000000000E+00  0.00000000000E+00 -0.14732692824E+04  0.42651450826E+04  0.40026166688E+04 0.  0.
        2    1    3    3  502    0  0.45659402589E+03 -0.19468449024E+04 -0.82288729653E+03  0.21623659915E+04  0.25500000920E-02 0. -1.
       -2    1    3    3    0  502 -0.45659402589E+03  0.19468449024E+04 -0.65038198584E+03  0.21027790911E+04  0.25500000920E-02 0.  1.
</event>
<event>
 5   0  0.1095109E-07  0.3975586E+04  0.7818609E-02  0.8009490E-01
        2   -1    0    0  501    0  0.00000000000E+00  0.00000000000E+00  0.11074512941E+04  0.11074512941E+04  0.25500000920E-02 0.  1.
       -2   -1    0    0    0  501  0.00000000000E+00  0.00000000000E+00 -0.35679411041E+04  0.35679411041E+04  0.25500000920E-02 0. -1.
    10030    2    1    2    0    0  0.00000000000E+00  0.00000000000E+00 -0.24604898100E+04  0.46753923982E+04  0.39755859910E+04 0.  0.
        4    1    3    3  502    0  0.12943879588E+04 -0.14126935061E+04 -0.60775462593E+03  0.20101020940E+04  0.12699999809E+01 0.  1.
       -4    1    3    3    0  502 -0.12943879588E+04  0.14126935061E+04 -0.18527351841E+04  0.26652903041E+04  0.12699999809E+01 0. -1.
</event>
<event>
 5   0  0.1101474E-07  0.3993783E+04  0.7818609E-02  0.8005802E-01
        2   -1    0    0  501    0  0.00000000000E+00  0.00000000000E+00  0.15334244853E+04  0.15334244853E+04  0.25500000920E-02 0. -1.
       -2   -1    0    0    0  501  0.00000000000E+00  0.00000000000E+00 -0.26004385950E+04  0.26004385950E+04  0.25500000920E-02 0.  1.
    10030    2    1    2    0    0  0.00000000000E+00  0.00000000000E+00 -0.10670141096E+04  0.41338630803E+04  0.39937832761E+04 0.  0.
        5    1    3    3  502    0 -0.16240159149E+04 -0.94088616760E+03  0.17221309934E+03  0.18847742342E+04  0.46999998093E+01 0. -1.
       -5    1    3    3    0  502  0.16240159149E+04  0.94088616760E+03 -0.12392272090E+04  0.22490888461E+04  0.46999998093E+01 0.  1.
</event>
<event>
 5   0  0.3399500E-08  0.3995373E+04  0.7818609E-02  0.8005481E-01
       -1   -1    0    0    0  501  0.00000000000E+00  0.00000000000E+00  0.25203318942E+04  0.25203318942E+04  0.50400001928E-02 0.  1.
        1   -1    0    0  501    0  0.00000000000E+00  0.00000000000E+00 -0.15834227559E+04  0.15834227559E+04  0.50400001928E-02 0. -1.
    10030    2    1    2    0    0  0.00000000000E+00  0.00000000000E+00  0.93690913830E+03  0.41037546501E+04  0.39953727604E+04 0.  0.
        1    1    3    3  502    0  0.77607116110E+03 -0.44869806754E+02 -0.14216963840E+04  0.16203457517E+04  0.50400001928E-02 0. -1.
       -1    1    3    3    0  502 -0.77607116110E+03  0.44869806754E+02  0.23586055223E+04  0.24834088984E+04  0.50400001928E-02 0.  1.
</event>
<event>
 5   0  0.3399500E-08  0.3995215E+04  0.7818609E-02  0.8005513E-01
        1   -1    0    0  501    0  0.00000000000E+00  0.00000000000E+00  0.16749133531E+04  0.16749133531E+04  0.50400001928E-02 0. -1.
       -1   -1    0    0    0  501  0.00000000000E+00  0.00000000000E+00 -0.23824729622E+04  0.23824729623E+04  0.50400001928E-02 0.  1.
    10030    2    1    2    0    0  0.00000000000E+00  0.00000000000E+00 -0.70755960917E+03  0.40573863153E+04  0.39952150269E+04 0.  0.
        2    1    3    3  502    0 -0.10290817092E+04  0.66409273881E+03  0.12488802217E+04  0.17492084319E+04  0.25500000920E-02 0. -1.
       -2    1    3    3    0  502  0.10290817092E+04 -0.66409273881E+03 -0.19564398309E+04  0.23081778835E+04  0.25500000920E-02 0.  1.
</event>
<event>
 5   0  0.1101474E-07  0.4011277E+04  0.7818609E-02  0.8002275E-01
        2   -1    0    0  501    0  0.00000000000E+00  0.00000000000E+00  0.24237067902E+04  0.24237067902E+04  0.25500000920E-02 0. -1.
       -2   -1    0    0    0  501  0.00000000000E+00  0.00000000000E+00 -0.16596837152E+04  0.16596837152E+04  0.25500000920E-02 0.  1.
    10030    2    1    2    0    0  0.00000000000E+00  0.00000000000E+00  0.76402307509E+03  0.40833905054E+04  0.40112774474E+04 0.  0.
        5    1    3    3  502    0  0.19432075617E+03 -0.12785925976E+04  0.19425432808E+04  0.23336786571E+04  0.46999998093E+01 0. -1.
       -5    1    3    3    0  502 -0.19432075617E+03  0.12785925976E+04 -0.11785202057E+04  0.17497118483E+04  0.46999998093E+01 0.  1.
</event>
<event>
 5   0  0.3399500E-08  0.4005273E+04  0.7818609E-02  0.8003484E-01
        1   -1    0    0  501    0  0.00000000000E+00  0.00000000000E+00  0.20861340664E+04  0.20861340665E+04  0.50400001928E-02 0. -1.
       -1   -1    0    0    0  501  0.00000000000E+00  0.00000000000E+00 -0.19224808744E+04  0.19224808744E+04  0.50400001928E-02 0.  1.
    10030    2    1    2    0    0  0.00000000000E+00  0.00000000000E+00  0.16365319201E+03  0.40086149409E+04  0.40052729466E+04 0.  0.
        3    1    3    3  502    0  0.39458976220E+02  0.73204291768E+03 -0.17833563234E+04  0.19281606859E+04  0.10100000352E+00 0.  1.
       -3    1    3    3    0  502 -0.39458976220E+02 -0.73204291768E+03  0.19470095154E+04  0.20804542550E+04  0.10100000352E+00 0. -1.
</event>
<event>
 5   0  0.1073271E-07  0.3980073E+04  0.7818609E-02  0.8008579E-01
        2   -1    0    0  501    0  0.00000000000E+00  0.00000000000E+00  0.27777297431E+04  0.27777297431E+04  0.25500000920E-02 0.  1.
       -2   -1    0    0    0  501  0.00000000000E+00  0.00000000000E+00 -0.14257126834E+04  0.14257126834E+04  0.25500000920E-02 0. -1.
    10030    2    1    2    0    0  0.00000000000E+00  0.00000000000E+00  0.13520170597E+04  0.42034424266E+04  0.39800726254E+04 0.  0.
        1    1    3    3  502    0  0.37003925146E+03 -0.79691053273E+02  0.27393598720E+04  0.27653882585E+04  0.50400001928E-02 0.  1.
       -1    1    3    3    0  502 -0.37003925146E+03  0.79691053273E+02 -0.13873428123E+04  0.14380541681E+04  0.50400001928E-02 0. -1.
</event>
<event>
 5   0  0.3399500E-08  0.4034324E+04  0.7818609E-02  0.7997658E-01
        1   -1    0    0  501    0  0.00000000000E+00  0.00000000000E+00  0.19174842564E+04  0.19174842564E+04  0.50400001928E-02 0. -1.
       -1   -1    0    0    0  501  0.00000000000E+00  0.00000000000E+00 -0.21220211895E+04  0.21220211895E+04  0.50400001928E-02 0.  1.
    10030    2    1    2    0    0  0.00000000000E+00  0.00000000000E+00 -0.20453693304E+03  0.40395054459E+04  0.40343238455E+04 0.  0.
        1    1    3    3  502    0 -0.18739443406E+04  0.48907114267E+03  0.46244549169E+03  0.19911589105E+04  0.50400001928E-02 0.  1.
       -1    1    3    3    0  502  0.18739443406E+04 -0.48907114267E+03 -0.66698242473E+03  0.20483465354E+04  0.50400001928E-02 0. -1.
</event>
<event>
 5   0  0.1073271E-07  0.3989343E+04  0.7818609E-02  0.8006700E-01
        2   -1    0    0  501    0  0.00000000000E+00  0.00000000000E+00  0.32002864354E+04  0.32002864354E+04  0.25500000920E-02 0.  1.
       -2   -1    0    0    0  501  0.00000000000E+00  0.00000000000E+00 -0.12432368703E+04  0.12432368703E+04  0.25500000920E-02 0. -1.
    10030    2    1    2    0    0  0.00000000000E+00  0.00000000000E+00  0.19570495650E+04  0.44435233057E+04  0.39893428492E+04 0.  0.
        1    1    3    3  502    0 -0.16938560211E+04  0.20701581920E+03  0.21289260445E+04  0.27284299281E+04  0.50400001928E-02 0. -1.
       -1    1    3    3    0  502  0.16938560211E+04 -0.20701581920E+03 -0.17187647952E+03  0.17150933776E+04  0.50400001928E-02 0.  1.
</event>
<event>
 5   0  0.1073271E-07  0.4073682E+04  0.7818609E-02  0.7989845E-01
        2   -1    0    0  501    0  0.00000000000E+00  0.00000000000E+00  0.22520358149E+04  0.22520358149E+04  0.25500000920E-02 0.  1.
       -2   -1    0    0    0  501  0.00000000000E+00  0.00000000000E+00 -0.18422091728E+04  0.18422091728E+04  0.25500000920E-02 0. -1.
    10030    2    1    2    0    0  0.00000000000E+00  0.00000000000E+00  0.40982664203E+03  0.40942449877E+04  0.40736818903E+04 0.  0.
        1    1    3    3  502    0  0.21205431185E+03  0.12080058393E+04  0.18393064210E+04  0.22107223366E+04  0.50400001928E-02 0.  1.
       -1    1    3    3    0  502 -0.21205431185E+03 -0.12080058393E+04 -0.14294797790E+04  0.18835226512E+04  0.50400001928E-02 0. -1.
</event>
<event>
 5   0  0.1101474E-07  0.3981555E+04  0.7818609E-02  0.8008278E-01
        2   -1    0    0  501    0  0.00000000000E+00  0.00000000000E+00  0.29070618366E+04  0.29070618366E+04  0.25500000920E-02 0.  1.
       -2   -1    0    0    0  501  0.00000000000E+00  0.00000000000E+00 -0.13632988838E+04  0.13632988838E+04  0.25500000920E-02 0. -1.
    10030    2    1    2    0    0  0.00000000000E+00  0.00000000000E+00  0.15437629529E+04  0.42703607204E+04  0.39815545491E+04 0.  0.
        5    1    3    3  502    0 -0.17544309904E+03 -0.52357110981E+02 -0.13542438253E+04  0.13665723458E+04  0.46999998093E+01 0. -1.
       -5    1    3    3    0  502  0.17544309904E+03  0.52357110981E+02  0.28980067781E+04  0.29037883745E+04  0.46999998093E+01 0.  1.
</event>
<event>
 5   0  0.1095903E-07  0.4044896E+04  0.7818609E-02  0.7995550E-01
       -2   -1    0    0    0  501  0.00000000000E+00  0.00000000000E+00  0.15032149865E+04  0.15032149865E+04  0.25500000920E-02 0.  1.
        2   -1    0    0  501    0  0.00000000000E+00  0.00000000000E+00 -0.27210324378E+04  0.27210324378E+04  0.25500000920E-02 0. -1.
    10030    2    1    2    0    0  0.00000000000E+00  0.00000000000E+00 -0.12178174513E+04  0.42242474243E+04  0.40448964087E+04 0.  0.
        3    1    3    3  502    0 -0.13272700038E+04  0.14432201257E+04 -0.91178531149E+02  0.19628661515E+04  0.10100000352E+00 0. -1.
       -3    1    3    3    0  502  0.13272700038E+04 -0.14432201257E+04 -0.11266389201E+04  0.22613812727E+04  0.10100000352E+00 0.  1.
</event>
<event>
 5   0  0.3399500E-08  0.3945854E+04  0.7818609E-02  0.8015559E-01
        1   -1    0    0  501    0  0.00000000000E+00  0.00000000000E+00  0.13183803128E+04  0.13183803128E+04  0.50400001928E-02 0. -1.
       -1   -1    0    0    0  501  0.00000000000E+00  0.00000000000E+00 -0.29524423952E+04  0.29524423952E+04  0.50400001928E-02 0.  1.
    10030    2    1    2    0    0  0.00000000000E+00  0.00000000000E+00 -0.16340620824E+04  0.42708227080E+04  0.39458544974E+04 0.  0.
        4    1    3    3  502    0 -0.90820100684E+03  0.16535859139E+04 -0.19219618837E+03  0.18963429097E+04  0.12699999809E+01 0. -1.
       -4    1    3    3    0  502  0.90820100684E+03 -0.16535859139E+04 -0.14418658940E+04  0.23744797983E+04  0.12699999809E+01 0.  1.
</event>
<event>
 5   0  0.3399500E-08  0.3914715E+04  0.7818609E-02  0.8021976E-01
       -1   -1    0    0    0  501  0.00000000000E+00  0.00000000000E+00  0.13386686902E+04  0.13386686902E+04  0.50400001928E-02 0. -1.
        1   -1    0    0  501    0  0.00000000000E+00  0.00000000000E+00 -0.28619841857E+04  0.28619841857E+04  0.50400001928E-02 0.  1.
    10030    2    1    2    0    0  0.00000000000E+00  0.00000000000E+00 -0.15233154955E+04  0.42006528760E+04  0.39147151219E+04 0.  0.
        3    1    3    3  502    0 -0.13269867340E+04 -0.11140409923E+04 -0.17388138542E+04  0.24546801735E+04  0.10100000352E+00 0.  1.
       -3    1    3    3    0  502  0.13269867340E+04  0.11140409923E+04  0.21549835863E+03  0.17459727024E+04  0.10100000352E+00 0. -1.
</event>
<event>
 5   0  0.3399500E-08  0.4024657E+04  0.7818609E-02  0.7999591E-01
       -1   -1    0    0    0  501  0.00000000000E+00  0.00000000000E+00  0.19091945656E+04  0.19091945656E+04  0.50400001928E-02 0. -1.
        1   -1    0    0  501    0  0.00000000000E+00  0.00000000000E+00 -0.21210336585E+04  0.21210336586E+04  0.50400001928E-02 0.  1.
    10030    2    1    2    0    0  0.00000000000E+00  0.00000000000E+00 -0.21183909293E+03  0.40302282242E+04  0.40246569714E+04 0.  0.
        2    1    3    3  502    0  0.75694546282E+03  0.10737353771E+04  0.14205238024E+04  0.19348803495E+04  0.25500000920E-02 0. -1.
       -2    1    3    3    0  502 -0.75694546282E+03 -0.10737353771E+04 -0.16323628953E+04  0.20953478747E+04  0.25500000920E-02 0.  1.
</event>
<event>
 5   0  0.3399500E-08  0.3993495E+04  0.7818609E-02  0.8005860E-01
       -1   -1    0    0    0  501  0.00000000000E+00  0.00000000000E+00  0.14374174783E+04  0.14374174783E+04  0.50400001928E-02 0.  1.
        1   -1    0    0  501    0  0.00000000000E+00  0.00000000000E+00 -0.27737243009E+04  0.27737243010E+04  0.50400001928E-02 0. -1.
    10030    2    1    2    0    0  0.00000000000E+00  0.00000000000E+00 -0.13363068226E+04  0.42111417793E+04  0.39934946051E+04 0.  0.
        3    1    3    3  502    0  0.13157437099E+04 -0.86115740227E+03  0.62945047986E+03  0.16938068067E+04  0.10100000352E+00 0.  1.
       -3    1    3    3    0  502 -0.13157437099E+04  0.86115740227E+03 -0.19657573025E+04  0.25173349726E+04  0.10100000352E+00 0. -1.
</event>
<event>
 5   0  0.1073271E-07  0.4011317E+04  0.7818609E-02  0.8002267E-01
        2   -1    0    0  501    0  0.00000000000E+00  0.00000000000E+00  0.22753445252E+04  0.22753445252E+04  0.25500000920E-02 0.  1.
       -2   -1    0    0    0  501  0.00000000000E+00  0.00000000000E+00 -0.17679370034E+04  0.17679370034E+04  0.25500000920E-02 0. -1.
    10030    2    1    2    0    0  0.00000000000E+00  0.00000000000E+00  0.50740752181E+03  0.40432815286E+04  0.40113168818E+04 0.  0.
        1    1    3    3  502    0 -0.20473653198E+03 -0.16186330814E+04 -0.92211471545E+03  0.18740826151E+04  0.50400001928E-02 0. -1.
       -1    1    3    3    0  502  0.20473653198E+03  0.16186330814E+04  0.14295222373E+04  0.21691989135E+04  0.50400001928E-02 0.  1.
</event>
<event>
 5   0  0.3399500E-08  0.4000405E+04  0.7818609E-02  0.8004465E-01
       -1   -1    0    0    0  501  0.00000000000E+00  0.00000000000E+00  0.22962510693E+04  0.22962510693E+04  0.50400001928E-02 0. -1.
        1   -1    0    0  501    0  0.00000000000E+00  0.00000000000E+00 -0.17423221767E+04  0.17423221767E+04  0.50400001928E-02 0.  1.
    10030    2    1    2    0    0  0.00000000000E+00  0.00000000000E+00  0.55392889260E+03  0.40385732460E+04  0.40004045602E+04 0.  0.
        3    1    3    3  502    0  0.22110919683E+03  0.31424137761E+03 -0.17047143436E+04  0.17474804502E+04  0.10100000352E+00 0.  1.
       -3    1    3    3    0  502 -0.22110919683E+03 -0.31424137761E+03  0.22586432362E+04  0.22910927958E+04  0.10100000352E+00 0. -1.
</event>
<event>
 5   0  0.1087688E-07  0.3977275E+04  0.7818609E-02  0.8009147E-01
        2   -1    0    0  501    0  0.00000000000E+00  0.00000000000E+00  0.23480219789E+04  0.23480219789E+04  0.25500000920E-02 0.  1.
       -2   -1    0    0    0  501  0.00000000000E+00  0.00000000000E+00 -0.16842595553E+04  0.16842595553E+04  0.25500000920E-02 0. -1.
    10030    2    1    2    0    0  0.00000000000E+00  0.00000000000E+00  0.66376242355E+03  0.40322815342E+04  0.39772746720E+04 0.  0.
        2    1    3    3  502    0  0.13974670961E+04 -0.91555922654E+03  0.14254631879E+04  0.21961576178E+04  0.25500000920E-02 0.  1.
       -2    1    3    3    0  502 -0.13974670961E+04  0.91555922654E+03 -0.76170076434E+03  0.18361239164E+04  0.25500000920E-02 0. -1.
</event>
<event>
 5   0  0.3399500E-08  0.4081986E+04  0.7818609E-02  0.7988209E-01
        1   -1    0    0  501    0  0.00000000000E+00  0.00000000000E+00  0.14412018034E+04  0.14412018034E+04  0.50400001928E-02 0. -1.
       -1   -1    0    0    0  501  0.00000000000E+00  0.00000000000E+00 -0.28904022995E+04  0.28904022995E+04  0.50400001928E-02 0.  1.
    10030    2    1    2    0    0  0.00000000000E+00  0.00000000000E+00 -0.14492004961E+04  0.43316041030E+04  0.40819862845E+04 0.  0.
        5    1    3    3  502    0  0.69574263278E+03 -0.49389292650E+03 -0.26920678717E+04  0.28240466621E+04  0.46999998093E+01 0.  1.
       -5    1    3    3    0  502 -0.69574263278E+03  0.49389292650E+03  0.12428673756E+04  0.15075574408E+04  0.46999998093E+01 0. -1.
</event>
<event>
 5   0  0.1095109E-07  0.3999210E+04  0.7818609E-02  0.8004706E-01
       -2   -1    0    0    0  501  0.00000000000E+00  0.00000000000E+00  0.31714228749E+04  0.31714228749E+04  0.25500000920E-02 0. -1.
        2   -1    0    0  501    0  0.00000000000E+00  0.00000000000E+00 -0.12607654980E+04  0.12607654980E+04  0.25500000920E-02 0.  1.
    10030    2    1    2    0    0  0.00000000000E+00  0.00000000000E+00  0.19106573769E+04  0.44321883730E+04  0.39992101922E+04 0.  0.
        4    1    3    3  502    0  0.37201816259E+03  0.18484170149E+04  0.21737340391E+03  0.18979714919E+04  0.12699999809E+01 0.  1.
       -4    1    3    3    0  502 -0.37201816259E+03 -0.18484170149E+04  0.16932839730E+04  0.25342168811E+04  0.12699999809E+01 0. -1.
</event>
<event>
 5   0  0.1073271E-07  0.3979849E+04  0.7818609E-02  0.8008624E-01
       -2   -1    0    0    0  501  0.00000000000E+00  0.00000000000E+00  0.16525326596E+04  0.16525326596E+04  0.25500000920E-02 0. -1.
        2   -1    0    0  501    0  0.00000000000E+00  0.00000000000E+00 -0.23962004266E+04  0.23962004266E+04  0.25500000920E-02 0.  1.
    10030    2    1    2    0    0  0.00000000000E+00  0.00000000000E+00 -0.74366776699E+03  0.40487330862E+04  0.39798489739E+04 0.  0.
        1    1    3    3  502    0  0.13188131977E+04  0.70103713190E+03 -0.17095373934E+04  0.22700747587E+04  0.50400001928E-02 0.  1.
       -1    1    3    3    0  502 -0.13188131977E+04 -0.70103713190E+03  0.96586962640E+03  0.17786583275E+04  0.50400001928E-02 0. -1.
</event>
<event>
 5   0  0.1073271E-07  0.4021234E+04  0.7818609E-02  0.8000277E-01
       -2   -1    0    0    0  501  0.00000000000E+00  0.00000000000E+00  0.25056285518E+04  0.25056285518E+04  0.25500000920E-02 0.  1.
        2   -1    0    0  501    0  0.00000000000E+00  0.00000000000E+00 -0.16133999102E+04  0.16133999102E+04  0.25500000920E-02 0. -1.
    10030    2    1    2    0    0  0.00000000000E+00  0.00000000000E+00  0.89222864163E+03  0.41190284619E+04  0.40212340794E+04 0.  0.
        1    1    3    3  502    0  0.16107298975E+04 -0.11014811571E+04 -0.50304913376E+02  0.19519841512E+04  0.50400001928E-02 0. -1.
       -1    1    3    3    0  502 -0.16107298975E+04  0.11014811571E+04  0.94253355500E+03  0.21670443107E+04  0.50400001928E-02 0.  1.
</event>
<event>
 5   0  0.3399500E-08  0.3988728E+04  0.7818609E-02  0.8006824E-01
        1   -1    0    0  501    0  0.00000000000E+00  0.00000000000E+00  0.14428587435E+04  0.14428587435E+04  0.50400001928E-02 0.  1.
       -1   -1    0    0    0  501  0.00000000000E+00  0.00000000000E+00 -0.27566715083E+04  0.27566715083E+04  0.50400001928E-02 0. -1.
    10030    2    1    2    0    0  0.00000000000E+00  0.00000000000E+00 -0.13138127648E+04  0.41995302518E+04  0.39887279119E+04 0.  0.
        4    1    3    3  502    0 -0.49832176493E+03  0.80791638112E+02 -0.26882878115E+04  0.27352778361E+04  0.12699999809E+01 0. -1.
       -4    1    3    3    0  502  0.49832176493E+03 -0.80791638112E+02  0.13744750467E+04  0.14642524157E+04  0.12699999809E+01 0.  1.
</event>
<event>
 5   0  0.1095109E-07  0.4012956E+04  0.7818609E-02  0.8001938E-01
       -2   -1    0    0    0  501  0.00000000000E+00  0.00000000000E+00  0.18792182283E+04  0.18792182283E+04  0.25500000920E-02 0. -1.
        2   -1    0    0  501    0  0.00000000000E+00  0.00000000000E+00 -0.21423558351E+04  0.21423558351E+04  0.25500000920E-02 0.  1.
    10030    2    1    2    0    0  0.00000000000E+00  0.00000000000E+00 -0.26313760675E+03  0.40215740634E+04  0.40129560859E+04 0.  0.
        4    1    3    3  502    0  0.16325289797E+04 -0.10010601031E+04  0.46861661629E+03  0.19715160019E+04  0.12699999809E+01 0. -1.
       -4    1    3    3    0  502 -0.16325289797E+04  0.10010601031E+04 -0.73175422305E+03  0.20500580615E+04  0.12699999809E+01 0.  1.
</event>
<event>
 5   0  0.1095109E-07  0.3911072E+04  0.7818609E-02  0.8022730E-01
       -2   -1    0    0    0  501  0.00000000000E+00  0.00000000000E+00  0.26568578208E+04  0.26568578208E+04  0.25500000920E-02 0.  1.
        2   -1    0    0  501    0  0.00000000000E+00  0.00000000000E+00 -0.14393399011E+04  0.14393399011E+04  0.25500000920E-02 0. -1.
    10030    2    1    2    0    0  0.00000000000E+00  0.00000000000E+00  0.12175179198E+04  0.40961977219E+04  0.39110722177E+04 0.  0.
        4    1    3    3  502    0  0.54058104177E+03  0.14891056687E+04  0.18095243271E+04  0.24050038376E+04  0.12699999809E+01 0.  1.
       -4    1    3    3    0  502 -0.54058104177E+03 -0.14891056687E+04 -0.59200640738E+03  0.16911938844E+04  0.12699999809E+01 0. -1.
</event>
<event>
 5   0  0.3399500E-08  0.4000930E+04  0.7818609E-02  0.8004359E-01
       -1   -1    0    0    0  501  0.00000000000E+00  0.00000000000E+00  0.29179911803E+04  0.29179911803E+04  0.50400001928E-02 0. -1.
        1   -1    0    0  501    0  0.00000000000E+00  0.00000000000E+00 -0.13714433455E+04  0.13714433455E+04  0.50400001928E-02 0.  1.
    10030    2    1    2    0    0  0.00000000000E+00  0.00000000000E+00  0.15465478347E+04  0.42894345258E+04  0.40009296852E+04 0.  0.
        2    1    3    3  502    0 -0.19960170389E+03  0.19731634081E+04  0.10541684580E+04  0.22459932798E+04  0.25500000920E-02 0. -1.
       -2    1    3    3    0  502  0.19960170389E+03 -0.19731634081E+04  0.49237937671E+03  0.20434412460E+04  0.25500000920E-02 0.  1.
</event>
<event>
 5   0  0.1073271E-07  0.3997540E+04  0.7818609E-02  0.8005043E-01
        2   -1    0    0  501    0  0.00000000000E+00  0.00000000000E+00  0.24283686463E+04  0.24283686463E+04  0.25500000920E-02 0. -1.
       -2   -1    0    0    0  501  0.00000000000E+00  0.00000000000E+00 -0.16451713398E+04  0.16451713398E+04  0.25500000920E-02 0.  1.
    10030    2    1    2    0    0  0.00000000000E+00  0.00000000000E+00  0.78319730643E+03  0.40735399861E+04  0.39975404935E+04 0.  0.
        1    1    3    3  502    0  0.31158561467E+03 -0.13632397382E+04 -0.10636891170E+04  0.17569697540E+04  0.50400001928E-02 0.  1.
       -1    1    3    3    0  502 -0.31158561467E+03  0.13632397382E+04  0.18468864234E+04  0.23165702320E+04  0.50400001928E-02 0. -1.
</event>
<event>
 5   0  0.3399500E-08  0.4000621E+04  0.7818609E-02  0.8004421E-01
        1   -1    0    0  501    0  0.00000000000E+00  0.00000000000E+00  0.24339222440E+04  0.24339222440E+04  0.50400001928E-02 0.  1.
       -1   -1    0    0    0  501  0.00000000000E+00  0.00000000000E+00 -0.16439482561E+04  0.16439482561E+04  0.50400001928E-02 0. -1.
    10030    2    1    2    0    0  0.00000000000E+00  0.00000000000E+00  0.78997398789E+03  0.40778705001E+04  0.40006210661E+04 0.  0.
        5    1    3    3  502    0  0.39869533730E+02  0.11998353301E+04 -0.12359161816E+04  0.17229931216E+04  0.46999998093E+01 0. -1.
       -5    1    3    3    0  502 -0.39869533730E+02 -0.11998353301E+04  0.20258901695E+04  0.23548773785E+04  0.46999998093E+01 0.  1.
</event>
<event>
 5   0  0.3399500E-08  0.3923934E+04  0.7818609E-02  0.8020070E-01
        1   -1    0    0  501    0  0.00000000000E+00  0.00000000000E+00  0.25292166877E+04  0.25292166877E+04  0.50400001928E-02 0. -1.
       -1   -1    0    0    0  501  0.00000000000E+00  0.00000000000E+00 -0.15219396189E+04  0.15219396189E+04  0.50400001928E-02 0.  1.
    10030    2    1    2    0    0  0.00000000000E+00  0.00000000000E+00  0.10072770688E+04  0.40511563065E+04  0.39239342918E+04 0.  0.
        5    1    3    3  502    0 -0.47370512988E+03 -0.73288208299E+03  0.23178189289E+04  0.24766548760E+04  0.46999998093E+01 0. -1.
       -5    1    3    3    0  502  0.47370512988E+03  0.73288208299E+03 -0.13105418601E+04  0.15745014305E+04  0.46999998093E+01 0.  1.
</event>
<event>
 5   0  0.3399500E-08  0.4009866E+04  0.7818609E-02  0.8002559E-01
       -1   -1    0    0    0  501  0.00000000000E+00  0.00000000000E+00  0.18675578026E+04  0.18675578026E+04  0.50400001928E-02 0.  1.
        1   -1    0    0  501    0  0.00000000000E+00  0.00000000000E+00 -0.21524128337E+04  0.21524128337E+04  0.50400001928E-02 0. -1.
    10030    2    1    2    0    0  0.00000000000E+00  0.00000000000E+00 -0.28485503103E+03  0.40199706363E+04  0.40098655249E+04 0.  0.
        5    1    3    3  502    0 -0.54277826638E+03 -0.57839737035E+03 -0.19884210188E+04  0.21407923773E+04  0.46999998093E+01 0. -1.
       -5    1    3    3    0  502  0.54277826638E+03  0.57839737035E+03  0.17035659878E+04  0.18791782590E+04  0.46999998093E+01 0.  1.
</event>
<event>
 5   0  0.3399500E-08  0.3989979E+04  0.7818609E-02  0.8006571E-01
        1   -1    0    0  501    0  0.00000000000E+00  0.00000000000E+00  0.21744102661E+04  0.21744102661E+04  0.50400001928E-02 0. -1.
       -1   -1    0    0    0  501  0.00000000000E+00  0.00000000000E+00 -0.18303737852E+04  0.18303737852E+04  0.50400001928E-02 0.  1.
    10030    2    1    2    0    0  0.00000000000E+00  0.00000000000E+00  0.34403648093E+03  0.40047840513E+04  0.39899792226E+04 0.  0.
        2    1    3    3  502    0 -0.93103947105E+03  0.16499579521E+04  0.79946802153E+03  0.20562939619E+04  0.25500000920E-02 0.  1.
       -2    1    3    3    0  502  0.93103947105E+03 -0.16499579521E+04 -0.45543154060E+03  0.19484900894E+04  0.25500000920E-02 0. -1.
</event>
<event>
 5   0  0.1095903E-07  0.4000509E+04  0.7818609E-02  0.8004444E-01
        2   -1    0    0  501    0  0.00000000000E+00  0.00000000000E+00  0.22040066604E+04  0.22040066604E+04  0.25500000920E-02 0.  1.
       -2   -1    0    0    0  501  0.00000000000E+00  0.00000000000E+00 -0.18153383091E+04  0.18153383091E+04  0.25500000920E-02 0. -1.
    10030    2    1    2    0    0  0.00000000000E+00  0.00000000000E+00  0.38866835126E+03  0.40193449695E+04  0.40005088297E+04 0.  0.
        3    1    3    3  502    0  0.18588227575E+04 -0.73872282510E+03  0.20355660898E+03  0.20105642888E+04  0.10100000352E+00 0.  1.
       -3    1    3    3    0  502 -0.18588227575E+04  0.73872282510E+03  0.18511174228E+03  0.20087806807E+04  0.10100000352E+00 0. -1.
</event>
<event>
 5   0  0.1101474E-07  0.4013484E+04  0.7818609E-02  0.8001832E-01
       -2   -1    0    0    0  501  0.00000000000E+00  0.00000000000E+00  0.14099175503E+04  0.14099175503E+04  0.25500000920E-02 0. -1.
        2   -1    0    0  501    0  0.00000000000E+00  0.00000000000E+00 -0.28562047997E+04  0.28562047997E+04  0.25500000920E-02 0.  1.
    10030    2    1    2    0    0  0.00000000000E+00  0.00000000000E+00 -0.14462872493E+04  0.42661223500E+04  0.40134839102E+04 0.  0.
        5    1    3    3  502    0  0.14336576903E+04  0.13864653925E+04 -0.48705793810E+03  0.20530241554E+04  0.46999998093E+01 0.  1.
       -5    1    3    3    0  502 -0.14336576903E+04 -0.13864653925E+04 -0.95922931124E+03  0.22130981946E+04  0.46999998093E+01 0. -1.
</event>
<event>
 5   0  0.1087688E-07  0.3990009E+04  0.7818609E-02  0.8006565E-01
        2   -1    0    0  501    0  0.00000000000E+00  0.00000000000E+00  0.31280634036E+04  0.31280634036E+04  0.25500000920E-02 0.  1.
       -2   -1    0    0    0  501  0.00000000000E+00  0.00000000000E+00 -0.12723662830E+04  0.12723662830E+04  0.25500000920E-02 0. -1.
    10030    2    1    2    0    0  0.00000000000E+00  0.00000000000E+00  0.18556971206E+04  0.44004296866E+04  0.39900087247E+04 0.  0.
        2    1    3    3  502    0 -0.18305971076E+04 -0.51232538674E+03  0.26020296973E+03  0.19186632476E+04  0.25500000920E-02 0. -1.
       -2    1    3    3    0  502  0.18305971076E+04  0.51232538674E+03  0.15954941509E+04  0.24817664390E+04  0.25500000920E-02 0.  1.
</event>
<event>
 5   0  0.3399500E-08  0.3980435E+04  0.7818609E-02  0.8008505E-01
        1   -1    0    0  501    0  0.00000000000E+00  0.00000000000E+00  0.18608988222E+04  0.18608988223E+04  0.50400001928E-02 0. -1.
       -1   -1    0    0    0  501  0.00000000000E+00  0.00000000000E+00 -0.21285227418E+04  0.21285227418E+04  0.50400001928E-02 0.  1.
    10030    2    1    2    0    0  0.00000000000E+00  0.00000000000E+00 -0.26762391959E+03  0.39894215641E+04  0.39804348825E+04 0.  0.
        4    1    3    3  502    0 -0.12393730991E+04  0.77332144912E+02  0.14249929602E+04  0.18901408649E+04  0.12699999809E+01 0. -1.
       -4    1    3    3    0  502  0.12393730991E+04 -0.77332144912E+02 -0.16926168798E+04  0.20992806992E+04  0.12699999809E+01 0.  1.
</event>
<event>
 5   0  0.1073271E-07  0.4004683E+04  0.7818609E-02  0.8003603E-01
       -2   -1    0    0    0  501  0.00000000000E+00  0.00000000000E+00  0.25193563440E+04  0.25193563440E+04  0.25500000920E-02 0.  1.
        2   -1    0    0  501    0  0.00000000000E+00  0.00000000000E+00 -0.15914268274E+04  0.15914268274E+04  0.25500000920E-02 0. -1.
    10030    2    1    2    0    0  0.00000000000E+00  0.00000000000E+00  0.92792951658E+03  0.41107831714E+04  0.40046828956E+04 0.  0.
        1    1    3    3  502    0 -0.59844070565E+03  0.14808780121E+04 -0.77560504071E+03  0.17755827618E+04  0.50400001928E-02 0. -1.
       -1    1    3    3    0  502  0.59844070565E+03 -0.14808780121E+04  0.17035345573E+04  0.23352004095E+04  0.50400001928E-02 0.  1.
</event>
<event>
 5   0  0.3399500E-08  0.3975566E+04  0.7818609E-02  0.8009494E-01
        1   -1    0    0  501    0  0.00000000000E+00  0.00000000000E+00  0.12477597133E+04  0.12477597133E+04  0.50400001928E-02 0. -1.
       -1   -1    0    0    0  501  0.00000000000E+00  0.00000000000E+00 -0.31667002545E+04  0.31667002545E+04  0.50400001928E-02 0.  1.
    10030    2    1    2    0    0  0.00000000000E+00  0.00000000000E+00 -0.19189405412E+04  0.44144599678E+04  0.39755658726E+04 0.  0.
        2    1    3    3  502    0 -0.18304550155E+04  0.75844815028E+03 -0.78225187551E+03  0.21301941595E+04  0.25500000920E-02 0.  1.
       -2    1    3    3    0  502  0.18304550155E+04 -0.75844815028E+03 -0.11366886657E+04  0.22842658083E+04  0.25500000920E-02 0. -1.
</event>
<event>
 5   0  0.3399500E-08  0.3992010E+04  0.7818609E-02  0.8006160E-01
        1   -1    0    0  501    0  0.00000000000E+00  0.00000000000E+00  0.22252186886E+04  0.22252186886E+04  0.50400001928E-02 0. -1.
       -1   -1    0    0    0  501  0.00000000000E+00  0.00000000000E+00 -0.17904016108E+04  0.17904016108E+04  0.50400001928E-02 0.  1.
    10030    2    1    2    0    0  0.00000000000E+00  0.00000000000E+00  0.43481707778E+03  0.40156202993E+04  0.39920095813E+04 0.  0.
        1    1    3    3  502    0 -0.88999541595E+03  0.17712773835E+04  0.45228411235E+03  0.20332428109E+04  0.50400001928E-02 0. -1.
       -1    1    3    3    0  502  0.88999541595E+03 -0.17712773835E+04 -0.17467034573E+02  0.19823774885E+04  0.50400001928E-02 0.  1.
</event>
<event>
 5   0  0.3399500E-08  0.4101458E+04  0.7818609E-02  0.7984386E-01
        1   -1    0    0  501    0  0.00000000000E+00  0.00000000000E+00  0.18503736427E+04  0.18503736427E+04  0.50400001928E-02 0.  1.
       -1   -1    0    0    0  501  0.00000000000E+00  0.00000000000E+00 -0.22727783335E+04  0.22727783335E+04  0.50400001928E-02 0. -1.
    10030    2    1    2    0    0  0.00000000000E+00  0.00000000000E+00 -0.42240469076E+03  0.41231519762E+04  0.41014578501E+04 0.  0.
        3    1    3    3  502    0 -0.12499104168E+04  0.15910567678E+04  0.12485827589E+03  0.20271475742E+04  0.10100000352E+00 0.  1.
       -3    1    3    3    0  502  0.12499104168E+04 -0.15910567678E+04 -0.54726296665E+03  0.20960044020E+04  0.10100000352E+00 0. -1.
</event>
<event>
 5   0  0.3399500E-08  0.4014510E+04  0.7818609E-02  0.8001626E-01
       -1   -1    0    0    0  501  0.00000000000E+00  0.00000000000E+00  0.22927771501E+04  0.22927771501E+04  0.50400001928E-02 0. -1.
        1   -1    0    0  501    0  0.00000000000E+00  0.00000000000E+00 -0.17572891298E+04  0.17572891298E+04  0.50400001928E-02 0.  1.
    10030    2    1    2    0    0  0.00000000000E+00  0.00000000000E+00  0.53548802033E+03  0.40500662799E+04  0.40145098645E+04 0.  0.
        2    1    3    3  502    0  0.25426421258E+03  0.12065309370E+04 -0.13301737129E+04  0.18137610918E+04  0.25500000920E-02 0.  1.
       -2    1    3    3    0  502 -0.25426421258E+03 -0.12065309370E+04  0.18656617332E+04  0.22363051881E+04  0.25500000920E-02 0. -1.
</event>
<event>
 5   0  0.3399500E-08  0.3993292E+04  0.7818609E-02  0.8005901E-01
       -1   -1    0    0    0  501  0.00000000000E+00  0.00000000000E+00  0.17319763966E+04  0.17319763966E+04  0.50400001928E-02 0.  1.
        1   -1    0    0  501    0  0.00000000000E+00  0.00000000000E+00 -0.23017603434E+04  0.23017603434E+04  0.50400001928E-02 0. -1.
    10030    2    1    2    0    0  0.00000000000E+00  0.00000000000E+00 -0.56978394688E+03  0.40337367400E+04  0.39932916675E+04 0.  0.
        3    1    3    3  502    0  0.10470952191E+04 -0.15685299273E+04 -0.94720037455E+03  0.21104224910E+04  0.10100000352E+00 0. -1.
       -3    1    3    3    0  502 -0.10470952191E+04  0.15685299273E+04  0.37741642767E+03  0.19233142491E+04  0.10100000352E+00 0.  1.
</event>
<event>
 5   0  0.3399500E-08  0.4004970E+04  0.7818609E-02  0.8003545E-01
        1   -1    0    0  501    0  0.00000000000E+00  0.00000000000E+00  0.19776681531E+04  0.19776681531E+04  0.50400001928E-02 0. -1.
       -1   -1    0    0    0  501  0.00000000000E+00  0.00000000000E+00 -0.20276131606E+04  0.20276131606E+04  0.50400001928E-02 0.  1.
    10030    2    1    2    0    0  0.00000000000E+00  0.00000000000E+00 -0.49945007434E+02  0.40052813137E+04  0.40049698998E+04 0.  0.
        1    1    3    3  502    0  0.80680098930E+03  0.29304694042E+03 -0.18342957659E+04  0.20252025337E+04  0.50400001928E-02 0.  1.
       -1    1    3    3    0  502 -0.80680098930E+03 -0.29304694042E+03  0.17843507585E+04  0.19800787800E+04  0.50400001928E-02 0. -1.
</event>
<event>
 5   0  0.3399500E-08  0.3998321E+04  0.7818609E-02  0.8004885E-01
       -1   -1    0    0    0  501  0.00000000000E+00  0.00000000000E+00  0.21794930265E+04  0.21794930265E+04  0.50400001928E-02 0.  1.
        1   -1    0    0  501    0  0.00000000000E+00  0.00000000000E+00 -0.18337486582E+04  0.18337486582E+04  0.50400001928E-02 0. -1.
    10030    2    1    2    0    0  0.00000000000E+00  0.00000000000E+00  0.34574436830E+03  0.40132416848E+04  0.39983208541E+04 0.  0.
        2    1    3    3  502    0  0.17834028622E+04 -0.73190104373E+03 -0.35866753271E+03  0.19608282194E+04  0.25500000920E-02 0.  1.
       -2    1    3    3    0  502 -0.17834028622E+04  0.73190104373E+03  0.70441190100E+03  0.20524134654E+04  0.25500000920E-02 0. -1.
</event>
<event>
 5   0  0.1087688E-07  0.4015876E+04  0.7818609E-02  0.8001351E-01
        2   -1    0    0  501    0  0.00000000000E+00  0.00000000000E+00  0.30508838670E+04  0.30508838670E+04  0.25500000920E-02 0.  1.
       -2   -1    0    0    0  501  0.00000000000E+00  0.00000000000E+00 -0.13215237318E+04  0.13215237318E+04  0.25500000920E-02 0. -1.
    10030    2    1    2    0    0  0.00000000000E+00  0.00000000000E+00  0.17293601352E+04  0.43724075987E+04  0.40158762098E+04 0.  0.
        2    1    3    3  502    0 -0.47237680086E+03 -0.11034148731E+04 -0.88793564909E+03  0.14930150505E+04  0.25500000920E-02 0. -1.
       -2    1    3    3    0  502  0.47237680086E+03  0.11034148731E+04  0.26172957843E+04  0.28793925482E+04  0.25500000920E-02 0.  1.
</event>
<event>
 5   0  0.3399500E-08  0.3966198E+04  0.7818609E-02  0.8011400E-01
       -1   -1    0    0    0  501  0.00000000000E+00  0.00000000000E+00  0.16797462106E+04  0.16797462106E+04  0.50400001928E-02 0. -1.
        1   -1    0    0  501    0  0.00000000000E+00  0.00000000000E+00 -0.23412359557E+04  0.23412359557E+04  0.50400001928E-02 0.  1.
    10030    2    1    2    0    0  0.00000000000E+00  0.00000000000E+00 -0.66148974511E+03  0.40209821664E+04  0.39661982930E+04 0.  0.
        2    1    3    3  502    0  0.10699600415E+04 -0.11248809406E+04 -0.15816889252E+04  0.22162832574E+04  0.25500000920E-02 0.  1.
       -2    1    3    3    0  502 -0.10699600415E+04  0.11248809406E+04  0.92019918007E+03  0.18046989090E+04  0.25500000920E-02 0. -1.
</event>
<event>
 5   0  0.3399500E-08  0.3929806E+04  0.7818609E-02  0.8018859E-01
        1   -1    0    0  501    0  0.00000000000E+00  0.00000000000E+00  0.22840506383E+04  0.22840506383E+04  0.50400001928E-02 0. -1.
       -1   -1    0    0    0  501  0.00000000000E+00  0.00000000000E+00 -0.16903491294E+04  0.16903491295E+04  0.50400001928E-02 0.  1.
    10030    2    1    2    0    0  0.00000000000E+00  0.00000000000E+00  0.59370150884E+03  0.39743997677E+04  0.39298055973E+04 0.  0.
        5    1    3    3  502    0  0.24835520819E+02  0.18667145939E+04  0.91665156309E+03  0.20797866131E+04  0.46999998093E+01 0. -1.
       -5    1    3    3    0  502 -0.24835520819E+02 -0.18667145939E+04 -0.32295005425E+03  0.18946131546E+04  0.46999998093E+01 0.  1.
</event>
<event>
 5   0  0.1095903E-07  0.4004252E+04  0.7818609E-02  0.8003689E-01
       -2   -1    0    0    0  501  0.00000000000E+00  0.00000000000E+00  0.14886628285E+04  0.14886628285E+04  0.25500000920E-02 0. -1.
        2   -1    0    0  501    0  0.00000000000E+00  0.00000000000E+00 -0.26926909112E+04  0.26926909112E+04  0.25500000920E-02 0.  1.
    10030    2    1    2    0    0  0.00000000000E+00  0.00000000000E+00 -0.12040280827E+04  0.41813537397E+04  0.40042521740E+04 0.  0.
        3    1    3    3  502    0 -0.16187189142E+04  0.48018241060E+03  0.52153045875E+03  0.17671502767E+04  0.10100000352E+00 0.  1.
       -3    1    3    3    0  502  0.16187189142E+04 -0.48018241060E+03 -0.17255585414E+04  0.24142034630E+04  0.10100000352E+00 0. -1.
</event>
<event>
 5   0  0.1095903E-07  0.3990422E+04  0.7818609E-02  0.8006481E-01
       -2   -1    0    0    0  501  0.00000000000E+00  0.00000000000E+00  0.30150518150E+04  0.30150518150E+04  0.25500000920E-02 0.  1.
        2   -1    0    0  501    0  0.00000000000E+00  0.00000000000E+00 -0.13203312707E+04  0.13203312707E+04  0.25500000920E-02 0. -1.
    10030    2    1    2    0    0  0.00000000000E+00  0.00000000000E+00  0.16947205443E+04  0.43353830858E+04  0.39904221302E+04 0.  0.
        3    1    3    3  502    0  0.41959471510E+03  0.46814297323E+03 -0.12099157432E+04  0.13634931918E+04  0.10100000352E+00 0. -1.
       -3    1    3    3    0  502 -0.41959471510E+03 -0.46814297323E+03  0.29046362876E+04  0.29718898939E+04  0.10100000352E+00 0.  1.
</event>
<event>
 5   0  0.1095109E-07  0.4046910E+04  0.7818609E-02  0.7995150E-01
        2   -1    0    0  501    0  0.00000000000E+00  0.00000000000E+00  0.33230438671E+04  0.33230438671E+04  0.25500000920E-02 0. -1.
       -2   -1    0    0    0  501  0.00000000000E+00  0.00000000000E+00 -0.12321144251E+04  0.12321144251E+04  0.25500000920E-02 0.  1.
    10030    2    1    2    0    0  0.00000000000E+00  0.00000000000E+00  0.20909294420E+04  0.45551582922E+04  0.40469100725E+04 0.  0.
        4    1    3    3  502    0  0.87388274484E+03 -0.17706488260E+04  0.15431487381E+04  0.25060283234E+04  0.12699999809E+01 0. -1.
       -4    1    3    3    0  502 -0.87388274484E+03  0.17706488260E+04  0.54778070390E+03  0.20491299688E+04  0.12699999809E+01 0.  1.
</event>
<event>
 5   0  0.1095903E-07  0.4328686E+04  0.7818609E-02  0.7941335E-01
       -2   -1    0    0    0  501  0.00000000000E+00  0.00000000000E+00  0.28637260709E+04  0.28637260709E+04  0.25500000920E-02 0. -1.
        2   -1    0    0  501    0  0.00000000000E+00  0.00000000000E+00 -0.16357639088E+04  0.16357639088E+04  0.25500000920E-02 0.  1.
    10030    2    1    2    0    0  0.00000000000E+00  0.00000000000E+00  0.12279621621E+04  0.44994899797E+04  0.43286855980E+04 0.  0.
        3    1    3    3  502    0  0.15600403168E+04  0.74394006238E+03 -0.74019353974E+03  0.18801752825E+04  0.10100000352E+00 0.  1.
       -3    1    3    3    0  502 -0.15600403168E+04 -0.74394006238E+03  0.19681557018E+04  0.26193146972E+04  0.10100000352E+00 0. -1.
</event>
<event>
 5   0  0.1073271E-07  0.4013101E+04  0.7818609E-02  0.8001909E-01
       -2   -1    0    0    0  501  0.00000000000E+00  0.00000000000E+00  0.15943864931E+04  0.15943864931E+04  0.25500000920E-02 0.  1.
        2   -1    0    0  501    0  0.00000000000E+00  0.00000000000E+00 -0.25252626885E+04  0.25252626885E+04  0.25500000920E-02 0. -1.
    10030    2    1    2    0    0  0.00000000000E+00  0.00000000000E+00 -0.93087619547E+03  0.41196491816E+04  0.40131009068E+04 0.  0.
        1    1    3    3  502    0 -0.14669844139E+04  0.21864776718E+03  0.92188450547E+03  0.17463450857E+04  0.50400001928E-02 0.  1.
       -1    1    3    3    0  502  0.14669844139E+04 -0.21864776718E+03 -0.18527607009E+04  0.23733040959E+04  0.50400001928E-02 0. -1.
</event>
<event>
 5   0  0.1095903E-07  0.3997040E+04  0.7818609E-02  0.8005144E-01
        2   -1    0    0  501    0  0.00000000000E+00  0.00000000000E+00  0.22002099106E+04  0.22002099106E+04  0.25500000920E-02 0.  1.
       -2   -1    0    0    0  501  0.00000000000E+00  0.00000000000E+00 -0.18153187526E+04  0.18153187526E+04  0.25500000920E-02 0. -1.
    10030    2    1    2    0    0  0.00000000000E+00  0.00000000000E+00  0.38489115802E+03  0.40155286633E+04  0.39970400601E+04 0.  0.
        3    1    3    3  502    0 -0.14391102513E+04 -0.74224215666E+03 -0.98434820622E+03  0.18949678456E+04  0.10100000352E+00 0. -1.
       -3    1    3    3    0  502  0.14391102513E+04  0.74224215666E+03  0.13692393642E+04  0.21205608177E+04  0.10100000352E+00 0.  1.
</event>
<event>
 5   0  0.1101474E-07  0.3968907E+04  0.7818609E-02  0.8010848E-01
        2   -1    0    0  501    0  0.00000000000E+00  0.00000000000E+00  0.14318417768E+04  0.14318417768E+04  0.25500000920E-02 0. -1.
       -2   -1    0    0    0  501  0.00000000000E+00  0.00000000000E+00 -0.27503431849E+04  0.27503431849E+04  0.25500000920E-02 0.  1.
    10030    2    1    2    0    0  0.00000000000E+00  0.00000000000E+00 -0.13185014081E+04  0.41821849618E+04  0.39689072918E+04 0.  0.
        5    1    3    3  502    0  0.12305287781E+04  0.10950945601E+04  0.50683263124E+03  0.17234658614E+04  0.46999998093E+01 0. -1.
       -5    1    3    3    0  502 -0.12305287781E+04 -0.10950945601E+04 -0.18253340394E+04  0.24587191004E+04  0.46999998093E+01 0.  1.
</event>
<event>
 5   0  0.3399500E-08  0.3960897E+04  0.7818609E-02  0.8012482E-01
        1   -1    0    0  501    0  0.00000000000E+00  0.00000000000E+00  0.16898788190E+04  0.16898788190E+04  0.50400001928E-02 0. -1.
       -1   -1    0    0    0  501  0.00000000000E+00  0.00000000000E+00 -0.23209806355E+04  0.23209806355E+04  0.50400001928E-02 0.  1.
    10030    2    1    2    0    0  0.00000000000E+00  0.00000000000E+00 -0.63110181651E+03  0.40108594545E+04  0.39608968759E+04 0.  0.
        5    1    3    3  502    0  0.15566779483E+03 -0.12925390894E+04  0.11956763326E+04  0.17676407278E+04  0.46999998093E+01 0. -1.
       -5    1    3    3    0  502 -0.15566779483E+03  0.12925390894E+04 -0.18267781491E+04  0.22432187268E+04  0.46999998093E+01 0.  1.
</event>
<event>
 5   0  0.3399500E-08  0.3965556E+04  0.7818609E-02  0.8011531E-01
        1   -1    0    0  501    0  0.00000000000E+00  0.00000000000E+00  0.28274338960E+04  0.28274338960E+04  0.50400001928E-02 0. -1.
       -1   -1    0    0    0  501  0.00000000000E+00  0.00000000000E+00 -0.13904511579E+04  0.13904511579E+04  0.50400001928E-02 0.  1.
    10030    2    1    2    0    0  0.00000000000E+00  0.00000000000E+00  0.14369827381E+04  0.42178850538E+04  0.39655560692E+04 0.  0.
        1    1    3    3  502    0 -0.88437164042E+03 -0.15127940759E+04 -0.26830845905E+03  0.17727516870E+04  0.50400001928E-02 0.  1.
       -1    1    3    3    0  502  0.88437164042E+03  0.15127940759E+04  0.17052911972E+04  0.24451333669E+04  0.50400001928E-02 0. -1.
</event>
<event>
 5   0  0.3399500E-08  0.4040993E+04  0.7818609E-02  0.7996328E-01
        1   -1    0    0  501    0  0.00000000000E+00  0.00000000000E+00  0.18933072424E+04  0.18933072424E+04  0.50400001928E-02 0. -1.
       -1   -1    0    0    0  501  0.00000000000E+00  0.00000000000E+00 -0.21562297006E+04  0.21562297006E+04  0.50400001928E-02 0.  1.
    10030    2    1    2    0    0  0.00000000000E+00  0.00000000000E+00 -0.26292245823E+03  0.40495369429E+04  0.40409926049E+04 0.  0.
        3    1    3    3  502    0  0.20162257493E+04  0.11497267394E+03 -0.19500121291E+03  0.20288939033E+04  0.10100000352E+00 0. -1.
       -3    1    3    3    0  502 -0.20162257493E+04 -0.11497267394E+03 -0.67921245316E+02  0.20206430396E+04  0.10100000352E+00 0.  1.
</event>
<event>
 5   0  0.3399500E-08  0.4004989E+04  0.7818609E-02  0.8003541E-01
       -1   -1    0    0    0  501  0.00000000000E+00  0.00000000000E+00  0.32331864032E+04  0.32331864032E+04  0.50400001928E-02 0.  1.
        1   -1    0    0  501    0  0.00000000000E+00  0.00000000000E+00 -0.12402575931E+04  0.12402575931E+04  0.50400001928E-02 0. -1.
    10030    2    1    2    0    0  0.00000000000E+00  0.00000000000E+00  0.19929288101E+04  0.44734439963E+04  0.40049888822E+04 0.  0.
        1    1    3    3  502    0  0.15998546177E+03 -0.18401334133E+04  0.18604357568E+04  0.26216230720E+04  0.50400001928E-02 0.  1.
       -1    1    3    3    0  502 -0.15998546177E+03  0.18401334133E+04  0.13249305327E+03  0.18518209243E+04  0.50400001928E-02 0. -1.
</event>
<event>
 5   0  0.3399500E-08  0.4005273E+04  0.7818609E-02  0.8003484E-01
        1   -1    0    0  501    0  0.00000000000E+00  0.00000000000E+00  0.13527742340E+04  0.13527742340E+04  0.50400001928E-02 0.  1.
       -1   -1    0    0    0  501  0.00000000000E+00  0.00000000000E+00 -0.29646880045E+04  0.29646880045E+04  0.50400001928E-02 0. -1.
    10030    2    1    2    0    0  0.00000000000E+00  0.00000000000E+00 -0.16119137705E+04  0.43174622385E+04  0.40052732962E+04 0.  0.
        4    1    3    3  502    0  0.95112716367E+02 -0.13248609441E+04 -0.24215252457E+04  0.27618995417E+04  0.12699999809E+01 0. -1.
       -4    1    3    3    0  502 -0.95112716367E+02  0.13248609441E+04  0.80961147522E+03  0.15555626968E+04  0.12699999809E+01 0.  1.
</event>
<event>
 5   0  0.1095109E-07  0.4011700E+04  0.7818609E-02  0.8002190E-01
        2   -1    0    0  501    0  0.00000000000E+00  0.00000000000E+00  0.13802349624E+04  0.13802349624E+04  0.25500000920E-02 0. -1.
       -2   -1    0    0    0  501  0.00000000000E+00  0.00000000000E+00 -0.29150357892E+04  0.29150357892E+04  0.25500000920E-02 0.  1.
    10030    2    1    2    0    0  0.00000000000E+00  0.00000000000E+00 -0.15348008268E+04  0.42952707515E+04  0.40117000450E+04 0.  0.
        4    1    3    3  502    0  0.72512899435E+03 -0.55641808655E+03 -0.26791129124E+04  0.28307350204E+04  0.12699999809E+01 0.  1.
       -4    1    3    3    0  502 -0.72512899435E+03  0.55641808655E+03  0.11443120856E+04  0.14645357311E+04  0.12699999809E+01 0. -1.
</event>
<event>
 5   0  0.1101474E-07  0.3939492E+04  0.7818609E-02  0.8016865E-01
        2   -1    0    0  501    0  0.00000000000E+00  0.00000000000E+00  0.25274846591E+04  0.25274846591E+04  0.25500000920E-02 0.  1.
       -2   -1    0    0    0  501  0.00000000000E+00  0.00000000000E+00 -0.15350829674E+04  0.15350829674E+04  0.25500000920E-02 0. -1.
    10030    2    1    2    0    0  0.00000000000E+00  0.00000000000E+00  0.99240169178E+03  0.40625676265E+04  0.39394916680E+04 0.  0.
        5    1    3    3  502    0  0.84377131694E+03 -0.12914484638E+04 -0.76684378599E+03  0.17227479944E+04  0.46999998093E+01 0. -1.
       -5    1    3    3    0  502 -0.84377131694E+03  0.12914484638E+04  0.17592454778E+04  0.23398196322E+04  0.46999998093E+01 0.  1.
</event>
<event>
 5   0  0.3399500E-08  0.4185888E+04  0.7818609E-02  0.7968062E-01
        1   -1    0    0  501    0  0.00000000000E+00  0.00000000000E+00  0.20590722352E+04  0.20590722352E+04  0.50400001928E-02 0.  1.
       -1   -1    0    0    0  501  0.00000000000E+00  0.00000000000E+00 -0.21273726642E+04  0.21273726642E+04  0.50400001928E-02 0. -1.
    10030    2    1    2    0    0  0.00000000000E+00  0.00000000000E+00 -0.68300428987E+02  0.41864448994E+04  0.41858877131E+04 0.  0.
        1    1    3    3  502    0 -0.14833907456E+04  0.13725028088E+03 -0.15044235291E+04  0.21172094603E+04  0.50400001928E-02 0. -1.
       -1    1    3    3    0  502  0.14833907456E+04 -0.13725028088E+03  0.14361231002E+04  0.20692354391E+04  0.50400001928E-02 0.  1.
</event>
<event>
 5   0  0.1095903E-07  0.3998475E+04  0.7818609E-02  0.8004854E-01
        2   -1    0    0  501    0  0.00000000000E+00  0.00000000000E+00  0.23025885813E+04  0.23025885813E+04  0.25500000920E-02 0. -1.
       -2   -1    0    0    0  501  0.00000000000E+00  0.00000000000E+00 -0.17358510161E+04  0.17358510161E+04  0.25500000920E-02 0.  1.
    10030    2    1    2    0    0  0.00000000000E+00  0.00000000000E+00  0.56673756527E+03  0.40384395974E+04  0.39984750736E+04 0.  0.
        3    1    3    3  502    0  0.16990787730E+04  0.10365208013E+04  0.47421953388E+03  0.20460029875E+04  0.10100000352E+00 0. -1.
       -3    1    3    3    0  502 -0.16990787730E+04 -0.10365208013E+04  0.92518031387E+02  0.19924366099E+04  0.10100000352E+00 0.  1.
</event>
<event>
 5   0  0.1073271E-07  0.4046788E+04  0.7818609E-02  0.7995174E-01
        2   -1    0    0  501    0  0.00000000000E+00  0.00000000000E+00  0.24694425164E+04  0.24694425164E+04  0.25500000920E-02 0. -1.
       -2   -1    0    0    0  501  0.00000000000E+00  0.00000000000E+00 -0.16579140831E+04  0.16579140831E+04  0.25500000920E-02 0.  1.
    10030    2    1    2    0    0  0.00000000000E+00  0.00000000000E+00  0.81152843329E+03  0.41273565995E+04  0.40467881217E+04 0.  0.
        1    1    3    3  502    0 -0.18709930397E+04 -0.77038618387E+03  0.40198938859E+03  0.20629360861E+04  0.50400001928E-02 0.  1.
       -1    1    3    3    0  502  0.18709930397E+04  0.77038618387E+03  0.40953904470E+03  0.20644205134E+04  0.50400001928E-02 0. -1.
</event>
<event>
 5   0  0.1087688E-07  0.4001324E+04  0.7818609E-02  0.8004279E-01
       -2   -1    0    0    0  501  0.00000000000E+00  0.00000000000E+00  0.19152066302E+04  0.19152066302E+04  0.25500000920E-02 0.  1.
        2   -1    0    0  501    0  0.00000000000E+00  0.00000000000E+00 -0.20899304473E+04  0.20899304473E+04  0.25500000920E-02 0. -1.
    10030    2    1    2    0    0  0.00000000000E+00  0.00000000000E+00 -0.17472381712E+03  0.40051370775E+04  0.40013241055E+04 0.  0.
        2    1    3    3  502    0  0.10192695420E+04  0.16392802413E+04  0.43897045598E+03  0.19796073272E+04  0.25500000920E-02 0.  1.
       -2    1    3    3    0  502 -0.10192695420E+04 -0.16392802413E+04 -0.61369427311E+03  0.20255297503E+04  0.25500000920E-02 0. -1.
</event>
<event>
 5   0  0.3399500E-08  0.4022075E+04  0.7818609E-02  0.8000108E-01
       -1   -1    0    0    0  501  0.00000000000E+00  0.00000000000E+00  0.18115602345E+04  0.18115602345E+04  0.50400001928E-02 0. -1.
        1   -1    0    0  501    0  0.00000000000E+00  0.00000000000E+00 -0.22324794614E+04  0.22324794614E+04  0.50400001928E-02 0.  1.
    10030    2    1    2    0    0  0.00000000000E+00  0.00000000000E+00 -0.42091922689E+03  0.40440396960E+04  0.40220745974E+04 0.  0.
        2    1    3    3  502    0 -0.20488411710E+03  0.19769984867E+04  0.97432384776E+02  0.19899732630E+04  0.25500000920E-02 0. -1.
       -2    1    3    3    0  502  0.20488411710E+03 -0.19769984867E+04 -0.51835161167E+03  0.20540664330E+04  0.25500000920E-02 0.  1.
</event>
<event>
 5   0  0.3399500E-08  0.4033651E+04  0.7818609E-02  0.7997792E-01
       -1   -1    0    0    0  501  0.00000000000E+00  0.00000000000E+00  0.18760868107E+04  0.18760868107E+04  0.50400001928E-02 0.  1.
        1   -1    0    0  501    0  0.00000000000E+00  0.00000000000E+00 -0.21681224446E+04  0.21681224447E+04  0.50400001928E-02 0. -1.
    10030    2    1    2    0    0  0.00000000000E+00  0.00000000000E+00 -0.29203563396E+03  0.40442092554E+04  0.40336514090E+04 0.  0.
        4    1    3    3  502    0  0.15855569852E+04 -0.93561296379E+03  0.67967994606E+03  0.19624803218E+04  0.12699999809E+01 0.  1.
       -4    1    3    3    0  502 -0.15855569852E+04  0.93561296379E+03 -0.97171558002E+03  0.20817289336E+04  0.12699999809E+01 0. -1.
</event>
<event>
 5   0  0.1101474E-07  0.3989508E+04  0.7818609E-02  0.8006666E-01
        2   -1    0    0  501    0  0.00000000000E+00  0.00000000000E+00  0.18947228890E+04  0.18947228890E+04  0.25500000920E-02 0.  1.
       -2   -1    0    0    0  501  0.00000000000E+00  0.00000000000E+00 -0.21000666017E+04  0.21000666017E+04  0.25500000920E-02 0. -1.
    10030    2    1    2    0    0  0.00000000000E+00  0.00000000000E+00 -0.20534371277E+03  0.39947894907E+04  0.39895083700E+04 0.  0.
        5    1    3    3  502    0  0.38381961465E+03  0.59364532141E+01  0.18573843946E+04  0.18966421954E+04  0.46999998093E+01 0.  1.
       -5    1    3    3    0  502 -0.38381961465E+03 -0.59364532141E+01 -0.20627281073E+04  0.20981472953E+04  0.46999998093E+01 0. -1.
</event>
<event>
 5   0  0.3399500E-08  0.4030221E+04  0.7818609E-02  0.7998478E-01
        1   -1    0    0  501    0  0.00000000000E+00  0.00000000000E+00  0.17555429238E+04  0.17555429238E+04  0.50400001928E-02 0. -1.
       -1   -1    0    0    0  501  0.00000000000E+00  0.00000000000E+00 -0.23130563595E+04  0.23130563595E+04  0.50400001928E-02 0.  1.
    10030    2    1    2    0    0  0.00000000000E+00  0.00000000000E+00 -0.55751343578E+03  0.40685992833E+04  0.40302207008E+04 0.  0.
        2    1    3    3  502    0 -0.16169838774E+04  0.37160056145E+03  0.87578858074E+03  0.18760942074E+04  0.25500000920E-02 0. -1.
       -2    1    3    3    0  502  0.16169838774E+04 -0.37160056145E+03 -0.14333020165E+04  0.21925050758E+04  0.25500000920E-02 0.  1.
</event>
<event>
 5   0  0.3399500E-08  0.3962610E+04  0.7818609E-02  0.8012132E-01
        1   -1    0    0  501    0  0.00000000000E+00  0.00000000000E+00  0.21888753357E+04  0.21888753357E+04  0.50400001928E-02 0.  1.
       -1   -1    0    0    0  501  0.00000000000E+00  0.00000000000E+00 -0.17934186208E+04  0.17934186208E+04  0.50400001928E-02 0. -1.
    10030    2    1    2    0    0  0.00000000000E+00  0.00000000000E+00  0.39545671485E+03  0.39822939565E+04  0.39626101427E+04 0.  0.
        5    1    3    3  502    0  0.72716346307E+03 -0.17673888913E+04  0.72293079437E+03  0.20433015486E+04  0.46999998093E+01 0.  1.
       -5    1    3    3    0  502 -0.72716346307E+03  0.17673888913E+04 -0.32747407952E+03  0.19389924079E+04  0.46999998093E+01 0. -1.
</event>
<event>
 5   0  0.3399500E-08  0.3951596E+04  0.7818609E-02  0.8014383E-01
        1   -1    0    0  501    0  0.00000000000E+00  0.00000000000E+00  0.28956450407E+04  0.28956450407E+04  0.50400001928E-02 0.  1.
       -1   -1    0    0    0  501  0.00000000000E+00  0.00000000000E+00 -0.13481549357E+04  0.13481549357E+04  0.50400001928E-02 0. -1.
    10030    2    1    2    0    0  0.00000000000E+00  0.00000000000E+00  0.15474901050E+04  0.42437999763E+04  0.39515962109E+04 0.  0.
        4    1    3    3  502    0 -0.17739708885E+04  0.73131777754E+03  0.26776028202E+03  0.19373940195E+04  0.12699999809E+01 0.  1.
       -4    1    3    3    0  502  0.17739708885E+04 -0.73131777754E+03  0.12797298230E+04  0.23064059569E+04  0.12699999809E+01 0. -1.
</event>
<event>
 5   0  0.3399500E-08  0.3962967E+04  0.7818609E-02  0.8012059E-01
       -1   -1    0    0    0  501  0.00000000000E+00  0.00000000000E+00  0.22688020656E+04  0.22688020656E+04  0.50400001928E-02 0. -1.
        1   -1    0    0  501    0  0.00000000000E+00  0.00000000000E+00 -0.17305510239E+04  0.17305510239E+04  0.50400001928E-02 0.  1.
    10030    2    1    2    0    0  0.00000000000E+00  0.00000000000E+00  0.53825104167E+03  0.39993530895E+04  0.39629674425E+04 0.  0.
        3    1    3    3  502    0  0.55860673113E+03 -0.43063093917E+03 -0.15995758003E+04  0.17481782623E+04  0.10100000352E+00 0.  1.
       -3    1    3    3    0  502 -0.55860673113E+03  0.43063093917E+03  0.21378268420E+04  0.22511748271E+04  0.10100000352E+00 0. -1.
</event>
<event>
 5   0  0.3399500E-08  0.3971997E+04  0.7818609E-02  0.8010220E-01
       -1   -1    0    0    0  501  0.00000000000E+00  0.00000000000E+00  0.19622126193E+04  0.19622126193E+04  0.50400001928E-02 0. -1.
        1   -1    0    0  501    0  0.00000000000E+00  0.00000000000E+00 -0.20100730140E+04  0.20100730140E+04  0.50400001928E-02 0.  1.
    10030    2    1    2    0    0  0.00000000000E+00  0.00000000000E+00 -0.47860394714E+02  0.39722856333E+04  0.39719972980E+04 0.  0.
        5    1    3    3  502    0  0.83024826415E+02 -0.18483266294E+04  0.69790062191E+03  0.19774457815E+04  0.46999998093E+01 0.  1.
       -5    1    3    3    0  502 -0.83024826415E+02  0.18483266294E+04 -0.74576101662E+03  0.19948398519E+04  0.46999998093E+01 0. -1.
</event>
<event>
 5   0  0.3399500E-08  0.3997612E+04  0.7818609E-02  0.8005028E-01
       -1   -1    0    0    0  501  0.00000000000E+00  0.00000000000E+00  0.18112216910E+04  0.18112216910E+04  0.50400001928E-02 0. -1.
        1   -1    0    0  501    0  0.00000000000E+00  0.00000000000E+00 -0.22058178473E+04  0.22058178474E+04  0.50400001928E-02 0.  1.
    10030    2    1    2    0    0  0.00000000000E+00  0.00000000000E+00 -0.39459615639E+03  0.40170395383E+04  0.39976118528E+04 0.  0.
        1    1    3    3  502    0 -0.90142498957E+03 -0.17494501738E+04 -0.54839875894E+03  0.20430085955E+04  0.50400001928E-02 0.  1.
       -1    1    3    3    0  502  0.90142498957E+03  0.17494501738E+04  0.15380260255E+03  0.19740309428E+04  0.50400001928E-02 0. -1.
</event>
<event>
 5   0  0.1073271E-07  0.4003588E+04  0.7818609E-02  0.8003823E-01
        2   -1    0    0  501    0  0.00000000000E+00  0.00000000000E+00  0.25851149364E+04  0.25851149364E+04  0.25500000920E-02 0. -1.
       -2   -1    0    0    0  501  0.00000000000E+00  0.00000000000E+00 -0.15500971867E+04  0.15500971867E+04  0.25500000920E-02 0.  1.
    10030    2    1    2    0    0  0.00000000000E+00  0.00000000000E+00  0.10350177497E+04  0.41352121231E+04  0.40035880859E+04 0.  0.
        1    1    3    3  502    0 -0.39776284672E+03  0.69796688212E+03 -0.13762939068E+04  0.15935990615E+04  0.50400001928E-02 0.  1.
       -1    1    3    3    0  502  0.39776284672E+03 -0.69796688212E+03  0.24113116564E+04  0.25416130617E+04  0.50400001928E-02 0. -1.
</event>
<event>
 5   0  0.3399500E-08  0.4012402E+04  0.7818609E-02  0.8002049E-01
        1   -1    0    0  501    0  0.00000000000E+00  0.00000000000E+00  0.17045063598E+04  0.17045063599E+04  0.50400001928E-02 0.  1.
       -1   -1    0    0    0  501  0.00000000000E+00  0.00000000000E+00 -0.23612955513E+04  0.23612955513E+04  0.50400001928E-02 0. -1.
    10030    2    1    2    0    0  0.00000000000E+00  0.00000000000E+00 -0.65678919150E+03  0.40658019112E+04  0.40124024149E+04 0.  0.
        1    1    3    3  502    0 -0.18159207095E+04  0.72486493113E+03 -0.78364664198E+03  0.21064423208E+04  0.50400001928E-02 0. -1.
       -1    1    3    3    0  502  0.18159207095E+04 -0.72486493113E+03  0.12685745048E+03  0.19593595904E+04  0.50400001928E-02 0.  1.
</event>
<event>
 5   0  0.1095109E-07  0.3966402E+04  0.7818609E-02  0.8011359E-01
       -2   -1    0    0    0  501  0.00000000000E+00  0.00000000000E+00  0.21365291159E+04  0.21365291159E+04  0.25500000920E-02 0.  1.
        2   -1    0    0  501    0  0.00000000000E+00  0.00000000000E+00 -0.18408760728E+04  0.18408760728E+04  0.25500000920E-02 0. -1.
    10030    2    1    2    0    0  0.00000000000E+00  0.00000000000E+00  0.29565304307E+03  0.39774051887E+04  0.39664015572E+04 0.  0.
        4    1    3    3  502    0 -0.52897971858E+02 -0.98976869677E+03 -0.15746825686E+04  0.18606630736E+04  0.12699999809E+01 0. -1.
       -4    1    3    3    0  502  0.52897971858E+02  0.98976869677E+03  0.18703356117E+04  0.21167421151E+04  0.12699999809E+01 0.  1.
</event>
<event>
 5   0  0.1101474E-07  0.3996683E+04  0.7818609E-02  0.8005216E-01
       -2   -1    0    0    0  501  0.00000000000E+00  0.00000000000E+00  0.13927185190E+04  0.13927185190E+04  0.25500000920E-02 0. -1.
        2   -1    0    0  501    0  0.00000000000E+00  0.00000000000E+00 -0.28673196397E+04  0.28673196397E+04  0.25500000920E-02 0.  1.
    10030    2    1    2    0    0  0.00000000000E+00  0.00000000000E+00 -0.14746011207E+04  0.42600381586E+04  0.39966832059E+04 0.  0.
        5    1    3    3  502    0 -0.54015064414E+03 -0.51218224948E+03 -0.27140238086E+04  0.28142566867E+04  0.46999998093E+01 0.  1.
       -5    1    3    3    0  502  0.54015064414E+03  0.51218224948E+03  0.12394226880E+04  0.14457814719E+04  0.46999998093E+01 0. -1.
</event>
<event>
 5   0  0.3399500E-08  0.3834926E+04  0.7818609E-02  0.8038701E-01
        1   -1    0    0  501    0  0.00000000000E+00  0.00000000000E+00  0.26105718261E+04  0.26105718261E+04  0.50400001928E-02 0.  1.
       -1   -1    0    0    0  501  0.00000000000E+00  0.00000000000E+00 -0.14083749645E+04  0.14083749645E+04  0.50400001928E-02 0. -1.
    10030    2    1    2    0    0  0.00000000000E+00  0.00000000000E+00  0.12021968616E+04  0.40189467906E+04  0.38349258156E+04 0.  0.
        2    1    3    3  502    0  0.10637861813E+04  0.68854921424E+03 -0.90702629009E+03  0.15583445546E+04  0.25500000920E-02 0. -1.
       -2    1    3    3    0  502 -0.10637861813E+04 -0.68854921424E+03  0.21092231517E+04  0.24606022360E+04  0.25500000920E-02 0.  1.
</event>
<event>
 5   0  0.3399500E-08  0.4005689E+04  0.7818609E-02  0.8003400E-01
       -1   -1    0    0    0  501  0.00000000000E+00  0.00000000000E+00  0.20427577605E+04  0.20427577606E+04  0.50400001928E-02 0.  1.
        1   -1    0    0  501    0  0.00000000000E+00  0.00000000000E+00 -0.19637108431E+04  0.19637108431E+04  0.50400001928E-02 0. -1.
    10030    2    1    2    0    0  0.00000000000E+00  0.00000000000E+00  0.79046917426E+02  0.40064686037E+04  0.40056887369E+04 0.  0.
        1    1    3    3  502    0 -0.19247533175E+04  0.15352467529E+01 -0.51439649166E+03  0.19923055591E+04  0.50400001928E-02 0. -1.
       -1    1    3    3    0  502  0.19247533175E+04 -0.15352467529E+01  0.59344340909E+03  0.20141630446E+04  0.50400001928E-02 0.  1.
</event>
<event>
 5   0  0.1087688E-07  0.4017202E+04  0.7818609E-02  0.8001085E-01
       -2   -1    0    0    0  501  0.00000000000E+00  0.00000000000E+00  0.20449858884E+04  0.20449858884E+04  0.25500000920E-02 0. -1.
        2   -1    0    0  501    0  0.00000000000E+00  0.00000000000E+00 -0.19728637137E+04  0.19728637137E+04  0.25500000920E-02 0.  1.
    10030    2    1    2    0    0  0.00000000000E+00  0.00000000000E+00  0.72122174660E+02  0.40178496021E+04  0.40172022375E+04 0.  0.
        2    1    3    3  502    0  0.14140547998E+04  0.13198689491E+03 -0.13845575189E+04  0.19834240697E+04  0.25500000920E-02 0.  1.
       -2    1    3    3    0  502 -0.14140547998E+04 -0.13198689491E+03  0.14566796935E+04  0.20344255324E+04  0.25500000920E-02 0. -1.
</event>
<event>
 5   0  0.3399500E-08  0.3995411E+04  0.7818609E-02  0.8005473E-01
        1   -1    0    0  501    0  0.00000000000E+00  0.00000000000E+00  0.25607517656E+04  0.25607517656E+04  0.50400001928E-02 0.  1.
       -1   -1    0    0    0  501  0.00000000000E+00  0.00000000000E+00 -0.15584589584E+04  0.15584589584E+04  0.50400001928E-02 0. -1.
    10030    2    1    2    0    0  0.00000000000E+00  0.00000000000E+00  0.10022928072E+04  0.41192107240E+04  0.39954106319E+04 0.  0.
        3    1    3    3  502    0 -0.10389694844E+04 -0.10317683891E+04  0.19022337682E+04  0.24005201347E+04  0.10100000352E+00 0.  1.
       -3    1    3    3    0  502  0.10389694844E+04  0.10317683891E+04 -0.89994096095E+03  0.17186905893E+04  0.10100000352E+00 0. -1.
</event>
<event>
 5   0  0.3399500E-08  0.4026353E+04  0.7818609E-02  0.7999251E-01
       -1   -1    0    0    0  501  0.00000000000E+00  0.00000000000E+00  0.15370734189E+04  0.15370734189E+04  0.50400001928E-02 0.  1.
        1   -1    0    0  501    0  0.00000000000E+00  0.00000000000E+00 -0.26367507573E+04  0.26367507573E+04  0.50400001928E-02 0. -1.
    10030    2    1    2    0    0  0.00000000000E+00  0.00000000000E+00 -0.10996773384E+04  0.41738241762E+04  0.40263529410E+04 0.  0.
        3    1    3    3  502    0 -0.14104641882E+04 -0.31497948875E+03  0.90301406397E+03  0.17041290193E+04  0.10100000352E+00 0.  1.
       -3    1    3    3    0  502  0.14104641882E+04  0.31497948875E+03 -0.20026914024E+04  0.24696951569E+04  0.10100000352E+00 0. -1.
</event>
<event>
 5   0  0.1087688E-07  0.3706323E+04  0.7818609E-02  0.8066562E-01
       -2   -1    0    0    0  501  0.00000000000E+00  0.00000000000E+00  0.11863146766E+04  0.11863146766E+04  0.25500000920E-02 0. -1.
        2   -1    0    0  501    0  0.00000000000E+00  0.00000000000E+00 -0.28948531088E+04  0.28948531088E+04  0.25500000920E-02 0.  1.
    10030    2    1    2    0    0  0.00000000000E+00  0.00000000000E+00 -0.17085384322E+04  0.40811677854E+04  0.37063225600E+04 0.  0.
        2    1    3    3  502    0  0.10245891214E+03  0.13693840161E+04  0.51596978669E+03  0.14669475904E+04  0.25500000920E-02 0. -1.
       -2    1    3    3    0  502 -0.10245891214E+03 -0.13693840161E+04 -0.22245082189E+04  0.26142201950E+04  0.25500000920E-02 0.  1.
</event>
<event>
 5   0  0.3399500E-08  0.3996802E+04  0.7818609E-02  0.8005192E-01
       -1   -1    0    0    0  501  0.00000000000E+00  0.00000000000E+00  0.21477864377E+04  0.21477864377E+04  0.50400001928E-02 0. -1.
        1   -1    0    0  501    0  0.00000000000E+00  0.00000000000E+00 -0.18594062274E+04  0.18594062274E+04  0.50400001928E-02 0.  1.
    10030    2    1    2    0    0  0.00000000000E+00  0.00000000000E+00  0.28838021031E+03  0.40071926652E+04  0.39968024607E+04 0.  0.
        5    1    3    3  502    0 -0.99429726794E+03 -0.14532279697E+04 -0.80329932653E+03  0.19354096432E+04  0.46999998093E+01 0.  1.
       -5    1    3    3    0  502  0.99429726794E+03  0.14532279697E+04  0.10916795368E+04  0.20717830220E+04  0.46999998093E+01 0. -1.
</event>
<event>
 5   0  0.1095903E-07  0.3980621E+04  0.7818609E-02  0.8008467E-01
       -2   -1    0    0    0  501  0.00000000000E+00  0.00000000000E+00  0.22673358165E+04  0.22673358165E+04  0.25500000920E-02 0.  1.
        2   -1    0    0  501    0  0.00000000000E+00  0.00000000000E+00 -0.17471320084E+04  0.17471320084E+04  0.25500000920E-02 0. -1.
    10030    2    1    2    0    0  0.00000000000E+00  0.00000000000E+00  0.52020380813E+03  0.40144678249E+04  0.39806205440E+04 0.  0.
        3    1    3    3  502    0  0.75722167061E+03 -0.64387876258E+02 -0.15950515274E+04  0.17668389406E+04  0.10100000352E+00 0. -1.
       -3    1    3    3    0  502 -0.75722167061E+03  0.64387876258E+02  0.21152553355E+04  0.22476288843E+04  0.10100000352E+00 0.  1.
</event>
<event>
 5   0  0.1095903E-07  0.3936637E+04  0.7818609E-02  0.8017452E-01
        2   -1    0    0  501    0  0.00000000000E+00  0.00000000000E+00  0.24658028149E+04  0.24658028149E+04  0.25500000920E-02 0. -1.
       -2   -1    0    0    0  501  0.00000000000E+00  0.00000000000E+00 -0.15712037739E+04  0.15712037739E+04  0.25500000920E-02 0.  1.
    10030    2    1    2    0    0  0.00000000000E+00  0.00000000000E+00  0.89459904099E+03  0.40370065889E+04  0.39366374934E+04 0.  0.
        3    1    3    3  502    0  0.97794559929E+03 -0.36638300265E+01 -0.13044351167E+04  0.16303196014E+04  0.10100000352E+00 0.  1.
       -3    1    3    3    0  502 -0.97794559929E+03  0.36638300265E+01  0.21990341577E+04  0.24066869875E+04  0.10100000352E+00 0. -1.
</event>
<event>
 5   0  0.1087688E-07  0.3989690E+04  0.7818609E-02  0.8006630E-01
       -2   -1    0    0    0  501  0.00000000000E+00  0.00000000000E+00  0.22815332859E+04  0.22815332859E+04  0.25500000920E-02 0.  1.
        2   -1    0    0  501    0  0.00000000000E+00  0.00000000000E+00 -0.17441809785E+04  0.17441809785E+04  0.25500000920E-02 0. -1.
    10030    2    1    2    0    0  0.00000000000E+00  0.00000000000E+00  0.53735230739E+03  0.40257142644E+04  0.39896901930E+04 0.  0.
        2    1    3    3  502    0 -0.75701924086E+03  0.56427381047E+02 -0.15927421753E+04  0.17643950287E+04  0.25500000920E-02 0. -1.
       -2    1    3    3    0  502  0.75701924086E+03 -0.56427381047E+02  0.21300944827E+04  0.22613192357E+04  0.25500000920E-02 0.  1.
</event>
<event>
 5   0  0.3399500E-08  0.3560545E+04  0.7818609E-02  0.8099590E-01
        1   -1    0    0  501    0  0.00000000000E+00  0.00000000000E+00  0.21826642474E+04  0.21826642474E+04  0.50400001928E-02 0.  1.
       -1   -1    0    0    0  501  0.00000000000E+00  0.00000000000E+00 -0.14520651639E+04  0.14520651639E+04  0.50400001928E-02 0. -1.
    10030    2    1    2    0    0  0.00000000000E+00  0.00000000000E+00  0.73059908352E+03  0.36347294114E+04  0.35605453056E+04 0.  0.
        4    1    3    3  502    0 -0.36805263960E+03 -0.65198574058E+03  0.20141364715E+04  0.21487893080E+04  0.12699999809E+01 0.  1.
       -4    1    3    3    0  502  0.36805263960E+03  0.65198574058E+03 -0.12835373880E+04  0.14859401034E+04  0.12699999809E+01 0. -1.
</event>
<event>
 5   0  0.1073271E-07  0.4008077E+04  0.7818609E-02  0.8002919E-01
        2   -1    0    0  501    0  0.00000000000E+00  0.00000000000E+00  0.13511494198E+04  0.13511494198E+04  0.25500000920E-02 0. -1.
       -2   -1    0    0    0  501  0.00000000000E+00  0.00000000000E+00 -0.29724097204E+04  0.29724097204E+04  0.25500000920E-02 0.  1.
    10030    2    1    2    0    0  0.00000000000E+00  0.00000000000E+00 -0.16212603006E+04  0.43235591403E+04  0.40080766805E+04 0.  0.
        1    1    3    3  502    0 -0.12388515832E+03 -0.52540563791E+03 -0.28925076620E+04  0.29424478231E+04  0.50400001928E-02 0.  1.
       -1    1    3    3    0  502  0.12388515832E+03  0.52540563791E+03  0.12712473613E+04  0.13811113172E+04  0.50400001928E-02 0. -1.
</event>
<event>
 5   0  0.1087688E-07  0.4143853E+04  0.7818609E-02  0.7976139E-01
        2   -1    0    0  501    0  0.00000000000E+00  0.00000000000E+00  0.19066115954E+04  0.19066115954E+04  0.25500000920E-02 0.  1.
       -2   -1    0    0    0  501  0.00000000000E+00  0.00000000000E+00 -0.22515756825E+04  0.22515756825E+04  0.25500000920E-02 0. -1.
    10030    2    1    2    0    0  0.00000000000E+00  0.00000000000E+00 -0.34496408714E+03  0.41581872779E+04  0.41438534261E+04 0.  0.
        2    1    3    3  502    0  0.14145901476E+04  0.26301195012E+03 -0.16684910109E+04  0.22032028561E+04  0.25500000920E-02 0. -1.
       -2    1    3    3    0  502 -0.14145901476E+04 -0.26301195012E+03  0.13235269238E+04  0.19549844218E+04  0.25500000920E-02 0.  1.
</event>
<event>
 5   0  0.1073271E-07  0.4049549E+04  0.7818609E-02  0.7994625E-01
        2   -1    0    0  501    0  0.00000000000E+00  0.00000000000E+00  0.23040747189E+04  0.23040747189E+04  0.25500000920E-02 0. -1.
       -2   -1    0    0    0  501  0.00000000000E+00  0.00000000000E+00 -0.17793310055E+04  0.17793310055E+04  0.25500000920E-02 0.  1.
    10030    2    1    2    0    0  0.00000000000E+00  0.00000000000E+00  0.52474371331E+03  0.40834057244E+04  0.40495489064E+04 0.  0.
        1    1    3    3  502    0  0.42665219917E+03  0.18499895343E+04  0.97197280647E+03  0.21328911160E+04  0.50400001928E-02 0. -1.
       -1    1    3    3    0  502 -0.42665219917E+03 -0.18499895343E+04 -0.44722909316E+03  0.19505146084E+04  0.50400001928E-02 0.  1.
</event>
<event>
 5   0  0.1095903E-07  0.4013551E+04  0.7818609E-02  0.8001819E-01
       -2   -1    0    0    0  501  0.00000000000E+00  0.00000000000E+00  0.29827229493E+04  0.29827229493E+04  0.25500000920E-02 0.  1.
        2   -1    0    0  501    0  0.00000000000E+00  0.00000000000E+00 -0.13501578889E+04  0.13501578889E+04  0.25500000920E-02 0. -1.
    10030    2    1    2    0    0  0.00000000000E+00  0.00000000000E+00  0.16325650604E+04  0.43328808382E+04  0.40135505082E+04 0.  0.
        3    1    3    3  502    0  0.19484201520E+04  0.20237006010E+03  0.34589499220E+03  0.19892053905E+04  0.10100000352E+00 0. -1.
       -3    1    3    3    0  502 -0.19484201520E+04 -0.20237006010E+03  0.12866700682E+04  0.23436754477E+04  0.10100000352E+00 0.  1.
</event>
<event>
 5   0  0.3399500E-08  0.4013043E+04  0.7818609E-02  0.8001921E-01
       -1   -1    0    0    0  501  0.00000000000E+00  0.00000000000E+00  0.17458298659E+04  0.17458298659E+04  0.50400001928E-02 0.  1.
        1   -1    0    0  501    0  0.00000000000E+00  0.00000000000E+00 -0.23061403050E+04  0.23061403050E+04  0.50400001928E-02 0. -1.
    10030    2    1    2    0    0  0.00000000000E+00  0.00000000000E+00 -0.56031043906E+03  0.40519701710E+04  0.40130430446E+04 0.  0.
        2    1    3    3  502    0  0.96245558281E+03  0.27958222953E+03  0.14749934145E+04  0.17832813981E+04  0.25500000920E-02 0.  1.
       -2    1    3    3    0  502 -0.96245558281E+03 -0.27958222953E+03 -0.20353038535E+04  0.22686887729E+04  0.25500000920E-02 0. -1.
</event>
<event>
 5   0  0.1073271E-07  0.3979094E+04  0.7818609E-02  0.8008777E-01
       -2   -1    0    0    0  501  0.00000000000E+00  0.00000000000E+00  0.27808107069E+04  0.27808107069E+04  0.25500000920E-02 0. -1.
        2   -1    0    0  501    0  0.00000000000E+00  0.00000000000E+00 -0.14234330127E+04  0.14234330127E+04  0.25500000920E-02 0.  1.
    10030    2    1    2    0    0  0.00000000000E+00  0.00000000000E+00  0.13573776943E+04  0.42042437196E+04  0.39790942498E+04 0.  0.
        1    1    3    3  502    0  0.87843283568E+03 -0.11573128385E+03 -0.12034708604E+04  0.14944497612E+04  0.50400001928E-02 0.  1.
       -1    1    3    3    0  502 -0.87843283568E+03  0.11573128385E+03  0.25608485547E+04  0.27097939584E+04  0.50400001928E-02 0. -1.
</event>
<event>
 5   0  0.1095109E-07  0.4005364E+04  0.7818609E-02  0.8003465E-01
       -2   -1    0    0    0  501  0.00000000000E+00  0.00000000000E+00  0.32388363041E+04  0.32388363041E+04  0.25500000920E-02 0.  1.
        2   -1    0    0  501    0  0.00000000000E+00  0.00000000000E+00 -0.12383260160E+04  0.12383260160E+04  0.25500000920E-02 0. -1.
    10030    2    1    2    0    0  0.00000000000E+00  0.00000000000E+00  0.20005102882E+04  0.44771623201E+04  0.40053640318E+04 0.  0.
        4    1    3    3  502    0  0.13125191442E+04 -0.34811699661E+03  0.26456663042E+04  0.29737928229E+04  0.12699999809E+01 0.  1.
       -4    1    3    3    0  502 -0.13125191442E+04  0.34811699661E+03 -0.64515601608E+03  0.15033694972E+04  0.12699999809E+01 0. -1.
</event>
<event>
 5   0  0.3399500E-08  0.3995242E+04  0.7818609E-02  0.8005507E-01
        1   -1    0    0  501    0  0.00000000000E+00  0.00000000000E+00  0.21169840259E+04  0.21169840260E+04  0.50400001928E-02 0.  1.
       -1   -1    0    0    0  501  0.00000000000E+00  0.00000000000E+00 -0.18849884063E+04  0.18849884063E+04  0.50400001928E-02 0. -1.
    10030    2    1    2    0    0  0.00000000000E+00  0.00000000000E+00  0.23199561967E+03  0.40019724322E+04  0.39952423432E+04 0.  0.
        1    1    3    3  502    0  0.86856025665E+03  0.14565962138E+04  0.11734374533E+04  0.20622863299E+04  0.50400001928E-02 0.  1.
       -1    1    3    3    0  502 -0.86856025665E+03 -0.14565962138E+04 -0.94144183361E+03  0.19396861024E+04  0.50400001928E-02 0. -1.
</event>
<event>
 5   0  0.3399500E-08  0.3980269E+04  0.7818609E-02  0.8008539E-01
        1   -1    0    0  501    0  0.00000000000E+00  0.00000000000E+00  0.16097830219E+04  0.16097830219E+04  0.50400001928E-02 0.  1.
       -1   -1    0    0    0  501  0.00000000000E+00  0.00000000000E+00 -0.24603536707E+04  0.24603536707E+04  0.50400001928E-02 0. -1.
    10030    2    1    2    0    0  0.00000000000E+00  0.00000000000E+00 -0.85057064880E+03  0.40701366926E+04  0.39802691200E+04 0.  0.
        2    1    3    3  502    0  0.11265980355E+04 -0.10726929849E+04  0.84400668391E+03  0.17698137348E+04  0.25500000920E-02 0.  1.
       -2    1    3    3    0  502 -0.11265980355E+04  0.10726929849E+04 -0.16945773327E+04  0.23003229577E+04  0.25500000920E-02 0. -1.
</event>
<event>
 5   0  0.3399500E-08  0.3999231E+04  0.7818609E-02  0.8004702E-01
        1   -1    0    0  501    0  0.00000000000E+00  0.00000000000E+00  0.26754249665E+04  0.26754249665E+04  0.50400001928E-02 0.  1.
       -1   -1    0    0    0  501  0.00000000000E+00  0.00000000000E+00 -0.14945144052E+04  0.14945144052E+04  0.50400001928E-02 0. -1.
    10030    2    1    2    0    0  0.00000000000E+00  0.00000000000E+00  0.11809105613E+04  0.41699393717E+04  0.39992305022E+04 0.  0.
        5    1    3    3  502    0 -0.52529694655E+03  0.12842207220E+04  0.20918061929E+04  0.25101464067E+04  0.46999998093E+01 0.  1.
       -5    1    3    3    0  502  0.52529694655E+03 -0.12842207220E+04 -0.91089563157E+03  0.16597929649E+04  0.46999998093E+01 0. -1.
</event>
<event>
 5   0  0.3399500E-08  0.4021825E+04  0.7818609E-02  0.8000158E-01
        1   -1    0    0  501    0  0.00000000000E+00  0.00000000000E+00  0.27072559696E+04  0.27072559696E+04  0.50400001928E-02 0. -1.
       -1   -1    0    0    0  501  0.00000000000E+00  0.00000000000E+00 -0.14936780780E+04  0.14936780780E+04  0.50400001928E-02 0.  1.
    10030    2    1    2    0    0  0.00000000000E+00  0.00000000000E+00  0.12135778915E+04  0.42009340476E+04  0.40218249059E+04 0.  0.
        3    1    3    3  502    0 -0.19061435785E+04 -0.38833620532E+03  0.74608682515E+02  0.19467292611E+04  0.10100000352E+00 0.  1.
       -3    1    3    3    0  502  0.19061435785E+04  0.38833620532E+03  0.11389692090E+04  0.22542047865E+04  0.10100000352E+00 0. -1.
</event>
<event>
 5   0  0.1095109E-07  0.4040729E+04  0.7818609E-02  0.7996380E-01
       -2   -1    0    0    0  501  0.00000000000E+00  0.00000000000E+00  0.20032545304E+04  0.20032545304E+04  0.25500000920E-02 0.  1.
        2   -1    0    0  501    0  0.00000000000E+00  0.00000000000E+00 -0.20376211093E+04  0.20376211093E+04  0.25500000920E-02 0. -1.
    10030    2    1    2    0    0  0.00000000000E+00  0.00000000000E+00 -0.34366578969E+02  0.40408756397E+04  0.40407294977E+04 0.  0.
        4    1    3    3  502    0  0.18862338549E+04  0.70732235108E+03  0.13673472567E+03  0.20191287878E+04  0.12699999809E+01 0.  1.
       -4    1    3    3    0  502 -0.18862338549E+04 -0.70732235108E+03 -0.17110130463E+03  0.20217468519E+04  0.12699999809E+01 0. -1.
</event>
<event>
 5   0  0.3399500E-08  0.4036390E+04  0.7818609E-02  0.7997245E-01
       -1   -1    0    0    0  501  0.00000000000E+00  0.00000000000E+00  0.17261315270E+04  0.17261315270E+04  0.50400001928E-02 0. -1.
        1   -1    0    0  501    0  0.00000000000E+00  0.00000000000E+00 -0.23596764329E+04  0.23596764329E+04  0.50400001928E-02 0.  1.
    10030    2    1    2    0    0  0.00000000000E+00  0.00000000000E+00 -0.63354490590E+03  0.40858079598E+04  0.40363904094E+04 0.  0.
        1    1    3    3  502    0  0.75141742553E+02 -0.23195801403E+03  0.17111676954E+04  0.17284518169E+04  0.50400001928E-02 0. -1.
       -1    1    3    3    0  502 -0.75141742553E+02  0.23195801403E+03 -0.23447126013E+04  0.23573561429E+04  0.50400001928E-02 0.  1.
</event>
<event>
 5   0  0.1101474E-07  0.3940857E+04  0.7818609E-02  0.8016585E-01
       -2   -1    0    0    0  501  0.00000000000E+00  0.00000000000E+00  0.15911942184E+04  0.15911942184E+04  0.25500000920E-02 0. -1.
        2   -1    0    0  501    0  0.00000000000E+00  0.00000000000E+00 -0.24400469269E+04  0.24400469269E+04  0.25500000920E-02 0.  1.
    10030    2    1    2    0    0  0.00000000000E+00  0.00000000000E+00 -0.84885270848E+03  0.40312411453E+04  0.39408570452E+04 0.  0.
        5    1    3    3  502    0  0.11343543023E+04  0.15475866207E+04 -0.88279084093E+03  0.21121377300E+04  0.46999998093E+01 0.  1.
       -5    1    3    3    0  502 -0.11343543023E+04 -0.15475866207E+04  0.33938132451E+02  0.19191034153E+04  0.46999998093E+01 0. -1.
</event>
<event>
 5   0  0.1101474E-07  0.3965545E+04  0.7818609E-02  0.8011534E-01
       -2   -1    0    0    0  501  0.00000000000E+00  0.00000000000E+00  0.18158690237E+04  0.18158690237E+04  0.25500000920E-02 0. -1.
        2   -1    0    0  501    0  0.00000000000E+00  0.00000000000E+00 -0.21650166295E+04  0.21650166295E+04  0.25500000920E-02 0.  1.
    10030    2    1    2    0    0  0.00000000000E+00  0.00000000000E+00 -0.34914760581E+03  0.39808856532E+04  0.39655449226E+04 0.  0.
        5    1    3    3  502    0 -0.86314951944E+03 -0.67174550164E+03 -0.18347839775E+04  0.21360532405E+04  0.46999998093E+01 0.  1.
       -5    1    3    3    0  502  0.86314951944E+03  0.67174550164E+03  0.14856363717E+04  0.18448324127E+04  0.46999998093E+01 0. -1.
</event>
<event>
 5   0  0.1101474E-07  0.4010704E+04  0.7818609E-02  0.8002391E-01
       -2   -1    0    0    0  501  0.00000000000E+00  0.00000000000E+00  0.16395976446E+04  0.16395976446E+04  0.25500000920E-02 0. -1.
        2   -1    0    0  501    0  0.00000000000E+00  0.00000000000E+00 -0.24526968445E+04  0.24526968445E+04  0.25500000920E-02 0.  1.
    10030    2    1    2    0    0  0.00000000000E+00  0.00000000000E+00 -0.81309919994E+03  0.40922944891E+04  0.40107036635E+04 0.  0.
        5    1    3    3  502    0  0.84400426740E+03  0.11999191995E+03  0.14454992483E+04  0.16781631122E+04  0.46999998093E+01 0. -1.
       -5    1    3    3    0  502 -0.84400426740E+03 -0.11999191995E+03 -0.22585984483E+04  0.24141313769E+04  0.46999998093E+01 0.  1.
</event>
<event>
 5   0  0.1087688E-07  0.4001649E+04  0.7818609E-02  0.8004214E-01
       -2   -1    0    0    0  501  0.00000000000E+00  0.00000000000E+00  0.24593322184E+04  0.24593322184E+04  0.25500000920E-02 0. -1.
        2   -1    0    0  501    0  0.00000000000E+00  0.00000000000E+00 -0.16277990487E+04  0.16277990487E+04  0.25500000920E-02 0.  1.
    10030    2    1    2    0    0  0.00000000000E+00  0.00000000000E+00  0.83153316968E+03  0.40871312671E+04  0.40016489829E+04 0.  0.
        2    1    3    3  502    0 -0.17743293643E+04  0.64708092746E+03 -0.25890469311E+03  0.19063027199E+04  0.25500000920E-02 0.  1.
       -2    1    3    3    0  502  0.17743293643E+04 -0.64708092746E+03  0.10904378628E+04  0.21808285472E+04  0.25500000920E-02 0. -1.
</event>
<event>
 5   0  0.3399500E-08  0.3993458E+04  0.7818609E-02  0.8005868E-01
       -1   -1    0    0    0  501  0.00000000000E+00  0.00000000000E+00  0.18493070112E+04  0.18493070112E+04  0.50400001928E-02 0.  1.
        1   -1    0    0  501    0  0.00000000000E+00  0.00000000000E+00 -0.21559034898E+04  0.21559034898E+04  0.50400001928E-02 0. -1.
    10030    2    1    2    0    0  0.00000000000E+00  0.00000000000E+00 -0.30659647865E+03  0.40052105010E+04  0.39934583705E+04 0.  0.
        4    1    3    3  502    0  0.15289066218E+04  0.12713190513E+04  0.29221481368E+02  0.19886334746E+04  0.12699999809E+01 0.  1.
       -4    1    3    3    0  502 -0.15289066218E+04 -0.12713190513E+04 -0.33581796002E+03  0.20165770264E+04  0.12699999809E+01 0. -1.
</event>
<event>
 5   0  0.1073271E-07  0.3998351E+04  0.7818609E-02  0.8004879E-01
        2   -1    0    0  501    0  0.00000000000E+00  0.00000000000E+00  0.18364933525E+04  0.18364933525E+04  0.25500000920E-02 0.  1.
       -2   -1    0    0    0  501  0.00000000000E+00  0.00000000000E+00 -0.21762682741E+04  0.21762682741E+04  0.25500000920E-02 0. -1.
    10030    2    1    2    0    0  0.00000000000E+00  0.00000000000E+00 -0.33977492158E+03  0.40127616266E+04  0.39983507693E+04 0.  0.
        1    1    3    3  502    0 -0.82602129905E+03 -0.13301198731E+03 -0.19921129119E+04  0.21606751790E+04  0.50400001928E-02 0. -1.
       -1    1    3    3    0  502  0.82602129905E+03  0.13301198731E+03  0.16523379903E+04  0.18520864476E+04  0.50400001928E-02 0.  1.
</event>
<event>
 5   0  0.1101474E-07  0.3791961E+04  0.7818609E-02  0.8047882E-01
       -2   -1    0    0    0  501  0.00000000000E+00  0.00000000000E+00  0.17399718288E+04  0.17399718288E+04  0.25500000920E-02 0. -1.
        2   -1    0    0  501    0  0.00000000000E+00  0.00000000000E+00 -0.20659772351E+04  0.20659772351E+04  0.25500000920E-02 0.  1.
    10030    2    1    2    0    0  0.00000000000E+00  0.00000000000E+00 -0.32600540628E+03  0.38059490639E+04  0.37919610694E+04 0.  0.
        5    1    3    3  502    0  0.13106686800E+04 -0.12505237842E+04 -0.72458251522E+03  0.19510776599E+04  0.46999998093E+01 0.  1.
       -5    1    3    3    0  502 -0.13106686800E+04  0.12505237842E+04  0.39857710894E+03  0.18548714040E+04  0.46999998093E+01 0. -1.
</event>
<event>
 5   0  0.1095109E-07  0.3973426E+04  0.7818609E-02  0.8009929E-01
        2   -1    0    0  501    0  0.00000000000E+00  0.00000000000E+00  0.29915852727E+04  0.29915852727E+04  0.25500000920E-02 0.  1.
       -2   -1    0    0    0  501  0.00000000000E+00  0.00000000000E+00 -0.13193770340E+04  0.13193770340E+04  0.25500000920E-02 0. -1.
    10030    2    1    2    0    0  0.00000000000E+00  0.00000000000E+00  0.16722082387E+04  0.43109623068E+04  0.39734261811E+04 0.  0.
        4    1    3    3  502    0 -0.47611273505E+03 -0.10757833010E+03 -0.12533078459E+04  0.13450050569E+04  0.12699999809E+01 0. -1.
       -4    1    3    3    0  502  0.47611273505E+03  0.10757833010E+03  0.29255160846E+04  0.29659572498E+04  0.12699999809E+01 0.  1.
</event>
<event>
 5   0  0.1095903E-07  0.4015018E+04  0.7818609E-02  0.8001524E-01
        2   -1    0    0  501    0  0.00000000000E+00  0.00000000000E+00  0.32461687342E+04  0.32461687342E+04  0.25500000920E-02 0. -1.
       -2   -1    0    0    0  501  0.00000000000E+00  0.00000000000E+00 -0.12414919811E+04  0.12414919811E+04  0.25500000920E-02 0.  1.
    10030    2    1    2    0    0  0.00000000000E+00  0.00000000000E+00  0.20046767532E+04  0.44876607153E+04  0.40150180338E+04 0.  0.
        3    1    3    3  502    0  0.49181964529E+03  0.18786387428E+04  0.43359377472E+03  0.19897672379E+04  0.10100000352E+00 0. -1.
       -3    1    3    3    0  502 -0.49181964529E+03 -0.18786387428E+04  0.15710829784E+04  0.24978934774E+04  0.10100000352E+00 0.  1.
</event>
<event>
 5   0  0.1101474E-07  0.3990639E+04  0.7818609E-02  0.8006438E-01
        2   -1    0    0  501    0  0.00000000000E+00  0.00000000000E+00  0.17871138255E+04  0.17871138255E+04  0.25500000920E-02 0. -1.
       -2   -1    0    0    0  501  0.00000000000E+00  0.00000000000E+00 -0.22277823543E+04  0.22277823543E+04  0.25500000920E-02 0.  1.
    10030    2    1    2    0    0  0.00000000000E+00  0.00000000000E+00 -0.44066852884E+03  0.40148961799E+04  0.39906393702E+04 0.  0.
        5    1    3    3  502    0 -0.45164386865E+03 -0.56102624253E+03  0.16517681695E+04  0.18019691464E+04  0.46999998093E+01 0. -1.
       -5    1    3    3    0  502  0.45164386865E+03  0.56102624253E+03 -0.20924366983E+04  0.22129270334E+04  0.46999998093E+01 0.  1.
</event>
<event>
 5   0  0.3399500E-08  0.3981542E+04  0.7818609E-02  0.8008280E-01
        1   -1    0    0  501    0  0.00000000000E+00  0.00000000000E+00  0.29161466583E+04  0.29161466583E+04  0.50400001928E-02 0.  1.
       -1   -1    0    0    0  501  0.00000000000E+00  0.00000000000E+00 -0.13590433352E+04  0.13590433352E+04  0.50400001928E-02 0. -1.
    10030    2    1    2    0    0  0.00000000000E+00  0.00000000000E+00  0.15571033231E+04  0.42751899935E+04  0.39815422542E+04 0.  0.
        4    1    3    3  502    0 -0.18442694395E+04  0.51709082705E+03  0.13612098265E+04  0.23498098846E+04  0.12699999809E+01 0. -1.
       -4    1    3    3    0  502  0.18442694395E+04 -0.51709082705E+03  0.19589349654E+03  0.19253801089E+04  0.12699999809E+01 0.  1.
</event>
<event>
 5   0  0.3399500E-08  0.3972947E+04  0.7818609E-02  0.8010026E-01
        1   -1    0    0  501    0  0.00000000000E+00  0.00000000000E+00  0.21260951637E+04  0.21260951637E+04  0.50400001928E-02 0. -1.
       -1   -1    0    0    0  501  0.00000000000E+00  0.00000000000E+00 -0.18560209154E+04  0.18560209154E+04  0.50400001928E-02 0.  1.
    10030    2    1    2    0    0  0.00000000000E+00  0.00000000000E+00  0.27007424827E+03  0.39821160791E+04  0.39729470633E+04 0.  0.
        5    1    3    3  502    0 -0.33248514714E+03  0.74257927853E+03  0.19514238032E+04  0.21142486390E+04  0.46999998093E+01 0. -1.
       -5    1    3    3    0  502  0.33248514714E+03 -0.74257927853E+03 -0.16813495549E+04  0.18678674401E+04  0.46999998093E+01 0.  1.
</event>
<event>
 5   0  0.3399500E-08  0.3994025E+04  0.7818609E-02  0.8005753E-01
       -3   -1    0    0    0  501  0.00000000000E+00  0.00000000000E+00  0.16135140455E+04  0.16135140487E+04  0.10100000352E+00 0. -1.
        3   -1    0    0  501    0  0.00000000000E+00  0.00000000000E+00 -0.24716606121E+04  0.24716606142E+04  0.10100000352E+00 0.  1.
    10030    2    1    2    0    0  0.00000000000E+00  0.00000000000E+00 -0.85814656658E+03  0.40851746628E+04  0.39940250996E+04 0.  0.
        1    1    3    3  502    0 -0.72441992349E+03  0.17198325371E+04  0.29810239612E+03  0.18898341779E+04  0.50400001928E-02 0.  1.
       -1    1    3    3    0  502  0.72441992349E+03 -0.17198325371E+04 -0.11562489627E+04  0.21953404850E+04  0.50400001928E-02 0. -1.
</event>
<event>
 5   0  0.1073271E-07  0.4010265E+04  0.7818609E-02  0.8002479E-01
        2   -1    0    0  501    0  0.00000000000E+00  0.00000000000E+00  0.20533169756E+04  0.20533169756E+04  0.25500000920E-02 0. -1.
       -2   -1    0    0    0  501  0.00000000000E+00  0.00000000000E+00 -0.19580787413E+04  0.19580787413E+04  0.25500000920E-02 0.  1.
    10030    2    1    2    0    0  0.00000000000E+00  0.00000000000E+00  0.95238234382E+02  0.40113957169E+04  0.40102649883E+04 0.  0.
        1    1    3    3  502    0  0.27809413020E+03 -0.14034909391E+04 -0.13575663393E+04  0.19723360584E+04  0.50400001928E-02 0.  1.
       -1    1    3    3    0  502 -0.27809413020E+03  0.14034909391E+04  0.14528045737E+04  0.20390596585E+04  0.50400001928E-02 0. -1.
</event>
<event>
 5   0  0.1101474E-07  0.3969627E+04  0.7818609E-02  0.8010702E-01
        2   -1    0    0  501    0  0.00000000000E+00  0.00000000000E+00  0.20185593373E+04  0.20185593373E+04  0.25500000920E-02 0. -1.
       -2   -1    0    0    0  501  0.00000000000E+00  0.00000000000E+00 -0.19516318306E+04  0.19516318306E+04  0.25500000920E-02 0.  1.
    10030    2    1    2    0    0  0.00000000000E+00  0.00000000000E+00  0.66927506655E+02  0.39701911679E+04  0.39696270125E+04 0.  0.
        5    1    3    3  502    0  0.75904725890E+03  0.68137482392E+03  0.17363619423E+04  0.20138021940E+04  0.46999998093E+01 0. -1.
       -5    1    3    3    0  502 -0.75904725890E+03 -0.68137482392E+03 -0.16694344357E+04  0.19563889738E+04  0.46999998093E+01 0.  1.
</event>
<event>
 5   0  0.3399500E-08  0.3781455E+04  0.7818609E-02  0.8050146E-01
        3   -1    0    0  501    0  0.00000000000E+00  0.00000000000E+00  0.20431883439E+04  0.20431883464E+04  0.10100000352E+00 0. -1.
       -3   -1    0    0    0  501  0.00000000000E+00  0.00000000000E+00 -0.17496435167E+04  0.17496435197E+04  0.10100000352E+00 0.  1.
    10030    2    1    2    0    0  0.00000000000E+00  0.00000000000E+00  0.29354482718E+03  0.37928318661E+04  0.37814554075E+04 0.  0.
        3    1    3    3  502    0 -0.12865092348E+04  0.28213654563E+03  0.15073726311E+04  0.20017190864E+04  0.10100000352E+00 0. -1.
       -3    1    3    3    0  502  0.12865092348E+04 -0.28213654563E+03 -0.12138278040E+04  0.17911127797E+04  0.10100000352E+00 0.  1.
</event>
<event>
 5   0  0.3399500E-08  0.4001336E+04  0.7818609E-02  0.8004277E-01
        1   -1    0    0  501    0  0.00000000000E+00  0.00000000000E+00  0.13326447120E+04  0.13326447120E+04  0.50400001928E-02 0.  1.
       -1   -1    0    0    0  501  0.00000000000E+00  0.00000000000E+00 -0.30035551140E+04  0.30035551140E+04  0.50400001928E-02 0. -1.
    10030    2    1    2    0    0  0.00000000000E+00  0.00000000000E+00 -0.16709104020E+04  0.43361998260E+04  0.40013356970E+04 0.  0.
        1    1    3    3  502    0  0.10413979933E+04 -0.14253506804E+04  0.18490345671E+03  0.17749151053E+04  0.50400001928E-02 0.  1.
       -1    1    3    3    0  502 -0.10413979933E+04  0.14253506804E+04 -0.18558138587E+04  0.25612847207E+04  0.50400001928E-02 0. -1.
</event>
<event>
 5   0  0.1095109E-07  0.4002513E+04  0.7818609E-02  0.8004040E-01
       -2   -1    0    0    0  501  0.00000000000E+00  0.00000000000E+00  0.14874939249E+04  0.14874939249E+04  0.25500000920E-02 0.  1.
        2   -1    0    0  501    0  0.00000000000E+00  0.00000000000E+00 -0.26924668775E+04  0.26924668775E+04  0.25500000920E-02 0. -1.
    10030    2    1    2    0    0  0.00000000000E+00  0.00000000000E+00 -0.12049729526E+04  0.41799608024E+04  0.40025132721E+04 0.  0.
        4    1    3    3  502    0 -0.23107823828E+03 -0.19128082670E+04 -0.11675801364E+04  0.22528820666E+04  0.12699999809E+01 0. -1.
       -4    1    3    3    0  502  0.23107823828E+03  0.19128082670E+04 -0.37392816201E+02  0.19270787358E+04  0.12699999809E+01 0.  1.
</event>
<event>
 5   0  0.3399500E-08  0.3990572E+04  0.7818609E-02  0.8006451E-01
       -1   -1    0    0    0  501  0.00000000000E+00  0.00000000000E+00  0.20931092718E+04  0.20931092718E+04  0.50400001928E-02 0. -1.
        1   -1    0    0  501    0  0.00000000000E+00  0.00000000000E+00 -0.19020344541E+04  0.19020344541E+04  0.50400001928E-02 0.  1.
    10030    2    1    2    0    0  0.00000000000E+00  0.00000000000E+00  0.19107481767E+03  0.39951437260E+04  0.39905718644E+04 0.  0.
        1    1    3    3  502    0  0.83570528182E+03  0.18083446439E+04  0.20814863971E+03  0.20029576943E+04  0.50400001928E-02 0. -1.
       -1    1    3    3    0  502 -0.83570528182E+03 -0.18083446439E+04 -0.17073822043E+02  0.19921860316E+04  0.50400001928E-02 0.  1.
</event>
<event>
 5   0  0.1095109E-07  0.4271272E+04  0.7818609E-02  0.7951952E-01
       -2   -1    0    0    0  501  0.00000000000E+00  0.00000000000E+00  0.19575284540E+04  0.19575284540E+04  0.25500000920E-02 0. -1.
        2   -1    0    0  501    0  0.00000000000E+00  0.00000000000E+00 -0.23299487804E+04  0.23299487804E+04  0.25500000920E-02 0.  1.
    10030    2    1    2    0    0  0.00000000000E+00  0.00000000000E+00 -0.37242032637E+03  0.42874772344E+04  0.42712719576E+04 0.  0.
        4    1    3    3  502    0 -0.10095184235E+04 -0.18544867716E+04  0.13545967855E+03  0.21157976205E+04  0.12699999809E+01 0. -1.
       -4    1    3    3    0  502  0.10095184235E+04  0.18544867716E+04 -0.50788000492E+03  0.21716796140E+04  0.12699999809E+01 0.  1.
</event>
<event>
 5   0  0.1073271E-07  0.3893980E+04  0.7818609E-02  0.8026282E-01
        2   -1    0    0  501    0  0.00000000000E+00  0.00000000000E+00  0.14756398987E+04  0.14756398987E+04  0.25500000920E-02 0. -1.
       -2   -1    0    0    0  501  0.00000000000E+00  0.00000000000E+00 -0.25688992402E+04  0.25688992402E+04  0.25500000920E-02 0.  1.
    10030    2    1    2    0    0  0.00000000000E+00  0.00000000000E+00 -0.10932593415E+04  0.40445391389E+04  0.38939800794E+04 0.  0.
        1    1    3    3  502    0  0.12947206438E+03 -0.14656400808E+04  0.77778224955E+03  0.16642743433E+04  0.50400001928E-02 0.  1.
       -1    1    3    3    0  502 -0.12947206438E+03  0.14656400808E+04 -0.18710415910E+04  0.23802647956E+04  0.50400001928E-02 0. -1.
</event>
<event>
 5   0  0.3399500E-08  0.4003731E+04  0.7818609E-02  0.8003794E-01
        1   -1    0    0  501    0  0.00000000000E+00  0.00000000000E+00  0.22510902816E+04  0.22510902816E+04  0.50400001928E-02 0.  1.
       -1   -1    0    0    0  501  0.00000000000E+00  0.00000000000E+00 -0.17802327377E+04  0.17802327377E+04  0.50400001928E-02 0. -1.
    10030    2    1    2    0    0  0.00000000000E+00  0.00000000000E+00  0.47085754394E+03  0.40313230193E+04  0.40037305678E+04 0.  0.
        2    1    3    3  502    0 -0.10274602322E+04 -0.10536818085E+03 -0.14912327147E+04  0.18139878698E+04  0.25500000920E-02 0. -1.
       -2    1    3    3    0  502  0.10274602322E+04  0.10536818085E+03  0.19620902587E+04  0.22173351495E+04  0.25500000920E-02 0.  1.
</event>
<event>
 5   0  0.3399500E-08  0.3992991E+04  0.7818609E-02  0.8005962E-01
        1   -1    0    0  501    0  0.00000000000E+00  0.00000000000E+00  0.12696140162E+04  0.12696140162E+04  0.50400001928E-02 0.  1.
       -1   -1    0    0    0  501  0.00000000000E+00  0.00000000000E+00 -0.31395326652E+04  0.31395326653E+04  0.50400001928E-02 0. -1.
    10030    2    1    2    0    0  0.00000000000E+00  0.00000000000E+00 -0.18699186491E+04  0.44091466814E+04  0.39929911976E+04 0.  0.
        1    1    3    3  502    0 -0.59655429216E+03  0.82770788559E+01  0.11688794079E+04  0.13123355531E+04  0.50400001928E-02 0.  1.
       -1    1    3    3    0  502  0.59655429216E+03 -0.82770788559E+01 -0.30387980570E+04  0.30968111284E+04  0.50400001928E-02 0. -1.
</event>
<event>
 5   0  0.1095109E-07  0.4104629E+04  0.7818609E-02  0.7983766E-01
       -2   -1    0    0    0  501  0.00000000000E+00  0.00000000000E+00  0.15486371594E+04  0.15486371594E+04  0.25500000920E-02 0. -1.
        2   -1    0    0  501    0  0.00000000000E+00  0.00000000000E+00 -0.27198071756E+04  0.27198071756E+04  0.25500000920E-02 0.  1.
    10030    2    1    2    0    0  0.00000000000E+00  0.00000000000E+00 -0.11711700163E+04  0.42684443350E+04  0.41046288302E+04 0.  0.
        4    1    3    3  502    0  0.75799198318E+03 -0.17700476518E+04 -0.13241204617E+04  0.23368605321E+04  0.12699999809E+01 0. -1.
       -4    1    3    3    0  502 -0.75799198318E+03  0.17700476518E+04  0.15295044549E+03  0.19315838030E+04  0.12699999809E+01 0.  1.
</event>
<event>
 5   0  0.3399500E-08  0.3583097E+04  0.7818609E-02  0.8094375E-01
        1   -1    0    0  501    0  0.00000000000E+00  0.00000000000E+00  0.12478871505E+04  0.12478871505E+04  0.50400001928E-02 0. -1.
       -1   -1    0    0    0  501  0.00000000000E+00  0.00000000000E+00 -0.25720643128E+04  0.25720643128E+04  0.50400001928E-02 0.  1.
    10030    2    1    2    0    0  0.00000000000E+00  0.00000000000E+00 -0.13241771623E+04  0.38199514633E+04  0.35830969879E+04 0.  0.
        4    1    3    3  502    0  0.14281860455E+04  0.95923158389E+03 -0.11949309921E+04  0.20946842963E+04  0.12699999809E+01 0. -1.
       -4    1    3    3    0  502 -0.14281860455E+04 -0.95923158389E+03 -0.12924617021E+03  0.17252671670E+04  0.12699999809E+01 0.  1.
</event>
<event>
 5   0  0.1095109E-07  0.4027063E+04  0.7818609E-02  0.7999109E-01
       -2   -1    0    0    0  501  0.00000000000E+00  0.00000000000E+00  0.20235539369E+04  0.20235539369E+04  0.25500000920E-02 0. -1.
        2   -1    0    0  501    0  0.00000000000E+00  0.00000000000E+00 -0.20035584407E+04  0.20035584407E+04  0.25500000920E-02 0.  1.
    10030    2    1    2    0    0  0.00000000000E+00  0.00000000000E+00  0.19995496197E+02  0.40271123776E+04  0.40270627363E+04 0.  0.
        4    1    3    3  502    0  0.10725657854E+03 -0.12449031411E+04 -0.15689514646E+04  0.20057163597E+04  0.12699999809E+01 0.  1.
       -4    1    3    3    0  502 -0.10725657854E+03  0.12449031411E+04  0.15889469608E+04  0.20213960180E+04  0.12699999809E+01 0. -1.
</event>
<event>
 5   0  0.3399500E-08  0.4026814E+04  0.7818609E-02  0.7999159E-01
       -1   -1    0    0    0  501  0.00000000000E+00  0.00000000000E+00  0.17880168004E+04  0.17880168005E+04  0.50400001928E-02 0. -1.
        1   -1    0    0  501    0  0.00000000000E+00  0.00000000000E+00 -0.22672088203E+04  0.22672088203E+04  0.50400001928E-02 0.  1.
    10030    2    1    2    0    0  0.00000000000E+00  0.00000000000E+00 -0.47919201987E+03  0.40552256208E+04  0.40268138576E+04 0.  0.
        2    1    3    3  502    0 -0.30528640939E+03 -0.19861190146E+04 -0.36673625182E+03  0.20426365341E+04  0.25500000920E-02 0. -1.
       -2    1    3    3    0  502  0.30528640939E+03  0.19861190146E+04 -0.11245576806E+03  0.20125890867E+04  0.25500000920E-02 0.  1.
</event>
<event>
 5   0  0.1073271E-07  0.4010625E+04  0.7818609E-02  0.8002407E-01
        2   -1    0    0  501    0  0.00000000000E+00  0.00000000000E+00  0.26083374521E+04  0.26083374521E+04  0.25500000920E-02 0. -1.
       -2   -1    0    0    0  501  0.00000000000E+00  0.00000000000E+00 -0.15417015168E+04  0.15417015168E+04  0.25500000920E-02 0.  1.
    10030    2    1    2    0    0  0.00000000000E+00  0.00000000000E+00  0.10666359353E+04  0.41500389689E+04  0.40106247923E+04 0.  0.
        1    1    3    3  502    0 -0.36639016521E+03  0.17936635325E+04 -0.31354870407E+03  0.18573592573E+04  0.50400001928E-02 0.  1.
       -1    1    3    3    0  502  0.36639016521E+03 -0.17936635325E+04  0.13801846394E+04  0.22926797115E+04  0.50400001928E-02 0. -1.
</event>
<event>
 5   0  0.3399500E-08  0.4006349E+04  0.7818609E-02  0.8003267E-01
       -1   -1    0    0    0  501  0.00000000000E+00  0.00000000000E+00  0.26806215643E+04  0.26806215643E+04  0.50400001928E-02 0.  1.
        1   -1    0    0  501    0  0.00000000000E+00  0.00000000000E+00 -0.14969315863E+04  0.14969315863E+04  0.50400001928E-02 0. -1.
    10030    2    1    2    0    0  0.00000000000E+00  0.00000000000E+00  0.11836899780E+04  0.41775531505E+04  0.40063485073E+04 0.  0.
        3    1    3    3  502    0 -0.36164896945E+03 -0.18692286175E+04  0.12412774259E+04  0.22727901926E+04  0.10100000352E+00 0.  1.
       -3    1    3    3    0  502  0.36164896945E+03  0.18692286175E+04 -0.57587447885E+02  0.19047629579E+04  0.10100000352E+00 0. -1.
</event>
<event>
 5   0  0.3399500E-08  0.3963478E+04  0.7818609E-02  0.8011955E-01
        1   -1    0    0  501    0  0.00000000000E+00  0.00000000000E+00  0.22961835361E+04  0.22961835361E+04  0.50400001928E-02 0.  1.
       -1   -1    0    0    0  501  0.00000000000E+00  0.00000000000E+00 -0.17103553299E+04  0.17103553299E+04  0.50400001928E-02 0. -1.
    10030    2    1    2    0    0  0.00000000000E+00  0.00000000000E+00  0.58582820623E+03  0.40065388659E+04  0.39634781439E+04 0.  0.
        1    1    3    3  502    0 -0.68305255945E+03 -0.10937423084E+04 -0.12282459220E+04  0.17808484161E+04  0.50400001928E-02 0. -1.
       -1    1    3    3    0  502  0.68305255945E+03  0.10937423084E+04  0.18140741282E+04  0.22256904499E+04  0.50400001928E-02 0.  1.
</event>
<event>
 5   0  0.3399500E-08  0.3999523E+04  0.7818609E-02  0.8004643E-01
        1   -1    0    0  501    0  0.00000000000E+00  0.00000000000E+00  0.18624939287E+04  0.18624939287E+04  0.50400001928E-02 0.  1.
       -1   -1    0    0    0  501  0.00000000000E+00  0.00000000000E+00 -0.21471456279E+04  0.21471456279E+04  0.50400001928E-02 0. -1.
    10030    2    1    2    0    0  0.00000000000E+00  0.00000000000E+00 -0.28465169916E+03  0.40096395566E+04  0.39995228196E+04 0.  0.
        3    1    3    3  502    0  0.11309705656E+04 -0.10560699866E+04  0.11276330804E+04  0.19146630542E+04  0.10100000352E+00 0.  1.
       -3    1    3    3    0  502 -0.11309705656E+04  0.10560699866E+04 -0.14122847795E+04  0.20949765024E+04  0.10100000352E+00 0. -1.
</event>
<event>
 5   0  0.1095903E-07  0.3995683E+04  0.7818609E-02  0.8005418E-01
        2   -1    0    0  501    0  0.00000000000E+00  0.00000000000E+00  0.30113620611E+04  0.30113620611E+04  0.25500000920E-02 0.  1.
       -2   -1    0    0    0  501  0.00000000000E+00  0.00000000000E+00 -0.13254367564E+04  0.13254367564E+04  0.25500000920E-02 0. -1.
    10030    2    1    2    0    0  0.00000000000E+00  0.00000000000E+00  0.16859253047E+04  0.43367988175E+04  0.39956826514E+04 0.  0.
        3    1    3    3  502    0  0.93161295271E+03  0.10730517936E+04  0.23671372808E+04  0.27609204555E+04  0.10100000352E+00 0.  1.
       -3    1    3    3    0  502 -0.93161295271E+03 -0.10730517936E+04 -0.68121197603E+03  0.15758783620E+04  0.10100000352E+00 0. -1.
</event>
<event>
 5   0  0.1087688E-07  0.4091438E+04  0.7818609E-02  0.7986350E-01
        2   -1    0    0  501    0  0.00000000000E+00  0.00000000000E+00  0.22498069135E+04  0.22498069135E+04  0.25500000920E-02 0. -1.
       -2   -1    0    0    0  501  0.00000000000E+00  0.00000000000E+00 -0.18601444042E+04  0.18601444042E+04  0.25500000920E-02 0.  1.
    10030    2    1    2    0    0  0.00000000000E+00  0.00000000000E+00  0.38966250930E+03  0.41099513178E+04  0.40914377624E+04 0.  0.
        2    1    3    3  502    0 -0.53619911281E+03  0.17217670136E+04  0.11651080372E+04  0.21469671344E+04  0.25500000920E-02 0. -1.
       -2    1    3    3    0  502  0.53619911281E+03 -0.17217670136E+04 -0.77544552794E+03  0.19629841834E+04  0.25500000920E-02 0.  1.
</event>
<event>
 5   0  0.3399500E-08  0.3988516E+04  0.7818609E-02  0.8006867E-01
       -1   -1    0    0    0  501  0.00000000000E+00  0.00000000000E+00  0.23589285005E+04  0.23589285005E+04  0.50400001928E-02 0. -1.
        1   -1    0    0  501    0  0.00000000000E+00  0.00000000000E+00 -0.16859621417E+04  0.16859621417E+04  0.50400001928E-02 0.  1.
    10030    2    1    2    0    0  0.00000000000E+00  0.00000000000E+00  0.67296635877E+03  0.40448906422E+04  0.39885155869E+04 0.  0.
        4    1    3    3  502    0 -0.11421965683E+04 -0.12678124176E+04 -0.71014139909E+03  0.18483137576E+04  0.12699999809E+01 0.  1.
       -4    1    3    3    0  502  0.11421965683E+04  0.12678124176E+04  0.13831077579E+04  0.21965768846E+04  0.12699999809E+01 0. -1.
</event>
<event>
 5   0  0.1073271E-07  0.3995106E+04  0.7818609E-02  0.8005535E-01
       -2   -1    0    0    0  501  0.00000000000E+00  0.00000000000E+00  0.16454334705E+04  0.16454334705E+04  0.25500000920E-02 0.  1.
        2   -1    0    0  501    0  0.00000000000E+00  0.00000000000E+00 -0.24250249009E+04  0.24250249009E+04  0.25500000920E-02 0. -1.
    10030    2    1    2    0    0  0.00000000000E+00  0.00000000000E+00 -0.77959143041E+03  0.40704583715E+04  0.39951055750E+04 0.  0.
        1    1    3    3  502    0 -0.46971638323E+03 -0.18756240391E+02 -0.23678649295E+04  0.24140773811E+04  0.50400001928E-02 0. -1.
       -1    1    3    3    0  502  0.46971638323E+03  0.18756240391E+02  0.15882734991E+04  0.16563809904E+04  0.50400001928E-02 0.  1.
</event>
<event>
 5   0  0.1101474E-07  0.4006282E+04  0.7818609E-02  0.8003281E-01
       -2   -1    0    0    0  501  0.00000000000E+00  0.00000000000E+00  0.12929766381E+04  0.12929766381E+04  0.25500000920E-02 0. -1.
        2   -1    0    0  501    0  0.00000000000E+00  0.00000000000E+00 -0.31033607416E+04  0.31033607416E+04  0.25500000920E-02 0.  1.
    10030    2    1    2    0    0  0.00000000000E+00  0.00000000000E+00 -0.18103841034E+04  0.43963373797E+04  0.40062815371E+04 0.  0.
        5    1    3    3  502    0 -0.88139729964E+03  0.65938849719E+03 -0.27417222542E+04  0.29544402852E+04  0.46999998093E+01 0.  1.
       -5    1    3    3    0  502  0.88139729964E+03 -0.65938849719E+03  0.93133815072E+03  0.14418970945E+04  0.46999998093E+01 0. -1.
</event>
<event>
 5   0  0.3399500E-08  0.4034796E+04  0.7818609E-02  0.7997564E-01
       -1   -1    0    0    0  501  0.00000000000E+00  0.00000000000E+00  0.29129845380E+04  0.29129845380E+04  0.50400001928E-02 0.  1.
        1   -1    0    0  501    0  0.00000000000E+00  0.00000000000E+00 -0.13971559732E+04  0.13971559732E+04  0.50400001928E-02 0. -1.
    10030    2    1    2    0    0  0.00000000000E+00  0.00000000000E+00  0.15158285649E+04  0.43101405112E+04  0.40347955324E+04 0.  0.
        4    1    3    3  502    0  0.73223185840E+02  0.40359350339E+03 -0.13521401053E+04  0.14129875541E+04  0.12699999809E+01 0. -1.
       -4    1    3    3    0  502 -0.73223185840E+02 -0.40359350339E+03  0.28679686701E+04  0.28971529571E+04  0.12699999809E+01 0.  1.
</event>
<event>
 5   0  0.1073271E-07  0.3967101E+04  0.7818609E-02  0.8011216E-01
       -2   -1    0    0    0  501  0.00000000000E+00  0.00000000000E+00  0.27668342476E+04  0.27668342476E+04  0.25500000920E-02 0. -1.
        2   -1    0    0  501    0  0.00000000000E+00  0.00000000000E+00 -0.14220125379E+04  0.14220125380E+04  0.25500000920E-02 0.  1.
    10030    2    1    2    0    0  0.00000000000E+00  0.00000000000E+00  0.13448217097E+04  0.41888467856E+04  0.39671012039E+04 0.  0.
        1    1    3    3  502    0 -0.16571150126E+04  0.42747384678E+03  0.17313167112E+04  0.24343832092E+04  0.50400001928E-02 0.  1.
       -1    1    3    3    0  502  0.16571150126E+04 -0.42747384678E+03 -0.38649500155E+03  0.17544635764E+04  0.50400001928E-02 0. -1.
</event>
<event>
 5   0  0.3399500E-08  0.3990413E+04  0.7818609E-02  0.8006483E-01
       -1   -1    0    0    0  501  0.00000000000E+00  0.00000000000E+00  0.28175207551E+04  0.28175207551E+04  0.50400001928E-02 0.  1.
        1   -1    0    0  501    0  0.00000000000E+00  0.00000000000E+00 -0.14128909301E+04  0.14128909301E+04  0.50400001928E-02 0. -1.
    10030    2    1    2    0    0  0.00000000000E+00  0.00000000000E+00  0.14046298250E+04  0.42304116852E+04  0.39904132720E+04 0.  0.
        1    1    3    3  502    0 -0.12658616612E+03  0.18877628334E+04  0.30835438331E+02  0.18922535234E+04  0.50400001928E-02 0. -1.
       -1    1    3    3    0  502  0.12658616612E+03 -0.18877628334E+04  0.13737943866E+04  0.23381581618E+04  0.50400001928E-02 0.  1.
</event>
<event>
 5   0  0.1073271E-07  0.4021838E+04  0.7818609E-02  0.8000156E-01
        2   -1    0    0  501    0  0.00000000000E+00  0.00000000000E+00  0.13208578393E+04  0.13208578393E+04  0.25500000920E-02 0. -1.
       -2   -1    0    0    0  501  0.00000000000E+00  0.00000000000E+00 -0.30614913318E+04  0.30614913318E+04  0.25500000920E-02 0.  1.
    10030    2    1    2    0    0  0.00000000000E+00  0.00000000000E+00 -0.17406334925E+04  0.43823491712E+04  0.40218378017E+04 0.  0.
        1    1    3    3  502    0  0.14453737283E+04 -0.11642710151E+04 -0.17137578846E+04  0.25261825544E+04  0.50400001928E-02 0.  1.
       -1    1    3    3    0  502 -0.14453737283E+04  0.11642710151E+04 -0.26875607938E+02  0.18561666168E+04  0.50400001928E-02 0. -1.
</event>
<event>
 5   0  0.3399500E-08  0.3963942E+04  0.7818609E-02  0.8011860E-01
       -1   -1    0    0    0  501  0.00000000000E+00  0.00000000000E+00  0.14728442782E+04  0.14728442782E+04  0.50400001928E-02 0. -1.
        1   -1    0    0  501    0  0.00000000000E+00  0.00000000000E+00 -0.26670910236E+04  0.26670910236E+04  0.50400001928E-02 0.  1.
    10030    2    1    2    0    0  0.00000000000E+00  0.00000000000E+00 -0.11942467454E+04  0.41399353018E+04  0.39639423575E+04 0.  0.
        4    1    3    3  502    0  0.53667942254E+03  0.11609713771E+04  0.98414170248E+03  0.16138202640E+04  0.12699999809E+01 0. -1.
       -4    1    3    3    0  502 -0.53667942254E+03 -0.11609713771E+04 -0.21783884479E+04  0.25261150378E+04  0.12699999809E+01 0.  1.
</event>
<event>
 5   0  0.1087688E-07  0.3986994E+04  0.7818609E-02  0.8007175E-01
       -2   -1    0    0    0  501  0.00000000000E+00  0.00000000000E+00  0.19049556379E+04  0.19049556379E+04  0.25500000920E-02 0.  1.
        2   -1    0    0  501    0  0.00000000000E+00  0.00000000000E+00 -0.20861538888E+04  0.20861538888E+04  0.25500000920E-02 0. -1.
    10030    2    1    2    0    0  0.00000000000E+00  0.00000000000E+00 -0.18119825089E+03  0.39911095267E+04  0.39869941620E+04 0.  0.
        2    1    3    3  502    0 -0.26101883671E+03 -0.40489497209E+03 -0.20270104219E+04  0.20834687476E+04  0.25500000920E-02 0. -1.
       -2    1    3    3    0  502  0.26101883671E+03  0.40489497209E+03  0.18458121710E+04  0.19076407792E+04  0.25500000920E-02 0.  1.
</event>
<event>
 5   0  0.1087688E-07  0.4018832E+04  0.7818609E-02  0.8000758E-01
        2   -1    0    0  501    0  0.00000000000E+00  0.00000000000E+00  0.26377778282E+04  0.26377778282E+04  0.25500000920E-02 0. -1.
       -2   -1    0    0    0  501  0.00000000000E+00  0.00000000000E+00 -0.15307401097E+04  0.15307401097E+04  0.25500000920E-02 0.  1.
    10030    2    1    2    0    0  0.00000000000E+00  0.00000000000E+00  0.11070377185E+04  0.41685179379E+04  0.40188318314E+04 0.  0.
        2    1    3    3  502    0  0.64155733341E+03 -0.64737067980E+03  0.24110491564E+04  0.25775652550E+04  0.25500000920E-02 0. -1.
       -2    1    3    3    0  502 -0.64155733341E+03  0.64737067980E+03 -0.13040114379E+04  0.15909526830E+04  0.25500000920E-02 0.  1.
</event>
<event>
 5   0  0.3399500E-08  0.4047710E+04  0.7818609E-02  0.7994991E-01
       -1   -1    0    0    0  501  0.00000000000E+00  0.00000000000E+00  0.15092877356E+04  0.15092877357E+04  0.50400001928E-02 0.  1.
        1   -1    0    0  501    0  0.00000000000E+00  0.00000000000E+00 -0.27138552322E+04  0.27138552322E+04  0.50400001928E-02 0. -1.
    10030    2    1    2    0    0  0.00000000000E+00  0.00000000000E+00 -0.12045674966E+04  0.42231429679E+04  0.40477096825E+04 0.  0.
        1    1    3    3  502    0 -0.50116217569E+03 -0.50035528214E+03 -0.25803636432E+04  0.26757794128E+04  0.50400001928E-02 0. -1.
       -1    1    3    3    0  502  0.50116217569E+03  0.50035528214E+03  0.13757961466E+04  0.15473635551E+04  0.50400001928E-02 0.  1.
</event>
<event>
 5   0  0.3399500E-08  0.3989287E+04  0.7818609E-02  0.8006711E-01
       -1   -1    0    0    0  501  0.00000000000E+00  0.00000000000E+00  0.16729521771E+04  0.16729521771E+04  0.50400001928E-02 0.  1.
        1   -1    0    0  501    0  0.00000000000E+00  0.00000000000E+00 -0.23781931749E+04  0.23781931749E+04  0.50400001928E-02 0. -1.
    10030    2    1    2    0    0  0.00000000000E+00  0.00000000000E+00 -0.70524099782E+03  0.40511453520E+04  0.39892873798E+04 0.  0.
        5    1    3    3  502    0  0.12958065045E+04  0.14730995655E+04  0.12742327528E+02  0.19619687265E+04  0.46999998093E+01 0.  1.
       -5    1    3    3    0  502 -0.12958065045E+04 -0.14730995655E+04 -0.71798332535E+03  0.20891766255E+04  0.46999998093E+01 0. -1.
</event>
<event>
 5   0  0.3399500E-08  0.3986112E+04  0.7818609E-02  0.8007354E-01
        1   -1    0    0  501    0  0.00000000000E+00  0.00000000000E+00  0.27680996696E+04  0.27680996696E+04  0.50400001928E-02 0.  1.
       -1   -1    0    0    0  501  0.00000000000E+00  0.00000000000E+00 -0.14350180986E+04  0.14350180986E+04  0.50400001928E-02 0. -1.
    10030    2    1    2    0    0  0.00000000000E+00  0.00000000000E+00  0.13330815710E+04  0.42031177682E+04  0.39861124544E+04 0.  0.
        2    1    3    3  502    0 -0.26507547527E+03  0.10824002565E+04 -0.10758138918E+04  0.15489450773E+04  0.25500000920E-02 0. -1.
       -2    1    3    3    0  502  0.26507547527E+03 -0.10824002565E+04  0.24088954628E+04  0.26541726909E+04  0.25500000920E-02 0.  1.
</event>
<event>
 5   0  0.1095903E-07  0.4007793E+04  0.7818609E-02  0.8002976E-01
       -2   -1    0    0    0  501  0.00000000000E+00  0.00000000000E+00  0.13673893404E+04  0.13673893404E+04  0.25500000920E-02 0. -1.
        2   -1    0    0  501    0  0.00000000000E+00  0.00000000000E+00 -0.29366918091E+04  0.29366918091E+04  0.25500000920E-02 0.  1.
    10030    2    1    2    0    0  0.00000000000E+00  0.00000000000E+00 -0.15693024687E+04  0.43040811495E+04  0.40077929466E+04 0.  0.
        3    1    3    3  502    0 -0.19017221527E+04 -0.40799380468E+03 -0.26671614101E+03  0.19631972903E+04  0.10100000352E+00 0.  1.
       -3    1    3    3    0  502  0.19017221527E+04  0.40799380468E+03 -0.13025863277E+04  0.23408838591E+04  0.10100000352E+00 0. -1.
</event>
<event>
 5   0  0.3399500E-08  0.3976570E+04  0.7818609E-02  0.8009290E-01
       -1   -1    0    0    0  501  0.00000000000E+00  0.00000000000E+00  0.18072869705E+04  0.18072869705E+04  0.50400001928E-02 0. -1.
        1   -1    0    0  501    0  0.00000000000E+00  0.00000000000E+00 -0.21874094410E+04  0.21874094410E+04  0.50400001928E-02 0.  1.
    10030    2    1    2    0    0  0.00000000000E+00  0.00000000000E+00 -0.38012247045E+03  0.39946964115E+04  0.39765696684E+04 0.  0.
        2    1    3    3  502    0 -0.10897173872E+04 -0.16434101155E+04 -0.44616608247E+03  0.20217183198E+04  0.25500000920E-02 0. -1.
       -2    1    3    3    0  502  0.10897173872E+04  0.16434101155E+04  0.66043612018E+02  0.19729780917E+04  0.25500000920E-02 0.  1.
</event>
<event>
 5   0  0.3399500E-08  0.4003564E+04  0.7818609E-02  0.8003828E-01
       -1   -1    0    0    0  501  0.00000000000E+00  0.00000000000E+00  0.20763161056E+04  0.20763161057E+04  0.50400001928E-02 0.  1.
        1   -1    0    0  501    0  0.00000000000E+00  0.00000000000E+00 -0.19299231974E+04  0.19299231974E+04  0.50400001928E-02 0. -1.
    10030    2    1    2    0    0  0.00000000000E+00  0.00000000000E+00  0.14639290828E+03  0.40062393030E+04  0.40035637212E+04 0.  0.
        1    1    3    3  502    0  0.16126458953E+04 -0.60952865349E+03 -0.94482244012E+03  0.19659199899E+04  0.50400001928E-02 0. -1.
       -1    1    3    3    0  502 -0.16126458953E+04  0.60952865349E+03  0.10912153484E+04  0.20403193132E+04  0.50400001928E-02 0.  1.
</event>
<event>
 5   0  0.1073271E-07  0.3975762E+04  0.7818609E-02  0.8009454E-01
       -2   -1    0    0    0  501  0.00000000000E+00  0.00000000000E+00  0.18421532361E+04  0.18421532361E+04  0.25500000920E-02 0. -1.
        2   -1    0    0  501    0  0.00000000000E+00  0.00000000000E+00 -0.21451370518E+04  0.21451370518E+04  0.25500000920E-02 0.  1.
    10030    2    1    2    0    0  0.00000000000E+00  0.00000000000E+00 -0.30298381563E+03  0.39872902879E+04  0.39757621467E+04 0.  0.
        1    1    3    3  502    0  0.16961967256E+04  0.10310619449E+04 -0.43947136048E+02  0.19854730965E+04  0.50400001928E-02 0.  1.
       -1    1    3    3    0  502 -0.16961967256E+04 -0.10310619449E+04 -0.25903667958E+03  0.20018171914E+04  0.50400001928E-02 0. -1.
</event>
<event>
 5   0  0.3399500E-08  0.3995794E+04  0.7818609E-02  0.8005396E-01
        1   -1    0    0  501    0  0.00000000000E+00  0.00000000000E+00  0.17473149918E+04  0.17473149919E+04  0.50400001928E-02 0.  1.
       -1   -1    0    0    0  501  0.00000000000E+00  0.00000000000E+00 -0.22844143960E+04  0.22844143960E+04  0.50400001928E-02 0. -1.
    10030    2    1    2    0    0  0.00000000000E+00  0.00000000000E+00 -0.53709940414E+03  0.40317293878E+04  0.39957935491E+04 0.  0.
        5    1    3    3  502    0  0.69953352762E+03  0.16357159849E+04 -0.11859325388E+04  0.21380767096E+04  0.46999998093E+01 0. -1.
       -5    1    3    3    0  502 -0.69953352762E+03 -0.16357159849E+04  0.64883313464E+03  0.18936526783E+04  0.46999998093E+01 0.  1.
</event>
<event>
 5   0  0.1087688E-07  0.3997351E+04  0.7818609E-02  0.8005081E-01
        2   -1    0    0  501    0  0.00000000000E+00  0.00000000000E+00  0.19116330790E+04  0.19116330790E+04  0.25500000920E-02 0.  1.
       -2   -1    0    0    0  501  0.00000000000E+00  0.00000000000E+00 -0.20896814819E+04  0.20896814819E+04  0.25500000920E-02 0. -1.
    10030    2    1    2    0    0  0.00000000000E+00  0.00000000000E+00 -0.17804840284E+03  0.40013145609E+04  0.39973512457E+04 0.  0.
        2    1    3    3  502    0  0.18905265126E+03 -0.90905146078E+03  0.16826427236E+04  0.19218225721E+04  0.25500000920E-02 0.  1.
       -2    1    3    3    0  502 -0.18905265126E+03  0.90905146078E+03 -0.18606911265E+04  0.20794919888E+04  0.25500000920E-02 0. -1.
</event>
<event>
 5   0  0.1087688E-07  0.3933862E+04  0.7818609E-02  0.8018023E-01
        2   -1    0    0  501    0  0.00000000000E+00  0.00000000000E+00  0.27579555459E+04  0.27579555459E+04  0.25500000920E-02 0.  1.
       -2   -1    0    0    0  501  0.00000000000E+00  0.00000000000E+00 -0.14027847482E+04  0.14027847482E+04  0.25500000920E-02 0. -1.
    10030    2    1    2    0    0  0.00000000000E+00  0.00000000000E+00  0.13551707977E+04  0.41607402941E+04  0.39338622122E+04 0.  0.
        2    1    3    3  502    0 -0.79005649217E+03 -0.16507605191E+04  0.14400044419E+04  0.23286932698E+04  0.25500000920E-02 0.  1.
       -2    1    3    3    0  502  0.79005649217E+03  0.16507605191E+04 -0.84833644225E+02  0.18320470243E+04  0.25500000920E-02 0. -1.
</event>
<event>
 5   0  0.3399500E-08  0.3710785E+04  0.7818609E-02  0.8065576E-01
        1   -1    0    0  501    0  0.00000000000E+00  0.00000000000E+00  0.13015759361E+04  0.13015759361E+04  0.50400001928E-02 0. -1.
       -1   -1    0    0    0  501  0.00000000000E+00  0.00000000000E+00 -0.26448556124E+04  0.26448556124E+04  0.50400001928E-02 0.  1.
    10030    2    1    2    0    0  0.00000000000E+00  0.00000000000E+00 -0.13432796762E+04  0.39464315485E+04  0.37107845099E+04 0.  0.
        3    1    3    3  502    0 -0.16002691495E+04  0.17300938603E+03 -0.16531138402E+04  0.23072882302E+04  0.10100000352E+00 0.  1.
       -3    1    3    3    0  502  0.16002691495E+04 -0.17300938603E+03  0.30983416395E+03  0.16391433183E+04  0.10100000352E+00 0. -1.
</event>
<event>
 5   0  0.1101474E-07  0.3993606E+04  0.7818609E-02  0.8005838E-01
       -2   -1    0    0    0  501  0.00000000000E+00  0.00000000000E+00  0.15394867272E+04  0.15394867272E+04  0.25500000920E-02 0. -1.
        2   -1    0    0  501    0  0.00000000000E+00  0.00000000000E+00 -0.25899683180E+04  0.25899683180E+04  0.25500000920E-02 0.  1.
    10030    2    1    2    0    0  0.00000000000E+00  0.00000000000E+00 -0.10504815908E+04  0.41294550452E+04  0.39936058140E+04 0.  0.
        5    1    3    3  502    0  0.23137333951E+01 -0.14275223134E+04 -0.19689348950E+04  0.24319852013E+04  0.46999998093E+01 0.  1.
       -5    1    3    3    0  502 -0.23137333951E+01  0.14275223134E+04  0.91845330423E+03  0.16974698438E+04  0.46999998093E+01 0. -1.
</event>
<event>
 5   0  0.3399500E-08  0.4032839E+04  0.7818609E-02  0.7997955E-01
       -1   -1    0    0    0  501  0.00000000000E+00  0.00000000000E+00  0.29328837480E+04  0.29328837480E+04  0.50400001928E-02 0. -1.
        1   -1    0    0  501    0  0.00000000000E+00  0.00000000000E+00 -0.13863307368E+04  0.13863307368E+04  0.50400001928E-02 0.  1.
    10030    2    1    2    0    0  0.00000000000E+00  0.00000000000E+00  0.15465530113E+04  0.43192144848E+04  0.40328386465E+04 0.  0.
        4    1    3    3  502    0  0.44729200483E+03  0.83737886891E+03 -0.11320010914E+04  0.14773968971E+04  0.12699999809E+01 0.  1.
       -4    1    3    3    0  502 -0.44729200483E+03 -0.83737886891E+03  0.26785541027E+04  0.28418175877E+04  0.12699999809E+01 0. -1.
</event>
<event>
 5   0  0.1087688E-07  0.4003139E+04  0.7818609E-02  0.8003914E-01
        2   -1    0    0  501    0  0.00000000000E+00  0.00000000000E+00  0.19266923439E+04  0.19266923439E+04  0.25500000920E-02 0. -1.
       -2   -1    0    0    0  501  0.00000000000E+00  0.00000000000E+00 -0.20793567856E+04  0.20793567856E+04  0.25500000920E-02 0.  1.
    10030    2    1    2    0    0  0.00000000000E+00  0.00000000000E+00 -0.15266444166E+03  0.40060491294E+04  0.40031391677E+04 0.  0.
        2    1    3    3  502    0  0.13747793548E+03 -0.19423713147E+04  0.38722614874E+03  0.19853590600E+04  0.25500000920E-02 0. -1.
       -2    1    3    3    0  502 -0.13747793548E+03  0.19423713147E+04 -0.53989059040E+03  0.20206900694E+04  0.25500000920E-02 0.  1.
</event>
<event>
 5   0  0.3399500E-08  0.3981255E+04  0.7818609E-02  0.8008339E-01
        1   -1    0    0  501    0  0.00000000000E+00  0.00000000000E+00  0.26230397245E+04  0.26230397245E+04  0.50400001928E-02 0. -1.
       -1   -1    0    0    0  501  0.00000000000E+00  0.00000000000E+00 -0.15106890999E+04  0.15106891000E+04  0.50400001928E-02 0.  1.
    10030    2    1    2    0    0  0.00000000000E+00  0.00000000000E+00  0.11123506245E+04  0.41337288244E+04  0.39812548376E+04 0.  0.
        5    1    3    3  502    0 -0.16890731482E+04 -0.19659562038E+03 -0.51832890068E+03  0.17777246348E+04  0.46999998093E+01 0.  1.
       -5    1    3    3    0  502  0.16890731482E+04  0.19659562038E+03  0.16306795252E+04  0.23560041896E+04  0.46999998093E+01 0. -1.
</event>
<event>
 5   0  0.3399500E-08  0.3972276E+04  0.7818609E-02  0.8010163E-01
       -1   -1    0    0    0  501  0.00000000000E+00  0.00000000000E+00  0.18709905354E+04  0.18709905354E+04  0.50400001928E-02 0. -1.
        1   -1    0    0  501    0  0.00000000000E+00  0.00000000000E+00 -0.21083722625E+04  0.21083722625E+04  0.50400001928E-02 0.  1.
    10030    2    1    2    0    0  0.00000000000E+00  0.00000000000E+00 -0.23738172714E+03  0.39793627979E+04  0.39722761979E+04 0.  0.
        2    1    3    3  502    0 -0.19403044943E+04 -0.30464232787E+03  0.17705788518E+03  0.19720390395E+04  0.25500000920E-02 0.  1.
       -2    1    3    3    0  502  0.19403044943E+04  0.30464232787E+03 -0.41443961232E+03  0.20073237584E+04  0.25500000920E-02 0. -1.
</event>
<event>
 5   0  0.3399500E-08  0.3959352E+04  0.7818609E-02  0.8012797E-01
       -1   -1    0    0    0  501  0.00000000000E+00  0.00000000000E+00  0.19002104149E+04  0.19002104149E+04  0.50400001928E-02 0.  1.
        1   -1    0    0  501    0  0.00000000000E+00  0.00000000000E+00 -0.20624646727E+04  0.20624646727E+04  0.50400001928E-02 0. -1.
    10030    2    1    2    0    0  0.00000000000E+00  0.00000000000E+00 -0.16225425774E+03  0.39626750876E+04  0.39593518921E+04 0.  0.
        5    1    3    3  502    0  0.28865179757E+03  0.26763978813E+03  0.18606414465E+04  0.19018305916E+04  0.46999998093E+01 0.  1.
       -5    1    3    3    0  502 -0.28865179757E+03 -0.26763978813E+03 -0.20228957043E+04  0.20608444960E+04  0.46999998093E+01 0. -1.
</event>
<event>
 5   0  0.1087688E-07  0.4016727E+04  0.7818609E-02  0.8001181E-01
        2   -1    0    0  501    0  0.00000000000E+00  0.00000000000E+00  0.15207718712E+04  0.15207718712E+04  0.25500000920E-02 0.  1.
       -2   -1    0    0    0  501  0.00000000000E+00  0.00000000000E+00 -0.26522873722E+04  0.26522873722E+04  0.25500000920E-02 0. -1.
    10030    2    1    2    0    0  0.00000000000E+00  0.00000000000E+00 -0.11315155010E+04  0.41730592433E+04  0.40167270407E+04 0.  0.
        2    1    3    3  502    0  0.39019967497E+03  0.43021581292E+03 -0.25631296669E+04  0.26281124636E+04  0.25500000920E-02 0. -1.
       -2    1    3    3    0  502 -0.39019967497E+03 -0.43021581292E+03  0.14316141659E+04  0.15449467797E+04  0.25500000920E-02 0.  1.
</event>
<event>
 5   0  0.1087688E-07  0.3996290E+04  0.7818609E-02  0.8005295E-01
       -2   -1    0    0    0  501  0.00000000000E+00  0.00000000000E+00  0.29076391685E+04  0.29076391685E+04  0.25500000920E-02 0.  1.
        2   -1    0    0  501    0  0.00000000000E+00  0.00000000000E+00 -0.13731356013E+04  0.13731356013E+04  0.25500000920E-02 0. -1.
    10030    2    1    2    0    0  0.00000000000E+00  0.00000000000E+00  0.15345035672E+04  0.42807747698E+04  0.39962897083E+04 0.  0.
        2    1    3    3  502    0  0.19713348937E+04  0.41964826883E+02  0.42070895439E+03  0.20161642627E+04  0.25500000920E-02 0. -1.
       -2    1    3    3    0  502 -0.19713348937E+04 -0.41964826883E+02  0.11137946128E+04  0.22646105072E+04  0.25500000920E-02 0.  1.
</event>
<event>
 5   0  0.3399500E-08  0.3999367E+04  0.7818609E-02  0.8004674E-01
        1   -1    0    0  501    0  0.00000000000E+00  0.00000000000E+00  0.22366557745E+04  0.22366557745E+04  0.50400001928E-02 0.  1.
       -1   -1    0    0    0  501  0.00000000000E+00  0.00000000000E+00 -0.17878182697E+04  0.17878182697E+04  0.50400001928E-02 0. -1.
    10030    2    1    2    0    0  0.00000000000E+00  0.00000000000E+00  0.44883750477E+03  0.40244740442E+04  0.39993669782E+04 0.  0.
        4    1    3    3  502    0 -0.33096839144E+03  0.18783328986E+04  0.82907186667E+03  0.20796721682E+04  0.12699999809E+01 0.  1.
       -4    1    3    3    0  502  0.33096839144E+03 -0.18783328986E+04 -0.38023436190E+03  0.19448018760E+04  0.12699999809E+01 0. -1.
</event>
<event>
 5   0  0.1095109E-07  0.3984964E+04  0.7818609E-02  0.8007587E-01
        2   -1    0    0  501    0  0.00000000000E+00  0.00000000000E+00  0.26784248074E+04  0.26784248074E+04  0.25500000920E-02 0.  1.
       -2   -1    0    0    0  501  0.00000000000E+00  0.00000000000E+00 -0.14822088352E+04  0.14822088352E+04  0.25500000920E-02 0. -1.
    10030    2    1    2    0    0  0.00000000000E+00  0.00000000000E+00  0.11962159722E+04  0.41606336426E+04  0.39849641976E+04 0.  0.
        4    1    3    3  502    0 -0.17863813687E+04 -0.87379122781E+03  0.72731214595E+03  0.21174640669E+04  0.12699999809E+01 0.  1.
       -4    1    3    3    0  502  0.17863813687E+04  0.87379122781E+03  0.46890382623E+03  0.20431695757E+04  0.12699999809E+01 0. -1.
</event>
<event>
 5   0  0.3399500E-08  0.4125960E+04  0.7818609E-02  0.7979608E-01
       -1   -1    0    0    0  501  0.00000000000E+00  0.00000000000E+00  0.23017464988E+04  0.23017464988E+04  0.50400001928E-02 0.  1.
        1   -1    0    0  501    0  0.00000000000E+00  0.00000000000E+00 -0.18489810966E+04  0.18489810966E+04  0.50400001928E-02 0. -1.
    10030    2    1    2    0    0  0.00000000000E+00  0.00000000000E+00  0.45276540211E+03  0.41507275954E+04  0.41259596535E+04 0.  0.
        5    1    3    3  502    0 -0.17874821700E+04  0.85886021575E+03 -0.34547516013E+03  0.20129849862E+04  0.46999998093E+01 0. -1.
       -5    1    3    3    0  502  0.17874821700E+04 -0.85886021575E+03  0.79824056224E+03  0.21377426093E+04  0.46999998093E+01 0.  1.
</event>
<event>
 5   0  0.1087688E-07  0.4108760E+04  0.7818609E-02  0.7982958E-01
       -2   -1    0    0    0  501  0.00000000000E+00  0.00000000000E+00  0.22782264957E+04  0.22782264957E+04  0.25500000920E-02 0. -1.
        2   -1    0    0  501    0  0.00000000000E+00  0.00000000000E+00 -0.18525279212E+04  0.18525279212E+04  0.25500000920E-02 0.  1.
    10030    2    1    2    0    0  0.00000000000E+00  0.00000000000E+00  0.42569857447E+03  0.41307544169E+04  0.41087604915E+04 0.  0.
        2    1    3    3  502    0 -0.17571836991E+04 -0.89497167270E+03  0.79196167856E+03  0.21250581516E+04  0.25500000920E-02 0. -1.
       -2    1    3    3    0  502  0.17571836991E+04  0.89497167270E+03 -0.36626310410E+03  0.20056962653E+04  0.25500000920E-02 0.  1.
</event>
<event>
 5   0  0.3399500E-08  0.3999370E+04  0.7818609E-02  0.8004674E-01
       -1   -1    0    0    0  501  0.00000000000E+00  0.00000000000E+00  0.26305320747E+04  0.26305320747E+04  0.50400001928E-02 0. -1.
        1   -1    0    0  501    0  0.00000000000E+00  0.00000000000E+00 -0.15201262336E+04  0.15201262336E+04  0.50400001928E-02 0.  1.
    10030    2    1    2    0    0  0.00000000000E+00  0.00000000000E+00  0.11104058411E+04  0.41506583083E+04  0.39993703580E+04 0.  0.
        1    1    3    3  502    0 -0.82279216821E+03 -0.13579648841E+04 -0.70638152695E+03  0.17378234779E+04  0.50400001928E-02 0.  1.
       -1    1    3    3    0  502  0.82279216821E+03  0.13579648841E+04  0.18167873680E+04  0.24128348305E+04  0.50400001928E-02 0. -1.
</event>
<event>
 5   0  0.1087688E-07  0.4026572E+04  0.7818609E-02  0.7999208E-01
        2   -1    0    0  501    0  0.00000000000E+00  0.00000000000E+00  0.24380648477E+04  0.24380648477E+04  0.25500000920E-02 0.  1.
       -2   -1    0    0    0  501  0.00000000000E+00  0.00000000000E+00 -0.16625153640E+04  0.16625153640E+04  0.25500000920E-02 0. -1.
    10030    2    1    2    0    0  0.00000000000E+00  0.00000000000E+00  0.77554948371E+03  0.41005802117E+04  0.40265718757E+04 0.  0.
        2    1    3    3  502    0 -0.10878599511E+04  0.16882156756E+04  0.53110544604E+03  0.20773984778E+04  0.25500000920E-02 0.  1.
       -2    1    3    3    0  502  0.10878599511E+04 -0.16882156756E+04  0.24444403767E+03  0.20231817339E+04  0.25500000920E-02 0. -1.
</event>
<event>
 5   0  0.1087688E-07  0.3991814E+04  0.7818609E-02  0.8006200E-01
        2   -1    0    0  501    0  0.00000000000E+00  0.00000000000E+00  0.24990763748E+04  0.24990763748E+04  0.25500000920E-02 0. -1.
       -2   -1    0    0    0  501  0.00000000000E+00  0.00000000000E+00 -0.15940466101E+04  0.15940466101E+04  0.25500000920E-02 0.  1.
    10030    2    1    2    0    0  0.00000000000E+00  0.00000000000E+00  0.90502976469E+03  0.40931229850E+04  0.39918137350E+04 0.  0.
        2    1    3    3  502    0  0.18837873010E+04 -0.16946620468E+03  0.11060852427E+04  0.21910723297E+04  0.25500000920E-02 0. -1.
       -2    1    3    3    0  502 -0.18837873010E+04  0.16946620468E+03 -0.20105547804E+03  0.19020506552E+04  0.25500000920E-02 0.  1.
</event>
<event>
 5   0  0.3399500E-08  0.4023590E+04  0.7818609E-02  0.7999804E-01
       -1   -1    0    0    0  501  0.00000000000E+00  0.00000000000E+00  0.15281400773E+04  0.15281400773E+04  0.50400001928E-02 0. -1.
        1   -1    0    0  501    0  0.00000000000E+00  0.00000000000E+00 -0.26485267042E+04  0.26485267042E+04  0.50400001928E-02 0.  1.
    10030    2    1    2    0    0  0.00000000000E+00  0.00000000000E+00 -0.11203866269E+04  0.41766667814E+04  0.40235903382E+04 0.  0.
        5    1    3    3  502    0 -0.68495560858E+02  0.99639666429E+03 -0.23730010017E+04  0.25746172140E+04  0.46999998093E+01 0.  1.
       -5    1    3    3    0  502  0.68495560858E+02 -0.99639666429E+03  0.12526143748E+04  0.16020495674E+04  0.46999998093E+01 0. -1.
</event>
<event>
 5   0  0.3399500E-08  0.4026756E+04  0.7818609E-02  0.7999171E-01
       -1   -1    0    0    0  501  0.00000000000E+00  0.00000000000E+00  0.16603710125E+04  0.16603710125E+04  0.50400001928E-02 0.  1.
        1   -1    0    0  501    0  0.00000000000E+00  0.00000000000E+00 -0.24414366707E+04  0.24414366707E+04  0.50400001928E-02 0. -1.
    10030    2    1    2    0    0  0.00000000000E+00  0.00000000000E+00 -0.78106565826E+03  0.41018076832E+04  0.40267558540E+04 0.  0.
        1    1    3    3  502    0 -0.77927045289E+03 -0.43641891883E+03  0.14475284116E+04  0.17009004715E+04  0.50400001928E-02 0.  1.
       -1    1    3    3    0  502  0.77927045289E+03  0.43641891883E+03 -0.22285940698E+04  0.24009072118E+04  0.50400001928E-02 0. -1.
</event>
<event>
 5   0  0.3399500E-08  0.4023403E+04  0.7818609E-02  0.7999842E-01
        1   -1    0    0  501    0  0.00000000000E+00  0.00000000000E+00  0.19346169047E+04  0.19346169047E+04  0.50400001928E-02 0.  1.
       -1   -1    0    0    0  501  0.00000000000E+00  0.00000000000E+00 -0.20918570318E+04  0.20918570318E+04  0.50400001928E-02 0. -1.
    10030    2    1    2    0    0  0.00000000000E+00  0.00000000000E+00 -0.15724012712E+03  0.40264739366E+04  0.40234025282E+04 0.  0.
        3    1    3    3  502    0  0.16980031593E+03  0.19768013661E+04  0.25384759754E+03  0.20002535843E+04  0.10100000352E+00 0.  1.
       -3    1    3    3    0  502 -0.16980031593E+03 -0.19768013661E+04 -0.41108772466E+03  0.20262203523E+04  0.10100000352E+00 0. -1.
</event>
<event>
 5   0  0.3399500E-08  0.3957505E+04  0.7818609E-02  0.8013174E-01
       -1   -1    0    0    0  501  0.00000000000E+00  0.00000000000E+00  0.21120834299E+04  0.21120834299E+04  0.50400001928E-02 0.  1.
        1   -1    0    0  501    0  0.00000000000E+00  0.00000000000E+00 -0.18538386217E+04  0.18538386217E+04  0.50400001928E-02 0. -1.
    10030    2    1    2    0    0  0.00000000000E+00  0.00000000000E+00  0.25824480818E+03  0.39659220516E+04  0.39575051912E+04 0.  0.
        4    1    3    3  502    0 -0.75272766325E+03 -0.16456371346E+04  0.93128701881E+03  0.20351947420E+04  0.12699999809E+01 0.  1.
       -4    1    3    3    0  502  0.75272766325E+03  0.16456371346E+04 -0.67304221062E+03  0.19307273096E+04  0.12699999809E+01 0. -1.
</event>
<event>
 5   0  0.3399500E-08  0.4267124E+04  0.7818609E-02  0.7952725E-01
       -1   -1    0    0    0  501  0.00000000000E+00  0.00000000000E+00  0.23320552991E+04  0.23320552991E+04  0.50400001928E-02 0. -1.
        1   -1    0    0  501    0  0.00000000000E+00  0.00000000000E+00 -0.19519636217E+04  0.19519636218E+04  0.50400001928E-02 0.  1.
    10030    2    1    2    0    0  0.00000000000E+00  0.00000000000E+00  0.38009167737E+03  0.42840189209E+04  0.42671241406E+04 0.  0.
        4    1    3    3  502    0 -0.65057114648E+03  0.19742457682E+04 -0.29268669136E+03  0.20991799071E+04  0.12699999809E+01 0.  1.
       -4    1    3    3    0  502  0.65057114648E+03 -0.19742457682E+04  0.67277836873E+03  0.21848390138E+04  0.12699999809E+01 0. -1.
</event>
<event>
 5   0  0.1073271E-07  0.3978568E+04  0.7818609E-02  0.8008884E-01
       -2   -1    0    0    0  501  0.00000000000E+00  0.00000000000E+00  0.15780231418E+04  0.15780231418E+04  0.25500000920E-02 0.  1.
        2   -1    0    0  501    0  0.00000000000E+00  0.00000000000E+00 -0.25077263634E+04  0.25077263634E+04  0.25500000920E-02 0. -1.
    10030    2    1    2    0    0  0.00000000000E+00  0.00000000000E+00 -0.92970322162E+03  0.40857495053E+04  0.39785676995E+04 0.  0.
        1    1    3    3  502    0 -0.17998646311E+04  0.77196096013E+03 -0.10643075977E+03  0.19613168844E+04  0.50400001928E-02 0.  1.
       -1    1    3    3    0  502  0.17998646311E+04 -0.77196096013E+03 -0.82327246185E+03  0.21244326209E+04  0.50400001928E-02 0. -1.
</event>
<event>
 5   0  0.1095903E-07  0.3694467E+04  0.7818609E-02  0.8069189E-01
       -2   -1    0    0    0  501  0.00000000000E+00  0.00000000000E+00  0.23856245425E+04  0.23856245425E+04  0.25500000920E-02 0. -1.
        2   -1    0    0  501    0  0.00000000000E+00  0.00000000000E+00 -0.14303470969E+04  0.14303470969E+04  0.25500000920E-02 0.  1.
    10030    2    1    2    0    0  0.00000000000E+00  0.00000000000E+00  0.95527744558E+03  0.38159716395E+04  0.36944667484E+04 0.  0.
        3    1    3    3  502    0 -0.14683096053E+04 -0.23126827943E+03  0.16104554591E+04  0.21915713336E+04  0.10100000352E+00 0. -1.
       -3    1    3    3    0  502  0.14683096053E+04  0.23126827943E+03 -0.65517801351E+03  0.16244003059E+04  0.10100000352E+00 0.  1.
</event>
<event>
 5   0  0.1087688E-07  0.3992477E+04  0.7818609E-02  0.8006066E-01
       -2   -1    0    0    0  501  0.00000000000E+00  0.00000000000E+00  0.13697290709E+04  0.13697290709E+04  0.25500000920E-02 0. -1.
        2   -1    0    0  501    0  0.00000000000E+00  0.00000000000E+00 -0.29093108620E+04  0.29093108620E+04  0.25500000920E-02 0.  1.
    10030    2    1    2    0    0  0.00000000000E+00  0.00000000000E+00 -0.15395817911E+04  0.42790399329E+04  0.39924767571E+04 0.  0.
        2    1    3    3  502    0 -0.11516650999E+03  0.76279258288E+03 -0.27430962748E+04  0.28495075052E+04  0.25500000920E-02 0.  1.
       -2    1    3    3    0  502  0.11516650999E+03 -0.76279258288E+03  0.12035144836E+04  0.14295324277E+04  0.25500000920E-02 0. -1.
</event>
<event>
 5   0  0.1095109E-07  0.4108639E+04  0.7818609E-02  0.7982982E-01
        2   -1    0    0  501    0  0.00000000000E+00  0.00000000000E+00  0.26035736252E+04  0.26035736252E+04  0.25500000920E-02 0. -1.
       -2   -1    0    0    0  501  0.00000000000E+00  0.00000000000E+00 -0.16209372135E+04  0.16209372135E+04  0.25500000920E-02 0.  1.
    10030    2    1    2    0    0  0.00000000000E+00  0.00000000000E+00  0.98263641161E+03  0.42245108387E+04  0.41086393744E+04 0.  0.
        4    1    3    3  502    0  0.13309130484E+04 -0.12912442596E+04 -0.41768816110E+03  0.19008172698E+04  0.12699999809E+01 0.  1.
       -4    1    3    3    0  502 -0.13309130484E+04  0.12912442596E+04  0.14003245727E+04  0.23236935689E+04  0.12699999809E+01 0. -1.
</event>
<event>
 5   0  0.3399500E-08  0.4011867E+04  0.7818609E-02  0.8002157E-01
        1   -1    0    0  501    0  0.00000000000E+00  0.00000000000E+00  0.24966272035E+04  0.24966272035E+04  0.50400001928E-02 0.  1.
       -1   -1    0    0    0  501  0.00000000000E+00  0.00000000000E+00 -0.16116819335E+04  0.16116819335E+04  0.50400001928E-02 0. -1.
    10030    2    1    2    0    0  0.00000000000E+00  0.00000000000E+00  0.88494527001E+03  0.41083091370E+04  0.40118668765E+04 0.  0.
        4    1    3    3  502    0 -0.45302752029E+02  0.19946423919E+04  0.65510997639E+03  0.20999574532E+04  0.12699999809E+01 0. -1.
       -4    1    3    3    0  502  0.45302752029E+02 -0.19946423919E+04  0.22983529362E+03  0.20083516839E+04  0.12699999809E+01 0.  1.
</event>
<event>
 5   0  0.1101474E-07  0.3984903E+04  0.7818609E-02  0.8007599E-01
       -2   -1    0    0    0  501  0.00000000000E+00  0.00000000000E+00  0.19383353612E+04  0.19383353612E+04  0.25500000920E-02 0.  1.
        2   -1    0    0  501    0  0.00000000000E+00  0.00000000000E+00 -0.20480785912E+04  0.20480785912E+04  0.25500000920E-02 0. -1.
    10030    2    1    2    0    0  0.00000000000E+00  0.00000000000E+00 -0.10974323000E+03  0.39864139524E+04  0.39849030883E+04 0.  0.
        5    1    3    3  502    0 -0.10645420772E+04 -0.12965707408E+04 -0.11302189622E+04  0.20228105479E+04  0.46999998093E+01 0. -1.
       -5    1    3    3    0  502  0.10645420772E+04  0.12965707408E+04  0.10204757322E+04  0.19636034045E+04  0.46999998093E+01 0.  1.
</event>
<event>
 5   0  0.1073271E-07  0.4003159E+04  0.7818609E-02  0.8003910E-01
        2   -1    0    0  501    0  0.00000000000E+00  0.00000000000E+00  0.24802161336E+04  0.24802161336E+04  0.25500000920E-02 0. -1.
       -2   -1    0    0    0  501  0.00000000000E+00  0.00000000000E+00 -0.16153108961E+04  0.16153108961E+04  0.25500000920E-02 0.  1.
    10030    2    1    2    0    0  0.00000000000E+00  0.00000000000E+00  0.86490523745E+03  0.40955270297E+04  0.40031588254E+04 0.  0.
        1    1    3    3  502    0  0.18252452602E+04  0.76915565376E+03  0.72755128308E+03  0.21100833039E+04  0.50400001928E-02 0.  1.
       -1    1    3    3    0  502 -0.18252452602E+04 -0.76915565376E+03  0.13735395436E+03  0.19854437259E+04  0.50400001928E-02 0. -1.
</event>
<event>
 5   0  0.3399500E-08  0.3926189E+04  0.7818609E-02  0.8019604E-01
        1   -1    0    0  501    0  0.00000000000E+00  0.00000000000E+00  0.15605664831E+04  0.15605664831E+04  0.50400001928E-02 0.  1.
       -1   -1    0    0    0  501  0.00000000000E+00  0.00000000000E+00 -0.24694495704E+04  0.24694495704E+04  0.50400001928E-02 0. -1.
    10030    2    1    2    0    0  0.00000000000E+00  0.00000000000E+00 -0.90888308735E+03  0.40300160535E+04  0.39261891097E+04 0.  0.
        4    1    3    3  502    0  0.10191489822E+04  0.13766501640E+04 -0.14389236567E+04  0.22370367062E+04  0.12699999809E+01 0. -1.
       -4    1    3    3    0  502 -0.10191489822E+04 -0.13766501640E+04  0.53004056935E+03  0.17929793474E+04  0.12699999809E+01 0.  1.
</event>
<event>
 5   0  0.3399500E-08  0.3917405E+04  0.7818609E-02  0.8021419E-01
        1   -1    0    0  501    0  0.00000000000E+00  0.00000000000E+00  0.14787620369E+04  0.14787620369E+04  0.50400001928E-02 0.  1.
       -1   -1    0    0    0  501  0.00000000000E+00  0.00000000000E+00 -0.25944106329E+04  0.25944106329E+04  0.50400001928E-02 0. -1.
    10030    2    1    2    0    0  0.00000000000E+00  0.00000000000E+00 -0.11156485960E+04  0.40731726697E+04  0.39174052392E+04 0.  0.
        3    1    3    3  502    0 -0.83980021600E+03  0.43429542093E+03 -0.23414462815E+04  0.25251232870E+04  0.10100000352E+00 0. -1.
       -3    1    3    3    0  502  0.83980021600E+03 -0.43429542093E+03  0.12257976855E+04  0.15480493827E+04  0.10100000352E+00 0.  1.
</event>
<event>
 5   0  0.1095109E-07  0.3996565E+04  0.7818609E-02  0.8005240E-01
        2   -1    0    0  501    0  0.00000000000E+00  0.00000000000E+00  0.15316682662E+04  0.15316682662E+04  0.25500000920E-02 0. -1.
       -2   -1    0    0    0  501  0.00000000000E+00  0.00000000000E+00 -0.26070476374E+04  0.26070476374E+04  0.25500000920E-02 0.  1.
    10030    2    1    2    0    0  0.00000000000E+00  0.00000000000E+00 -0.10753793711E+04  0.41387159036E+04  0.39965645921E+04 0.  0.
        4    1    3    3  502    0  0.17007735979E+04  0.64450957281E+03 -0.13948420233E+04  0.22920753268E+04  0.12699999809E+01 0.  1.
       -4    1    3    3    0  502 -0.17007735979E+04 -0.64450957281E+03  0.31946265220E+03  0.18466405768E+04  0.12699999809E+01 0. -1.
</event>
<event>
 5   0  0.1095903E-07  0.3999044E+04  0.7818609E-02  0.8004739E-01
        2   -1    0    0  501    0  0.00000000000E+00  0.00000000000E+00  0.26732814519E+04  0.26732814519E+04  0.25500000920E-02 0. -1.
       -2   -1    0    0    0  501  0.00000000000E+00  0.00000000000E+00 -0.14955730852E+04  0.14955730852E+04  0.25500000920E-02 0.  1.
    10030    2    1    2    0    0  0.00000000000E+00  0.00000000000E+00  0.11777083668E+04  0.41688545371E+04  0.39990437800E+04 0.  0.
        3    1    3    3  502    0  0.73778194831E+03 -0.11638915807E+04 -0.92150214421E+03  0.16577490844E+04  0.10100000352E+00 0.  1.
       -3    1    3    3    0  502 -0.73778194831E+03  0.11638915807E+04  0.20992105110E+04  0.25111054527E+04  0.10100000352E+00 0. -1.
</event>
<event>
 5   0  0.1087688E-07  0.3993933E+04  0.7818609E-02  0.8005772E-01
        2   -1    0    0  501    0  0.00000000000E+00  0.00000000000E+00  0.15125016655E+04  0.15125016655E+04  0.25500000920E-02 0. -1.
       -2   -1    0    0    0  501  0.00000000000E+00  0.00000000000E+00 -0.26366083528E+04  0.26366083528E+04  0.25500000920E-02 0.  1.
    10030    2    1    2    0    0  0.00000000000E+00  0.00000000000E+00 -0.11241066873E+04  0.41491100183E+04  0.39939326608E+04 0.  0.
        2    1    3    3  502    0 -0.14134472510E+04  0.84640623769E+03  0.61035039628E+03  0.17569189671E+04  0.25500000920E-02 0. -1.
       -2    1    3    3    0  502  0.14134472510E+04 -0.84640623769E+03 -0.17344570835E+04  0.23921910512E+04  0.25500000920E-02 0.  1.
</event>
<event>
 5   0  0.1087688E-07  0.4062513E+04  0.7818609E-02  0.7992053E-01
       -2   -1    0    0    0  501  0.00000000000E+00  0.00000000000E+00  0.20002919080E+04  0.20002919080E+04  0.25500000920E-02 0. -1.
        2   -1    0    0  501    0  0.00000000000E+00  0.00000000000E+00 -0.20627005446E+04  0.20627005446E+04  0.25500000920E-02 0.  1.
    10030    2    1    2    0    0  0.00000000000E+00  0.00000000000E+00 -0.62408636603E+02  0.40629924525E+04  0.40625131177E+04 0.  0.
        2    1    3    3  502    0 -0.65168357264E+03  0.13828103526E+04 -0.13689522335E+04  0.20520443874E+04  0.25500000920E-02 0.  1.
       -2    1    3    3    0  502  0.65168357264E+03 -0.13828103526E+04  0.13065435969E+04  0.20109480652E+04  0.25500000920E-02 0. -1.
</event>
<event>
 5   0  0.1095109E-07  0.3995715E+04  0.7818609E-02  0.8005412E-01
        2   -1    0    0  501    0  0.00000000000E+00  0.00000000000E+00  0.18896786399E+04  0.18896786399E+04  0.25500000920E-02 0.  1.
       -2   -1    0    0    0  501  0.00000000000E+00  0.00000000000E+00 -0.21122293955E+04  0.21122293955E+04  0.25500000920E-02 0. -1.
    10030    2    1    2    0    0  0.00000000000E+00  0.00000000000E+00 -0.22255075555E+03  0.40019080354E+04  0.39957150905E+04 0.  0.
        4    1    3    3  502    0 -0.15765991025E+04 -0.41736357323E+03 -0.12670032371E+04  0.20652253868E+04  0.12699999809E+01 0. -1.
       -4    1    3    3    0  502  0.15765991025E+04  0.41736357323E+03  0.10444524816E+04  0.19366826486E+04  0.12699999809E+01 0.  1.
</event>
<event>
 5   0  0.1101474E-07  0.3998270E+04  0.7818609E-02  0.8004896E-01
        2   -1    0    0  501    0  0.00000000000E+00  0.00000000000E+00  0.13969890415E+04  0.13969890415E+04  0.25500000920E-02 0. -1.
       -2   -1    0    0    0  501  0.00000000000E+00  0.00000000000E+00 -0.28608247008E+04  0.28608247008E+04  0.25500000920E-02 0.  1.
    10030    2    1    2    0    0  0.00000000000E+00  0.00000000000E+00 -0.14638356593E+04  0.42578137423E+04  0.39982700042E+04 0.  0.
        5    1    3    3  502    0  0.17573097961E+04 -0.51029834949E+03 -0.15891415549E+04  0.24236202459E+04  0.46999998093E+01 0.  1.
       -5    1    3    3    0  502 -0.17573097961E+04  0.51029834949E+03  0.12530589553E+03  0.18341934964E+04  0.46999998093E+01 0. -1.
</event>
<event>
 5   0  0.1101474E-07  0.4030797E+04  0.7818609E-02  0.7998362E-01
        2   -1    0    0  501    0  0.00000000000E+00  0.00000000000E+00  0.17491097365E+04  0.17491097365E+04  0.25500000920E-02 0.  1.
       -2   -1    0    0    0  501  0.00000000000E+00  0.00000000000E+00 -0.23222276785E+04  0.23222276785E+04  0.25500000920E-02 0. -1.
    10030    2    1    2    0    0  0.00000000000E+00  0.00000000000E+00 -0.57311794202E+03  0.40713374150E+04  0.40307969648E+04 0.  0.
        5    1    3    3  502    0 -0.18860768155E+04  0.29140577552E+03 -0.94084395374E+03  0.21277717254E+04  0.46999998093E+01 0. -1.
       -5    1    3    3    0  502  0.18860768155E+04 -0.29140577552E+03  0.36772601172E+03  0.19435656896E+04  0.46999998093E+01 0.  1.
</event>
<event>
 5   0  0.1095903E-07  0.4033130E+04  0.7818609E-02  0.7997896E-01
        2   -1    0    0  501    0  0.00000000000E+00  0.00000000000E+00  0.20013012095E+04  0.20013012095E+04  0.25500000920E-02 0.  1.
       -2   -1    0    0    0  501  0.00000000000E+00  0.00000000000E+00 -0.20319449319E+04  0.20319449319E+04  0.25500000920E-02 0. -1.
    10030    2    1    2    0    0  0.00000000000E+00  0.00000000000E+00 -0.30643722380E+02  0.40332461414E+04  0.40331297275E+04 0.  0.
        3    1    3    3  502    0  0.20053752822E+04  0.14336082405E+03 -0.17169610085E+03  0.20178111680E+04  0.10100000352E+00 0. -1.
       -3    1    3    3    0  502 -0.20053752822E+04 -0.14336082405E+03  0.14105237847E+03  0.20154349734E+04  0.10100000352E+00 0.  1.
</event>
<event>
 5   0  0.3399500E-08  0.4024244E+04  0.7818609E-02  0.7999673E-01
       -1   -1    0    0    0  501  0.00000000000E+00  0.00000000000E+00  0.19137121864E+04  0.19137121864E+04  0.50400001928E-02 0. -1.
        1   -1    0    0  501    0  0.00000000000E+00  0.00000000000E+00 -0.21155927328E+04  0.21155927328E+04  0.50400001928E-02 0.  1.
    10030    2    1    2    0    0  0.00000000000E+00  0.00000000000E+00 -0.20188054633E+03  0.40293049192E+04  0.40242443237E+04 0.  0.
        1    1    3    3  502    0 -0.12860530146E+03  0.22646510390E+03 -0.20986459756E+04  0.21147436482E+04  0.50400001928E-02 0.  1.
       -1    1    3    3    0  502  0.12860530146E+03 -0.22646510390E+03  0.18967654292E+04  0.19145612710E+04  0.50400001928E-02 0. -1.
</event>
<event>
 5   0  0.3399500E-08  0.3914650E+04  0.7818609E-02  0.8021989E-01
        1   -1    0    0  501    0  0.00000000000E+00  0.00000000000E+00  0.22978427146E+04  0.22978427146E+04  0.50400001928E-02 0.  1.
       -1   -1    0    0    0  501  0.00000000000E+00  0.00000000000E+00 -0.16672685728E+04  0.16672685729E+04  0.50400001928E-02 0. -1.
    10030    2    1    2    0    0  0.00000000000E+00  0.00000000000E+00  0.63057414175E+03  0.39651112875E+04  0.39146498916E+04 0.  0.
        1    1    3    3  502    0 -0.10151380156E+04 -0.14965079264E+04  0.10739952444E+04  0.21032134817E+04  0.50400001928E-02 0.  1.
       -1    1    3    3    0  502  0.10151380156E+04  0.14965079264E+04 -0.44342110269E+03  0.18618978057E+04  0.50400001928E-02 0. -1.
</event>
<event>
 5   0  0.1087688E-07  0.3996559E+04  0.7818609E-02  0.8005241E-01
       -2   -1    0    0    0  501  0.00000000000E+00  0.00000000000E+00  0.33535217604E+04  0.33535217604E+04  0.25500000920E-02 0.  1.
        2   -1    0    0  501    0  0.00000000000E+00  0.00000000000E+00 -0.11907247830E+04  0.11907247830E+04  0.25500000920E-02 0. -1.
    10030    2    1    2    0    0  0.00000000000E+00  0.00000000000E+00  0.21627969774E+04  0.45442465434E+04  0.39965592554E+04 0.  0.
        2    1    3    3  502    0 -0.16490718463E+03  0.19673566757E+04  0.73013823055E+03  0.21049438246E+04  0.25500000920E-02 0. -1.
       -2    1    3    3    0  502  0.16490718463E+03 -0.19673566757E+04  0.14326587468E+04  0.24393027188E+04  0.25500000920E-02 0.  1.
</event>
<event>
 5   0  0.1095109E-07  0.4006483E+04  0.7818609E-02  0.8003240E-01
        2   -1    0    0  501    0  0.00000000000E+00  0.00000000000E+00  0.30069361903E+04  0.30069361903E+04  0.25500000920E-02 0.  1.
       -2   -1    0    0    0  501  0.00000000000E+00  0.00000000000E+00 -0.13345735088E+04  0.13345735088E+04  0.25500000920E-02 0. -1.
    10030    2    1    2    0    0  0.00000000000E+00  0.00000000000E+00  0.16723626815E+04  0.43415096991E+04  0.40064834367E+04 0.  0.
        4    1    3    3  502    0  0.60560752941E+03 -0.10689858232E+04  0.25507302803E+04  0.28312042925E+04  0.12699999809E+01 0.  1.
       -4    1    3    3    0  502 -0.60560752941E+03  0.10689858232E+04 -0.87836759879E+03  0.15103054067E+04  0.12699999809E+01 0. -1.
</event>
<event>
 5   0  0.3399500E-08  0.4011907E+04  0.7818609E-02  0.8002149E-01
       -1   -1    0    0    0  501  0.00000000000E+00  0.00000000000E+00  0.14602001656E+04  0.14602001656E+04  0.50400001928E-02 0.  1.
        1   -1    0    0  501    0  0.00000000000E+00  0.00000000000E+00 -0.27556841017E+04  0.27556841017E+04  0.50400001928E-02 0. -1.
    10030    2    1    2    0    0  0.00000000000E+00  0.00000000000E+00 -0.12954839361E+04  0.42158842673E+04  0.40119074674E+04 0.  0.
        5    1    3    3  502    0 -0.99871468207E+03  0.65963460084E+03  0.10438472162E+04  0.15881397682E+04  0.46999998093E+01 0.  1.
       -5    1    3    3    0  502  0.99871468207E+03 -0.65963460084E+03 -0.23393311522E+04  0.26277444991E+04  0.46999998093E+01 0. -1.
</event>
<event>
 5   0  0.1073271E-07  0.4010411E+04  0.7818609E-02  0.8002450E-01
        2   -1    0    0  501    0  0.00000000000E+00  0.00000000000E+00  0.26017426839E+04  0.26017426839E+04  0.25500000920E-02 0.  1.
       -2   -1    0    0    0  501  0.00000000000E+00  0.00000000000E+00 -0.15454449284E+04  0.15454449284E+04  0.25500000920E-02 0. -1.
    10030    2    1    2    0    0  0.00000000000E+00  0.00000000000E+00  0.10562977555E+04  0.41471876123E+04  0.40104114681E+04 0.  0.
        1    1    3    3  502    0 -0.20957868022E+03  0.69325457512E+03 -0.14054689479E+04  0.15810971168E+04  0.50400001928E-02 0. -1.
       -1    1    3    3    0  502  0.20957868022E+03 -0.69325457512E+03  0.24617667034E+04  0.25660904955E+04  0.50400001928E-02 0.  1.
</event>
<event>
 5   0  0.3399500E-08  0.3974022E+04  0.7818609E-02  0.8009808E-01
       -1   -1    0    0    0  501  0.00000000000E+00  0.00000000000E+00  0.27106758156E+04  0.27106758156E+04  0.50400001928E-02 0.  1.
        1   -1    0    0  501    0  0.00000000000E+00  0.00000000000E+00 -0.14565418488E+04  0.14565418488E+04  0.50400001928E-02 0. -1.
    10030    2    1    2    0    0  0.00000000000E+00  0.00000000000E+00  0.12541339668E+04  0.41672176644E+04  0.39740220251E+04 0.  0.
        5    1    3    3  502    0 -0.12037864109E+04  0.14768770041E+03  0.22775202312E+04  0.25803166227E+04  0.46999998093E+01 0.  1.
       -5    1    3    3    0  502  0.12037864109E+04 -0.14768770041E+03 -0.10233862644E+04  0.15869010417E+04  0.46999998093E+01 0. -1.
</event>
<event>
 5   0  0.3399500E-08  0.3984261E+04  0.7818609E-02  0.8007729E-01
        1   -1    0    0  501    0  0.00000000000E+00  0.00000000000E+00  0.22974066755E+04  0.22974066755E+04  0.50400001928E-02 0.  1.
       -1   -1    0    0    0  501  0.00000000000E+00  0.00000000000E+00 -0.17274191641E+04  0.17274191641E+04  0.50400001928E-02 0. -1.
    10030    2    1    2    0    0  0.00000000000E+00  0.00000000000E+00  0.56998751142E+03  0.40248258396E+04  0.39842611958E+04 0.  0.
        4    1    3    3  502    0  0.27448364713E+03  0.11808230322E+04  0.18818785678E+04  0.22385604443E+04  0.12699999809E+01 0.  1.
       -4    1    3    3    0  502 -0.27448364713E+03 -0.11808230322E+04 -0.13118910564E+04  0.17862653954E+04  0.12699999809E+01 0. -1.
</event>
<event>
 5   0  0.3399500E-08  0.3985585E+04  0.7818609E-02  0.8007461E-01
       -1   -1    0    0    0  501  0.00000000000E+00  0.00000000000E+00  0.15252222097E+04  0.15252222097E+04  0.50400001928E-02 0. -1.
        1   -1    0    0  501    0  0.00000000000E+00  0.00000000000E+00 -0.26037005991E+04  0.26037005991E+04  0.50400001928E-02 0.  1.
    10030    2    1    2    0    0  0.00000000000E+00  0.00000000000E+00 -0.10784783894E+04  0.41289228088E+04  0.39855850166E+04 0.  0.
        1    1    3    3  502    0  0.30122984239E+03  0.80292319219E+03  0.13242861951E+04  0.15777068793E+04  0.50400001928E-02 0. -1.
       -1    1    3    3    0  502 -0.30122984239E+03 -0.80292319219E+03 -0.24027645845E+04  0.25512159295E+04  0.50400001928E-02 0.  1.
</event>
<event>
 5   0  0.3399500E-08  0.4056578E+04  0.7818609E-02  0.7993229E-01
       -1   -1    0    0    0  501  0.00000000000E+00  0.00000000000E+00  0.19008480475E+04  0.19008480476E+04  0.50400001928E-02 0.  1.
        1   -1    0    0  501    0  0.00000000000E+00  0.00000000000E+00 -0.21642742428E+04  0.21642742428E+04  0.50400001928E-02 0. -1.
    10030    2    1    2    0    0  0.00000000000E+00  0.00000000000E+00 -0.26342619524E+03  0.40651222903E+04  0.40565780992E+04 0.  0.
        1    1    3    3  502    0  0.17313448534E+04  0.10014658714E+04 -0.46927207394E+03  0.20544354876E+04  0.50400001928E-02 0. -1.
       -1    1    3    3    0  502 -0.17313448534E+04 -0.10014658714E+04  0.20584587869E+03  0.20106868028E+04  0.50400001928E-02 0.  1.
</event>
<event>
 5   0  0.3399500E-08  0.3707542E+04  0.7818609E-02  0.8066292E-01
       -1   -1    0    0    0  501  0.00000000000E+00  0.00000000000E+00  0.15574888102E+04  0.15574888102E+04  0.50400001928E-02 0. -1.
        1   -1    0    0  501    0  0.00000000000E+00  0.00000000000E+00 -0.22064152154E+04  0.22064152154E+04  0.50400001928E-02 0.  1.
    10030    2    1    2    0    0  0.00000000000E+00  0.00000000000E+00 -0.64892640524E+03  0.37639040256E+04  0.37075420476E+04 0.  0.
        1    1    3    3  502    0 -0.83565753355E+03 -0.10946502935E+04 -0.15842483726E+04  0.20991488000E+04  0.50400001928E-02 0.  1.
       -1    1    3    3    0  502  0.83565753355E+03  0.10946502935E+04  0.93532196737E+03  0.16647552256E+04  0.50400001928E-02 0. -1.
</event>
<event>
 5   0  0.3399500E-08  0.3980910E+04  0.7818609E-02  0.8008409E-01
        1   -1    0    0  501    0  0.00000000000E+00  0.00000000000E+00  0.25490384875E+04  0.25490384875E+04  0.50400001928E-02 0.  1.
       -1   -1    0    0    0  501  0.00000000000E+00  0.00000000000E+00 -0.15542767687E+04  0.15542767687E+04  0.50400001928E-02 0. -1.
    10030    2    1    2    0    0  0.00000000000E+00  0.00000000000E+00  0.99476171873E+03  0.41033152562E+04  0.39809100988E+04 0.  0.
        2    1    3    3  502    0 -0.13700245664E+04  0.13714757288E+04  0.96293029742E+03  0.21645202112E+04  0.25500000920E-02 0.  1.
       -2    1    3    3    0  502  0.13700245664E+04 -0.13714757288E+04  0.31831421316E+02  0.19387950450E+04  0.25500000920E-02 0. -1.
</event>
<event>
 5   0  0.3399500E-08  0.3979741E+04  0.7818609E-02  0.8008646E-01
        1   -1    0    0  501    0  0.00000000000E+00  0.00000000000E+00  0.17914106761E+04  0.17914106761E+04  0.50400001928E-02 0. -1.
       -1   -1    0    0    0  501  0.00000000000E+00  0.00000000000E+00 -0.22103165439E+04  0.22103165439E+04  0.50400001928E-02 0.  1.
    10030    2    1    2    0    0  0.00000000000E+00  0.00000000000E+00 -0.41890586777E+03  0.40017272200E+04  0.39797410239E+04 0.  0.
        5    1    3    3  502    0  0.13360642714E+04  0.14756107547E+03 -0.16847738461E+04  0.21553020694E+04  0.46999998093E+01 0.  1.
       -5    1    3    3    0  502 -0.13360642714E+04 -0.14756107547E+03  0.12658679783E+04  0.18464251506E+04  0.46999998093E+01 0. -1.
</event>
<event>
 5   0  0.1095903E-07  0.4007958E+04  0.7818609E-02  0.8002943E-01
       -2   -1    0    0    0  501  0.00000000000E+00  0.00000000000E+00  0.26659155037E+04  0.26659155037E+04  0.25500000920E-02 0.  1.
        2   -1    0    0  501    0  0.00000000000E+00  0.00000000000E+00 -0.15063986909E+04  0.15063986909E+04  0.25500000920E-02 0. -1.
    10030    2    1    2    0    0  0.00000000000E+00  0.00000000000E+00  0.11595168129E+04  0.41723141946E+04  0.40079578964E+04 0.  0.
        3    1    3    3  502    0  0.69914565565E+03  0.11359045399E+04 -0.97718231017E+03  0.16534718168E+04  0.10100000352E+00 0. -1.
       -3    1    3    3    0  502 -0.69914565565E+03 -0.11359045399E+04  0.21366991230E+04  0.25188423778E+04  0.10100000352E+00 0.  1.
</event>
<event>
 5   0  0.3399500E-08  0.4004980E+04  0.7818609E-02  0.8003543E-01
        1   -1    0    0  501    0  0.00000000000E+00  0.00000000000E+00  0.21305411029E+04  0.21305411029E+04  0.50400001928E-02 0. -1.
       -1   -1    0    0    0  501  0.00000000000E+00  0.00000000000E+00 -0.18821353253E+04  0.18821353253E+04  0.50400001928E-02 0.  1.
    10030    2    1    2    0    0  0.00000000000E+00  0.00000000000E+00  0.24840577764E+03  0.40126764282E+04  0.40049802356E+04 0.  0.
        3    1    3    3  502    0  0.18739440428E+04 -0.36858918138E+03 -0.47898590304E+03  0.19689976551E+04  0.10100000352E+00 0.  1.
       -3    1    3    3    0  502 -0.18739440428E+04  0.36858918138E+03  0.72739168068E+03  0.20436787731E+04  0.10100000352E+00 0. -1.
</event>
<event>
 5   0  0.3399500E-08  0.3953289E+04  0.7818609E-02  0.8014037E-01
        1   -1    0    0  501    0  0.00000000000E+00  0.00000000000E+00  0.22640469103E+04  0.22640469103E+04  0.50400001928E-02 0.  1.
       -1   -1    0    0    0  501  0.00000000000E+00  0.00000000000E+00 -0.17257252555E+04  0.17257252555E+04  0.50400001928E-02 0. -1.
    10030    2    1    2    0    0  0.00000000000E+00  0.00000000000E+00  0.53832165477E+03  0.39897721658E+04  0.39532887234E+04 0.  0.
        2    1    3    3  502    0 -0.61556011241E+03  0.18770913198E+04  0.19970083320E+03  0.19855141645E+04  0.25500000920E-02 0.  1.
       -2    1    3    3    0  502  0.61556011241E+03 -0.18770913198E+04  0.33862082157E+03  0.20042580013E+04  0.25500000920E-02 0. -1.
</event>
<event>
 5   0  0.1101474E-07  0.4050942E+04  0.7818609E-02  0.7994348E-01
        2   -1    0    0  501    0  0.00000000000E+00  0.00000000000E+00  0.23773602324E+04  0.23773602324E+04  0.25500000920E-02 0. -1.
       -2   -1    0    0    0  501  0.00000000000E+00  0.00000000000E+00 -0.17256675616E+04  0.17256675616E+04  0.25500000920E-02 0.  1.
    10030    2    1    2    0    0  0.00000000000E+00  0.00000000000E+00  0.65169267083E+03  0.41030277939E+04  0.40509423275E+04 0.  0.
        5    1    3    3  502    0 -0.33581663584E+03  0.12110722408E+04 -0.12829856311E+04  0.17959796784E+04  0.46999998093E+01 0.  1.
       -5    1    3    3    0  502  0.33581663584E+03 -0.12110722408E+04  0.19346783020E+04  0.23070481156E+04  0.46999998093E+01 0. -1.
</event>
<event>
 5   0  0.1095903E-07  0.3896548E+04  0.7818609E-02  0.8025748E-01
       -2   -1    0    0    0  501  0.00000000000E+00  0.00000000000E+00  0.21190234915E+04  0.21190234915E+04  0.25500000920E-02 0. -1.
        2   -1    0    0  501    0  0.00000000000E+00  0.00000000000E+00 -0.17912833361E+04  0.17912833361E+04  0.25500000920E-02 0.  1.
    10030    2    1    2    0    0  0.00000000000E+00  0.00000000000E+00  0.32774015546E+03  0.39103068276E+04  0.38965479435E+04 0.  0.
        3    1    3    3  502    0  0.40389424062E+03  0.62892373802E+03  0.19694162147E+04  0.21064842422E+04  0.10100000352E+00 0. -1.
       -3    1    3    3    0  502 -0.40389424062E+03 -0.62892373802E+03 -0.16416760592E+04  0.18038225854E+04  0.10100000352E+00 0.  1.
</event>
<event>
 5   0  0.3399500E-08  0.4017717E+04  0.7818609E-02  0.8000982E-01
        1   -1    0    0  501    0  0.00000000000E+00  0.00000000000E+00  0.32411465787E+04  0.32411465787E+04  0.50400001928E-02 0. -1.
       -1   -1    0    0    0  501  0.00000000000E+00  0.00000000000E+00 -0.12450876407E+04  0.12450876407E+04  0.50400001928E-02 0.  1.
    10030    2    1    2    0    0  0.00000000000E+00  0.00000000000E+00  0.19960589380E+04  0.44862342194E+04  0.40177165389E+04 0.  0.
        1    1    3    3  502    0  0.14512688252E+04  0.13731947186E+04  0.12313631234E+04  0.23469341874E+04  0.50400001928E-02 0. -1.
       -1    1    3    3    0  502 -0.14512688252E+04 -0.13731947186E+04  0.76469581455E+03  0.21393000320E+04  0.50400001928E-02 0.  1.
</event>
<event>
 5   0  0.1095109E-07  0.4078600E+04  0.7818609E-02  0.7988875E-01
       -2   -1    0    0    0  501  0.00000000000E+00  0.00000000000E+00  0.33280164074E+04  0.33280164074E+04  0.25500000920E-02 0.  1.
        2   -1    0    0  501    0  0.00000000000E+00  0.00000000000E+00 -0.12496167824E+04  0.12496167824E+04  0.25500000920E-02 0. -1.
    10030    2    1    2    0    0  0.00000000000E+00  0.00000000000E+00  0.20783996250E+04  0.45776331897E+04  0.40786003259E+04 0.  0.
        4    1    3    3  502    0 -0.14873468806E+04 -0.89793386364E+03 -0.15928165472E+03  0.17446656485E+04  0.12699999809E+01 0. -1.
       -4    1    3    3    0  502  0.14873468806E+04  0.89793386364E+03  0.22376812797E+04  0.28329675412E+04  0.12699999809E+01 0.  1.
</event>
<event>
 5   0  0.1073271E-07  0.4297938E+04  0.7818609E-02  0.7946999E-01
        2   -1    0    0  501    0  0.00000000000E+00  0.00000000000E+00  0.12740446385E+04  0.12740446385E+04  0.25500000920E-02 0.  1.
       -2   -1    0    0    0  501  0.00000000000E+00  0.00000000000E+00 -0.36247303800E+04  0.36247303800E+04  0.25500000920E-02 0. -1.
    10030    2    1    2    0    0  0.00000000000E+00  0.00000000000E+00 -0.23506857415E+04  0.48987750186E+04  0.42979382530E+04 0.  0.
        1    1    3    3  502    0  0.19784931132E+04 -0.75761881514E+03 -0.76494166960E+03  0.22524557767E+04  0.50400001928E-02 0. -1.
       -1    1    3    3    0  502 -0.19784931132E+04  0.75761881514E+03 -0.15857440719E+04  0.26463192418E+04  0.50400001928E-02 0.  1.
</event>
<event>
 5   0  0.1095903E-07  0.3961724E+04  0.7818609E-02  0.8012313E-01
       -2   -1    0    0    0  501  0.00000000000E+00  0.00000000000E+00  0.20622783597E+04  0.20622783597E+04  0.25500000920E-02 0.  1.
        2   -1    0    0  501    0  0.00000000000E+00  0.00000000000E+00 -0.19026602630E+04  0.19026602630E+04  0.25500000920E-02 0. -1.
    10030    2    1    2    0    0  0.00000000000E+00  0.00000000000E+00  0.15961809670E+03  0.39649386227E+04  0.39617244156E+04 0.  0.
        3    1    3    3  502    0  0.57619842028E+03 -0.69876536534E+03 -0.16833061939E+04  0.19114908862E+04  0.10100000352E+00 0. -1.
       -3    1    3    3    0  502 -0.57619842028E+03  0.69876536534E+03  0.18429242906E+04  0.20534477365E+04  0.10100000352E+00 0.  1.
</event>
<event>
 5   0  0.3399500E-08  0.3939227E+04  0.7818609E-02  0.8016920E-01
       -3   -1    0    0    0  501  0.00000000000E+00  0.00000000000E+00  0.12012325406E+04  0.12012325448E+04  0.10100000352E+00 0. -1.
        3   -1    0    0  501    0  0.00000000000E+00  0.00000000000E+00 -0.32294978569E+04  0.32294978584E+04  0.10100000352E+00 0.  1.
    10030    2    1    2    0    0  0.00000000000E+00  0.00000000000E+00 -0.20282653163E+04  0.44307304033E+04  0.39392272990E+04 0.  0.
        4    1    3    3  502    0  0.10743831067E+04  0.28994195232E+03 -0.28420198210E+04  0.30521211757E+04  0.12699999809E+01 0.  1.
       -4    1    3    3    0  502 -0.10743831067E+04 -0.28994195232E+03  0.81375450467E+03  0.13786092276E+04  0.12699999809E+01 0. -1.
</event>
<event>
 5   0  0.3399500E-08  0.4006898E+04  0.7818609E-02  0.8003157E-01
        1   -1    0    0  501    0  0.00000000000E+00  0.00000000000E+00  0.27051653555E+04  0.27051653555E+04  0.50400001928E-02 0.  1.
       -1   -1    0    0    0  501  0.00000000000E+00  0.00000000000E+00 -0.14837566431E+04  0.14837566431E+04  0.50400001928E-02 0. -1.
    10030    2    1    2    0    0  0.00000000000E+00  0.00000000000E+00  0.12214087124E+04  0.41889219986E+04  0.40068975863E+04 0.  0.
        2    1    3    3  502    0 -0.24909950023E+03 -0.53477658000E+03  0.26123014790E+04  0.26780880435E+04  0.25500000920E-02 0.  1.
       -2    1    3    3    0  502  0.24909950023E+03  0.53477658000E+03 -0.13908927666E+04  0.15108339551E+04  0.25500000920E-02 0. -1.
</event>
<event>
 5   0  0.3399500E-08  0.4000630E+04  0.7818609E-02  0.8004419E-01
       -1   -1    0    0    0  501  0.00000000000E+00  0.00000000000E+00  0.16551103590E+04  0.16551103591E+04  0.50400001928E-02 0. -1.
        1   -1    0    0  501    0  0.00000000000E+00  0.00000000000E+00 -0.24175185085E+04  0.24175185085E+04  0.50400001928E-02 0.  1.
    10030    2    1    2    0    0  0.00000000000E+00  0.00000000000E+00 -0.76240814948E+03  0.40726288676E+04  0.40006299137E+04 0.  0.
        3    1    3    3  502    0 -0.13979029924E+04  0.88627688005E+03 -0.15246463809E+04  0.22503702098E+04  0.10100000352E+00 0.  1.
       -3    1    3    3    0  502  0.13979029924E+04 -0.88627688005E+03  0.76223823141E+03  0.18222586578E+04  0.10100000352E+00 0. -1.
</event>
<event>
 5   0  0.1087688E-07  0.3991016E+04  0.7818609E-02  0.8006361E-01
        2   -1    0    0  501    0  0.00000000000E+00  0.00000000000E+00  0.11839337835E+04  0.11839337835E+04  0.25500000920E-02 0. -1.
       -2   -1    0    0    0  501  0.00000000000E+00  0.00000000000E+00 -0.33634082006E+04  0.33634082006E+04  0.25500000920E-02 0.  1.
    10030    2    1    2    0    0  0.00000000000E+00  0.00000000000E+00 -0.21794744171E+04  0.45473419841E+04  0.39910162097E+04 0.  0.
        2    1    3    3  502    0 -0.19797789975E+04  0.14057108013E+03 -0.13253674353E+04  0.23866051089E+04  0.25500000920E-02 0. -1.
       -2    1    3    3    0  502  0.19797789975E+04 -0.14057108013E+03 -0.85410698175E+03  0.21607368752E+04  0.25500000920E-02 0.  1.
</event>
<event>
 5   0  0.1095109E-07  0.3998556E+04  0.7818609E-02  0.8004838E-01
       -2   -1    0    0    0  501  0.00000000000E+00  0.00000000000E+00  0.21066189535E+04  0.21066189535E+04  0.25500000920E-02 0. -1.
        2   -1    0    0  501    0  0.00000000000E+00  0.00000000000E+00 -0.18974067794E+04  0.18974067794E+04  0.25500000920E-02 0.  1.
    10030    2    1    2    0    0  0.00000000000E+00  0.00000000000E+00  0.20921217411E+03  0.40040257330E+04  0.39985562815E+04 0.  0.
        4    1    3    3  502    0 -0.13222002378E+04  0.87489188254E+03 -0.11150345562E+04  0.19382860856E+04  0.12699999809E+01 0.  1.
       -4    1    3    3    0  502  0.13222002378E+04 -0.87489188254E+03  0.13242467303E+04  0.20657396474E+04  0.12699999809E+01 0. -1.
</event>
<event>
 5   0  0.3399500E-08  0.3999331E+04  0.7818609E-02  0.8004682E-01
        1   -1    0    0  501    0  0.00000000000E+00  0.00000000000E+00  0.21126501248E+04  0.21126501248E+04  0.50400001928E-02 0.  1.
       -1   -1    0    0    0  501  0.00000000000E+00  0.00000000000E+00 -0.18927228822E+04  0.18927228822E+04  0.50400001928E-02 0. -1.
    10030    2    1    2    0    0  0.00000000000E+00  0.00000000000E+00  0.21992724265E+03  0.40053730070E+04  0.39993305607E+04 0.  0.
        2    1    3    3  502    0  0.11648698967E+04 -0.67224046001E+03 -0.13720803047E+04  0.19213103536E+04  0.25500000920E-02 0. -1.
       -2    1    3    3    0  502 -0.11648698967E+04  0.67224046001E+03  0.15920075474E+04  0.20840626534E+04  0.25500000920E-02 0.  1.
</event>
<event>
 5   0  0.3399500E-08  0.3967073E+04  0.7818609E-02  0.8011222E-01
       -1   -1    0    0    0  501  0.00000000000E+00  0.00000000000E+00  0.17015762168E+04  0.17015762168E+04  0.50400001928E-02 0.  1.
        1   -1    0    0  501    0  0.00000000000E+00  0.00000000000E+00 -0.23122191856E+04  0.23122191856E+04  0.50400001928E-02 0. -1.
    10030    2    1    2    0    0  0.00000000000E+00  0.00000000000E+00 -0.61064296876E+03  0.40137954024E+04  0.39670730643E+04 0.  0.
        5    1    3    3  502    0 -0.11257514615E+04  0.14632688183E+04 -0.10390681722E+04  0.21185270223E+04  0.46999998093E+01 0. -1.
       -5    1    3    3    0  502  0.11257514615E+04 -0.14632688183E+04  0.42842520343E+03  0.18952683801E+04  0.46999998093E+01 0.  1.
</event>
<event>
 5   0  0.3399500E-08  0.3968902E+04  0.7818609E-02  0.8010850E-01
        1   -1    0    0  501    0  0.00000000000E+00  0.00000000000E+00  0.22818258881E+04  0.22818258881E+04  0.50400001928E-02 0.  1.
       -1   -1    0    0    0  501  0.00000000000E+00  0.00000000000E+00 -0.17258307956E+04  0.17258307956E+04  0.50400001928E-02 0. -1.
    10030    2    1    2    0    0  0.00000000000E+00  0.00000000000E+00  0.55599509255E+03  0.40076566837E+04  0.39689018067E+04 0.  0.
        2    1    3    3  502    0  0.65554426623E+03  0.65567774486E+03 -0.14936700579E+04  0.17580392009E+04  0.25500000920E-02 0. -1.
       -2    1    3    3    0  502 -0.65554426623E+03 -0.65567774486E+03  0.20496651504E+04  0.22496174828E+04  0.25500000920E-02 0.  1.
</event>
<event>
 5   0  0.1087688E-07  0.4061749E+04  0.7818609E-02  0.7992204E-01
        2   -1    0    0  501    0  0.00000000000E+00  0.00000000000E+00  0.25332306838E+04  0.25332306838E+04  0.25500000920E-02 0.  1.
       -2   -1    0    0    0  501  0.00000000000E+00  0.00000000000E+00 -0.16281387558E+04  0.16281387558E+04  0.25500000920E-02 0. -1.
    10030    2    1    2    0    0  0.00000000000E+00  0.00000000000E+00  0.90509192803E+03  0.41613694397E+04  0.40617489109E+04 0.  0.
        2    1    3    3  502    0 -0.17238089037E+04 -0.10637129639E+04  0.30250040108E+03  0.20480500235E+04  0.25500000920E-02 0. -1.
       -2    1    3    3    0  502  0.17238089037E+04  0.10637129639E+04  0.60259152695E+03  0.21133194161E+04  0.25500000920E-02 0.  1.
</event>
<event>
 5   0  0.1095903E-07  0.4008275E+04  0.7818609E-02  0.8002879E-01
        2   -1    0    0  501    0  0.00000000000E+00  0.00000000000E+00  0.20235365276E+04  0.20235365276E+04  0.25500000920E-02 0. -1.
       -2   -1    0    0    0  501  0.00000000000E+00  0.00000000000E+00 -0.19849240594E+04  0.19849240594E+04  0.25500000920E-02 0.  1.
    10030    2    1    2    0    0  0.00000000000E+00  0.00000000000E+00  0.38612468152E+02  0.40084605870E+04  0.40082746107E+04 0.  0.
        3    1    3    3  502    0  0.79528246046E+03  0.96087758579E+03 -0.15494623150E+04  0.19891187502E+04  0.10100000352E+00 0.  1.
       -3    1    3    3    0  502 -0.79528246046E+03 -0.96087758579E+03  0.15880747831E+04  0.20193418368E+04  0.10100000352E+00 0. -1.
</event>
<event>
 5   0  0.1087688E-07  0.3920992E+04  0.7818609E-02  0.8020677E-01
       -2   -1    0    0    0  501  0.00000000000E+00  0.00000000000E+00  0.21487861250E+04  0.21487861250E+04  0.25500000920E-02 0. -1.
        2   -1    0    0  501    0  0.00000000000E+00  0.00000000000E+00 -0.17887054859E+04  0.17887054859E+04  0.25500000920E-02 0.  1.
    10030    2    1    2    0    0  0.00000000000E+00  0.00000000000E+00  0.36008063904E+03  0.39374916109E+04  0.39209924916E+04 0.  0.
        2    1    3    3  502    0  0.58966088704E+03 -0.43302724332E+03 -0.16464956861E+04  0.18017104649E+04  0.25500000920E-02 0.  1.
       -2    1    3    3    0  502 -0.58966088704E+03  0.43302724332E+03  0.20065763251E+04  0.21357811460E+04  0.25500000920E-02 0. -1.
</event>
<event>
 5   0  0.3399500E-08  0.4090242E+04  0.7818609E-02  0.7986585E-01
       -1   -1    0    0    0  501  0.00000000000E+00  0.00000000000E+00  0.14438922218E+04  0.14438922218E+04  0.50400001928E-02 0.  1.
        1   -1    0    0  501    0  0.00000000000E+00  0.00000000000E+00 -0.28966987525E+04  0.28966987525E+04  0.50400001928E-02 0. -1.
    10030    2    1    2    0    0  0.00000000000E+00  0.00000000000E+00 -0.14528065307E+04  0.43405909743E+04  0.40902424367E+04 0.  0.
        3    1    3    3  502    0  0.31609005484E+03 -0.10350790476E+04 -0.25679002004E+04  0.27866490642E+04  0.10100000352E+00 0. -1.
       -3    1    3    3    0  502 -0.31609005484E+03  0.10350790476E+04  0.11150936697E+04  0.15539419101E+04  0.10100000352E+00 0.  1.
</event>
<event>
 5   0  0.3399500E-08  0.4068737E+04  0.7818609E-02  0.7990822E-01
        1   -1    0    0  501    0  0.00000000000E+00  0.00000000000E+00  0.25331691431E+04  0.25331691431E+04  0.50400001928E-02 0.  1.
       -1   -1    0    0    0  501  0.00000000000E+00  0.00000000000E+00 -0.16337858400E+04  0.16337858400E+04  0.50400001928E-02 0. -1.
    10030    2    1    2    0    0  0.00000000000E+00  0.00000000000E+00  0.89938330315E+03  0.41669549831E+04  0.40687373355E+04 0.  0.
        5    1    3    3  502    0  0.14066148964E+04  0.10435503693E+04  0.15095999050E+04  0.23122449704E+04  0.46999998093E+01 0.  1.
       -5    1    3    3    0  502 -0.14066148964E+04 -0.10435503693E+04 -0.61021660190E+03  0.18547100127E+04  0.46999998093E+01 0. -1.
</event>
<event>
 5   0  0.1101474E-07  0.4037236E+04  0.7818609E-02  0.7997077E-01
       -2   -1    0    0    0  501  0.00000000000E+00  0.00000000000E+00  0.26704969626E+04  0.26704969626E+04  0.25500000920E-02 0. -1.
        2   -1    0    0  501    0  0.00000000000E+00  0.00000000000E+00 -0.15258652262E+04  0.15258652262E+04  0.25500000920E-02 0.  1.
    10030    2    1    2    0    0  0.00000000000E+00  0.00000000000E+00  0.11446317364E+04  0.41963621887E+04  0.40372359118E+04 0.  0.
        5    1    3    3  502    0  0.47722895130E+03 -0.21568643444E+03  0.25986488816E+04  0.26508991324E+04  0.46999998093E+01 0. -1.
       -5    1    3    3    0  502 -0.47722895130E+03  0.21568643444E+03 -0.14540171453E+04  0.15454630564E+04  0.46999998093E+01 0.  1.
</event>
<event>
 5   0  0.3399500E-08  0.3945632E+04  0.7818609E-02  0.8015605E-01
       -1   -1    0    0    0  501  0.00000000000E+00  0.00000000000E+00  0.25969898289E+04  0.25969898289E+04  0.50400001928E-02 0.  1.
        1   -1    0    0  501    0  0.00000000000E+00  0.00000000000E+00 -0.14986589924E+04  0.14986589924E+04  0.50400001928E-02 0. -1.
    10030    2    1    2    0    0  0.00000000000E+00  0.00000000000E+00  0.10983308366E+04  0.40956488213E+04  0.39456315896E+04 0.  0.
        5    1    3    3  502    0 -0.17127301724E+04 -0.10927314514E+03 -0.46075752380E+03  0.17769932046E+04  0.46999998093E+01 0. -1.
       -5    1    3    3    0  502  0.17127301724E+04  0.10927314514E+03  0.15590883604E+04  0.23186556167E+04  0.46999998093E+01 0.  1.
</event>
<event>
 5   0  0.3399500E-08  0.4001482E+04  0.7818609E-02  0.8004248E-01
        1   -1    0    0  501    0  0.00000000000E+00  0.00000000000E+00  0.30591689603E+04  0.30591689603E+04  0.50400001928E-02 0. -1.
       -1   -1    0    0    0  501  0.00000000000E+00  0.00000000000E+00 -0.13085134606E+04  0.13085134606E+04  0.50400001928E-02 0.  1.
    10030    2    1    2    0    0  0.00000000000E+00  0.00000000000E+00  0.17506554997E+04  0.43676824209E+04  0.40014816070E+04 0.  0.
        2    1    3    3  502    0 -0.41887143953E+03 -0.17970637717E+04  0.17194533372E+04  0.25221838278E+04  0.25500000920E-02 0. -1.
       -2    1    3    3    0  502  0.41887143953E+03  0.17970637717E+04  0.31202162512E+02  0.18454985931E+04  0.25500000920E-02 0.  1.
</event>
<event>
 5   0  0.1101474E-07  0.4030370E+04  0.7818609E-02  0.7998448E-01
        2   -1    0    0  501    0  0.00000000000E+00  0.00000000000E+00  0.21414817655E+04  0.21414817655E+04  0.25500000920E-02 0. -1.
       -2   -1    0    0    0  501  0.00000000000E+00  0.00000000000E+00 -0.18963371159E+04  0.18963371159E+04  0.25500000920E-02 0.  1.
    10030    2    1    2    0    0  0.00000000000E+00  0.00000000000E+00  0.24514464962E+03  0.40378188814E+04  0.40303703825E+04 0.  0.
        5    1    3    3  502    0  0.80181603819E+03 -0.33548083974E+03 -0.16988891537E+04  0.19083246054E+04  0.46999998093E+01 0.  1.
       -5    1    3    3    0  502 -0.80181603819E+03  0.33548083974E+03  0.19440338034E+04  0.21294942760E+04  0.46999998093E+01 0. -1.
</event>
<event>
 5   0  0.3399500E-08  0.4011598E+04  0.7818609E-02  0.8002211E-01
        1   -1    0    0  501    0  0.00000000000E+00  0.00000000000E+00  0.17016106810E+04  0.17016106810E+04  0.50400001928E-02 0.  1.
       -1   -1    0    0    0  501  0.00000000000E+00  0.00000000000E+00 -0.23643655105E+04  0.23643655105E+04  0.50400001928E-02 0. -1.
    10030    2    1    2    0    0  0.00000000000E+00  0.00000000000E+00 -0.66275482952E+03  0.40659761914E+04  0.40115979890E+04 0.  0.
        1    1    3    3  502    0  0.81138165648E+03 -0.18705522282E+03 -0.21809143400E+04  0.23344629376E+04  0.50400001928E-02 0. -1.
       -1    1    3    3    0  502 -0.81138165648E+03  0.18705522282E+03  0.15181595105E+04  0.17315132538E+04  0.50400001928E-02 0.  1.
</event>
<event>
 5   0  0.1095903E-07  0.4003321E+04  0.7818609E-02  0.8003877E-01
        2   -1    0    0  501    0  0.00000000000E+00  0.00000000000E+00  0.26067291976E+04  0.26067291976E+04  0.25500000920E-02 0.  1.
       -2   -1    0    0    0  501  0.00000000000E+00  0.00000000000E+00 -0.15370391280E+04  0.15370391280E+04  0.25500000920E-02 0. -1.
    10030    2    1    2    0    0  0.00000000000E+00  0.00000000000E+00  0.10696900697E+04  0.41437683256E+04  0.40033210077E+04 0.  0.
        3    1    3    3  502    0 -0.11830719491E+04  0.16145915291E+04  0.54408688026E+03  0.20742698923E+04  0.10100000352E+00 0. -1.
       -3    1    3    3    0  502  0.11830719491E+04 -0.16145915291E+04  0.52560318940E+03  0.20694984333E+04  0.10100000352E+00 0.  1.
</event>
<event>
 5   0  0.1073271E-07  0.3988625E+04  0.7818609E-02  0.8006845E-01
       -2   -1    0    0    0  501  0.00000000000E+00  0.00000000000E+00  0.16730860700E+04  0.16730860700E+04  0.25500000920E-02 0. -1.
        2   -1    0    0  501    0  0.00000000000E+00  0.00000000000E+00 -0.23772127943E+04  0.23772127943E+04  0.25500000920E-02 0.  1.
    10030    2    1    2    0    0  0.00000000000E+00  0.00000000000E+00 -0.70412672428E+03  0.40502988643E+04  0.39886246310E+04 0.  0.
        1    1    3    3  502    0 -0.10613064677E+04  0.16623051963E+04 -0.51425346584E+02  0.19728848294E+04  0.50400001928E-02 0. -1.
       -1    1    3    3    0  502  0.10613064677E+04 -0.16623051963E+04 -0.65270137769E+03  0.20774140349E+04  0.50400001928E-02 0.  1.
</event>
<event>
 5   0  0.1095903E-07  0.3732339E+04  0.7818609E-02  0.8060833E-01
        2   -1    0    0  501    0  0.00000000000E+00  0.00000000000E+00  0.28583735069E+04  0.28583735069E+04  0.25500000920E-02 0.  1.
       -2   -1    0    0    0  501  0.00000000000E+00  0.00000000000E+00 -0.12183812806E+04  0.12183812806E+04  0.25500000920E-02 0. -1.
    10030    2    1    2    0    0  0.00000000000E+00  0.00000000000E+00  0.16399922263E+04  0.40767547875E+04  0.37323390916E+04 0.  0.
        3    1    3    3  502    0  0.32197340981E+03 -0.14350888511E+04 -0.43467132802E+03  0.15336512188E+04  0.10100000352E+00 0. -1.
       -3    1    3    3    0  502 -0.32197340981E+03  0.14350888511E+04  0.20746635543E+04  0.25431035687E+04  0.10100000352E+00 0.  1.
</event>
<event>
 5   0  0.3399500E-08  0.4009811E+04  0.7818609E-02  0.8002570E-01
        1   -1    0    0  501    0  0.00000000000E+00  0.00000000000E+00  0.19023042964E+04  0.19023042964E+04  0.50400001928E-02 0.  1.
       -1   -1    0    0    0  501  0.00000000000E+00  0.00000000000E+00 -0.21130400601E+04  0.21130400601E+04  0.50400001928E-02 0. -1.
    10030    2    1    2    0    0  0.00000000000E+00  0.00000000000E+00 -0.21073576376E+03  0.40153443565E+04  0.40098105615E+04 0.  0.
        2    1    3    3  502    0 -0.50554400214E+03 -0.19246435571E+03  0.18278475977E+04  0.19062119785E+04  0.25500000920E-02 0.  1.
       -2    1    3    3    0  502  0.50554400214E+03  0.19246435571E+03 -0.20385833615E+04  0.21091323780E+04  0.25500000920E-02 0. -1.
</event>
<event>
 5   0  0.1095109E-07  0.3960972E+04  0.7818609E-02  0.8012466E-01
       -2   -1    0    0    0  501  0.00000000000E+00  0.00000000000E+00  0.32791411534E+04  0.32791411534E+04  0.25500000920E-02 0. -1.
        2   -1    0    0  501    0  0.00000000000E+00  0.00000000000E+00 -0.11961441051E+04  0.11961441051E+04  0.25500000920E-02 0.  1.
    10030    2    1    2    0    0  0.00000000000E+00  0.00000000000E+00  0.20829970484E+04  0.44752852585E+04  0.39609722848E+04 0.  0.
        4    1    3    3  502    0 -0.75115068922E+03  0.18198936406E+04  0.79895383436E+03  0.21247515298E+04  0.12699999809E+01 0.  1.
       -4    1    3    3    0  502  0.75115068922E+03 -0.18198936406E+04  0.12840432140E+04  0.23505337287E+04  0.12699999809E+01 0. -1.
</event>
<event>
 5   0  0.3399500E-08  0.3995036E+04  0.7818609E-02  0.8005549E-01
       -1   -1    0    0    0  501  0.00000000000E+00  0.00000000000E+00  0.21060279988E+04  0.21060279988E+04  0.50400001928E-02 0. -1.
        1   -1    0    0  501    0  0.00000000000E+00  0.00000000000E+00 -0.18945983960E+04  0.18945983960E+04  0.50400001928E-02 0.  1.
    10030    2    1    2    0    0  0.00000000000E+00  0.00000000000E+00  0.21142960280E+03  0.40006263947E+04  0.39950355534E+04 0.  0.
        5    1    3    3  502    0  0.67719869712E+03  0.77148418617E+03 -0.16102377945E+04  0.19096266048E+04  0.46999998093E+01 0.  1.
       -5    1    3    3    0  502 -0.67719869712E+03 -0.77148418617E+03  0.18216673973E+04  0.20909997899E+04  0.46999998093E+01 0. -1.
</event>
<event>
 5   0  0.3399500E-08  0.4001161E+04  0.7818609E-02  0.8004312E-01
       -1   -1    0    0    0  501  0.00000000000E+00  0.00000000000E+00  0.21712179673E+04  0.21712179673E+04  0.50400001928E-02 0. -1.
        1   -1    0    0  501    0  0.00000000000E+00  0.00000000000E+00 -0.18433532303E+04  0.18433532303E+04  0.50400001928E-02 0.  1.
    10030    2    1    2    0    0  0.00000000000E+00  0.00000000000E+00  0.32786473700E+03  0.40145711977E+04  0.40011606585E+04 0.  0.
        2    1    3    3  502    0 -0.10143496520E+04  0.12213218313E+04  0.13853000376E+04  0.21070330861E+04  0.25500000920E-02 0. -1.
       -2    1    3    3    0  502  0.10143496520E+04 -0.12213218313E+04 -0.10574353006E+04  0.19075381115E+04  0.25500000920E-02 0.  1.
</event>
<event>
 5   0  0.3399500E-08  0.3967470E+04  0.7818609E-02  0.8011141E-01
        1   -1    0    0  501    0  0.00000000000E+00  0.00000000000E+00  0.22183128810E+04  0.22183128810E+04  0.50400001928E-02 0.  1.
       -1   -1    0    0    0  501  0.00000000000E+00  0.00000000000E+00 -0.17739624976E+04  0.17739624976E+04  0.50400001928E-02 0. -1.
    10030    2    1    2    0    0  0.00000000000E+00  0.00000000000E+00  0.44435038339E+03  0.39922753786E+04  0.39674696514E+04 0.  0.
        2    1    3    3  502    0 -0.10396907025E+03 -0.19765924840E+04  0.89150149758E+02  0.19813316645E+04  0.25500000920E-02 0.  1.
       -2    1    3    3    0  502  0.10396907025E+03  0.19765924840E+04  0.35520023363E+03  0.20109437141E+04  0.25500000920E-02 0. -1.
</event>
<event>
 5   0  0.3399500E-08  0.4021393E+04  0.7818609E-02  0.8000245E-01
       -1   -1    0    0    0  501  0.00000000000E+00  0.00000000000E+00  0.27043577842E+04  0.27043577842E+04  0.50400001928E-02 0. -1.
        1   -1    0    0  501    0  0.00000000000E+00  0.00000000000E+00 -0.14949578856E+04  0.14949578856E+04  0.50400001928E-02 0.  1.
    10030    2    1    2    0    0  0.00000000000E+00  0.00000000000E+00  0.12093998986E+04  0.41993156699E+04  0.40213932884E+04 0.  0.
        3    1    3    3  502    0 -0.17792864978E+03 -0.19886724205E+04  0.85274775469E+03  0.21710954248E+04  0.10100000352E+00 0. -1.
       -3    1    3    3    0  502  0.17792864978E+03  0.19886724205E+04  0.35665214394E+03  0.20282202450E+04  0.10100000352E+00 0.  1.
</event>
<event>
 5   0  0.3399500E-08  0.4001502E+04  0.7818609E-02  0.8004244E-01
       -1   -1    0    0    0  501  0.00000000000E+00  0.00000000000E+00  0.29985281599E+04  0.29985281599E+04  0.50400001928E-02 0.  1.
        1   -1    0    0  501    0  0.00000000000E+00  0.00000000000E+00 -0.13349896688E+04  0.13349896688E+04  0.50400001928E-02 0. -1.
    10030    2    1    2    0    0  0.00000000000E+00  0.00000000000E+00  0.16635384911E+04  0.43335178286E+04  0.40015017755E+04 0.  0.
        5    1    3    3  502    0  0.14515236741E+04  0.20420159527E+03 -0.64296892722E+03  0.16006406216E+04  0.46999998093E+01 0. -1.
       -5    1    3    3    0  502 -0.14515236741E+04 -0.20420159527E+03  0.23065074183E+04  0.27328772071E+04  0.46999998093E+01 0.  1.
</event>
<event>
 5   0  0.1101474E-07  0.3800143E+04  0.7818609E-02  0.8046124E-01
        2   -1    0    0  501    0  0.00000000000E+00  0.00000000000E+00  0.25004030228E+04  0.25004030228E+04  0.25500000920E-02 0.  1.
       -2   -1    0    0    0  501  0.00000000000E+00  0.00000000000E+00 -0.14438756506E+04  0.14438756506E+04  0.25500000920E-02 0. -1.
    10030    2    1    2    0    0  0.00000000000E+00  0.00000000000E+00  0.10565273722E+04  0.39442786734E+04  0.38001426506E+04 0.  0.
        5    1    3    3  502    0  0.16528989326E+04  0.35273091803E+03  0.14293840123E+04  0.22135163714E+04  0.46999998093E+01 0.  1.
       -5    1    3    3    0  502 -0.16528989326E+04 -0.35273091803E+03 -0.37285664015E+03  0.17307623020E+04  0.46999998093E+01 0. -1.
</event>
<event>
 5   0  0.3399500E-08  0.4007513E+04  0.7818609E-02  0.8003033E-01
        1   -1    0    0  501    0  0.00000000000E+00  0.00000000000E+00  0.14161718235E+04  0.14161718235E+04  0.50400001928E-02 0. -1.
       -1   -1    0    0    0  501  0.00000000000E+00  0.00000000000E+00 -0.28351361932E+04  0.28351361932E+04  0.50400001928E-02 0.  1.
    10030    2    1    2    0    0  0.00000000000E+00  0.00000000000E+00 -0.14189643698E+04  0.42513080167E+04  0.40075129408E+04 0.  0.
        3    1    3    3  502    0  0.39667922958E+03  0.19206064285E+04 -0.11455310029E+04  0.22711945652E+04  0.10100000352E+00 0. -1.
       -3    1    3    3    0  502 -0.39667922958E+03 -0.19206064285E+04 -0.27343336689E+03  0.19801134515E+04  0.10100000352E+00 0.  1.
</event>
<event>
 5   0  0.3399500E-08  0.4008463E+04  0.7818609E-02  0.8002841E-01
       -1   -1    0    0    0  501  0.00000000000E+00  0.00000000000E+00  0.27127522626E+04  0.27127522626E+04  0.50400001928E-02 0.  1.
        1   -1    0    0  501    0  0.00000000000E+00  0.00000000000E+00 -0.14807632541E+04  0.14807632541E+04  0.50400001928E-02 0. -1.
    10030    2    1    2    0    0  0.00000000000E+00  0.00000000000E+00  0.12319890085E+04  0.41935155167E+04  0.40084629812E+04 0.  0.
        5    1    3    3  502    0  0.15064036556E+04 -0.10456529398E+04  0.14622122164E+04  0.23453632341E+04  0.46999998093E+01 0.  1.
       -5    1    3    3    0  502 -0.15064036556E+04  0.10456529398E+04 -0.23022320785E+03  0.18481522826E+04  0.46999998093E+01 0. -1.
</event>
<event>
 5   0  0.3399500E-08  0.4017573E+04  0.7818609E-02  0.8001011E-01
       -1   -1    0    0    0  501  0.00000000000E+00  0.00000000000E+00  0.16342308442E+04  0.16342308442E+04  0.50400001928E-02 0. -1.
        1   -1    0    0  501    0  0.00000000000E+00  0.00000000000E+00 -0.24691878963E+04  0.24691878963E+04  0.50400001928E-02 0.  1.
    10030    2    1    2    0    0  0.00000000000E+00  0.00000000000E+00 -0.83495705207E+03  0.41034187405E+04  0.40175729093E+04 0.  0.
        4    1    3    3  502    0 -0.86870546940E+03 -0.15389205099E+04 -0.13930294111E+04  0.22502128969E+04  0.12699999809E+01 0. -1.
       -4    1    3    3    0  502  0.86870546940E+03  0.15389205099E+04  0.55807235900E+03  0.18532058437E+04  0.12699999809E+01 0.  1.
</event>
<event>
 5   0  0.3399500E-08  0.3981984E+04  0.7818609E-02  0.8008191E-01
        1   -1    0    0  501    0  0.00000000000E+00  0.00000000000E+00  0.22737494364E+04  0.22737494364E+04  0.50400001928E-02 0.  1.
       -1   -1    0    0    0  501  0.00000000000E+00  0.00000000000E+00 -0.17433976076E+04  0.17433976076E+04  0.50400001928E-02 0. -1.
    10030    2    1    2    0    0  0.00000000000E+00  0.00000000000E+00  0.53035182881E+03  0.40171470441E+04  0.39819840923E+04 0.  0.
        2    1    3    3  502    0 -0.15000473423E+04 -0.91480477180E+03 -0.67959777877E+03  0.18838425997E+04  0.25500000920E-02 0. -1.
       -2    1    3    3    0  502  0.15000473423E+04  0.91480477180E+03  0.12099496076E+04  0.21333044444E+04  0.25500000920E-02 0.  1.
</event>
<event>
 5   0  0.1087688E-07  0.4100292E+04  0.7818609E-02  0.7984615E-01
        2   -1    0    0  501    0  0.00000000000E+00  0.00000000000E+00  0.29663067799E+04  0.29663067799E+04  0.25500000920E-02 0.  1.
       -2   -1    0    0    0  501  0.00000000000E+00  0.00000000000E+00 -0.14169464744E+04  0.14169464744E+04  0.25500000920E-02 0. -1.
    10030    2    1    2    0    0  0.00000000000E+00  0.00000000000E+00  0.15493603055E+04  0.43832532544E+04  0.41002916647E+04 0.  0.
        2    1    3    3  502    0  0.16429425896E+04 -0.10995512138E+04  0.19423157260E+03  0.19864539079E+04  0.25500000920E-02 0. -1.
       -2    1    3    3    0  502 -0.16429425896E+04  0.10995512138E+04  0.13551287329E+04  0.23967993465E+04  0.25500000920E-02 0.  1.
</event>
<event>
 5   0  0.1095903E-07  0.3937238E+04  0.7818609E-02  0.8017329E-01
       -2   -1    0    0    0  501  0.00000000000E+00  0.00000000000E+00  0.13580826005E+04  0.13580826005E+04  0.25500000920E-02 0. -1.
        2   -1    0    0  501    0  0.00000000000E+00  0.00000000000E+00 -0.28536266034E+04  0.28536266035E+04  0.25500000920E-02 0.  1.
    10030    2    1    2    0    0  0.00000000000E+00  0.00000000000E+00 -0.14955440030E+04  0.42117092039E+04  0.39372379346E+04 0.  0.
        3    1    3    3  502    0  0.13736595088E+04  0.13809957012E+04 -0.10529137928E+04  0.22142079934E+04  0.10100000352E+00 0.  1.
       -3    1    3    3    0  502 -0.13736595088E+04 -0.13809957012E+04 -0.44263021022E+03  0.19975012105E+04  0.10100000352E+00 0. -1.
</event>
<event>
 5   0  0.1095109E-07  0.4006389E+04  0.7818609E-02  0.8003259E-01
        2   -1    0    0  501    0  0.00000000000E+00  0.00000000000E+00  0.27038666377E+04  0.27038666377E+04  0.25500000920E-02 0.  1.
       -2   -1    0    0    0  501  0.00000000000E+00  0.00000000000E+00 -0.14840927848E+04  0.14840927848E+04  0.25500000920E-02 0. -1.
    10030    2    1    2    0    0  0.00000000000E+00  0.00000000000E+00  0.12197738529E+04  0.41879594224E+04  0.40063893809E+04 0.  0.
        4    1    3    3  502    0  0.97786036751E+02 -0.14397658414E+04  0.20622047449E+04  0.25169779121E+04  0.12699999809E+01 0.  1.
       -4    1    3    3    0  502 -0.97786036751E+02  0.14397658414E+04 -0.84243089198E+03  0.16709815103E+04  0.12699999809E+01 0. -1.
</event>
<event>
 5   0  0.3399500E-08  0.3985724E+04  0.7818609E-02  0.8007433E-01
       -1   -1    0    0    0  501  0.00000000000E+00  0.00000000000E+00  0.24311562681E+04  0.24311562681E+04  0.50400001928E-02 0.  1.
        1   -1    0    0  501    0  0.00000000000E+00  0.00000000000E+00 -0.16335845379E+04  0.16335845379E+04  0.50400001928E-02 0. -1.
    10030    2    1    2    0    0  0.00000000000E+00  0.00000000000E+00  0.79757173024E+03  0.40647408060E+04  0.39857241695E+04 0.  0.
        5    1    3    3  502    0 -0.33469669727E+03  0.94015312605E+03 -0.13603950895E+04  0.16871889844E+04  0.46999998093E+01 0. -1.
       -5    1    3    3    0  502  0.33469669727E+03 -0.94015312605E+03  0.21579668197E+04  0.23775518216E+04  0.46999998093E+01 0.  1.
</event>
<event>
 5   0  0.1073271E-07  0.3914988E+04  0.7818609E-02  0.8021919E-01
        2   -1    0    0  501    0  0.00000000000E+00  0.00000000000E+00  0.15569878096E+04  0.15569878096E+04  0.25500000920E-02 0. -1.
       -2   -1    0    0    0  501  0.00000000000E+00  0.00000000000E+00 -0.24610229394E+04  0.24610229394E+04  0.25500000920E-02 0.  1.
    10030    2    1    2    0    0  0.00000000000E+00  0.00000000000E+00 -0.90403512983E+03  0.40180107491E+04  0.39149879774E+04 0.  0.
        1    1    3    3  502    0 -0.27391000760E+03  0.15627420887E+04 -0.16287462768E+04  0.22737642715E+04  0.50400001928E-02 0.  1.
       -1    1    3    3    0  502  0.27391000760E+03 -0.15627420887E+04  0.72471114698E+03  0.17442464776E+04  0.50400001928E-02 0. -1.
</event>
<event>
 5   0  0.1101474E-07  0.3990839E+04  0.7818609E-02  0.8006397E-01
       -2   -1    0    0    0  501  0.00000000000E+00  0.00000000000E+00  0.18485446194E+04  0.18485446194E+04  0.25500000920E-02 0.  1.
        2   -1    0    0  501    0  0.00000000000E+00  0.00000000000E+00 -0.21539637883E+04  0.21539637883E+04  0.25500000920E-02 0. -1.
    10030    2    1    2    0    0  0.00000000000E+00  0.00000000000E+00 -0.30541916889E+03  0.40025084077E+04  0.39908385942E+04 0.  0.
        5    1    3    3  502    0 -0.37931476885E+03  0.16444390459E+04 -0.12205373030E+04  0.20827368695E+04  0.46999998093E+01 0. -1.
       -5    1    3    3    0  502  0.37931476885E+03 -0.16444390459E+04  0.91511813415E+03  0.19197715382E+04  0.46999998093E+01 0.  1.
</event>
<event>
 5   0  0.3399500E-08  0.3996178E+04  0.7818609E-02  0.8005318E-01
       -1   -1    0    0    0  501  0.00000000000E+00  0.00000000000E+00  0.23495777866E+04  0.23495777866E+04  0.50400001928E-02 0.  1.
        1   -1    0    0  501    0  0.00000000000E+00  0.00000000000E+00 -0.16991816228E+04  0.16991816228E+04  0.50400001928E-02 0. -1.
    10030    2    1    2    0    0  0.00000000000E+00  0.00000000000E+00  0.65039616382E+03  0.40487594094E+04  0.39961778721E+04 0.  0.
        4    1    3    3  502    0 -0.23628566107E+03  0.18990076631E+04  0.90747465835E+03  0.21179171104E+04  0.12699999809E+01 0.  1.
       -4    1    3    3    0  502  0.23628566107E+03 -0.18990076631E+04 -0.25707849454E+03  0.19308422990E+04  0.12699999809E+01 0. -1.
</event>
<event>
 5   0  0.3399500E-08  0.3615362E+04  0.7818609E-02  0.8086982E-01
        1   -1    0    0  501    0  0.00000000000E+00  0.00000000000E+00  0.22187062207E+04  0.22187062207E+04  0.50400001928E-02 0. -1.
       -1   -1    0    0    0  501  0.00000000000E+00  0.00000000000E+00 -0.14727997680E+04  0.14727997681E+04  0.50400001928E-02 0.  1.
    10030    2    1    2    0    0  0.00000000000E+00  0.00000000000E+00  0.74590645264E+03  0.36915059888E+04  0.36153616733E+04 0.  0.
        2    1    3    3  502    0 -0.85046893026E+03 -0.35796778222E+03  0.19601278413E+04  0.21664578206E+04  0.25500000920E-02 0. -1.
       -2    1    3    3    0  502  0.85046893026E+03  0.35796778222E+03 -0.12142213886E+04  0.15250481681E+04  0.25500000920E-02 0.  1.
</event>
<event>
 5   0  0.3399500E-08  0.3998822E+04  0.7818609E-02  0.8004784E-01
        1   -1    0    0  501    0  0.00000000000E+00  0.00000000000E+00  0.23278594941E+04  0.23278594941E+04  0.50400001928E-02 0.  1.
       -1   -1    0    0    0  501  0.00000000000E+00  0.00000000000E+00 -0.17173045598E+04  0.17173045598E+04  0.50400001928E-02 0. -1.
    10030    2    1    2    0    0  0.00000000000E+00  0.00000000000E+00  0.61055493433E+03  0.40451640539E+04  0.39988216883E+04 0.  0.
        2    1    3    3  502    0  0.41032694249E+03 -0.15362361269E+04  0.15314527406E+04  0.22076542153E+04  0.25500000920E-02 0.  1.
       -2    1    3    3    0  502 -0.41032694249E+03  0.15362361269E+04 -0.92089780631E+03  0.18375098386E+04  0.25500000920E-02 0. -1.
</event>
<event>
 5   0  0.3399500E-08  0.3998597E+04  0.7818609E-02  0.8004830E-01
       -1   -1    0    0    0  501  0.00000000000E+00  0.00000000000E+00  0.18246878839E+04  0.18246878839E+04  0.50400001928E-02 0. -1.
        1   -1    0    0  501    0  0.00000000000E+00  0.00000000000E+00 -0.21906182565E+04  0.21906182565E+04  0.50400001928E-02 0.  1.
    10030    2    1    2    0    0  0.00000000000E+00  0.00000000000E+00 -0.36593037255E+03  0.40153061404E+04  0.39985970494E+04 0.  0.
        5    1    3    3  502    0  0.17674965134E+04  0.84292707303E+03  0.22195988280E+03  0.19707506831E+04  0.46999998093E+01 0. -1.
       -5    1    3    3    0  502 -0.17674965134E+04 -0.84292707303E+03 -0.58789025535E+03  0.20445554573E+04  0.46999998093E+01 0.  1.
</event>
<event>
 5   0  0.3399500E-08  0.3986199E+04  0.7818609E-02  0.8007337E-01
        1   -1    0    0  501    0  0.00000000000E+00  0.00000000000E+00  0.27864677144E+04  0.27864677144E+04  0.50400001928E-02 0.  1.
       -1   -1    0    0    0  501  0.00000000000E+00  0.00000000000E+00 -0.14256202227E+04  0.14256202227E+04  0.50400001928E-02 0. -1.
    10030    2    1    2    0    0  0.00000000000E+00  0.00000000000E+00  0.13608474918E+04  0.42120879371E+04  0.39861985518E+04 0.  0.
        4    1    3    3  502    0  0.41097467675E+03 -0.18369982664E+04  0.13725051407E+04  0.23296426313E+04  0.12699999809E+01 0. -1.
       -4    1    3    3    0  502 -0.41097467675E+03  0.18369982664E+04 -0.11657648983E+02  0.18824453058E+04  0.12699999809E+01 0.  1.
</event>
<event>
 5   0  0.1087688E-07  0.3896902E+04  0.7818609E-02  0.8025674E-01
       -2   -1    0    0    0  501  0.00000000000E+00  0.00000000000E+00  0.14128164105E+04  0.14128164105E+04  0.25500000920E-02 0.  1.
        2   -1    0    0  501    0  0.00000000000E+00  0.00000000000E+00 -0.26871588488E+04  0.26871588488E+04  0.25500000920E-02 0. -1.
    10030    2    1    2    0    0  0.00000000000E+00  0.00000000000E+00 -0.12743424383E+04  0.40999752593E+04  0.38969024208E+04 0.  0.
        2    1    3    3  502    0  0.13585069602E+04  0.11325319388E+04 -0.14972633119E+04  0.23173189635E+04  0.25500000920E-02 0. -1.
       -2    1    3    3    0  502 -0.13585069602E+04 -0.11325319388E+04  0.22292087361E+03  0.17826562959E+04  0.25500000920E-02 0.  1.
</event>
<event>
 5   0  0.1087688E-07  0.4002601E+04  0.7818609E-02  0.8004022E-01
        2   -1    0    0  501    0  0.00000000000E+00  0.00000000000E+00  0.20322145490E+04  0.20322145490E+04  0.25500000920E-02 0.  1.
       -2   -1    0    0    0  501  0.00000000000E+00  0.00000000000E+00 -0.19708563862E+04  0.19708563862E+04  0.25500000920E-02 0. -1.
    10030    2    1    2    0    0  0.00000000000E+00  0.00000000000E+00  0.61358162819E+02  0.40030709352E+04  0.40026006655E+04 0.  0.
        2    1    3    3  502    0  0.16173251314E+04  0.24785633466E+03  0.11832161785E+04  0.20192012946E+04  0.25500000920E-02 0.  1.
       -2    1    3    3    0  502 -0.16173251314E+04 -0.24785633466E+03 -0.11218580157E+04  0.19838696405E+04  0.25500000920E-02 0. -1.
</event>
<event>
 5   0  0.1095903E-07  0.4047480E+04  0.7818609E-02  0.7995036E-01
       -2   -1    0    0    0  501  0.00000000000E+00  0.00000000000E+00  0.15731671576E+04  0.15731671576E+04  0.25500000920E-02 0.  1.
        2   -1    0    0  501    0  0.00000000000E+00  0.00000000000E+00 -0.26033616709E+04  0.26033616709E+04  0.25500000920E-02 0. -1.
    10030    2    1    2    0    0  0.00000000000E+00  0.00000000000E+00 -0.10301945133E+04  0.41765288285E+04  0.40474797492E+04 0.  0.
        3    1    3    3  502    0 -0.19451045616E+04 -0.36477896483E+03 -0.95170438246E+03  0.21959591732E+04  0.10100000352E+00 0. -1.
       -3    1    3    3    0  502  0.19451045616E+04  0.36477896483E+03 -0.78490130804E+02  0.19805696553E+04  0.10100000352E+00 0.  1.
</event>
<event>
 5   0  0.3399500E-08  0.4001310E+04  0.7818609E-02  0.8004282E-01
       -1   -1    0    0    0  501  0.00000000000E+00  0.00000000000E+00  0.14606033924E+04  0.14606033925E+04  0.50400001928E-02 0.  1.
        1   -1    0    0  501    0  0.00000000000E+00  0.00000000000E+00 -0.27403881724E+04  0.27403881724E+04  0.50400001928E-02 0. -1.
    10030    2    1    2    0    0  0.00000000000E+00  0.00000000000E+00 -0.12797847799E+04  0.42009915648E+04  0.40013099161E+04 0.  0.
        1    1    3    3  502    0  0.28931072899E+03 -0.25464839013E+03  0.14212577596E+04  0.14725895965E+04  0.50400001928E-02 0.  1.
       -1    1    3    3    0  502 -0.28931072899E+03  0.25464839013E+03 -0.27010425395E+04  0.27284019683E+04  0.50400001928E-02 0. -1.
</event>
<event>
 5   0  0.3399500E-08  0.4070848E+04  0.7818609E-02  0.7990405E-01
       -1   -1    0    0    0  501  0.00000000000E+00  0.00000000000E+00  0.14119425660E+04  0.14119425660E+04  0.50400001928E-02 0. -1.
        1   -1    0    0  501    0  0.00000000000E+00  0.00000000000E+00 -0.29342202569E+04  0.29342202569E+04  0.50400001928E-02 0.  1.
    10030    2    1    2    0    0  0.00000000000E+00  0.00000000000E+00 -0.15222776909E+04  0.43461628228E+04  0.40708478127E+04 0.  0.
        2    1    3    3  502    0 -0.18806032006E+04 -0.76434383660E+03 -0.60256571955E+03  0.21175399276E+04  0.25500000920E-02 0.  1.
       -2    1    3    3    0  502  0.18806032006E+04  0.76434383660E+03 -0.91971197135E+03  0.22286228952E+04  0.25500000920E-02 0. -1.
</event>
<event>
 5   0  0.3399500E-08  0.4001876E+04  0.7818609E-02  0.8004168E-01
       -1   -1    0    0    0  501  0.00000000000E+00  0.00000000000E+00  0.17490394446E+04  0.17490394446E+04  0.50400001928E-02 0. -1.
        1   -1    0    0  501    0  0.00000000000E+00  0.00000000000E+00 -0.22891151831E+04  0.22891151831E+04  0.50400001928E-02 0.  1.
    10030    2    1    2    0    0  0.00000000000E+00  0.00000000000E+00 -0.54007573842E+03  0.40381546277E+04  0.40018759344E+04 0.  0.
        2    1    3    3  502    0  0.14761388756E+04 -0.12306116151E+04  0.29211375534E+03  0.19438933544E+04  0.25500000920E-02 0. -1.
       -2    1    3    3    0  502 -0.14761388756E+04  0.12306116151E+04 -0.83218949375E+03  0.20942612733E+04  0.25500000920E-02 0.  1.
</event>
<event>
 5   0  0.1095903E-07  0.4037980E+04  0.7818609E-02  0.7996928E-01
       -2   -1    0    0    0  501  0.00000000000E+00  0.00000000000E+00  0.20298541812E+04  0.20298541812E+04  0.25500000920E-02 0. -1.
        2   -1    0    0  501    0  0.00000000000E+00  0.00000000000E+00 -0.20081840888E+04  0.20081840888E+04  0.25500000920E-02 0.  1.
    10030    2    1    2    0    0  0.00000000000E+00  0.00000000000E+00  0.21670092392E+02  0.40380382700E+04  0.40379801235E+04 0.  0.
        3    1    3    3  502    0 -0.26631046007E+03  0.64597498095E+03  0.19050946007E+04  0.20291846602E+04  0.10100000352E+00 0. -1.
       -3    1    3    3    0  502  0.26631046007E+03 -0.64597498095E+03 -0.18834245083E+04  0.20088536099E+04  0.10100000352E+00 0.  1.
</event>
<event>
 5   0  0.1087688E-07  0.3815015E+04  0.7818609E-02  0.8042940E-01
        2   -1    0    0  501    0  0.00000000000E+00  0.00000000000E+00  0.19458284001E+04  0.19458284001E+04  0.25500000920E-02 0.  1.
       -2   -1    0    0    0  501  0.00000000000E+00  0.00000000000E+00 -0.18699416701E+04  0.18699416701E+04  0.25500000920E-02 0. -1.
    10030    2    1    2    0    0  0.00000000000E+00  0.00000000000E+00  0.75886730025E+02  0.38157700702E+04  0.38150153909E+04 0.  0.
        2    1    3    3  502    0 -0.16903617172E+04  0.66193579958E+03 -0.54792319680E+03  0.18962335213E+04  0.25500000920E-02 0.  1.
       -2    1    3    3    0  502  0.16903617172E+04 -0.66193579958E+03  0.62380992683E+03  0.19195365489E+04  0.25500000920E-02 0. -1.
</event>
<event>
 5   0  0.1087688E-07  0.3959244E+04  0.7818609E-02  0.8012819E-01
        2   -1    0    0  501    0  0.00000000000E+00  0.00000000000E+00  0.20566087160E+04  0.20566087160E+04  0.25500000920E-02 0. -1.
       -2   -1    0    0    0  501  0.00000000000E+00  0.00000000000E+00 -0.19055175325E+04  0.19055175325E+04  0.25500000920E-02 0.  1.
    10030    2    1    2    0    0  0.00000000000E+00  0.00000000000E+00  0.15109118343E+03  0.39621262485E+04  0.39592443551E+04 0.  0.
        2    1    3    3  502    0  0.55997350345E+03  0.31407459808E+03  0.19495246777E+04  0.20525251878E+04  0.25500000920E-02 0. -1.
       -2    1    3    3    0  502 -0.55997350345E+03 -0.31407459808E+03 -0.17984334942E+04  0.19096010607E+04  0.25500000920E-02 0.  1.
</event>
<event>
 5   0  0.3399500E-08  0.4000499E+04  0.7818609E-02  0.8004446E-01
        1   -1    0    0  501    0  0.00000000000E+00  0.00000000000E+00  0.14730941687E+04  0.14730941687E+04  0.50400001928E-02 0. -1.
       -1   -1    0    0    0  501  0.00000000000E+00  0.00000000000E+00 -0.27160504609E+04  0.27160504609E+04  0.50400001928E-02 0.  1.
    10030    2    1    2    0    0  0.00000000000E+00  0.00000000000E+00 -0.12429562922E+04  0.41891446297E+04  0.40004990169E+04 0.  0.
        4    1    3    3  502    0 -0.57382522945E+03 -0.17415314718E+04 -0.14584097666E+04  0.23428973348E+04  0.12699999809E+01 0.  1.
       -4    1    3    3    0  502  0.57382522945E+03  0.17415314718E+04  0.21545347443E+03  0.18462472948E+04  0.12699999809E+01 0. -1.
</event>
<event>
 5   0  0.1073271E-07  0.3994178E+04  0.7818609E-02  0.8005722E-01
        2   -1    0    0  501    0  0.00000000000E+00  0.00000000000E+00  0.14925889437E+04  0.14925889437E+04  0.25500000920E-02 0. -1.
       -2   -1    0    0    0  501  0.00000000000E+00  0.00000000000E+00 -0.26721113481E+04  0.26721113481E+04  0.25500000920E-02 0.  1.
    10030    2    1    2    0    0  0.00000000000E+00  0.00000000000E+00 -0.11795224044E+04  0.41647002918E+04  0.39941776899E+04 0.  0.
        1    1    3    3  502    0 -0.68997833808E+03 -0.18025589437E+04 -0.11245670692E+04  0.22338173484E+04  0.50400001928E-02 0. -1.
       -1    1    3    3    0  502  0.68997833808E+03  0.18025589437E+04 -0.54955335173E+02  0.19308829435E+04  0.50400001928E-02 0.  1.
</event>
<event>
 5   0  0.1095903E-07  0.3615850E+04  0.7818609E-02  0.8086871E-01
       -2   -1    0    0    0  501  0.00000000000E+00  0.00000000000E+00  0.11924104364E+04  0.11924104364E+04  0.25500000920E-02 0. -1.
        2   -1    0    0  501    0  0.00000000000E+00  0.00000000000E+00 -0.27411637254E+04  0.27411637254E+04  0.25500000920E-02 0.  1.
    10030    2    1    2    0    0  0.00000000000E+00  0.00000000000E+00 -0.15487532890E+04  0.39335741618E+04  0.36158496838E+04 0.  0.
        3    1    3    3  502    0 -0.72065897615E+03 -0.14202157750E+04 -0.17052717324E+04  0.23333053591E+04  0.10100000352E+00 0.  1.
       -3    1    3    3    0  502  0.72065897615E+03  0.14202157750E+04  0.15651844337E+03  0.16002688026E+04  0.10100000352E+00 0. -1.
</event>
<event>
 5   0  0.3399500E-08  0.4029493E+04  0.7818609E-02  0.7998623E-01
        1   -1    0    0  501    0  0.00000000000E+00  0.00000000000E+00  0.11599664084E+04  0.11599664084E+04  0.50400001928E-02 0. -1.
       -1   -1    0    0    0  501  0.00000000000E+00  0.00000000000E+00 -0.34994143450E+04  0.34994143450E+04  0.50400001928E-02 0.  1.
    10030    2    1    2    0    0  0.00000000000E+00  0.00000000000E+00 -0.23394479366E+04  0.46593807535E+04  0.40294928164E+04 0.  0.
        2    1    3    3  502    0  0.66371127116E+03 -0.18665307630E+04 -0.74525338419E+03  0.21165661689E+04  0.25500000920E-02 0. -1.
       -2    1    3    3    0  502 -0.66371127116E+03  0.18665307630E+04 -0.15941945524E+04  0.25428145846E+04  0.25500000920E-02 0.  1.
</event>
<event>
 5   0  0.1095903E-07  0.3976884E+04  0.7818609E-02  0.8009226E-01
       -2   -1    0    0    0  501  0.00000000000E+00  0.00000000000E+00  0.16187742844E+04  0.16187742844E+04  0.25500000920E-02 0.  1.
        2   -1    0    0  501    0  0.00000000000E+00  0.00000000000E+00 -0.24425283682E+04  0.24425283682E+04  0.25500000920E-02 0. -1.
    10030    2    1    2    0    0  0.00000000000E+00  0.00000000000E+00 -0.82375408379E+03  0.40613026525E+04  0.39768842634E+04 0.  0.
        3    1    3    3  502    0  0.13595094478E+04  0.13160703814E+04 -0.10360757708E+04  0.21572575647E+04  0.10100000352E+00 0. -1.
       -3    1    3    3    0  502 -0.13595094478E+04 -0.13160703814E+04  0.21232168702E+03  0.19040450878E+04  0.10100000352E+00 0.  1.
</event>
<event>
 5   0  0.1087688E-07  0.3996547E+04  0.7818609E-02  0.8005243E-01
       -2   -1    0    0    0  501  0.00000000000E+00  0.00000000000E+00  0.23295460611E+04  0.23295460611E+04  0.25500000920E-02 0. -1.
        2   -1    0    0  501    0  0.00000000000E+00  0.00000000000E+00 -0.17141098036E+04  0.17141098036E+04  0.25500000920E-02 0.  1.
    10030    2    1    2    0    0  0.00000000000E+00  0.00000000000E+00  0.61543625754E+03  0.40436558647E+04  0.39965473806E+04 0.  0.
        2    1    3    3  502    0 -0.12020220556E+04  0.70318421775E+03 -0.11422732080E+04  0.18011421788E+04  0.25500000920E-02 0.  1.
       -2    1    3    3    0  502  0.12020220556E+04 -0.70318421775E+03  0.17577094656E+04  0.22425136860E+04  0.25500000920E-02 0. -1.
</event>
<event>
 5   0  0.1095903E-07  0.3947037E+04  0.7818609E-02  0.8015317E-01
       -2   -1    0    0    0  501  0.00000000000E+00  0.00000000000E+00  0.17339523074E+04  0.17339523074E+04  0.25500000920E-02 0. -1.
        2   -1    0    0  501    0  0.00000000000E+00  0.00000000000E+00 -0.22461838448E+04  0.22461838448E+04  0.25500000920E-02 0.  1.
    10030    2    1    2    0    0  0.00000000000E+00  0.00000000000E+00 -0.51223153743E+03  0.39801361523E+04  0.39470371980E+04 0.  0.
        3    1    3    3  502    0 -0.23390692597E+03 -0.86076764396E+03  0.15190849523E+04  0.17616050890E+04  0.10100000352E+00 0. -1.
       -3    1    3    3    0  502  0.23390692597E+03  0.86076764396E+03 -0.20313164898E+04  0.22185310633E+04  0.10100000352E+00 0.  1.
</event>
<event>
 5   0  0.3399500E-08  0.4011593E+04  0.7818609E-02  0.8002212E-01
        1   -1    0    0  501    0  0.00000000000E+00  0.00000000000E+00  0.15649626756E+04  0.15649626756E+04  0.50400001928E-02 0.  1.
       -1   -1    0    0    0  501  0.00000000000E+00  0.00000000000E+00 -0.25708087927E+04  0.25708087927E+04  0.50400001928E-02 0. -1.
    10030    2    1    2    0    0  0.00000000000E+00  0.00000000000E+00 -0.10058461172E+04  0.41357714683E+04  0.40115931033E+04 0.  0.
        5    1    3    3  502    0 -0.95057011847E+03  0.51812183392E+03 -0.22437305661E+04  0.24912612726E+04  0.46999998093E+01 0. -1.
       -5    1    3    3    0  502  0.95057011847E+03 -0.51812183392E+03  0.12378844489E+04  0.16445101957E+04  0.46999998093E+01 0.  1.
</event>
<event>
 5   0  0.3399500E-08  0.3981801E+04  0.7818609E-02  0.8008228E-01
        3   -1    0    0  501    0  0.00000000000E+00  0.00000000000E+00  0.19208569777E+04  0.19208569804E+04  0.10100000352E+00 0. -1.
       -3   -1    0    0    0  501  0.00000000000E+00  0.00000000000E+00 -0.20634980495E+04  0.20634980520E+04  0.10100000352E+00 0.  1.
    10030    2    1    2    0    0  0.00000000000E+00  0.00000000000E+00 -0.14264107181E+03  0.39843550324E+04  0.39818009178E+04 0.  0.
        3    1    3    3  502    0  0.18613475650E+04 -0.67420797535E+03  0.13979696598E+03  0.19846194481E+04  0.10100000352E+00 0. -1.
       -3    1    3    3    0  502 -0.18613475650E+04  0.67420797535E+03 -0.28243803779E+03  0.19997355843E+04  0.10100000352E+00 0.  1.
</event>
<event>
 5   0  0.1073271E-07  0.3900549E+04  0.7818609E-02  0.8024915E-01
        2   -1    0    0  501    0  0.00000000000E+00  0.00000000000E+00  0.13456574312E+04  0.13456574312E+04  0.25500000920E-02 0. -1.
       -2   -1    0    0    0  501  0.00000000000E+00  0.00000000000E+00 -0.28265524029E+04  0.28265524029E+04  0.25500000920E-02 0.  1.
    10030    2    1    2    0    0  0.00000000000E+00  0.00000000000E+00 -0.14808949717E+04  0.41722098342E+04  0.39005493181E+04 0.  0.
        1    1    3    3  502    0 -0.11910736588E+04 -0.14977632912E+04 -0.11429814441E+04  0.22289813635E+04  0.50400001928E-02 0.  1.
       -1    1    3    3    0  502  0.11910736588E+04  0.14977632912E+04 -0.33791352759E+03  0.19432284707E+04  0.50400001928E-02 0. -1.
</event>
<event>
 5   0  0.3399500E-08  0.4020820E+04  0.7818609E-02  0.8000360E-01
        1   -1    0    0  501    0  0.00000000000E+00  0.00000000000E+00  0.22632886882E+04  0.22632886882E+04  0.50400001928E-02 0. -1.
       -1   -1    0    0    0  501  0.00000000000E+00  0.00000000000E+00 -0.17857857001E+04  0.17857857001E+04  0.50400001928E-02 0.  1.
    10030    2    1    2    0    0  0.00000000000E+00  0.00000000000E+00  0.47750298812E+03  0.40490743883E+04  0.40208201027E+04 0.  0.
        4    1    3    3  502    0  0.22192283912E+03 -0.13023275341E+04 -0.12872982283E+04  0.18445717915E+04  0.12699999809E+01 0.  1.
       -4    1    3    3    0  502 -0.22192283912E+03  0.13023275341E+04  0.17648012165E+04  0.22045025967E+04  0.12699999809E+01 0. -1.
</event>
<event>
 5   0  0.1087688E-07  0.3983565E+04  0.7818609E-02  0.8007870E-01
       -2   -1    0    0    0  501  0.00000000000E+00  0.00000000000E+00  0.15272653703E+04  0.15272653703E+04  0.25500000920E-02 0.  1.
        2   -1    0    0  501    0  0.00000000000E+00  0.00000000000E+00 -0.25975824122E+04  0.25975824122E+04  0.25500000920E-02 0. -1.
    10030    2    1    2    0    0  0.00000000000E+00  0.00000000000E+00 -0.10703170419E+04  0.41248477825E+04  0.39835650690E+04 0.  0.
        2    1    3    3  502    0 -0.21024560411E+03  0.16599612126E+03  0.15085278856E+04  0.15321273798E+04  0.25500000920E-02 0.  1.
       -2    1    3    3    0  502  0.21024560411E+03 -0.16599612126E+03 -0.25788449276E+04  0.25927204027E+04  0.25500000920E-02 0. -1.
</event>
<event>
 5   0  0.3399500E-08  0.4031645E+04  0.7818609E-02  0.7998193E-01
        1   -1    0    0  501    0  0.00000000000E+00  0.00000000000E+00  0.21178102986E+04  0.21178102986E+04  0.50400001928E-02 0. -1.
       -1   -1    0    0    0  501  0.00000000000E+00  0.00000000000E+00 -0.19187457845E+04  0.19187457845E+04  0.50400001928E-02 0.  1.
    10030    2    1    2    0    0  0.00000000000E+00  0.00000000000E+00  0.19906451415E+03  0.40365560831E+04  0.40316446187E+04 0.  0.
        1    1    3    3  502    0 -0.12200236796E+04  0.46675193983E+03 -0.14376636331E+04  0.19424705594E+04  0.50400001928E-02 0.  1.
       -1    1    3    3    0  502  0.12200236796E+04 -0.46675193983E+03  0.16367281473E+04  0.20940855237E+04  0.50400001928E-02 0. -1.
</event>
<event>
 5   0  0.1095109E-07  0.3993123E+04  0.7818609E-02  0.8005935E-01
       -2   -1    0    0    0  501  0.00000000000E+00  0.00000000000E+00  0.23520642355E+04  0.23520642355E+04  0.25500000920E-02 0. -1.
        2   -1    0    0  501    0  0.00000000000E+00  0.00000000000E+00 -0.16947909421E+04  0.16947909421E+04  0.25500000920E-02 0.  1.
    10030    2    1    2    0    0  0.00000000000E+00  0.00000000000E+00  0.65727329341E+03  0.40468551776E+04  0.39931226686E+04 0.  0.
        4    1    3    3  502    0  0.11688538602E+04  0.71588293292E+03  0.17999112235E+04  0.22623858525E+04  0.12699999809E+01 0. -1.
       -4    1    3    3    0  502 -0.11688538602E+04 -0.71588293292E+03 -0.11426379301E+04  0.17844693251E+04  0.12699999809E+01 0.  1.
</event>
<event>
 5   0  0.3399500E-08  0.4068274E+04  0.7818609E-02  0.7990913E-01
        1   -1    0    0  501    0  0.00000000000E+00  0.00000000000E+00  0.19237977614E+04  0.19237977614E+04  0.50400001928E-02 0.  1.
       -1   -1    0    0    0  501  0.00000000000E+00  0.00000000000E+00 -0.21508047256E+04  0.21508047256E+04  0.50400001928E-02 0. -1.
    10030    2    1    2    0    0  0.00000000000E+00  0.00000000000E+00 -0.22700696424E+03  0.40746024870E+04  0.40682739909E+04 0.  0.
        4    1    3    3  502    0 -0.29030705883E+03 -0.16551989065E+04 -0.12614758431E+04  0.21012578433E+04  0.12699999809E+01 0. -1.
       -4    1    3    3    0  502  0.29030705883E+03  0.16551989065E+04  0.10344688788E+04  0.19733446437E+04  0.12699999809E+01 0.  1.
</event>
<event>
 5   0  0.1101474E-07  0.4013283E+04  0.7818609E-02  0.8001872E-01
       -2   -1    0    0    0  501  0.00000000000E+00  0.00000000000E+00  0.18464137157E+04  0.18464137157E+04  0.25500000920E-02 0.  1.
        2   -1    0    0  501    0  0.00000000000E+00  0.00000000000E+00 -0.21807731870E+04  0.21807731870E+04  0.25500000920E-02 0. -1.
    10030    2    1    2    0    0  0.00000000000E+00  0.00000000000E+00 -0.33435947130E+03  0.40271869027E+04  0.40132827079E+04 0.  0.
        5    1    3    3  502    0 -0.10617188659E+04 -0.11114496479E+04  0.11272584741E+04  0.19061219865E+04  0.46999998093E+01 0.  1.
       -5    1    3    3    0  502  0.10617188659E+04  0.11114496479E+04 -0.14616179454E+04  0.21210649161E+04  0.46999998093E+01 0. -1.
</event>
<event>
 5   0  0.3399500E-08  0.3964931E+04  0.7818609E-02  0.8011659E-01
        1   -1    0    0  501    0  0.00000000000E+00  0.00000000000E+00  0.22966485061E+04  0.22966485061E+04  0.50400001928E-02 0.  1.
       -1   -1    0    0    0  501  0.00000000000E+00  0.00000000000E+00 -0.17112627837E+04  0.17112627837E+04  0.50400001928E-02 0. -1.
    10030    2    1    2    0    0  0.00000000000E+00  0.00000000000E+00  0.58538572242E+03  0.40079112898E+04  0.39649308270E+04 0.  0.
        4    1    3    3  502    0 -0.12062917574E+04 -0.56252736202E+03  0.17778336734E+04  0.22208716803E+04  0.12699999809E+01 0.  1.
       -4    1    3    3    0  502  0.12062917574E+04  0.56252736202E+03 -0.11924479510E+04  0.17870396095E+04  0.12699999809E+01 0. -1.
</event>
<event>
 5   0  0.3399500E-08  0.3971276E+04  0.7818609E-02  0.8010366E-01
        1   -1    0    0  501    0  0.00000000000E+00  0.00000000000E+00  0.25165210537E+04  0.25165210537E+04  0.50400001928E-02 0.  1.
       -1   -1    0    0    0  501  0.00000000000E+00  0.00000000000E+00 -0.15667494355E+04  0.15667494355E+04  0.50400001928E-02 0. -1.
    10030    2    1    2    0    0  0.00000000000E+00  0.00000000000E+00  0.94977161819E+03  0.40832704893E+04  0.39712758355E+04 0.  0.
        5    1    3    3  502    0 -0.76415046855E+03 -0.32175002434E+03  0.23300088848E+04  0.24731381907E+04  0.46999998093E+01 0.  1.
       -5    1    3    3    0  502  0.76415046855E+03  0.32175002434E+03 -0.13802372666E+04  0.16101322986E+04  0.46999998093E+01 0. -1.
</event>
<event>
 5   0  0.1073271E-07  0.4014091E+04  0.7818609E-02  0.8001710E-01
        2   -1    0    0  501    0  0.00000000000E+00  0.00000000000E+00  0.23661150903E+04  0.23661150903E+04  0.25500000920E-02 0. -1.
       -2   -1    0    0    0  501  0.00000000000E+00  0.00000000000E+00 -0.17024668896E+04  0.17024668896E+04  0.25500000920E-02 0.  1.
    10030    2    1    2    0    0  0.00000000000E+00  0.00000000000E+00  0.66364820074E+03  0.40685819799E+04  0.40140914779E+04 0.  0.
        1    1    3    3  502    0  0.84436097400E+03 -0.12062479644E+04 -0.10506016399E+04  0.18087961223E+04  0.50400001928E-02 0.  1.
       -1    1    3    3    0  502 -0.84436097400E+03  0.12062479644E+04  0.17142498407E+04  0.22597858577E+04  0.50400001928E-02 0. -1.
</event>
<event>
 5   0  0.3399500E-08  0.3961222E+04  0.7818609E-02  0.8012415E-01
        1   -1    0    0  501    0  0.00000000000E+00  0.00000000000E+00  0.19043041818E+04  0.19043041818E+04  0.50400001928E-02 0.  1.
       -1   -1    0    0    0  501  0.00000000000E+00  0.00000000000E+00 -0.20599751134E+04  0.20599751134E+04  0.50400001928E-02 0. -1.
    10030    2    1    2    0    0  0.00000000000E+00  0.00000000000E+00 -0.15567093163E+03  0.39642792952E+04  0.39612216413E+04 0.  0.
        5    1    3    3  502    0 -0.13547421844E+04  0.45023501459E+03 -0.14517604929E+04  0.20360914943E+04  0.46999998093E+01 0. -1.
       -5    1    3    3    0  502  0.13547421844E+04 -0.45023501459E+03  0.12960895612E+04  0.19281878009E+04  0.46999998093E+01 0.  1.
</event>
<event>
 5   0  0.1073271E-07  0.4005099E+04  0.7818609E-02  0.8003519E-01
       -2   -1    0    0    0  501  0.00000000000E+00  0.00000000000E+00  0.15252310633E+04  0.15252310633E+04  0.25500000920E-02 0.  1.
        2   -1    0    0  501    0  0.00000000000E+00  0.00000000000E+00 -0.26292442042E+04  0.26292442042E+04  0.25500000920E-02 0. -1.
    10030    2    1    2    0    0  0.00000000000E+00  0.00000000000E+00 -0.11040131409E+04  0.41544752674E+04  0.40050992163E+04 0.  0.
        1    1    3    3  502    0 -0.28383724245E+03  0.10952417609E+04 -0.22659288700E+04  0.25326965351E+04  0.50400001928E-02 0. -1.
       -1    1    3    3    0  502  0.28383724245E+03 -0.10952417609E+04  0.11619157291E+04  0.16217787323E+04  0.50400001928E-02 0.  1.
</event>
<event>
 5   0  0.3399500E-08  0.4010286E+04  0.7818609E-02  0.8002475E-01
        1   -1    0    0  501    0  0.00000000000E+00  0.00000000000E+00  0.23476499652E+04  0.23476499652E+04  0.50400001928E-02 0.  1.
       -1   -1    0    0    0  501  0.00000000000E+00  0.00000000000E+00 -0.17126052415E+04  0.17126052415E+04  0.50400001928E-02 0. -1.
    10030    2    1    2    0    0  0.00000000000E+00  0.00000000000E+00  0.63504472370E+03  0.40602552067E+04  0.40102855937E+04 0.  0.
        3    1    3    3  502    0  0.56569330419E+03  0.15068529910E+04  0.15282415708E+04  0.22194902927E+04  0.10100000352E+00 0.  1.
       -3    1    3    3    0  502 -0.56569330419E+03 -0.15068529910E+04 -0.89319684707E+03  0.18407649140E+04  0.10100000352E+00 0. -1.
</event>
<event>
 5   0  0.3399500E-08  0.4093754E+04  0.7818609E-02  0.7985896E-01
       -1   -1    0    0    0  501  0.00000000000E+00  0.00000000000E+00  0.27135220068E+04  0.27135220068E+04  0.50400001928E-02 0.  1.
        1   -1    0    0  501    0  0.00000000000E+00  0.00000000000E+00 -0.15440103467E+04  0.15440103467E+04  0.50400001928E-02 0. -1.
    10030    2    1    2    0    0  0.00000000000E+00  0.00000000000E+00  0.11695116601E+04  0.42575323535E+04  0.40937542938E+04 0.  0.
        5    1    3    3  502    0 -0.15740409000E+04 -0.10591998154E+04  0.13837186578E+04  0.23482351709E+04  0.46999998093E+01 0. -1.
       -5    1    3    3    0  502  0.15740409000E+04  0.10591998154E+04 -0.21420699771E+03  0.19092971827E+04  0.46999998093E+01 0.  1.
</event>
<event>
 5   0  0.1095109E-07  0.4081716E+04  0.7818609E-02  0.7988262E-01
        2   -1    0    0  501    0  0.00000000000E+00  0.00000000000E+00  0.24075287712E+04  0.24075287712E+04  0.25500000920E-02 0.  1.
       -2   -1    0    0    0  501  0.00000000000E+00  0.00000000000E+00 -0.17300321542E+04  0.17300321542E+04  0.25500000920E-02 0. -1.
    10030    2    1    2    0    0  0.00000000000E+00  0.00000000000E+00  0.67749661704E+03  0.41375609254E+04  0.40817163969E+04 0.  0.
        4    1    3    3  502    0 -0.40519376409E+03 -0.16375756378E+04 -0.82555875744E+03  0.18781333369E+04  0.12699999809E+01 0.  1.
       -4    1    3    3    0  502  0.40519376409E+03  0.16375756378E+04  0.15030553745E+04  0.22594275885E+04  0.12699999809E+01 0. -1.
</event>
<event>
 5   0  0.1087688E-07  0.3999137E+04  0.7818609E-02  0.8004721E-01
       -2   -1    0    0    0  501  0.00000000000E+00  0.00000000000E+00  0.20660875711E+04  0.20660875711E+04  0.25500000920E-02 0. -1.
        2   -1    0    0  501    0  0.00000000000E+00  0.00000000000E+00 -0.19351912163E+04  0.19351912163E+04  0.25500000920E-02 0.  1.
    10030    2    1    2    0    0  0.00000000000E+00  0.00000000000E+00  0.13089635479E+03  0.40012787873E+04  0.39991371667E+04 0.  0.
        2    1    3    3  502    0  0.14894990631E+04  0.68402125255E+03  0.12113920397E+04  0.20381273775E+04  0.25500000920E-02 0. -1.
       -2    1    3    3    0  502 -0.14894990631E+04 -0.68402125255E+03 -0.10804956850E+04  0.19631514099E+04  0.25500000920E-02 0.  1.
</event>
<event>
 5   0  0.3399500E-08  0.3997568E+04  0.7818609E-02  0.8005037E-01
       -1   -1    0    0    0  501  0.00000000000E+00  0.00000000000E+00  0.20237277714E+04  0.20237277714E+04  0.50400001928E-02 0. -1.
        1   -1    0    0  501    0  0.00000000000E+00  0.00000000000E+00 -0.19741477690E+04  0.19741477690E+04  0.50400001928E-02 0.  1.
    10030    2    1    2    0    0  0.00000000000E+00  0.00000000000E+00  0.49580002408E+02  0.39978755404E+04  0.39975680932E+04 0.  0.
        1    1    3    3  502    0  0.54974721054E+03 -0.82041922409E+03  0.17626888720E+04  0.20204904747E+04  0.50400001928E-02 0. -1.
       -1    1    3    3    0  502 -0.54974721054E+03  0.82041922409E+03 -0.17131088696E+04  0.19773850657E+04  0.50400001928E-02 0.  1.
</event>
<event>
 5   0  0.1101474E-07  0.4000451E+04  0.7818609E-02  0.8004455E-01
        2   -1    0    0  501    0  0.00000000000E+00  0.00000000000E+00  0.16856852803E+04  0.16856852803E+04  0.25500000920E-02 0.  1.
       -2   -1    0    0    0  501  0.00000000000E+00  0.00000000000E+00 -0.23734578665E+04  0.23734578665E+04  0.25500000920E-02 0. -1.
    10030    2    1    2    0    0  0.00000000000E+00  0.00000000000E+00 -0.68777258620E+03  0.40591431468E+04  0.40004514690E+04 0.  0.
        5    1    3    3  502    0  0.60626380954E+02 -0.19970920287E+04 -0.24854622485E+03  0.20134173549E+04  0.46999998093E+01 0. -1.
       -5    1    3    3    0  502 -0.60626380954E+02  0.19970920287E+04 -0.43922636135E+03  0.20457257919E+04  0.46999998093E+01 0.  1.
</event>
<event>
 5   0  0.3399500E-08  0.4171161E+04  0.7818609E-02  0.7970881E-01
       -1   -1    0    0    0  501  0.00000000000E+00  0.00000000000E+00  0.15967043928E+04  0.15967043928E+04  0.50400001928E-02 0.  1.
        1   -1    0    0  501    0  0.00000000000E+00  0.00000000000E+00 -0.27241404514E+04  0.27241404514E+04  0.50400001928E-02 0. -1.
    10030    2    1    2    0    0  0.00000000000E+00  0.00000000000E+00 -0.11274360586E+04  0.43208448441E+04  0.41711614810E+04 0.  0.
        1    1    3    3  502    0  0.25252768460E+03 -0.15649450632E+03 -0.27021090353E+04  0.27183918041E+04  0.50400001928E-02 0. -1.
       -1    1    3    3    0  502 -0.25252768460E+03  0.15649450632E+03  0.15746729767E+04  0.16024530400E+04  0.50400001928E-02 0.  1.
</event>
<event>
 5   0  0.1095109E-07  0.4056581E+04  0.7818609E-02  0.7993229E-01
        2   -1    0    0  501    0  0.00000000000E+00  0.00000000000E+00  0.18740979189E+04  0.18740979189E+04  0.25500000920E-02 0. -1.
       -2   -1    0    0    0  501  0.00000000000E+00  0.00000000000E+00 -0.21951689824E+04  0.21951689824E+04  0.25500000920E-02 0.  1.
    10030    2    1    2    0    0  0.00000000000E+00  0.00000000000E+00 -0.32107106351E+03  0.40692669013E+04  0.40565806396E+04 0.  0.
        4    1    3    3  502    0  0.19071244458E+04  0.64700742070E+03  0.81502597445E+02  0.20155362910E+04  0.12699999809E+01 0. -1.
       -4    1    3    3    0  502 -0.19071244458E+04 -0.64700742070E+03 -0.40257366095E+03  0.20537306103E+04  0.12699999809E+01 0.  1.
</event>
<event>
 5   0  0.3399500E-08  0.4285847E+04  0.7818609E-02  0.7949240E-01
       -1   -1    0    0    0  501  0.00000000000E+00  0.00000000000E+00  0.18297845732E+04  0.18297845732E+04  0.50400001928E-02 0. -1.
        1   -1    0    0  501    0  0.00000000000E+00  0.00000000000E+00 -0.25096517010E+04  0.25096517010E+04  0.50400001928E-02 0.  1.
    10030    2    1    2    0    0  0.00000000000E+00  0.00000000000E+00 -0.67986712783E+03  0.43394362742E+04  0.42858473919E+04 0.  0.
        4    1    3    3  502    0  0.36211887230E+03  0.12285726844E+04 -0.20794371221E+04  0.24422492248E+04  0.12699999809E+01 0.  1.
       -4    1    3    3    0  502 -0.36211887230E+03 -0.12285726844E+04  0.13995699942E+04  0.18971870494E+04  0.12699999809E+01 0. -1.
</event>
<event>
 5   0  0.3399500E-08  0.3997689E+04  0.7818609E-02  0.8005013E-01
       -1   -1    0    0    0  501  0.00000000000E+00  0.00000000000E+00  0.15880944062E+04  0.15880944062E+04  0.50400001928E-02 0. -1.
        1   -1    0    0  501    0  0.00000000000E+00  0.00000000000E+00 -0.25158327039E+04  0.25158327039E+04  0.50400001928E-02 0.  1.
    10030    2    1    2    0    0  0.00000000000E+00  0.00000000000E+00 -0.92773829773E+03  0.41039271102E+04  0.39976892546E+04 0.  0.
        2    1    3    3  502    0  0.77901517082E+03  0.31503463940E+02 -0.23533031023E+04  0.24790910826E+04  0.25500000920E-02 0.  1.
       -2    1    3    3    0  502 -0.77901517082E+03 -0.31503463940E+02  0.14255648045E+04  0.16248360276E+04  0.25500000920E-02 0. -1.
</event>
<event>
 5   0  0.1087688E-07  0.4056926E+04  0.7818609E-02  0.7993160E-01
        2   -1    0    0  501    0  0.00000000000E+00  0.00000000000E+00  0.15778660094E+04  0.15778660094E+04  0.25500000920E-02 0. -1.
       -2   -1    0    0    0  501  0.00000000000E+00  0.00000000000E+00 -0.26077387208E+04  0.26077387208E+04  0.25500000920E-02 0.  1.
    10030    2    1    2    0    0  0.00000000000E+00  0.00000000000E+00 -0.10298727114E+04  0.41856047303E+04  0.40569260723E+04 0.  0.
        2    1    3    3  502    0 -0.23132969426E+03 -0.84661878965E+03 -0.24017077550E+04  0.25570445719E+04  0.25500000920E-02 0.  1.
       -2    1    3    3    0  502  0.23132969426E+03  0.84661878965E+03  0.13718350436E+04  0.16285601583E+04  0.25500000920E-02 0. -1.
</event>
<event>
 5   0  0.3399500E-08  0.4003410E+04  0.7818609E-02  0.8003859E-01
       -3   -1    0    0    0  501  0.00000000000E+00  0.00000000000E+00  0.15523961676E+04  0.15523961708E+04  0.10100000352E+00 0.  1.
        3   -1    0    0  501    0  0.00000000000E+00  0.00000000000E+00 -0.25810571507E+04  0.25810571527E+04  0.10100000352E+00 0. -1.
    10030    2    1    2    0    0  0.00000000000E+00  0.00000000000E+00 -0.10286609832E+04  0.41334533235E+04  0.40034101663E+04 0.  0.
        5    1    3    3  502    0 -0.21568341619E+03 -0.14956344373E+04  0.84108012888E+03  0.17294159648E+04  0.46999998093E+01 0.  1.
       -5    1    3    3    0  502  0.21568341619E+03  0.14956344373E+04 -0.18697411120E+04  0.24040373587E+04  0.46999998093E+01 0. -1.
</event>
<event>
 5   0  0.3399500E-08  0.3948098E+04  0.7818609E-02  0.8015099E-01
        1   -1    0    0  501    0  0.00000000000E+00  0.00000000000E+00  0.23150029856E+04  0.23150029856E+04  0.50400001928E-02 0.  1.
       -1   -1    0    0    0  501  0.00000000000E+00  0.00000000000E+00 -0.16833106562E+04  0.16833106562E+04  0.50400001928E-02 0. -1.
    10030    2    1    2    0    0  0.00000000000E+00  0.00000000000E+00  0.63169232940E+03  0.39983136417E+04  0.39480978684E+04 0.  0.
        1    1    3    3  502    0 -0.11758317949E+04 -0.86382831899E+03  0.16624537661E+04  0.22119069372E+04  0.50400001928E-02 0.  1.
       -1    1    3    3    0  502  0.11758317949E+04  0.86382831899E+03 -0.10307614367E+04  0.17864067045E+04  0.50400001928E-02 0. -1.
</event>
<event>
 5   0  0.3399500E-08  0.3997109E+04  0.7818609E-02  0.8005130E-01
        1   -1    0    0  501    0  0.00000000000E+00  0.00000000000E+00  0.13337978733E+04  0.13337978733E+04  0.50400001928E-02 0.  1.
       -1   -1    0    0    0  501  0.00000000000E+00  0.00000000000E+00 -0.29946215656E+04  0.29946215656E+04  0.50400001928E-02 0. -1.
    10030    2    1    2    0    0  0.00000000000E+00  0.00000000000E+00 -0.16608236924E+04  0.43284194389E+04  0.39971088929E+04 0.  0.
        5    1    3    3  502    0  0.85609226360E+02 -0.14157939099E+04  0.69426784188E+03  0.15791868988E+04  0.46999998093E+01 0.  1.
       -5    1    3    3    0  502 -0.85609226360E+02  0.14157939099E+04 -0.23550915342E+04  0.27492325401E+04  0.46999998093E+01 0. -1.
</event>
<event>
 5   0  0.1087688E-07  0.4027032E+04  0.7818609E-02  0.7999115E-01
        2   -1    0    0  501    0  0.00000000000E+00  0.00000000000E+00  0.23754115125E+04  0.23754115125E+04  0.25500000920E-02 0.  1.
       -2   -1    0    0    0  501  0.00000000000E+00  0.00000000000E+00 -0.17067553271E+04  0.17067553271E+04  0.25500000920E-02 0. -1.
    10030    2    1    2    0    0  0.00000000000E+00  0.00000000000E+00  0.66865618538E+03  0.40821668396E+04  0.40270317868E+04 0.  0.
        2    1    3    3  502    0 -0.12162938782E+04 -0.71787521633E+03  0.17890829648E+04  0.22793712904E+04  0.25500000920E-02 0.  1.
       -2    1    3    3    0  502  0.12162938782E+04  0.71787521633E+03 -0.11204267795E+04  0.18027955492E+04  0.25500000920E-02 0. -1.
</event>
<event>
 5   0  0.1087688E-07  0.3922082E+04  0.7818609E-02  0.8020452E-01
       -2   -1    0    0    0  501  0.00000000000E+00  0.00000000000E+00  0.12988351083E+04  0.12988351083E+04  0.25500000920E-02 0. -1.
        2   -1    0    0  501    0  0.00000000000E+00  0.00000000000E+00 -0.29608701450E+04  0.29608701450E+04  0.25500000920E-02 0.  1.
    10030    2    1    2    0    0  0.00000000000E+00  0.00000000000E+00 -0.16620350367E+04  0.42597052533E+04  0.39220821488E+04 0.  0.
        2    1    3    3  502    0  0.69912112691E+03  0.24809960673E+03  0.11405614948E+04  0.13605896841E+04  0.25500000920E-02 0. -1.
       -2    1    3    3    0  502 -0.69912112691E+03 -0.24809960673E+03 -0.28025965316E+04  0.28991155692E+04  0.25500000920E-02 0.  1.
</event>
<event>
 5   0  0.3399500E-08  0.3924478E+04  0.7818609E-02  0.8019957E-01
        1   -1    0    0  501    0  0.00000000000E+00  0.00000000000E+00  0.13173948676E+04  0.13173948677E+04  0.50400001928E-02 0. -1.
       -1   -1    0    0    0  501  0.00000000000E+00  0.00000000000E+00 -0.29227248410E+04  0.29227248410E+04  0.50400001928E-02 0.  1.
    10030    2    1    2    0    0  0.00000000000E+00  0.00000000000E+00 -0.16053299733E+04  0.42401197086E+04  0.39244784138E+04 0.  0.
        1    1    3    3  502    0 -0.15047966285E+04  0.73574793062E+03 -0.19069482642E+04  0.25381468816E+04  0.50400001928E-02 0.  1.
       -1    1    3    3    0  502  0.15047966285E+04 -0.73574793062E+03  0.30161829086E+03  0.17019728270E+04  0.50400001928E-02 0. -1.
</event>
<event>
 5   0  0.1095903E-07  0.3998285E+04  0.7818609E-02  0.8004893E-01
       -2   -1    0    0    0  501  0.00000000000E+00  0.00000000000E+00  0.15184996958E+04  0.15184996958E+04  0.25500000920E-02 0.  1.
        2   -1    0    0  501    0  0.00000000000E+00  0.00000000000E+00 -0.26319208951E+04  0.26319208951E+04  0.25500000920E-02 0. -1.
    10030    2    1    2    0    0  0.00000000000E+00  0.00000000000E+00 -0.11134211993E+04  0.41504205910E+04  0.39982851718E+04 0.  0.
        3    1    3    3  502    0  0.11470482677E+04 -0.87809064792E+03  0.87783122356E+03  0.16903699541E+04  0.10100000352E+00 0.  1.
       -3    1    3    3    0  502 -0.11470482677E+04  0.87809064792E+03 -0.19912524229E+04  0.24600506369E+04  0.10100000352E+00 0. -1.
</event>
<event>
 5   0  0.1095903E-07  0.4020275E+04  0.7818609E-02  0.8000469E-01
        2   -1    0    0  501    0  0.00000000000E+00  0.00000000000E+00  0.30515069392E+04  0.30515069392E+04  0.25500000920E-02 0. -1.
       -2   -1    0    0    0  501  0.00000000000E+00  0.00000000000E+00 -0.13241501038E+04  0.13241501038E+04  0.25500000920E-02 0.  1.
    10030    2    1    2    0    0  0.00000000000E+00  0.00000000000E+00  0.17273568354E+04  0.43756570431E+04  0.40202752296E+04 0.  0.
        3    1    3    3  502    0 -0.17213821804E+04  0.70629661774E+02 -0.26348730051E+03  0.17428627967E+04  0.10100000352E+00 0.  1.
       -3    1    3    3    0  502  0.17213821804E+04 -0.70629661774E+02  0.19908441359E+04  0.26327942464E+04  0.10100000352E+00 0. -1.
</event>
<event>
 5   0  0.1095109E-07  0.4012146E+04  0.7818609E-02  0.8002101E-01
        2   -1    0    0  501    0  0.00000000000E+00  0.00000000000E+00  0.21046814485E+04  0.21046814485E+04  0.25500000920E-02 0.  1.
       -2   -1    0    0    0  501  0.00000000000E+00  0.00000000000E+00 -0.19120842373E+04  0.19120842373E+04  0.25500000920E-02 0. -1.
    10030    2    1    2    0    0  0.00000000000E+00  0.00000000000E+00  0.19259721125E+03  0.40167656858E+04  0.40121456714E+04 0.  0.
        4    1    3    3  502    0 -0.11607586795E+03  0.12381835214E+04 -0.14796024570E+04  0.19328210169E+04  0.12699999809E+01 0. -1.
       -4    1    3    3    0  502  0.11607586795E+03 -0.12381835214E+04  0.16721996682E+04  0.20839446689E+04  0.12699999809E+01 0.  1.
</event>
<event>
 5   0  0.3399500E-08  0.3973879E+04  0.7818609E-02  0.8009837E-01
       -1   -1    0    0    0  501  0.00000000000E+00  0.00000000000E+00  0.25000907198E+04  0.25000907198E+04  0.50400001928E-02 0.  1.
        1   -1    0    0  501    0  0.00000000000E+00  0.00000000000E+00 -0.15791140173E+04  0.15791140173E+04  0.50400001928E-02 0. -1.
    10030    2    1    2    0    0  0.00000000000E+00  0.00000000000E+00  0.92097670248E+03  0.40792047371E+04  0.39738788608E+04 0.  0.
        4    1    3    3  502    0 -0.56697770282E+03 -0.16230130464E+04 -0.56205220422E+03  0.18087397153E+04  0.12699999809E+01 0. -1.
       -4    1    3    3    0  502  0.56697770282E+03  0.16230130464E+04  0.14830289067E+04  0.22704650218E+04  0.12699999809E+01 0.  1.
</event>
<event>
 5   0  0.3399500E-08  0.4003049E+04  0.7818609E-02  0.8003932E-01
        1   -1    0    0  501    0  0.00000000000E+00  0.00000000000E+00  0.20415106253E+04  0.20415106253E+04  0.50400001928E-02 0.  1.
       -1   -1    0    0    0  501  0.00000000000E+00  0.00000000000E+00 -0.19623217765E+04  0.19623217765E+04  0.50400001928E-02 0. -1.
    10030    2    1    2    0    0  0.00000000000E+00  0.00000000000E+00  0.79188848838E+02  0.40038324019E+04  0.40030492163E+04 0.  0.
        4    1    3    3  502    0  0.14470960452E+04 -0.45644398805E+03 -0.12659084550E+04  0.19760956221E+04  0.12699999809E+01 0. -1.
       -4    1    3    3    0  502 -0.14470960452E+04  0.45644398805E+03  0.13450973038E+04  0.20277367798E+04  0.12699999809E+01 0.  1.
</event>
<event>
 5   0  0.1101474E-07  0.4011238E+04  0.7818609E-02  0.8002283E-01
       -2   -1    0    0    0  501  0.00000000000E+00  0.00000000000E+00  0.19473826147E+04  0.19473826147E+04  0.25500000920E-02 0.  1.
        2   -1    0    0  501    0  0.00000000000E+00  0.00000000000E+00 -0.20655970000E+04  0.20655970000E+04  0.25500000920E-02 0. -1.
    10030    2    1    2    0    0  0.00000000000E+00  0.00000000000E+00 -0.11821438528E+03  0.40129796147E+04  0.40112380566E+04 0.  0.
        5    1    3    3  502    0  0.20460624168E+03  0.19944514915E+04 -0.11190444239E+03  0.20080451091E+04  0.46999998093E+01 0. -1.
       -5    1    3    3    0  502 -0.20460624168E+03 -0.19944514915E+04 -0.63099428972E+01  0.20049345055E+04  0.46999998093E+01 0.  1.
</event>
<event>
 5   0  0.3399500E-08  0.3701656E+04  0.7818609E-02  0.8067595E-01
        1   -1    0    0  501    0  0.00000000000E+00  0.00000000000E+00  0.31569781246E+04  0.31569781246E+04  0.50400001928E-02 0.  1.
       -1   -1    0    0    0  501  0.00000000000E+00  0.00000000000E+00 -0.10850769631E+04  0.10850769631E+04  0.50400001928E-02 0. -1.
    10030    2    1    2    0    0  0.00000000000E+00  0.00000000000E+00  0.20719011615E+04  0.42420550878E+04  0.37016559733E+04 0.  0.
        4    1    3    3  502    0  0.88448425020E+02 -0.13186195848E+04  0.25208712632E+04  0.28462913189E+04  0.12699999809E+01 0.  1.
       -4    1    3    3    0  502 -0.88448425020E+02  0.13186195848E+04 -0.44897010167E+03  0.13957637689E+04  0.12699999809E+01 0. -1.
</event>
<event>
 5   0  0.1095903E-07  0.4020842E+04  0.7818609E-02  0.8000355E-01
       -2   -1    0    0    0  501  0.00000000000E+00  0.00000000000E+00  0.23798699135E+04  0.23798699135E+04  0.25500000920E-02 0.  1.
        2   -1    0    0  501    0  0.00000000000E+00  0.00000000000E+00 -0.16983254071E+04  0.16983254071E+04  0.25500000920E-02 0. -1.
    10030    2    1    2    0    0  0.00000000000E+00  0.00000000000E+00  0.68154450639E+03  0.40781953206E+04  0.40208424688E+04 0.  0.
        3    1    3    3  502    0  0.41134815006E+02 -0.11010570722E+04  0.20463572696E+04  0.23241335663E+04  0.10100000352E+00 0.  1.
       -3    1    3    3    0  502 -0.41134815006E+02  0.11010570722E+04 -0.13648127632E+04  0.17540617543E+04  0.10100000352E+00 0. -1.
</event>
<event>
 5   0  0.1095903E-07  0.3998068E+04  0.7818609E-02  0.8004936E-01
        2   -1    0    0  501    0  0.00000000000E+00  0.00000000000E+00  0.24519302234E+04  0.24519302234E+04  0.25500000920E-02 0.  1.
       -2   -1    0    0    0  501  0.00000000000E+00  0.00000000000E+00 -0.16297925289E+04  0.16297925289E+04  0.25500000920E-02 0. -1.
    10030    2    1    2    0    0  0.00000000000E+00  0.00000000000E+00  0.82213769450E+03  0.40817227523E+04  0.39980683133E+04 0.  0.
        3    1    3    3  502    0 -0.20395425145E+03  0.77022682322E+02  0.24397569716E+04  0.24494782957E+04  0.10100000352E+00 0.  1.
       -3    1    3    3    0  502  0.20395425145E+03 -0.77022682322E+02 -0.16176192771E+04  0.16322444566E+04  0.10100000352E+00 0. -1.
</event>
<event>
 5   0  0.3399500E-08  0.3988981E+04  0.7818609E-02  0.8006773E-01
        1   -1    0    0  501    0  0.00000000000E+00  0.00000000000E+00  0.23348733454E+04  0.23348733454E+04  0.50400001928E-02 0.  1.
       -1   -1    0    0    0  501  0.00000000000E+00  0.00000000000E+00 -0.17037291776E+04  0.17037291776E+04  0.50400001928E-02 0. -1.
    10030    2    1    2    0    0  0.00000000000E+00  0.00000000000E+00  0.63114416784E+03  0.40386025230E+04  0.39889807443E+04 0.  0.
        4    1    3    3  502    0  0.43922380565E+03  0.13125178859E+04 -0.11383877490E+04  0.17920795273E+04  0.12699999809E+01 0. -1.
       -4    1    3    3    0  502 -0.43922380565E+03 -0.13125178859E+04  0.17695319169E+04  0.22465229956E+04  0.12699999809E+01 0.  1.
</event>
<event>
 5   0  0.3399500E-08  0.4026213E+04  0.7818609E-02  0.7999279E-01
       -1   -1    0    0    0  501  0.00000000000E+00  0.00000000000E+00  0.18714455482E+04  0.18714455482E+04  0.50400001928E-02 0.  1.
        1   -1    0    0  501    0  0.00000000000E+00  0.00000000000E+00 -0.21654906795E+04  0.21654906795E+04  0.50400001928E-02 0. -1.
    10030    2    1    2    0    0  0.00000000000E+00  0.00000000000E+00 -0.29404513126E+03  0.40369362277E+04  0.40262130554E+04 0.  0.
        3    1    3    3  502    0 -0.84527994666E+03 -0.44417894151E+03 -0.19239741967E+04  0.21478989362E+04  0.10100000352E+00 0. -1.
       -3    1    3    3    0  502  0.84527994666E+03  0.44417894151E+03  0.16299290654E+04  0.18890372916E+04  0.10100000352E+00 0.  1.
</event>
<event>
 5   0  0.3399500E-08  0.3956124E+04  0.7818609E-02  0.8013457E-01
        1   -1    0    0  501    0  0.00000000000E+00  0.00000000000E+00  0.15645368960E+04  0.15645368960E+04  0.50400001928E-02 0.  1.
       -1   -1    0    0    0  501  0.00000000000E+00  0.00000000000E+00 -0.25008867952E+04  0.25008867952E+04  0.50400001928E-02 0. -1.
    10030    2    1    2    0    0  0.00000000000E+00  0.00000000000E+00 -0.93634989914E+03  0.40654236912E+04  0.39561241962E+04 0.  0.
        4    1    3    3  502    0 -0.45904189683E+03  0.96987908315E+03  0.12394641351E+04  0.16394077754E+04  0.12699999809E+01 0.  1.
       -4    1    3    3    0  502  0.45904189683E+03 -0.96987908315E+03 -0.21758140343E+04  0.24260159158E+04  0.12699999809E+01 0. -1.
</event>
<event>
 5   0  0.1101474E-07  0.3963057E+04  0.7818609E-02  0.8012041E-01
        2   -1    0    0  501    0  0.00000000000E+00  0.00000000000E+00  0.14494009024E+04  0.14494009024E+04  0.25500000920E-02 0. -1.
       -2   -1    0    0    0  501  0.00000000000E+00  0.00000000000E+00 -0.27090195700E+04  0.27090195700E+04  0.25500000920E-02 0.  1.
    10030    2    1    2    0    0  0.00000000000E+00  0.00000000000E+00 -0.12596186676E+04  0.41584204724E+04  0.39630571075E+04 0.  0.
        5    1    3    3  502    0 -0.11282596732E+04  0.11090602303E+04  0.62208882385E+03  0.17000003175E+04  0.46999998093E+01 0. -1.
       -5    1    3    3    0  502  0.11282596732E+04 -0.11090602303E+04 -0.18817074915E+04  0.24584201549E+04  0.46999998093E+01 0.  1.
</event>
<event>
 5   0  0.3399500E-08  0.3988262E+04  0.7818609E-02  0.8006919E-01
        1   -1    0    0  501    0  0.00000000000E+00  0.00000000000E+00  0.28528737308E+04  0.28528737308E+04  0.50400001928E-02 0. -1.
       -1   -1    0    0    0  501  0.00000000000E+00  0.00000000000E+00 -0.13938780200E+04  0.13938780200E+04  0.50400001928E-02 0.  1.
    10030    2    1    2    0    0  0.00000000000E+00  0.00000000000E+00  0.14589957108E+04  0.42467517508E+04  0.39882617703E+04 0.  0.
        4    1    3    3  502    0  0.34679898089E+03  0.16949100037E+04  0.17855252293E+04  0.24861800842E+04  0.12699999809E+01 0. -1.
       -4    1    3    3    0  502 -0.34679898089E+03 -0.16949100037E+04 -0.32652951852E+03  0.17605716666E+04  0.12699999809E+01 0.  1.
</event>
<event>
 5   0  0.3399500E-08  0.3999932E+04  0.7818609E-02  0.8004560E-01
        1   -1    0    0  501    0  0.00000000000E+00  0.00000000000E+00  0.20834847251E+04  0.20834847251E+04  0.50400001928E-02 0.  1.
       -1   -1    0    0    0  501  0.00000000000E+00  0.00000000000E+00 -0.19197954100E+04  0.19197954100E+04  0.50400001928E-02 0. -1.
    10030    2    1    2    0    0  0.00000000000E+00  0.00000000000E+00  0.16368931506E+03  0.40032801351E+04  0.39999322054E+04 0.  0.
        2    1    3    3  502    0 -0.10912123188E+04 -0.30853627799E+03 -0.15669338135E+04  0.19342234968E+04  0.25500000920E-02 0. -1.
       -2    1    3    3    0  502  0.10912123188E+04  0.30853627799E+03  0.17306231286E+04  0.20690566383E+04  0.25500000920E-02 0.  1.
</event>
<event>
 5   0  0.3399500E-08  0.4000134E+04  0.7818609E-02  0.8004520E-01
        3   -1    0    0  501    0  0.00000000000E+00  0.00000000000E+00  0.13706440275E+04  0.13706440312E+04  0.10100000352E+00 0.  1.
       -3   -1    0    0    0  501  0.00000000000E+00  0.00000000000E+00 -0.29185314768E+04  0.29185314786E+04  0.10100000352E+00 0. -1.
    10030    2    1    2    0    0  0.00000000000E+00  0.00000000000E+00 -0.15478874493E+04  0.42891755098E+04  0.40001338725E+04 0.  0.
        5    1    3    3  502    0  0.10577428051E+04 -0.15289193917E+04 -0.15646795142E+04  0.24299502917E+04  0.46999998093E+01 0. -1.
       -5    1    3    3    0  502 -0.10577428051E+04  0.15289193917E+04  0.16792064911E+02  0.18592252181E+04  0.46999998093E+01 0.  1.
</event>
<event>
 5   0  0.1087688E-07  0.3997551E+04  0.7818609E-02  0.8005041E-01
        2   -1    0    0  501    0  0.00000000000E+00  0.00000000000E+00  0.15506928812E+04  0.15506928812E+04  0.25500000920E-02 0. -1.
       -2   -1    0    0    0  501  0.00000000000E+00  0.00000000000E+00 -0.25763340234E+04  0.25763340234E+04  0.25500000920E-02 0.  1.
    10030    2    1    2    0    0  0.00000000000E+00  0.00000000000E+00 -0.10256411422E+04  0.41270269045E+04  0.39975506649E+04 0.  0.
        2    1    3    3  502    0 -0.79225892918E+03 -0.13320329540E+04 -0.18158887397E+04  0.23873495589E+04  0.25500000920E-02 0.  1.
       -2    1    3    3    0  502  0.79225892918E+03  0.13320329540E+04  0.79024759753E+03  0.17396773456E+04  0.25500000920E-02 0. -1.
</event>
<event>
 5   0  0.1095109E-07  0.4040469E+04  0.7818609E-02  0.7996432E-01
        2   -1    0    0  501    0  0.00000000000E+00  0.00000000000E+00  0.24793999242E+04  0.24793999242E+04  0.25500000920E-02 0. -1.
       -2   -1    0    0    0  501  0.00000000000E+00  0.00000000000E+00 -0.16461030620E+04  0.16461030620E+04  0.25500000920E-02 0.  1.
    10030    2    1    2    0    0  0.00000000000E+00  0.00000000000E+00  0.83329686216E+03  0.41255029862E+04  0.40404691842E+04 0.  0.
        4    1    3    3  502    0  0.12333490789E+04 -0.14410046670E+04 -0.29347518476E+03  0.19193159453E+04  0.12699999809E+01 0. -1.
       -4    1    3    3    0  502 -0.12333490789E+04  0.14410046670E+04  0.11267720469E+04  0.22061870409E+04  0.12699999809E+01 0.  1.
</event>
<event>
 5   0  0.1095903E-07  0.3937215E+04  0.7818609E-02  0.8017333E-01
        2   -1    0    0  501    0  0.00000000000E+00  0.00000000000E+00  0.21691795260E+04  0.21691795260E+04  0.25500000920E-02 0.  1.
       -2   -1    0    0    0  501  0.00000000000E+00  0.00000000000E+00 -0.17865813851E+04  0.17865813851E+04  0.25500000920E-02 0. -1.
    10030    2    1    2    0    0  0.00000000000E+00  0.00000000000E+00  0.38259814092E+03  0.39557609112E+04  0.39372151388E+04 0.  0.
        3    1    3    3  502    0  0.81923964237E+02  0.83267740379E+03  0.19816446332E+04  0.21510412960E+04  0.10100000352E+00 0.  1.
       -3    1    3    3    0  502 -0.81923964237E+02 -0.83267740379E+03 -0.15990464923E+04  0.18047196152E+04  0.10100000352E+00 0. -1.
</event>
<event>
 5   0  0.3399500E-08  0.3933787E+04  0.7818609E-02  0.8018039E-01
        1   -1    0    0  501    0  0.00000000000E+00  0.00000000000E+00  0.18119978335E+04  0.18119978336E+04  0.50400001928E-02 0. -1.
       -1   -1    0    0    0  501  0.00000000000E+00  0.00000000000E+00 -0.21350305791E+04  0.21350305791E+04  0.50400001928E-02 0.  1.
    10030    2    1    2    0    0  0.00000000000E+00  0.00000000000E+00 -0.32303274556E+03  0.39470284127E+04  0.39337873780E+04 0.  0.
        1    1    3    3  502    0 -0.59191093021E+03 -0.15260836245E+04 -0.12557747232E+04  0.20630705111E+04  0.50400001928E-02 0.  1.
       -1    1    3    3    0  502  0.59191093021E+03  0.15260836245E+04  0.93274197763E+03  0.18839579016E+04  0.50400001928E-02 0. -1.
</event>
<event>
 5   0  0.3399500E-08  0.3970895E+04  0.7818609E-02  0.8010444E-01
        1   -1    0    0  501    0  0.00000000000E+00  0.00000000000E+00  0.17239241524E+04  0.17239241524E+04  0.50400001928E-02 0.  1.
       -1   -1    0    0    0  501  0.00000000000E+00  0.00000000000E+00 -0.22866449641E+04  0.22866449641E+04  0.50400001928E-02 0. -1.
    10030    2    1    2    0    0  0.00000000000E+00  0.00000000000E+00 -0.56272081170E+03  0.40105691165E+04  0.39708953557E+04 0.  0.
        3    1    3    3  502    0 -0.37986426108E+02 -0.16855188218E+04  0.77772778371E+03  0.18566844598E+04  0.10100000352E+00 0.  1.
       -3    1    3    3    0  502  0.37986426108E+02  0.16855188218E+04 -0.13404485954E+04  0.21538846567E+04  0.10100000352E+00 0. -1.
</event>
<event>
 5   0  0.3399500E-08  0.4015361E+04  0.7818609E-02  0.8001455E-01
        3   -1    0    0  501    0  0.00000000000E+00  0.00000000000E+00  0.24704263999E+04  0.24704264020E+04  0.10100000352E+00 0. -1.
       -3   -1    0    0    0  501  0.00000000000E+00  0.00000000000E+00 -0.16316133036E+04  0.16316133067E+04  0.10100000352E+00 0.  1.
    10030    2    1    2    0    0  0.00000000000E+00  0.00000000000E+00  0.83881309631E+03  0.41020397087E+04  0.40153608008E+04 0.  0.
        1    1    3    3  502    0 -0.16932142895E+04  0.46299728295E+03 -0.57601933162E+03  0.18474683717E+04  0.50400001928E-02 0.  1.
       -1    1    3    3    0  502  0.16932142895E+04 -0.46299728295E+03  0.14148324279E+04  0.22545713369E+04  0.50400001928E-02 0. -1.
</event>
<event>
 5   0  0.3399500E-08  0.4015697E+04  0.7818609E-02  0.8001387E-01
        1   -1    0    0  501    0  0.00000000000E+00  0.00000000000E+00  0.19359558246E+04  0.19359558246E+04  0.50400001928E-02 0. -1.
       -1   -1    0    0    0  501  0.00000000000E+00  0.00000000000E+00 -0.20824106555E+04  0.20824106556E+04  0.50400001928E-02 0.  1.
    10030    2    1    2    0    0  0.00000000000E+00  0.00000000000E+00 -0.14645483091E+03  0.40183664802E+04  0.40156967206E+04 0.  0.
        5    1    3    3  502    0  0.17545285714E+03 -0.19826467263E+04 -0.33752647199E+03  0.20188159786E+04  0.46999998093E+01 0.  1.
       -5    1    3    3    0  502 -0.17545285714E+03  0.19826467263E+04  0.19107164108E+03  0.19995505016E+04  0.46999998093E+01 0. -1.
</event>
<event>
 5   0  0.1087688E-07  0.4003055E+04  0.7818609E-02  0.8003930E-01
       -2   -1    0    0    0  501  0.00000000000E+00  0.00000000000E+00  0.20749517138E+04  0.20749517138E+04  0.25500000920E-02 0. -1.
        2   -1    0    0  501    0  0.00000000000E+00  0.00000000000E+00 -0.19307017145E+04  0.19307017145E+04  0.25500000920E-02 0.  1.
    10030    2    1    2    0    0  0.00000000000E+00  0.00000000000E+00  0.14424999930E+03  0.40056534282E+04  0.40030552488E+04 0.  0.
        2    1    3    3  502    0 -0.15911696341E+04  0.47839991426E+03 -0.10445856872E+04  0.19626121727E+04  0.25500000920E-02 0.  1.
       -2    1    3    3    0  502  0.15911696341E+04 -0.47839991426E+03  0.11888356865E+04  0.20430412556E+04  0.25500000920E-02 0. -1.
</event>
<event>
 5   0  0.1087688E-07  0.3998698E+04  0.7818609E-02  0.8004809E-01
        2   -1    0    0  501    0  0.00000000000E+00  0.00000000000E+00  0.33157829615E+04  0.33157829615E+04  0.25500000920E-02 0.  1.
       -2   -1    0    0    0  501  0.00000000000E+00  0.00000000000E+00 -0.12055665727E+04  0.12055665727E+04  0.25500000920E-02 0. -1.
    10030    2    1    2    0    0  0.00000000000E+00  0.00000000000E+00  0.21102163888E+04  0.45213495342E+04  0.39986983385E+04 0.  0.
        2    1    3    3  502    0  0.13321963661E+04  0.13369659087E+04  0.30920930040E+03  0.19125468335E+04  0.25500000920E-02 0. -1.
       -2    1    3    3    0  502 -0.13321963661E+04 -0.13369659087E+04  0.18010070884E+04  0.26088027007E+04  0.25500000920E-02 0.  1.
</event>
<event>
 5   0  0.3399500E-08  0.4002309E+04  0.7818609E-02  0.8004081E-01
       -1   -1    0    0    0  501  0.00000000000E+00  0.00000000000E+00  0.17492326391E+04  0.17492326391E+04  0.50400001928E-02 0. -1.
        1   -1    0    0  501    0  0.00000000000E+00  0.00000000000E+00 -0.22893583091E+04  0.22893583091E+04  0.50400001928E-02 0.  1.
    10030    2    1    2    0    0  0.00000000000E+00  0.00000000000E+00 -0.54012567003E+03  0.40385909482E+04  0.40023094718E+04 0.  0.
        3    1    3    3  502    0 -0.14843775245E+04  0.75487036624E+03 -0.13898134459E+04  0.21690521731E+04  0.10100000352E+00 0.  1.
       -3    1    3    3    0  502  0.14843775245E+04 -0.75487036624E+03  0.84968777588E+03  0.18695387751E+04  0.10100000352E+00 0. -1.
</event>
<event>
 5   0  0.3399500E-08  0.4065024E+04  0.7818609E-02  0.7991556E-01
       -1   -1    0    0    0  501  0.00000000000E+00  0.00000000000E+00  0.19619326339E+04  0.19619326339E+04  0.50400001928E-02 0. -1.
        1   -1    0    0  501    0  0.00000000000E+00  0.00000000000E+00 -0.21056304383E+04  0.21056304383E+04  0.50400001928E-02 0.  1.
    10030    2    1    2    0    0  0.00000000000E+00  0.00000000000E+00 -0.14369780441E+03  0.40675630722E+04  0.40650240205E+04 0.  0.
        1    1    3    3  502    0  0.15115357258E+04  0.15850085880E+03 -0.14222259383E+04  0.20814873029E+04  0.50400001928E-02 0.  1.
       -1    1    3    3    0  502 -0.15115357258E+04 -0.15850085880E+03  0.12785281338E+04  0.19860757694E+04  0.50400001928E-02 0. -1.
</event>
<event>
 5   0  0.1073271E-07  0.4026701E+04  0.7818609E-02  0.7999182E-01
       -2   -1    0    0    0  501  0.00000000000E+00  0.00000000000E+00  0.13688477051E+04  0.13688477051E+04  0.25500000920E-02 0. -1.
        2   -1    0    0  501    0  0.00000000000E+00  0.00000000000E+00 -0.29613090104E+04  0.29613090104E+04  0.25500000920E-02 0.  1.
    10030    2    1    2    0    0  0.00000000000E+00  0.00000000000E+00 -0.15924613053E+04  0.43301567156E+04  0.40267014010E+04 0.  0.
        1    1    3    3  502    0  0.19771631473E+04 -0.15773054608E+03 -0.11680132243E+04  0.23018053629E+04  0.50400001928E-02 0.  1.
       -1    1    3    3    0  502 -0.19771631473E+04  0.15773054608E+03 -0.42444808092E+03  0.20283513527E+04  0.50400001928E-02 0. -1.
</event>
<event>
 5   0  0.1101474E-07  0.4121262E+04  0.7818609E-02  0.7980521E-01
       -2   -1    0    0    0  501  0.00000000000E+00  0.00000000000E+00  0.24491830159E+04  0.24491830159E+04  0.25500000920E-02 0.  1.
        2   -1    0    0  501    0  0.00000000000E+00  0.00000000000E+00 -0.17337209865E+04  0.17337209865E+04  0.25500000920E-02 0. -1.
    10030    2    1    2    0    0  0.00000000000E+00  0.00000000000E+00  0.71546202934E+03  0.41829040024E+04  0.41212619400E+04 0.  0.
        5    1    3    3  502    0 -0.80155810470E+03  0.78156941955E+03 -0.13981247211E+04  0.17911228262E+04  0.46999998093E+01 0. -1.
       -5    1    3    3    0  502  0.80155810470E+03 -0.78156941955E+03  0.21135867505E+04  0.23917811762E+04  0.46999998093E+01 0.  1.
</event>
<event>
 5   0  0.3399500E-08  0.3981428E+04  0.7818609E-02  0.8008304E-01
        1   -1    0    0  501    0  0.00000000000E+00  0.00000000000E+00  0.18719456662E+04  0.18719456662E+04  0.50400001928E-02 0.  1.
       -1   -1    0    0    0  501  0.00000000000E+00  0.00000000000E+00 -0.21170175372E+04  0.21170175372E+04  0.50400001928E-02 0. -1.
    10030    2    1    2    0    0  0.00000000000E+00  0.00000000000E+00 -0.24507187105E+03  0.39889632034E+04  0.39814277861E+04 0.  0.
        2    1    3    3  502    0 -0.31666194492E+03 -0.18579503876E+04 -0.76459778072E+03  0.20339282673E+04  0.25500000920E-02 0. -1.
       -2    1    3    3    0  502  0.31666194492E+03  0.18579503876E+04  0.51952590968E+03  0.19550349360E+04  0.25500000920E-02 0.  1.
</event>
<event>
 5   0  0.3399500E-08  0.3995881E+04  0.7818609E-02  0.8005378E-01
       -1   -1    0    0    0  501  0.00000000000E+00  0.00000000000E+00  0.16092354395E+04  0.16092354395E+04  0.50400001928E-02 0. -1.
        1   -1    0    0  501    0  0.00000000000E+00  0.00000000000E+00 -0.24805357732E+04  0.24805357732E+04  0.50400001928E-02 0.  1.
    10030    2    1    2    0    0  0.00000000000E+00  0.00000000000E+00 -0.87130033370E+03  0.40897712127E+04  0.39958809168E+04 0.  0.
        2    1    3    3  502    0 -0.46799331216E+03  0.18331108925E+04 -0.10929652527E+04  0.21849224993E+04  0.25500000920E-02 0.  1.
       -2    1    3    3    0  502  0.46799331216E+03 -0.18331108925E+04  0.22166491897E+03  0.19048487134E+04  0.25500000920E-02 0. -1.
</event>
<event>
 5   0  0.3399500E-08  0.4011029E+04  0.7818609E-02  0.8002325E-01
       -1   -1    0    0    0  501  0.00000000000E+00  0.00000000000E+00  0.21716418096E+04  0.21716418097E+04  0.50400001928E-02 0.  1.
        1   -1    0    0  501    0  0.00000000000E+00  0.00000000000E+00 -0.18520958187E+04  0.18520958187E+04  0.50400001928E-02 0. -1.
    10030    2    1    2    0    0  0.00000000000E+00  0.00000000000E+00  0.31954599099E+03  0.40237376283E+04  0.40110291524E+04 0.  0.
        3    1    3    3  502    0 -0.10082345355E+04 -0.16160040977E+04 -0.46997596066E+03  0.19618571651E+04  0.10100000352E+00 0. -1.
       -3    1    3    3    0  502  0.10082345355E+04  0.16160040977E+04  0.78952195165E+03  0.20618804632E+04  0.10100000352E+00 0.  1.
</event>
<event>
 5   0  0.1095903E-07  0.4000618E+04  0.7818609E-02  0.8004422E-01
        2   -1    0    0  501    0  0.00000000000E+00  0.00000000000E+00  0.16601230085E+04  0.16601230085E+04  0.25500000920E-02 0.  1.
       -2   -1    0    0    0  501  0.00000000000E+00  0.00000000000E+00 -0.24102041100E+04  0.24102041100E+04  0.25500000920E-02 0. -1.
    10030    2    1    2    0    0  0.00000000000E+00  0.00000000000E+00 -0.75008110145E+03  0.40703271185E+04  0.40006176014E+04 0.  0.
        3    1    3    3  502    0 -0.63329743477E+03 -0.18974098457E+04 -0.37264913127E+03  0.20347228678E+04  0.10100000352E+00 0. -1.
       -3    1    3    3    0  502  0.63329743477E+03  0.18974098457E+04 -0.37743197018E+03  0.20356042507E+04  0.10100000352E+00 0.  1.
</event>
<event>
 5   0  0.3399500E-08  0.4012221E+04  0.7818609E-02  0.8002086E-01
        1   -1    0    0  501    0  0.00000000000E+00  0.00000000000E+00  0.19311591362E+04  0.19311591362E+04  0.50400001928E-02 0. -1.
       -1   -1    0    0    0  501  0.00000000000E+00  0.00000000000E+00 -0.20839706648E+04  0.20839706648E+04  0.50400001928E-02 0.  1.
    10030    2    1    2    0    0  0.00000000000E+00  0.00000000000E+00 -0.15281152856E+03  0.40151298010E+04  0.40122208259E+04 0.  0.
        5    1    3    3  502    0  0.15665061494E+04 -0.90439823661E+03  0.79173644245E+03  0.19745243404E+04  0.46999998093E+01 0. -1.
       -5    1    3    3    0  502 -0.15665061494E+04  0.90439823661E+03 -0.94454797101E+03  0.20406054606E+04  0.46999998093E+01 0.  1.
</event>
<event>
 5   0  0.3399500E-08  0.3990385E+04  0.7818609E-02  0.8006489E-01
        1   -1    0    0  501    0  0.00000000000E+00  0.00000000000E+00  0.18388239116E+04  0.18388239116E+04  0.50400001928E-02 0. -1.
       -1   -1    0    0    0  501  0.00000000000E+00  0.00000000000E+00 -0.21648578486E+04  0.21648578487E+04  0.50400001928E-02 0.  1.
    10030    2    1    2    0    0  0.00000000000E+00  0.00000000000E+00 -0.32603393706E+03  0.40036817602E+04  0.39903846317E+04 0.  0.
        4    1    3    3  502    0 -0.12303131139E+04 -0.54636414835E+03  0.13145091960E+04  0.18815207095E+04  0.12699999809E+01 0. -1.
       -4    1    3    3    0  502  0.12303131139E+04  0.54636414835E+03 -0.16405431331E+04  0.21221610508E+04  0.12699999809E+01 0.  1.
</event>
<event>
 5   0  0.1095903E-07  0.3743584E+04  0.7818609E-02  0.8058371E-01
       -2   -1    0    0    0  501  0.00000000000E+00  0.00000000000E+00  0.20411999411E+04  0.20411999411E+04  0.25500000920E-02 0. -1.
        2   -1    0    0  501    0  0.00000000000E+00  0.00000000000E+00 -0.17164439717E+04  0.17164439717E+04  0.25500000920E-02 0.  1.
    10030    2    1    2    0    0  0.00000000000E+00  0.00000000000E+00  0.32475596940E+03  0.37576439128E+04  0.37435840228E+04 0.  0.
        3    1    3    3  502    0  0.17211273860E+04 -0.70383619924E+03  0.37752021067E+03  0.18974157146E+04  0.10100000352E+00 0.  1.
       -3    1    3    3    0  502 -0.17211273860E+04  0.70383619924E+03 -0.52764241275E+02  0.18602281982E+04  0.10100000352E+00 0. -1.
</event>
<event>
 5   0  0.1101474E-07  0.3834588E+04  0.7818609E-02  0.8038773E-01
       -2   -1    0    0    0  501  0.00000000000E+00  0.00000000000E+00  0.12914137711E+04  0.12914137711E+04  0.25500000920E-02 0.  1.
        2   -1    0    0  501    0  0.00000000000E+00  0.00000000000E+00 -0.28465047734E+04  0.28465047734E+04  0.25500000920E-02 0. -1.
    10030    2    1    2    0    0  0.00000000000E+00  0.00000000000E+00 -0.15550910023E+04  0.41379185446E+04  0.38345875731E+04 0.  0.
        5    1    3    3  502    0 -0.60752443603E+02 -0.79611894510E+03 -0.26585623805E+04  0.27758732419E+04  0.46999998093E+01 0. -1.
       -5    1    3    3    0  502  0.60752443603E+02  0.79611894510E+03  0.11034713782E+04  0.13620453027E+04  0.46999998093E+01 0.  1.
</event>
<event>
 5   0  0.1101474E-07  0.3980540E+04  0.7818609E-02  0.8008484E-01
       -2   -1    0    0    0  501  0.00000000000E+00  0.00000000000E+00  0.21411098140E+04  0.21411098140E+04  0.25500000920E-02 0. -1.
        2   -1    0    0  501    0  0.00000000000E+00  0.00000000000E+00 -0.18500564397E+04  0.18500564397E+04  0.25500000920E-02 0.  1.
    10030    2    1    2    0    0  0.00000000000E+00  0.00000000000E+00  0.29105337432E+03  0.39911662537E+04  0.39805396616E+04 0.  0.
        5    1    3    3  502    0  0.12984867094E+04  0.92890796352E+03 -0.10460119949E+04  0.19086908923E+04  0.46999998093E+01 0. -1.
       -5    1    3    3    0  502 -0.12984867094E+04 -0.92890796352E+03  0.13370653692E+04  0.20824753613E+04  0.46999998093E+01 0.  1.
</event>
<event>
 5   0  0.1101474E-07  0.3965581E+04  0.7818609E-02  0.8011526E-01
        2   -1    0    0  501    0  0.00000000000E+00  0.00000000000E+00  0.18278378712E+04  0.18278378712E+04  0.25500000920E-02 0.  1.
       -2   -1    0    0    0  501  0.00000000000E+00  0.00000000000E+00 -0.21508789539E+04  0.21508789539E+04  0.25500000920E-02 0. -1.
    10030    2    1    2    0    0  0.00000000000E+00  0.00000000000E+00 -0.32304108270E+03  0.39787168251E+04  0.39655809200E+04 0.  0.
        5    1    3    3  502    0 -0.18340270404E+04  0.69554696536E+02  0.59125998951E+03  0.19282384464E+04  0.46999998093E+01 0.  1.
       -5    1    3    3    0  502  0.18340270404E+04 -0.69554696536E+02 -0.91430107221E+03  0.20504783787E+04  0.46999998093E+01 0. -1.
</event>
<event>
 5   0  0.1087688E-07  0.3996532E+04  0.7818609E-02  0.8005247E-01
        2   -1    0    0  501    0  0.00000000000E+00  0.00000000000E+00  0.15541690897E+04  0.15541690897E+04  0.25500000920E-02 0.  1.
       -2   -1    0    0    0  501  0.00000000000E+00  0.00000000000E+00 -0.25692613143E+04  0.25692613143E+04  0.25500000920E-02 0. -1.
    10030    2    1    2    0    0  0.00000000000E+00  0.00000000000E+00 -0.10150922245E+04  0.41234304040E+04  0.39965317555E+04 0.  0.
        2    1    3    3  502    0  0.10664880299E+04 -0.15274067882E+04 -0.12534810450E+04  0.22453469542E+04  0.25500000920E-02 0. -1.
       -2    1    3    3    0  502 -0.10664880299E+04  0.15274067882E+04  0.23838882048E+03  0.18780834498E+04  0.25500000920E-02 0.  1.
</event>
<event>
 5   0  0.1095109E-07  0.4014660E+04  0.7818609E-02  0.8001596E-01
       -2   -1    0    0    0  501  0.00000000000E+00  0.00000000000E+00  0.17632836199E+04  0.17632836199E+04  0.25500000920E-02 0. -1.
        2   -1    0    0  501    0  0.00000000000E+00  0.00000000000E+00 -0.22851538496E+04  0.22851538496E+04  0.25500000920E-02 0.  1.
    10030    2    1    2    0    0  0.00000000000E+00  0.00000000000E+00 -0.52187022968E+03  0.40484374695E+04  0.40146603104E+04 0.  0.
        4    1    3    3  502    0  0.12191092932E+04 -0.99553429190E+03  0.99536219217E+03  0.18622737451E+04  0.12699999809E+01 0. -1.
       -4    1    3    3    0  502 -0.12191092932E+04  0.99553429190E+03 -0.15172324218E+04  0.21861637244E+04  0.12699999809E+01 0.  1.
</event>
<event>
 5   0  0.1095903E-07  0.4004808E+04  0.7818609E-02  0.8003577E-01
        2   -1    0    0  501    0  0.00000000000E+00  0.00000000000E+00  0.16355731203E+04  0.16355731203E+04  0.25500000920E-02 0.  1.
       -2   -1    0    0    0  501  0.00000000000E+00  0.00000000000E+00 -0.24515091594E+04  0.24515091594E+04  0.25500000920E-02 0. -1.
    10030    2    1    2    0    0  0.00000000000E+00  0.00000000000E+00 -0.81593603911E+03  0.40870822797E+04  0.40048083526E+04 0.  0.
        3    1    3    3  502    0  0.27075715253E+03 -0.47939453597E+03  0.15568090853E+04  0.16512973975E+04  0.10100000352E+00 0.  1.
       -3    1    3    3    0  502 -0.27075715253E+03  0.47939453597E+03 -0.23727451244E+04  0.24357848822E+04  0.10100000352E+00 0. -1.
</event>
<event>
 5   0  0.1101474E-07  0.4013958E+04  0.7818609E-02  0.8001737E-01
       -2   -1    0    0    0  501  0.00000000000E+00  0.00000000000E+00  0.20409123178E+04  0.20409123178E+04  0.25500000920E-02 0.  1.
        2   -1    0    0  501    0  0.00000000000E+00  0.00000000000E+00 -0.19736096701E+04  0.19736096701E+04  0.25500000920E-02 0. -1.
    10030    2    1    2    0    0  0.00000000000E+00  0.00000000000E+00  0.67302647771E+02  0.40145219879E+04  0.40139577906E+04 0.  0.
        5    1    3    3  502    0  0.14963689246E+04 -0.11782244638E+04 -0.59937472356E+03  0.19966484405E+04  0.46999998093E+01 0. -1.
       -5    1    3    3    0  502 -0.14963689246E+04  0.11782244638E+04  0.66667737133E+03  0.20178735474E+04  0.46999998093E+01 0.  1.
</event>
<event>
 5   0  0.1073271E-07  0.3717769E+04  0.7818609E-02  0.8064035E-01
        2   -1    0    0  501    0  0.00000000000E+00  0.00000000000E+00  0.26266141288E+04  0.26266141288E+04  0.25500000920E-02 0. -1.
       -2   -1    0    0    0  501  0.00000000000E+00  0.00000000000E+00 -0.13155535642E+04  0.13155535642E+04  0.25500000920E-02 0.  1.
    10030    2    1    2    0    0  0.00000000000E+00  0.00000000000E+00  0.13110605646E+04  0.39421676930E+04  0.37177689971E+04 0.  0.
        1    1    3    3  502    0  0.62373532020E+03 -0.73195760424E+03  0.23423482228E+04  0.25320748174E+04  0.50400001928E-02 0. -1.
       -1    1    3    3    0  502 -0.62373532020E+03  0.73195760424E+03 -0.10312876581E+04  0.14100928756E+04  0.50400001928E-02 0.  1.
</event>
<event>
 5   0  0.1073271E-07  0.3893459E+04  0.7818609E-02  0.8026391E-01
       -2   -1    0    0    0  501  0.00000000000E+00  0.00000000000E+00  0.14144006728E+04  0.14144006728E+04  0.25500000920E-02 0. -1.
        2   -1    0    0  501    0  0.00000000000E+00  0.00000000000E+00 -0.26794081226E+04  0.26794081226E+04  0.25500000920E-02 0.  1.
    10030    2    1    2    0    0  0.00000000000E+00  0.00000000000E+00 -0.12650074498E+04  0.40938087955E+04  0.38934594650E+04 0.  0.
        1    1    3    3  502    0  0.81753822450E+03  0.14275899306E+04 -0.17269168188E+04  0.23850835327E+04  0.50400001928E-02 0.  1.
       -1    1    3    3    0  502 -0.81753822450E+03 -0.14275899306E+04  0.46190936901E+03  0.17087252628E+04  0.50400001928E-02 0. -1.
</event>
<event>
 5   0  0.3399500E-08  0.3994914E+04  0.7818609E-02  0.8005573E-01
       -1   -1    0    0    0  501  0.00000000000E+00  0.00000000000E+00  0.29963235566E+04  0.29963235566E+04  0.50400001928E-02 0. -1.
        1   -1    0    0  501    0  0.00000000000E+00  0.00000000000E+00 -0.13315764183E+04  0.13315764183E+04  0.50400001928E-02 0.  1.
    10030    2    1    2    0    0  0.00000000000E+00  0.00000000000E+00  0.16647471383E+04  0.43278999750E+04  0.39949136610E+04 0.  0.
        2    1    3    3  502    0  0.13321579812E+04 -0.13679111634E+04  0.14677835877E+04  0.24083634481E+04  0.25500000920E-02 0. -1.
       -2    1    3    3    0  502 -0.13321579812E+04  0.13679111634E+04  0.19696355061E+03  0.19195365269E+04  0.25500000920E-02 0.  1.
</event>
<event>
 5   0  0.1095903E-07  0.3969963E+04  0.7818609E-02  0.8010634E-01
       -2   -1    0    0    0  501  0.00000000000E+00  0.00000000000E+00  0.14323369715E+04  0.14323369715E+04  0.25500000920E-02 0. -1.
        2   -1    0    0  501    0  0.00000000000E+00  0.00000000000E+00 -0.27508546518E+04  0.27508546518E+04  0.25500000920E-02 0.  1.
    10030    2    1    2    0    0  0.00000000000E+00  0.00000000000E+00 -0.13185176803E+04  0.41831916232E+04  0.39699626300E+04 0.  0.
        3    1    3    3  502    0  0.92768171002E+03 -0.55758927839E+03 -0.24125558773E+04  0.26442248448E+04  0.10100000352E+00 0.  1.
       -3    1    3    3    0  502 -0.92768171002E+03  0.55758927839E+03  0.10940381970E+04  0.15389667785E+04  0.10100000352E+00 0. -1.
</event>
<event>
 5   0  0.3399500E-08  0.3995753E+04  0.7818609E-02  0.8005404E-01
        1   -1    0    0  501    0  0.00000000000E+00  0.00000000000E+00  0.17502625253E+04  0.17502625253E+04  0.50400001928E-02 0.  1.
       -1   -1    0    0    0  501  0.00000000000E+00  0.00000000000E+00 -0.22805207033E+04  0.22805207033E+04  0.50400001928E-02 0. -1.
    10030    2    1    2    0    0  0.00000000000E+00  0.00000000000E+00 -0.53025817795E+03  0.40307832286E+04  0.39957527077E+04 0.  0.
        4    1    3    3  502    0  0.13653627179E+04 -0.32215656176E+03  0.11698425417E+04  0.18266180189E+04  0.12699999809E+01 0.  1.
       -4    1    3    3    0  502 -0.13653627179E+04  0.32215656176E+03 -0.17001007197E+04  0.22041652097E+04  0.12699999809E+01 0. -1.
</event>
<event>
 5   0  0.3399500E-08  0.4034475E+04  0.7818609E-02  0.7997628E-01
       -1   -1    0    0    0  501  0.00000000000E+00  0.00000000000E+00  0.16016347498E+04  0.16016347498E+04  0.50400001928E-02 0.  1.
        1   -1    0    0  501    0  0.00000000000E+00  0.00000000000E+00 -0.25406834985E+04  0.25406834985E+04  0.50400001928E-02 0. -1.
    10030    2    1    2    0    0  0.00000000000E+00  0.00000000000E+00 -0.93904874864E+03  0.41423182483E+04  0.40344749247E+04 0.  0.
        3    1    3    3  502    0 -0.15333297124E+04  0.30489785251E+02  0.87593030529E+03  0.17661493549E+04  0.10100000352E+00 0. -1.
       -3    1    3    3    0  502  0.15333297124E+04 -0.30489785251E+02 -0.18149790539E+04  0.23761688934E+04  0.10100000352E+00 0.  1.
</event>
<event>
 5   0  0.3399500E-08  0.3979291E+04  0.7818609E-02  0.8008737E-01
       -3   -1    0    0    0  501  0.00000000000E+00  0.00000000000E+00  0.17623155892E+04  0.17623155921E+04  0.10100000352E+00 0.  1.
        3   -1    0    0  501    0  0.00000000000E+00  0.00000000000E+00 -0.22462999560E+04  0.22462999583E+04  0.10100000352E+00 0. -1.
    10030    2    1    2    0    0  0.00000000000E+00  0.00000000000E+00 -0.48398436678E+03  0.40086155504E+04  0.39792911132E+04 0.  0.
        3    1    3    3  502    0  0.18544249565E+04 -0.34161249284E+03 -0.88157124963E+03  0.20815280188E+04  0.10100000352E+00 0.  1.
       -3    1    3    3    0  502 -0.18544249565E+04  0.34161249284E+03  0.39758688285E+03  0.19270875316E+04  0.10100000352E+00 0. -1.
</event>
<event>
 5   0  0.1095109E-07  0.3974488E+04  0.7818609E-02  0.8009713E-01
        2   -1    0    0  501    0  0.00000000000E+00  0.00000000000E+00  0.20412741032E+04  0.20412741032E+04  0.25500000920E-02 0. -1.
       -2   -1    0    0    0  501  0.00000000000E+00  0.00000000000E+00 -0.19346439109E+04  0.19346439109E+04  0.25500000920E-02 0.  1.
    10030    2    1    2    0    0  0.00000000000E+00  0.00000000000E+00  0.10663019239E+03  0.39759180141E+04  0.39744878987E+04 0.  0.
        4    1    3    3  502    0  0.83286285639E+03  0.10752147276E+04 -0.13961333320E+04  0.19490862325E+04  0.12699999809E+01 0.  1.
       -4    1    3    3    0  502 -0.83286285639E+03 -0.10752147276E+04  0.15027635244E+04  0.20268317816E+04  0.12699999809E+01 0. -1.
</event>
<event>
 5   0  0.3399500E-08  0.4003871E+04  0.7818609E-02  0.8003766E-01
        1   -1    0    0  501    0  0.00000000000E+00  0.00000000000E+00  0.21249425247E+04  0.21249425247E+04  0.50400001928E-02 0. -1.
       -1   -1    0    0    0  501  0.00000000000E+00  0.00000000000E+00 -0.18860487566E+04  0.18860487566E+04  0.50400001928E-02 0.  1.
    10030    2    1    2    0    0  0.00000000000E+00  0.00000000000E+00  0.23889376810E+03  0.40109912814E+04  0.40038707305E+04 0.  0.
        4    1    3    3  502    0  0.98094778817E+03 -0.11828021088E+04  0.14048750650E+04  0.20820554635E+04  0.12699999809E+01 0. -1.
       -4    1    3    3    0  502 -0.98094778817E+03  0.11828021088E+04 -0.11659812969E+04  0.19289358179E+04  0.12699999809E+01 0.  1.
</event>
<event>
 5   0  0.1087688E-07  0.4007377E+04  0.7818609E-02  0.8003060E-01
        2   -1    0    0  501    0  0.00000000000E+00  0.00000000000E+00  0.18366693686E+04  0.18366693686E+04  0.25500000920E-02 0. -1.
       -2   -1    0    0    0  501  0.00000000000E+00  0.00000000000E+00 -0.21858954163E+04  0.21858954163E+04  0.25500000920E-02 0.  1.
    10030    2    1    2    0    0  0.00000000000E+00  0.00000000000E+00 -0.34922604775E+03  0.40225647849E+04  0.40073767749E+04 0.  0.
        2    1    3    3  502    0 -0.17818638396E+03  0.94024991807E+03  0.15924414375E+04  0.18578724466E+04  0.25500000920E-02 0. -1.
       -2    1    3    3    0  502  0.17818638396E+03 -0.94024991807E+03 -0.19416674853E+04  0.21646923382E+04  0.25500000920E-02 0.  1.
</event>
<event>
 5   0  0.1073271E-07  0.4015745E+04  0.7818609E-02  0.8001378E-01
        2   -1    0    0  501    0  0.00000000000E+00  0.00000000000E+00  0.16861770649E+04  0.16861770649E+04  0.25500000920E-02 0.  1.
       -2   -1    0    0    0  501  0.00000000000E+00  0.00000000000E+00 -0.23909422477E+04  0.23909422477E+04  0.25500000920E-02 0. -1.
    10030    2    1    2    0    0  0.00000000000E+00  0.00000000000E+00 -0.70476518282E+03  0.40771193126E+04  0.40157450027E+04 0.  0.
        1    1    3    3  502    0 -0.90999983392E+03  0.53987767138E+03 -0.20849167825E+04  0.23380431108E+04  0.50400001928E-02 0. -1.
       -1    1    3    3    0  502  0.90999983392E+03 -0.53987767138E+03  0.13801515997E+04  0.17390762019E+04  0.50400001928E-02 0.  1.
</event>
<event>
 5   0  0.1101474E-07  0.4031376E+04  0.7818609E-02  0.7998247E-01
        2   -1    0    0  501    0  0.00000000000E+00  0.00000000000E+00  0.23435620037E+04  0.23435620037E+04  0.25500000920E-02 0. -1.
       -2   -1    0    0    0  501  0.00000000000E+00  0.00000000000E+00 -0.17336850582E+04  0.17336850582E+04  0.25500000920E-02 0.  1.
    10030    2    1    2    0    0  0.00000000000E+00  0.00000000000E+00  0.60987694551E+03  0.40772470618E+04  0.40313761564E+04 0.  0.
        5    1    3    3  502    0 -0.16028638205E+04  0.84142245492E+03 -0.59160856341E+03  0.19045175129E+04  0.46999998093E+01 0.  1.
       -5    1    3    3    0  502  0.16028638205E+04 -0.84142245492E+03  0.12014855089E+04  0.21727295489E+04  0.46999998093E+01 0. -1.
</event>
<event>
 5   0  0.3399500E-08  0.4147699E+04  0.7818609E-02  0.7975396E-01
       -1   -1    0    0    0  501  0.00000000000E+00  0.00000000000E+00  0.16520807614E+04  0.16520807614E+04  0.50400001928E-02 0. -1.
        1   -1    0    0  501    0  0.00000000000E+00  0.00000000000E+00 -0.26032935923E+04  0.26032935923E+04  0.50400001928E-02 0.  1.
    10030    2    1    2    0    0  0.00000000000E+00  0.00000000000E+00 -0.95121283082E+03  0.42553743537E+04  0.41476987645E+04 0.  0.
        2    1    3    3  502    0 -0.81542352925E+03  0.12327403997E+04 -0.19681184089E+04  0.24613115399E+04  0.25500000920E-02 0.  1.
       -2    1    3    3    0  502  0.81542352925E+03 -0.12327403997E+04  0.10169055781E+04  0.17940628138E+04  0.25500000920E-02 0. -1.
</event>
<event>
 5   0  0.3399500E-08  0.3979546E+04  0.7818609E-02  0.8008686E-01
       -1   -1    0    0    0  501  0.00000000000E+00  0.00000000000E+00  0.20248292513E+04  0.20248292513E+04  0.50400001928E-02 0.  1.
        1   -1    0    0  501    0  0.00000000000E+00  0.00000000000E+00 -0.19553234321E+04  0.19553234321E+04  0.50400001928E-02 0. -1.
    10030    2    1    2    0    0  0.00000000000E+00  0.00000000000E+00  0.69505819144E+02  0.39801526834E+04  0.39795457435E+04 0.  0.
        4    1    3    3  502    0 -0.12507942639E+04 -0.24214183885E+03  0.15634085720E+04  0.20167714141E+04  0.12699999809E+01 0.  1.
       -4    1    3    3    0  502  0.12507942639E+04  0.24214183885E+03 -0.14939027529E+04  0.19633812693E+04  0.12699999809E+01 0. -1.
</event>
<event>
 5   0  0.1095109E-07  0.3993342E+04  0.7818609E-02  0.8005891E-01
       -2   -1    0    0    0  501  0.00000000000E+00  0.00000000000E+00  0.15086548796E+04  0.15086548796E+04  0.25500000920E-02 0. -1.
        2   -1    0    0  501    0  0.00000000000E+00  0.00000000000E+00 -0.26425489906E+04  0.26425489906E+04  0.25500000920E-02 0.  1.
    10030    2    1    2    0    0  0.00000000000E+00  0.00000000000E+00 -0.11338941110E+04  0.41512038702E+04  0.39933416730E+04 0.  0.
        4    1    3    3  502    0  0.18065707054E+04  0.34913219076E+03 -0.13729035744E+04  0.22957475553E+04  0.12699999809E+01 0.  1.
       -4    1    3    3    0  502 -0.18065707054E+04 -0.34913219076E+03  0.23900946342E+03  0.18554563149E+04  0.12699999809E+01 0. -1.
</event>
<event>
 5   0  0.1095903E-07  0.3984122E+04  0.7818609E-02  0.8007757E-01
       -2   -1    0    0    0  501  0.00000000000E+00  0.00000000000E+00  0.15806023380E+04  0.15806023380E+04  0.25500000920E-02 0. -1.
        2   -1    0    0  501    0  0.00000000000E+00  0.00000000000E+00 -0.25106301980E+04  0.25106301980E+04  0.25500000920E-02 0.  1.
    10030    2    1    2    0    0  0.00000000000E+00  0.00000000000E+00 -0.93002785997E+03  0.40912325359E+04  0.39841224683E+04 0.  0.
        3    1    3    3  502    0 -0.10562068920E+04  0.48536596517E+03  0.11962406561E+04  0.16679762698E+04  0.10100000352E+00 0. -1.
       -3    1    3    3    0  502  0.10562068920E+04 -0.48536596517E+03 -0.21262685161E+04  0.24232562662E+04  0.10100000352E+00 0.  1.
</event>
<event>
 5   0  0.3399500E-08  0.3987561E+04  0.7818609E-02  0.8007061E-01
        1   -1    0    0  501    0  0.00000000000E+00  0.00000000000E+00  0.18792851919E+04  0.18792851919E+04  0.50400001928E-02 0.  1.
       -1   -1    0    0    0  501  0.00000000000E+00  0.00000000000E+00 -0.21152515411E+04  0.21152515411E+04  0.50400001928E-02 0. -1.
    10030    2    1    2    0    0  0.00000000000E+00  0.00000000000E+00 -0.23596634913E+03  0.39945367330E+04  0.39875611084E+04 0.  0.
        1    1    3    3  502    0  0.17098848046E+04  0.33329016678E+03  0.85344127949E+03  0.19398841197E+04  0.50400001928E-02 0. -1.
       -1    1    3    3    0  502 -0.17098848046E+04 -0.33329016678E+03 -0.10894076286E+04  0.20546526133E+04  0.50400001928E-02 0.  1.
</event>
<event>
 5   0  0.3399500E-08  0.4004463E+04  0.7818609E-02  0.8003647E-01
        1   -1    0    0  501    0  0.00000000000E+00  0.00000000000E+00  0.20989781475E+04  0.20989781475E+04  0.50400001928E-02 0.  1.
       -1   -1    0    0    0  501  0.00000000000E+00  0.00000000000E+00 -0.19099444977E+04  0.19099444977E+04  0.50400001928E-02 0. -1.
    10030    2    1    2    0    0  0.00000000000E+00  0.00000000000E+00  0.18903364982E+03  0.40089226452E+04  0.40044633916E+04 0.  0.
        3    1    3    3  502    0  0.13772411227E+04 -0.13020907374E+04 -0.55172377893E+03  0.19739889911E+04  0.10100000352E+00 0.  1.
       -3    1    3    3    0  502 -0.13772411227E+04  0.13020907374E+04  0.74075742876E+03  0.20349336542E+04  0.10100000352E+00 0. -1.
</event>
<event>
 5   0  0.3399500E-08  0.3937859E+04  0.7818609E-02  0.8017201E-01
        1   -1    0    0  501    0  0.00000000000E+00  0.00000000000E+00  0.25646605208E+04  0.25646605208E+04  0.50400001928E-02 0.  1.
       -1   -1    0    0    0  501  0.00000000000E+00  0.00000000000E+00 -0.15115775991E+04  0.15115775991E+04  0.50400001928E-02 0. -1.
    10030    2    1    2    0    0  0.00000000000E+00  0.00000000000E+00  0.10530829217E+04  0.40762381198E+04  0.39378590084E+04 0.  0.
        2    1    3    3  502    0 -0.12668316542E+04  0.57839238604E+03 -0.91423279474E+03  0.16658996954E+04  0.25500000920E-02 0. -1.
       -2    1    3    3    0  502  0.12668316542E+04 -0.57839238604E+03  0.19673157164E+04  0.24103384244E+04  0.25500000920E-02 0.  1.
</event>
<event>
 5   0  0.3399500E-08  0.4007234E+04  0.7818609E-02  0.8003089E-01
        1   -1    0    0  501    0  0.00000000000E+00  0.00000000000E+00  0.28572717425E+04  0.28572717425E+04  0.50400001928E-02 0.  1.
       -1   -1    0    0    0  501  0.00000000000E+00  0.00000000000E+00 -0.14050047083E+04  0.14050047083E+04  0.50400001928E-02 0. -1.
    10030    2    1    2    0    0  0.00000000000E+00  0.00000000000E+00  0.14522670342E+04  0.42622764509E+04  0.40072335850E+04 0.  0.
        2    1    3    3  502    0 -0.18740795822E+04 -0.47879247314E+03  0.12819468647E+04  0.23205181052E+04  0.25500000920E-02 0.  1.
       -2    1    3    3    0  502  0.18740795822E+04  0.47879247314E+03  0.17032016950E+03  0.19417583456E+04  0.25500000920E-02 0. -1.
</event>
<event>
 5   0  0.1101474E-07  0.3974268E+04  0.7818609E-02  0.8009758E-01
        2   -1    0    0  501    0  0.00000000000E+00  0.00000000000E+00  0.19269844848E+04  0.19269844848E+04  0.25500000920E-02 0.  1.
       -2   -1    0    0    0  501  0.00000000000E+00  0.00000000000E+00 -0.20491610545E+04  0.20491610546E+04  0.25500000920E-02 0. -1.
    10030    2    1    2    0    0  0.00000000000E+00  0.00000000000E+00 -0.12217656974E+03  0.39761455394E+04  0.39742680126E+04 0.  0.
        5    1    3    3  502    0  0.42609531609E+03  0.15494176436E+04  0.11084067251E+04  0.19521372419E+04  0.46999998093E+01 0.  1.
       -5    1    3    3    0  502 -0.42609531609E+03 -0.15494176436E+04 -0.12305832949E+04  0.20240082975E+04  0.46999998093E+01 0. -1.
</event>
<event>
 5   0  0.3399500E-08  0.4008815E+04  0.7818609E-02  0.8002771E-01
       -3   -1    0    0    0  501  0.00000000000E+00  0.00000000000E+00  0.14556338657E+04  0.14556338692E+04  0.10100000352E+00 0.  1.
        3   -1    0    0  501    0  0.00000000000E+00  0.00000000000E+00 -0.27600690045E+04  0.27600690063E+04  0.10100000352E+00 0. -1.
    10030    2    1    2    0    0  0.00000000000E+00  0.00000000000E+00 -0.13044351388E+04  0.42157028755E+04  0.40088152493E+04 0.  0.
        3    1    3    3  502    0  0.79040845594E+01  0.17935809142E+04 -0.15931894543E+04  0.23990097161E+04  0.10100000352E+00 0. -1.
       -3    1    3    3    0  502 -0.79040845594E+01 -0.17935809142E+04  0.28875431549E+03  0.18166931594E+04  0.10100000352E+00 0.  1.
</event>
<event>
 5   0  0.3399500E-08  0.3988705E+04  0.7818609E-02  0.8006829E-01
        1   -1    0    0  501    0  0.00000000000E+00  0.00000000000E+00  0.13534207838E+04  0.13534207838E+04  0.50400001928E-02 0.  1.
       -1   -1    0    0    0  501  0.00000000000E+00  0.00000000000E+00 -0.29388069637E+04  0.29388069637E+04  0.50400001928E-02 0. -1.
    10030    2    1    2    0    0  0.00000000000E+00  0.00000000000E+00 -0.15853861799E+04  0.42922277475E+04  0.39887052658E+04 0.  0.
        3    1    3    3  502    0 -0.18321492672E+03  0.16189173695E+04  0.44504186697E+03  0.16889415123E+04  0.10100000352E+00 0.  1.
       -3    1    3    3    0  502  0.18321492672E+03 -0.16189173695E+04 -0.20304280469E+04  0.26032862352E+04  0.10100000352E+00 0. -1.
</event>
<event>
 5   0  0.3399500E-08  0.3998025E+04  0.7818609E-02  0.8004945E-01
       -1   -1    0    0    0  501  0.00000000000E+00  0.00000000000E+00  0.23149179682E+04  0.23149179683E+04  0.50400001928E-02 0. -1.
        1   -1    0    0  501    0  0.00000000000E+00  0.00000000000E+00 -0.17262174173E+04  0.17262174173E+04  0.50400001928E-02 0.  1.
    10030    2    1    2    0    0  0.00000000000E+00  0.00000000000E+00  0.58870055094E+03  0.40411353856E+04  0.39980253708E+04 0.  0.
        5    1    3    3  502    0 -0.25386158499E+03 -0.56345163499E+03 -0.16272290094E+04  0.17406377534E+04  0.46999998093E+01 0.  1.
       -5    1    3    3    0  502  0.25386158499E+03  0.56345163499E+03  0.22159295604E+04  0.23004976322E+04  0.46999998093E+01 0. -1.
</event>
<event>
 5   0  0.3399500E-08  0.3995474E+04  0.7818609E-02  0.8005460E-01
       -1   -1    0    0    0  501  0.00000000000E+00  0.00000000000E+00  0.25538471275E+04  0.25538471275E+04  0.50400001928E-02 0.  1.
        1   -1    0    0  501    0  0.00000000000E+00  0.00000000000E+00 -0.15627221168E+04  0.15627221168E+04  0.50400001928E-02 0. -1.
    10030    2    1    2    0    0  0.00000000000E+00  0.00000000000E+00  0.99112501069E+03  0.41165692444E+04  0.39954741342E+04 0.  0.
        1    1    3    3  502    0 -0.13742495791E+04 -0.38165724485E+03  0.19367897653E+04  0.24052814292E+04  0.50400001928E-02 0.  1.
       -1    1    3    3    0  502  0.13742495791E+04  0.38165724485E+03 -0.94566475464E+03  0.17112878152E+04  0.50400001928E-02 0. -1.
</event>
<event>
 5   0  0.1087688E-07  0.3930165E+04  0.7818609E-02  0.8018785E-01
        2   -1    0    0  501    0  0.00000000000E+00  0.00000000000E+00  0.24954525920E+04  0.24954525920E+04  0.25500000920E-02 0.  1.
       -2   -1    0    0    0  501  0.00000000000E+00  0.00000000000E+00 -0.15474342855E+04  0.15474342855E+04  0.25500000920E-02 0. -1.
    10030    2    1    2    0    0  0.00000000000E+00  0.00000000000E+00  0.94801830646E+03  0.40428868775E+04  0.39301648305E+04 0.  0.
        2    1    3    3  502    0  0.17061798119E+04 -0.94949662496E+03  0.24640425565E+03  0.19680722671E+04  0.25500000920E-02 0. -1.
       -2    1    3    3    0  502 -0.17061798119E+04  0.94949662496E+03  0.70161405081E+03  0.20748146104E+04  0.25500000920E-02 0.  1.
</event>
<event>
 5   0  0.1073271E-07  0.3987217E+04  0.7818609E-02  0.8007130E-01
        2   -1    0    0  501    0  0.00000000000E+00  0.00000000000E+00  0.23801383937E+04  0.23801383937E+04  0.25500000920E-02 0. -1.
       -2   -1    0    0    0  501  0.00000000000E+00  0.00000000000E+00 -0.16698504203E+04  0.16698504203E+04  0.25500000920E-02 0.  1.
    10030    2    1    2    0    0  0.00000000000E+00  0.00000000000E+00  0.71028797338E+03  0.40499888140E+04  0.39872171233E+04 0.  0.
        1    1    3    3  502    0  0.14349557305E+04 -0.23475870096E+03 -0.10302439573E+04  0.17820247495E+04  0.50400001928E-02 0.  1.
       -1    1    3    3    0  502 -0.14349557305E+04  0.23475870096E+03  0.17405319307E+04  0.22679640645E+04  0.50400001928E-02 0. -1.
</event>
<event>
 5   0  0.3399500E-08  0.3971765E+04  0.7818609E-02  0.8010267E-01
       -1   -1    0    0    0  501  0.00000000000E+00  0.00000000000E+00  0.14370064671E+04  0.14370064671E+04  0.50400001928E-02 0.  1.
        1   -1    0    0  501    0  0.00000000000E+00  0.00000000000E+00 -0.27444067822E+04  0.27444067822E+04  0.50400001928E-02 0. -1.
    10030    2    1    2    0    0  0.00000000000E+00  0.00000000000E+00 -0.13074003152E+04  0.41814132493E+04  0.39717654988E+04 0.  0.
        2    1    3    3  502    0  0.15693101267E+03  0.18099293511E+04  0.19066892919E+03  0.18266981796E+04  0.25500000920E-02 0.  1.
       -2    1    3    3    0  502 -0.15693101267E+03 -0.18099293511E+04 -0.14980692444E+04  0.23547150697E+04  0.25500000920E-02 0. -1.
</event>
<event>
 5   0  0.3399500E-08  0.4082479E+04  0.7818609E-02  0.7988112E-01
       -1   -1    0    0    0  501  0.00000000000E+00  0.00000000000E+00  0.27290358219E+04  0.27290358219E+04  0.50400001928E-02 0.  1.
        1   -1    0    0  501    0  0.00000000000E+00  0.00000000000E+00 -0.15267877909E+04  0.15267877909E+04  0.50400001928E-02 0. -1.
    10030    2    1    2    0    0  0.00000000000E+00  0.00000000000E+00  0.12022480310E+04  0.42558236128E+04  0.40824789400E+04 0.  0.
        3    1    3    3  502    0  0.95994801222E+03  0.84116085617E+03  0.22617500060E+04  0.25970300098E+04  0.10100000352E+00 0.  1.
       -3    1    3    3    0  502 -0.95994801222E+03 -0.84116085617E+03 -0.10595019750E+04  0.16587936030E+04  0.10100000352E+00 0. -1.
</event>
<event>
 5   0  0.1087688E-07  0.3922297E+04  0.7818609E-02  0.8020408E-01
       -2   -1    0    0    0  501  0.00000000000E+00  0.00000000000E+00  0.19572016731E+04  0.19572016731E+04  0.25500000920E-02 0. -1.
        2   -1    0    0  501    0  0.00000000000E+00  0.00000000000E+00 -0.19651031455E+04  0.19651031455E+04  0.25500000920E-02 0.  1.
    10030    2    1    2    0    0  0.00000000000E+00  0.00000000000E+00 -0.79014724515E+01  0.39223048186E+04  0.39222968598E+04 0.  0.
        2    1    3    3  502    0 -0.79414704693E+03 -0.69191753494E+03 -0.16582466175E+04  0.19644849839E+04  0.25500000920E-02 0.  1.
       -2    1    3    3    0  502  0.79414704693E+03  0.69191753494E+03  0.16503451451E+04  0.19578198347E+04  0.25500000920E-02 0. -1.
</event>
<event>
 5   0  0.1073271E-07  0.4001365E+04  0.7818609E-02  0.8004271E-01
        2   -1    0    0  501    0  0.00000000000E+00  0.00000000000E+00  0.19607872590E+04  0.19607872590E+04  0.25500000920E-02 0. -1.
       -2   -1    0    0    0  501  0.00000000000E+00  0.00000000000E+00 -0.20413895435E+04  0.20413895435E+04  0.25500000920E-02 0.  1.
    10030    2    1    2    0    0  0.00000000000E+00  0.00000000000E+00 -0.80602284579E+02  0.40021768025E+04  0.40013650709E+04 0.  0.
        1    1    3    3  502    0  0.16934887078E+02 -0.18635643207E+04 -0.76816563753E+03  0.20157473092E+04  0.50400001928E-02 0.  1.
       -1    1    3    3    0  502 -0.16934887078E+02  0.18635643207E+04  0.68756335295E+03  0.19864294933E+04  0.50400001928E-02 0. -1.
</event>
<event>
 5   0  0.3399500E-08  0.3989747E+04  0.7818609E-02  0.8006618E-01
        1   -1    0    0  501    0  0.00000000000E+00  0.00000000000E+00  0.19798985981E+04  0.19798985981E+04  0.50400001928E-02 0.  1.
       -1   -1    0    0    0  501  0.00000000000E+00  0.00000000000E+00 -0.20099614569E+04  0.20099614569E+04  0.50400001928E-02 0. -1.
    10030    2    1    2    0    0  0.00000000000E+00  0.00000000000E+00 -0.30062858804E+02  0.39898600550E+04  0.39897467944E+04 0.  0.
        1    1    3    3  502    0  0.14464945410E+04 -0.71652230347E+03  0.11570808521E+04  0.19860983779E+04  0.50400001928E-02 0.  1.
       -1    1    3    3    0  502 -0.14464945410E+04  0.71652230347E+03 -0.11871437109E+04  0.20037616771E+04  0.50400001928E-02 0. -1.
</event>
<event>
 5   0  0.1087688E-07  0.4014519E+04  0.7818609E-02  0.8001624E-01
        2   -1    0    0  501    0  0.00000000000E+00  0.00000000000E+00  0.24569585322E+04  0.24569585322E+04  0.25500000920E-02 0.  1.
       -2   -1    0    0    0  501  0.00000000000E+00  0.00000000000E+00 -0.16398692726E+04  0.16398692726E+04  0.25500000920E-02 0. -1.
    10030    2    1    2    0    0  0.00000000000E+00  0.00000000000E+00  0.81708925957E+03  0.40968278048E+04  0.40145190502E+04 0.  0.
        2    1    3    3  502    0  0.14806032364E+04 -0.94201647262E+03  0.14029510468E+04  0.22467426684E+04  0.25500000920E-02 0.  1.
       -2    1    3    3    0  502 -0.14806032364E+04  0.94201647262E+03 -0.58586178722E+03  0.18500851364E+04  0.25500000920E-02 0. -1.
</event>
<event>
 5   0  0.3399500E-08  0.3987837E+04  0.7818609E-02  0.8007005E-01
        1   -1    0    0  501    0  0.00000000000E+00  0.00000000000E+00  0.16206941987E+04  0.16206941987E+04  0.50400001928E-02 0. -1.
       -1   -1    0    0    0  501  0.00000000000E+00  0.00000000000E+00 -0.24530917628E+04  0.24530917628E+04  0.50400001928E-02 0.  1.
    10030    2    1    2    0    0  0.00000000000E+00  0.00000000000E+00 -0.83239756408E+03  0.40737859616E+04  0.39878373031E+04 0.  0.
        4    1    3    3  502    0  0.56535092000E+02  0.17146087616E+04 -0.14542846081E+04  0.22490052815E+04  0.12699999809E+01 0.  1.
       -4    1    3    3    0  502 -0.56535092000E+02 -0.17146087616E+04  0.62188704405E+03  0.18247806801E+04  0.12699999809E+01 0. -1.
</event>
<event>
 5   0  0.3399500E-08  0.3994564E+04  0.7818609E-02  0.8005644E-01
       -1   -1    0    0    0  501  0.00000000000E+00  0.00000000000E+00  0.14791295215E+04  0.14791295215E+04  0.50400001928E-02 0. -1.
        1   -1    0    0  501    0  0.00000000000E+00  0.00000000000E+00 -0.26969481480E+04  0.26969481480E+04  0.50400001928E-02 0.  1.
    10030    2    1    2    0    0  0.00000000000E+00  0.00000000000E+00 -0.12178186266E+04  0.41760776695E+04  0.39945641182E+04 0.  0.
        3    1    3    3  502    0  0.60981709968E+03 -0.29600401587E+03  0.13551943155E+04  0.15152712349E+04  0.10100000352E+00 0. -1.
       -3    1    3    3    0  502 -0.60981709968E+03  0.29600401587E+03 -0.25730129420E+04  0.26608064346E+04  0.10100000352E+00 0.  1.
</event>
<event>
 5   0  0.1101474E-07  0.4161231E+04  0.7818609E-02  0.7972788E-01
        2   -1    0    0  501    0  0.00000000000E+00  0.00000000000E+00  0.23368098244E+04  0.23368098244E+04  0.25500000920E-02 0.  1.
       -2   -1    0    0    0  501  0.00000000000E+00  0.00000000000E+00 -0.18525085911E+04  0.18525085911E+04  0.25500000920E-02 0. -1.
    10030    2    1    2    0    0  0.00000000000E+00  0.00000000000E+00  0.48430123337E+03  0.41893184155E+04  0.41612307196E+04 0.  0.
        5    1    3    3  502    0  0.14540440036E+04 -0.14867389414E+04  0.30817945119E+03  0.21022923936E+04  0.46999998093E+01 0. -1.
       -5    1    3    3    0  502 -0.14540440036E+04  0.14867389414E+04  0.17612178217E+03  0.20870260219E+04  0.46999998093E+01 0.  1.
</event>
<event>
 5   0  0.1087688E-07  0.3992937E+04  0.7818609E-02  0.8005973E-01
        2   -1    0    0  501    0  0.00000000000E+00  0.00000000000E+00  0.17530117184E+04  0.17530117184E+04  0.25500000920E-02 0. -1.
       -2   -1    0    0    0  501  0.00000000000E+00  0.00000000000E+00 -0.22737365851E+04  0.22737365851E+04  0.25500000920E-02 0.  1.
    10030    2    1    2    0    0  0.00000000000E+00  0.00000000000E+00 -0.52072486670E+03  0.40267483035E+04  0.39929372038E+04 0.  0.
        2    1    3    3  502    0  0.94245447659E+03 -0.49122251966E+03  0.14440276478E+04  0.17929684470E+04  0.25500000920E-02 0. -1.
       -2    1    3    3    0  502 -0.94245447659E+03  0.49122251966E+03 -0.19647525145E+04  0.22337798566E+04  0.25500000920E-02 0.  1.
</event>
<event>
 5   0  0.3399500E-08  0.3986603E+04  0.7818609E-02  0.8007255E-01
        1   -1    0    0  501    0  0.00000000000E+00  0.00000000000E+00  0.24529375850E+04  0.24529375851E+04  0.50400001928E-02 0. -1.
       -1   -1    0    0    0  501  0.00000000000E+00  0.00000000000E+00 -0.16197929724E+04  0.16197929724E+04  0.50400001928E-02 0.  1.
    10030    2    1    2    0    0  0.00000000000E+00  0.00000000000E+00  0.83314461267E+03  0.40727305574E+04  0.39866030964E+04 0.  0.
        2    1    3    3  502    0  0.19076265945E+04  0.57713009677E+03  0.38218975761E+03  0.20293317579E+04  0.25500000920E-02 0.  1.
       -2    1    3    3    0  502 -0.19076265945E+04 -0.57713009677E+03  0.45095485506E+03  0.20433987996E+04  0.25500000920E-02 0. -1.
</event>
<event>
 5   0  0.3399500E-08  0.4008325E+04  0.7818609E-02  0.8002869E-01
       -1   -1    0    0    0  501  0.00000000000E+00  0.00000000000E+00  0.19758891764E+04  0.19758891764E+04  0.50400001928E-02 0.  1.
        1   -1    0    0  501    0  0.00000000000E+00  0.00000000000E+00 -0.20328406693E+04  0.20328406693E+04  0.50400001928E-02 0. -1.
    10030    2    1    2    0    0  0.00000000000E+00  0.00000000000E+00 -0.56951492895E+02  0.40087298457E+04  0.40083252741E+04 0.  0.
        1    1    3    3  502    0  0.11961309881E+04 -0.16080001265E+04 -0.45034227882E+02  0.20046001670E+04  0.50400001928E-02 0.  1.
       -1    1    3    3    0  502 -0.11961309881E+04  0.16080001265E+04 -0.11917265014E+02  0.20041296787E+04  0.50400001928E-02 0. -1.
</event>
<event>
 5   0  0.1087688E-07  0.4005777E+04  0.7818609E-02  0.8003382E-01
       -2   -1    0    0    0  501  0.00000000000E+00  0.00000000000E+00  0.12503633921E+04  0.12503633921E+04  0.25500000920E-02 0. -1.
        2   -1    0    0  501    0  0.00000000000E+00  0.00000000000E+00 -0.32083167436E+04  0.32083167436E+04  0.25500000920E-02 0.  1.
    10030    2    1    2    0    0  0.00000000000E+00  0.00000000000E+00 -0.19579533516E+04  0.44586801357E+04  0.40057767319E+04 0.  0.
        2    1    3    3  502    0  0.14502101690E+03  0.19855278893E+04 -0.73458475440E+03  0.21220195230E+04  0.25500000920E-02 0. -1.
       -2    1    3    3    0  502 -0.14502101690E+03 -0.19855278893E+04 -0.12233685972E+04  0.23366606127E+04  0.25500000920E-02 0.  1.
</event>
<event>
 5   0  0.3399500E-08  0.3799414E+04  0.7818609E-02  0.8046281E-01
        1   -1    0    0  501    0  0.00000000000E+00  0.00000000000E+00  0.19265005866E+04  0.19265005866E+04  0.50400001928E-02 0.  1.
       -1   -1    0    0    0  501  0.00000000000E+00  0.00000000000E+00 -0.18732864451E+04  0.18732864451E+04  0.50400001928E-02 0. -1.
    10030    2    1    2    0    0  0.00000000000E+00  0.00000000000E+00  0.53214141539E+02  0.37997870317E+04  0.37994143946E+04 0.  0.
        1    1    3    3  502    0 -0.18760306582E+04  0.28566600772E+03  0.11488427758E+03  0.19011297946E+04  0.50400001928E-02 0. -1.
       -1    1    3    3    0  502  0.18760306582E+04 -0.28566600772E+03 -0.61670136043E+02  0.18986572372E+04  0.50400001928E-02 0.  1.
</event>
<event>
 5   0  0.1101474E-07  0.4011861E+04  0.7818609E-02  0.8002158E-01
       -2   -1    0    0    0  501  0.00000000000E+00  0.00000000000E+00  0.21023606423E+04  0.21023606423E+04  0.25500000920E-02 0.  1.
        2   -1    0    0  501    0  0.00000000000E+00  0.00000000000E+00 -0.19139235548E+04  0.19139235548E+04  0.25500000920E-02 0. -1.
    10030    2    1    2    0    0  0.00000000000E+00  0.00000000000E+00  0.18843708753E+03  0.40162841971E+04  0.40118611910E+04 0.  0.
        5    1    3    3  502    0 -0.10388782993E+04  0.15377775912E+04 -0.66800607024E+03  0.19723798419E+04  0.46999998093E+01 0. -1.
       -5    1    3    3    0  502  0.10388782993E+04 -0.15377775912E+04  0.85644315777E+03  0.20439043552E+04  0.46999998093E+01 0.  1.
</event>
<event>
 5   0  0.3399500E-08  0.4023927E+04  0.7818609E-02  0.7999737E-01
        1   -1    0    0  501    0  0.00000000000E+00  0.00000000000E+00  0.18420154580E+04  0.18420154580E+04  0.50400001928E-02 0.  1.
       -1   -1    0    0    0  501  0.00000000000E+00  0.00000000000E+00 -0.21975914488E+04  0.21975914488E+04  0.50400001928E-02 0. -1.
    10030    2    1    2    0    0  0.00000000000E+00  0.00000000000E+00 -0.35557599081E+03  0.40396069068E+04  0.40239271459E+04 0.  0.
        3    1    3    3  502    0  0.90915896032E+03  0.13615078500E+04 -0.13518423237E+04  0.21231465609E+04  0.10100000352E+00 0. -1.
       -3    1    3    3    0  502 -0.90915896032E+03 -0.13615078500E+04  0.99626633288E+03  0.19164603458E+04  0.10100000352E+00 0.  1.
</event>
<event>
 5   0  0.3399500E-08  0.3962432E+04  0.7818609E-02  0.8012168E-01
        1   -1    0    0  501    0  0.00000000000E+00  0.00000000000E+00  0.29977911576E+04  0.29977911576E+04  0.50400001928E-02 0. -1.
       -1   -1    0    0    0  501  0.00000000000E+00  0.00000000000E+00 -0.13093694744E+04  0.13093694744E+04  0.50400001928E-02 0.  1.
    10030    2    1    2    0    0  0.00000000000E+00  0.00000000000E+00  0.16884216833E+04  0.43071606320E+04  0.39624316939E+04 0.  0.
        5    1    3    3  502    0  0.18292556204E+04  0.27592013309E+03  0.16150505790E+04  0.24557521266E+04  0.46999998093E+01 0.  1.
       -5    1    3    3    0  502 -0.18292556204E+04 -0.27592013309E+03  0.73371104226E+02  0.18514085053E+04  0.46999998093E+01 0. -1.
</event>
<event>
 5   0  0.1087688E-07  0.3931536E+04  0.7818609E-02  0.8018502E-01
       -2   -1    0    0    0  501  0.00000000000E+00  0.00000000000E+00  0.24743602565E+04  0.24743602565E+04  0.25500000920E-02 0.  1.
        2   -1    0    0  501    0  0.00000000000E+00  0.00000000000E+00 -0.15617144615E+04  0.15617144615E+04  0.25500000920E-02 0. -1.
    10030    2    1    2    0    0  0.00000000000E+00  0.00000000000E+00  0.91264579497E+03  0.40360747180E+04  0.39315361860E+04 0.  0.
        2    1    3    3  502    0  0.95252938562E+03 -0.15283070901E+04  0.12654484764E+04  0.22009985549E+04  0.25500000920E-02 0.  1.
       -2    1    3    3    0  502 -0.95252938562E+03  0.15283070901E+04 -0.35280268141E+03  0.18350761631E+04  0.25500000920E-02 0. -1.
</event>
<event>
 5   0  0.3399500E-08  0.3930581E+04  0.7818609E-02  0.8018699E-01
        1   -1    0    0  501    0  0.00000000000E+00  0.00000000000E+00  0.20448457259E+04  0.20448457259E+04  0.50400001928E-02 0.  1.
       -1   -1    0    0    0  501  0.00000000000E+00  0.00000000000E+00 -0.18888305343E+04  0.18888305343E+04  0.50400001928E-02 0. -1.
    10030    2    1    2    0    0  0.00000000000E+00  0.00000000000E+00  0.15601519165E+03  0.39336762602E+04  0.39305811504E+04 0.  0.
        1    1    3    3  502    0  0.16636518809E+04 -0.40049015219E+03  0.10453281214E+04  0.20052034371E+04  0.50400001928E-02 0.  1.
       -1    1    3    3    0  502 -0.16636518809E+04  0.40049015219E+03 -0.88931292970E+03  0.19284728232E+04  0.50400001928E-02 0. -1.
</event>
<event>
 5   0  0.1087688E-07  0.3794802E+04  0.7818609E-02  0.8047271E-01
        2   -1    0    0  501    0  0.00000000000E+00  0.00000000000E+00  0.19859527203E+04  0.19859527203E+04  0.25500000920E-02 0. -1.
       -2   -1    0    0    0  501  0.00000000000E+00  0.00000000000E+00 -0.18127980135E+04  0.18127980135E+04  0.25500000920E-02 0.  1.
    10030    2    1    2    0    0  0.00000000000E+00  0.00000000000E+00  0.17315470671E+03  0.37987507338E+04  0.37948023117E+04 0.  0.
        2    1    3    3  502    0  0.12067872347E+04 -0.11606178600E+04 -0.80696659874E+03  0.18586458345E+04  0.25500000920E-02 0. -1.
       -2    1    3    3    0  502 -0.12067872347E+04  0.11606178600E+04  0.98012130545E+03  0.19401048993E+04  0.25500000920E-02 0.  1.
</event>
<event>
 5   0  0.3399500E-08  0.3998727E+04  0.7818609E-02  0.8004803E-01
       -1   -1    0    0    0  501  0.00000000000E+00  0.00000000000E+00  0.16267558949E+04  0.16267558949E+04  0.50400001928E-02 0.  1.
        1   -1    0    0  501    0  0.00000000000E+00  0.00000000000E+00 -0.24573164270E+04  0.24573164270E+04  0.50400001928E-02 0. -1.
    10030    2    1    2    0    0  0.00000000000E+00  0.00000000000E+00 -0.83056053214E+03  0.40840723219E+04  0.39987267890E+04 0.  0.
        2    1    3    3  502    0  0.11193762515E+04  0.10552510612E+04 -0.17196022799E+04  0.23072906179E+04  0.25500000920E-02 0. -1.
       -2    1    3    3    0  502 -0.11193762515E+04 -0.10552510612E+04  0.88904174772E+03  0.17767817040E+04  0.25500000920E-02 0.  1.
</event>
<event>
 5   0  0.3399500E-08  0.4048854E+04  0.7818609E-02  0.7994763E-01
       -1   -1    0    0    0  501  0.00000000000E+00  0.00000000000E+00  0.23580795288E+04  0.23580795288E+04  0.50400001928E-02 0.  1.
        1   -1    0    0  501    0  0.00000000000E+00  0.00000000000E+00 -0.17379840740E+04  0.17379840740E+04  0.50400001928E-02 0. -1.
    10030    2    1    2    0    0  0.00000000000E+00  0.00000000000E+00  0.62009545480E+03  0.40960636027E+04  0.40488539940E+04 0.  0.
        2    1    3    3  502    0 -0.64333378908E+03  0.17092774146E+04  0.11936138788E+04  0.21817932386E+04  0.25500000920E-02 0.  1.
       -2    1    3    3    0  502  0.64333378908E+03 -0.17092774146E+04 -0.57351842403E+03  0.19142703641E+04  0.25500000920E-02 0. -1.
</event>
<event>
 5   0  0.3399500E-08  0.4023937E+04  0.7818609E-02  0.7999735E-01
       -1   -1    0    0    0  501  0.00000000000E+00  0.00000000000E+00  0.28003664908E+04  0.28003664908E+04  0.50400001928E-02 0.  1.
        1   -1    0    0  501    0  0.00000000000E+00  0.00000000000E+00 -0.14455314786E+04  0.14455314786E+04  0.50400001928E-02 0. -1.
    10030    2    1    2    0    0  0.00000000000E+00  0.00000000000E+00  0.13548350122E+04  0.42458979694E+04  0.40239373325E+04 0.  0.
        4    1    3    3  502    0 -0.93573778190E+03  0.17786782060E+04  0.77592077553E+03  0.21543806581E+04  0.12699999809E+01 0. -1.
       -4    1    3    3    0  502  0.93573778190E+03 -0.17786782060E+04  0.57891423671E+03  0.20915173113E+04  0.12699999809E+01 0.  1.
</event>
<event>
 5   0  0.3399500E-08  0.4001422E+04  0.7818609E-02  0.8004260E-01
        1   -1    0    0  501    0  0.00000000000E+00  0.00000000000E+00  0.24371510362E+04  0.24371510362E+04  0.50400001928E-02 0.  1.
       -1   -1    0    0    0  501  0.00000000000E+00  0.00000000000E+00 -0.16424279993E+04  0.16424279993E+04  0.50400001928E-02 0. -1.
    10030    2    1    2    0    0  0.00000000000E+00  0.00000000000E+00  0.79472303689E+03  0.40795790355E+04  0.40014222973E+04 0.  0.
        4    1    3    3  502    0 -0.97617275915E+03 -0.17166156491E+04  0.69901245420E+02  0.19759985677E+04  0.12699999809E+01 0. -1.
       -4    1    3    3    0  502  0.97617275915E+03  0.17166156491E+04  0.72482179147E+03  0.21035804678E+04  0.12699999809E+01 0.  1.
</event>
<event>
 5   0  0.3399500E-08  0.3955836E+04  0.7818609E-02  0.8013516E-01
       -3   -1    0    0    0  501  0.00000000000E+00  0.00000000000E+00  0.13149902796E+04  0.13149902835E+04  0.10100000352E+00 0.  1.
        3   -1    0    0  501    0  0.00000000000E+00  0.00000000000E+00 -0.29750484415E+04  0.29750484432E+04  0.10100000352E+00 0. -1.
    10030    2    1    2    0    0  0.00000000000E+00  0.00000000000E+00 -0.16600581618E+04  0.42900387267E+04  0.39558360906E+04 0.  0.
        2    1    3    3  502    0  0.74881461038E+03  0.61530368605E+03  0.10398285236E+04  0.14214659002E+04  0.25500000920E-02 0.  1.
       -2    1    3    3    0  502 -0.74881461038E+03 -0.61530368605E+03 -0.26998866855E+04  0.28685728265E+04  0.25500000920E-02 0. -1.
</event>
<event>
 5   0  0.3399500E-08  0.3788137E+04  0.7818609E-02  0.8048705E-01
        1   -1    0    0  501    0  0.00000000000E+00  0.00000000000E+00  0.18604150133E+04  0.18604150133E+04  0.50400001928E-02 0. -1.
       -1   -1    0    0    0  501  0.00000000000E+00  0.00000000000E+00 -0.19283312498E+04  0.19283312498E+04  0.50400001928E-02 0.  1.
    10030    2    1    2    0    0  0.00000000000E+00  0.00000000000E+00 -0.67916236537E+02  0.37887462631E+04  0.37881374884E+04 0.  0.
        3    1    3    3  502    0  0.33488876435E+03 -0.17650385578E+04  0.56612563845E+03  0.18836161614E+04  0.10100000352E+00 0. -1.
       -3    1    3    3    0  502 -0.33488876435E+03  0.17650385578E+04 -0.63404187499E+03  0.19051301017E+04  0.10100000352E+00 0.  1.
</event>
<event>
 5   0  0.1101474E-07  0.4072627E+04  0.7818609E-02  0.7990054E-01
       -2   -1    0    0    0  501  0.00000000000E+00  0.00000000000E+00  0.19430033642E+04  0.19430033642E+04  0.25500000920E-02 0.  1.
        2   -1    0    0  501    0  0.00000000000E+00  0.00000000000E+00 -0.21341048443E+04  0.21341048443E+04  0.25500000920E-02 0. -1.
    10030    2    1    2    0    0  0.00000000000E+00  0.00000000000E+00 -0.19110148018E+03  0.40771082085E+04  0.40726271089E+04 0.  0.
        5    1    3    3  502    0 -0.16841754527E+04 -0.20333889474E+03 -0.12231813073E+04  0.20914082007E+04  0.46999998093E+01 0. -1.
       -5    1    3    3    0  502  0.16841754527E+04  0.20333889474E+03  0.10320798271E+04  0.19857000078E+04  0.46999998093E+01 0.  1.
</event>
<event>
 5   0  0.3399500E-08  0.4061777E+04  0.7818609E-02  0.7992199E-01
       -3   -1    0    0    0  501  0.00000000000E+00  0.00000000000E+00  0.15572159510E+04  0.15572159542E+04  0.10100000352E+00 0.  1.
        3   -1    0    0  501    0  0.00000000000E+00  0.00000000000E+00 -0.26486418528E+04  0.26486418547E+04  0.10100000352E+00 0. -1.
    10030    2    1    2    0    0  0.00000000000E+00  0.00000000000E+00 -0.10914259018E+04  0.42058578090E+04  0.40617766322E+04 0.  0.
        2    1    3    3  502    0 -0.11116484017E+04 -0.16127101159E+03 -0.22976934309E+04  0.25575702552E+04  0.25500000920E-02 0. -1.
       -2    1    3    3    0  502  0.11116484017E+04  0.16127101159E+03  0.12062675290E+04  0.16482875537E+04  0.25500000920E-02 0.  1.
</event>
<event>
 5   0  0.1073271E-07  0.4033513E+04  0.7818609E-02  0.7997820E-01
        2   -1    0    0  501    0  0.00000000000E+00  0.00000000000E+00  0.25559148981E+04  0.25559148981E+04  0.25500000920E-02 0. -1.
       -2   -1    0    0    0  501  0.00000000000E+00  0.00000000000E+00 -0.15913311376E+04  0.15913311376E+04  0.25500000920E-02 0.  1.
    10030    2    1    2    0    0  0.00000000000E+00  0.00000000000E+00  0.96458376046E+03  0.41472460357E+04  0.40335130903E+04 0.  0.
        1    1    3    3  502    0  0.12248569422E+04  0.15033192937E+04  0.10520499073E+04  0.22061397134E+04  0.50400001928E-02 0.  1.
       -1    1    3    3    0  502 -0.12248569422E+04 -0.15033192937E+04 -0.87466146869E+02  0.19411063223E+04  0.50400001928E-02 0. -1.
</event>
<event>
 5   0  0.3399500E-08  0.3993085E+04  0.7818609E-02  0.8005943E-01
        1   -1    0    0  501    0  0.00000000000E+00  0.00000000000E+00  0.24304716730E+04  0.24304716730E+04  0.50400001928E-02 0.  1.
       -1   -1    0    0    0  501  0.00000000000E+00  0.00000000000E+00 -0.16400858380E+04  0.16400858380E+04  0.50400001928E-02 0. -1.
    10030    2    1    2    0    0  0.00000000000E+00  0.00000000000E+00  0.79038583497E+03  0.40705575110E+04  0.39930851083E+04 0.  0.
        3    1    3    3  502    0  0.15267522940E+04  0.11095372519E+04  0.10590861542E+04  0.21641878322E+04  0.10100000352E+00 0. -1.
       -3    1    3    3    0  502 -0.15267522940E+04 -0.11095372519E+04 -0.26870031921E+03  0.19063696789E+04  0.10100000352E+00 0.  1.
</event>
<event>
 5   0  0.3399500E-08  0.4016145E+04  0.7818609E-02  0.8001297E-01
       -1   -1    0    0    0  501  0.00000000000E+00  0.00000000000E+00  0.16555220271E+04  0.16555220271E+04  0.50400001928E-02 0.  1.
        1   -1    0    0  501    0  0.00000000000E+00  0.00000000000E+00 -0.24357001622E+04  0.24357001622E+04  0.50400001928E-02 0. -1.
    10030    2    1    2    0    0  0.00000000000E+00  0.00000000000E+00 -0.78017813510E+03  0.40912221893E+04  0.40161450521E+04 0.  0.
        4    1    3    3  502    0 -0.71113166594E+03 -0.11880802919E+04  0.10914401483E+04  0.17630899684E+04  0.12699999809E+01 0.  1.
       -4    1    3    3    0  502  0.71113166594E+03  0.11880802919E+04 -0.18716182834E+04  0.23281322209E+04  0.12699999809E+01 0. -1.
</event>
<event>
 5   0  0.1073271E-07  0.4004743E+04  0.7818609E-02  0.8003590E-01
       -2   -1    0    0    0  501  0.00000000000E+00  0.00000000000E+00  0.16417885541E+04  0.16417885541E+04  0.25500000920E-02 0. -1.
        2   -1    0    0  501    0  0.00000000000E+00  0.00000000000E+00 -0.24421484485E+04  0.24421484485E+04  0.25500000920E-02 0.  1.
    10030    2    1    2    0    0  0.00000000000E+00  0.00000000000E+00 -0.80035989441E+03  0.40839370027E+04  0.40047428733E+04 0.  0.
        1    1    3    3  502    0  0.74027683405E+03  0.54933159055E+03  0.14125305428E+04  0.16867179734E+04  0.50400001928E-02 0. -1.
       -1    1    3    3    0  502 -0.74027683405E+03 -0.54933159055E+03 -0.22128904372E+04  0.23972190293E+04  0.50400001928E-02 0.  1.
</event>
<event>
 5   0  0.1095903E-07  0.3995681E+04  0.7818609E-02  0.8005418E-01
       -2   -1    0    0    0  501  0.00000000000E+00  0.00000000000E+00  0.21508255215E+04  0.21508255215E+04  0.25500000920E-02 0.  1.
        2   -1    0    0  501    0  0.00000000000E+00  0.00000000000E+00 -0.18557375354E+04  0.18557375354E+04  0.25500000920E-02 0. -1.
    10030    2    1    2    0    0  0.00000000000E+00  0.00000000000E+00  0.29508798614E+03  0.40065630569E+04  0.39956814950E+04 0.  0.
        3    1    3    3  502    0 -0.99682386428E+02 -0.89640665379E+03 -0.16399734512E+04  0.18716288088E+04  0.10100000352E+00 0. -1.
       -3    1    3    3    0  502  0.99682386428E+02  0.89640665379E+03  0.19350614374E+04  0.21349342481E+04  0.10100000352E+00 0.  1.
</event>
<event>
 5   0  0.1073271E-07  0.3985877E+04  0.7818609E-02  0.8007402E-01
        2   -1    0    0  501    0  0.00000000000E+00  0.00000000000E+00  0.25066315697E+04  0.25066315697E+04  0.25500000920E-02 0.  1.
       -2   -1    0    0    0  501  0.00000000000E+00  0.00000000000E+00 -0.15845184604E+04  0.15845184604E+04  0.25500000920E-02 0. -1.
    10030    2    1    2    0    0  0.00000000000E+00  0.00000000000E+00  0.92211310935E+03  0.40911500302E+04  0.39858770657E+04 0.  0.
        1    1    3    3  502    0  0.17408455111E+04  0.81204307101E+03 -0.83857711843E+02  0.19227556159E+04  0.50400001928E-02 0. -1.
       -1    1    3    3    0  502 -0.17408455111E+04 -0.81204307101E+03  0.10059708212E+04  0.21683944142E+04  0.50400001928E-02 0.  1.
</event>
<event>
 5   0  0.1095903E-07  0.4070874E+04  0.7818609E-02  0.7990400E-01
       -2   -1    0    0    0  501  0.00000000000E+00  0.00000000000E+00  0.22232839151E+04  0.22232839151E+04  0.25500000920E-02 0. -1.
        2   -1    0    0  501    0  0.00000000000E+00  0.00000000000E+00 -0.18634611284E+04  0.18634611285E+04  0.25500000920E-02 0.  1.
    10030    2    1    2    0    0  0.00000000000E+00  0.00000000000E+00  0.35982278667E+03  0.40867450436E+04  0.40708736916E+04 0.  0.
        3    1    3    3  502    0  0.15589445029E+04  0.65514548830E+03  0.13172358991E+04  0.21435097382E+04  0.10100000352E+00 0. -1.
       -3    1    3    3    0  502 -0.15589445029E+04 -0.65514548830E+03 -0.95741311239E+03  0.19432353053E+04  0.10100000352E+00 0.  1.
</event>
<event>
 5   0  0.1087688E-07  0.4013327E+04  0.7818609E-02  0.8001863E-01
       -2   -1    0    0    0  501  0.00000000000E+00  0.00000000000E+00  0.25355619532E+04  0.25355619532E+04  0.25500000920E-02 0.  1.
        2   -1    0    0  501    0  0.00000000000E+00  0.00000000000E+00 -0.15880892250E+04  0.15880892250E+04  0.25500000920E-02 0. -1.
    10030    2    1    2    0    0  0.00000000000E+00  0.00000000000E+00  0.94747272819E+03  0.41236511781E+04  0.40133271071E+04 0.  0.
        2    1    3    3  502    0  0.26552195625E+03 -0.78091404800E+03  0.23533316142E+04  0.24936917103E+04  0.25500000920E-02 0.  1.
       -2    1    3    3    0  502 -0.26552195625E+03  0.78091404800E+03 -0.14058588860E+04  0.16299594679E+04  0.25500000920E-02 0. -1.
</event>
<event>
 5   0  0.1073271E-07  0.4023318E+04  0.7818609E-02  0.7999859E-01
        2   -1    0    0  501    0  0.00000000000E+00  0.00000000000E+00  0.24914791196E+04  0.24914791196E+04  0.25500000920E-02 0. -1.
       -2   -1    0    0    0  501  0.00000000000E+00  0.00000000000E+00 -0.16242447520E+04  0.16242447520E+04  0.25500000920E-02 0.  1.
    10030    2    1    2    0    0  0.00000000000E+00  0.00000000000E+00  0.86723436761E+03  0.41157238717E+04  0.40233179764E+04 0.  0.
        1    1    3    3  502    0  0.10411022383E+04  0.28365722172E+02 -0.13269790973E+04  0.16868823342E+04  0.50400001928E-02 0.  1.
       -1    1    3    3    0  502 -0.10411022383E+04 -0.28365722172E+02  0.21942134649E+04  0.24288415375E+04  0.50400001928E-02 0. -1.
</event>
<event>
 5   0  0.3399500E-08  0.3837334E+04  0.7818609E-02  0.8038190E-01
        1   -1    0    0  501    0  0.00000000000E+00  0.00000000000E+00  0.15509350335E+04  0.15509350336E+04  0.50400001928E-02 0. -1.
       -1   -1    0    0    0  501  0.00000000000E+00  0.00000000000E+00 -0.23735899019E+04  0.23735899019E+04  0.50400001928E-02 0.  1.
    10030    2    1    2    0    0  0.00000000000E+00  0.00000000000E+00 -0.82265486832E+03  0.39245249354E+04  0.38373343530E+04 0.  0.
        5    1    3    3  502    0  0.11919619791E+04 -0.32894479949E+03 -0.19117279327E+04  0.22767748724E+04  0.46999998093E+01 0.  1.
       -5    1    3    3    0  502 -0.11919619791E+04  0.32894479949E+03  0.10890730644E+04  0.16477500631E+04  0.46999998093E+01 0. -1.
</event>
<event>
 5   0  0.3399500E-08  0.3998702E+04  0.7818609E-02  0.8004808E-01
        1   -1    0    0  501    0  0.00000000000E+00  0.00000000000E+00  0.16509430653E+04  0.16509430653E+04  0.50400001928E-02 0. -1.
       -1   -1    0    0    0  501  0.00000000000E+00  0.00000000000E+00 -0.24212858860E+04  0.24212858860E+04  0.50400001928E-02 0.  1.
    10030    2    1    2    0    0  0.00000000000E+00  0.00000000000E+00 -0.77034282072E+03  0.40722289513E+04  0.39987023608E+04 0.  0.
        5    1    3    3  502    0  0.13410140403E+04 -0.14086691123E+04 -0.85706604245E+03  0.21253826986E+04  0.46999998093E+01 0.  1.
       -5    1    3    3    0  502 -0.13410140403E+04  0.14086691123E+04  0.86723221732E+02  0.19468462527E+04  0.46999998093E+01 0. -1.
</event>
<event>
 5   0  0.1087688E-07  0.3982487E+04  0.7818609E-02  0.8008089E-01
        2   -1    0    0  501    0  0.00000000000E+00  0.00000000000E+00  0.11691339079E+04  0.11691339079E+04  0.25500000920E-02 0. -1.
       -2   -1    0    0    0  501  0.00000000000E+00  0.00000000000E+00 -0.33914419477E+04  0.33914419477E+04  0.25500000920E-02 0.  1.
    10030    2    1    2    0    0  0.00000000000E+00  0.00000000000E+00 -0.22223080398E+04  0.45605758556E+04  0.39824865487E+04 0.  0.
        2    1    3    3  502    0 -0.15223414729E+03  0.41765338606E+03  0.11115853880E+04  0.11971765372E+04  0.25500000920E-02 0. -1.
       -2    1    3    3    0  502  0.15223414729E+03 -0.41765338606E+03 -0.33338934278E+04  0.33633993183E+04  0.25500000920E-02 0.  1.
</event>
<event>
 5   0  0.3399500E-08  0.4021811E+04  0.7818609E-02  0.8000161E-01
       -1   -1    0    0    0  501  0.00000000000E+00  0.00000000000E+00  0.15296402531E+04  0.15296402531E+04  0.50400001928E-02 0.  1.
        1   -1    0    0  501    0  0.00000000000E+00  0.00000000000E+00 -0.26435893689E+04  0.26435893689E+04  0.50400001928E-02 0. -1.
    10030    2    1    2    0    0  0.00000000000E+00  0.00000000000E+00 -0.11139491157E+04  0.41732296220E+04  0.40218108913E+04 0.  0.
        3    1    3    3  502    0 -0.45967734564E+03 -0.17552082978E+04  0.34266283856E+03  0.18464769866E+04  0.10100000352E+00 0.  1.
       -3    1    3    3    0  502  0.45967734564E+03  0.17552082978E+04 -0.14566119543E+04  0.23267526354E+04  0.10100000352E+00 0. -1.
</event>
<event>
 5   0  0.3399500E-08  0.4001396E+04  0.7818609E-02  0.8004265E-01
       -1   -1    0    0    0  501  0.00000000000E+00  0.00000000000E+00  0.19385161652E+04  0.19385161652E+04  0.50400001928E-02 0.  1.
        1   -1    0    0  501    0  0.00000000000E+00  0.00000000000E+00 -0.20648740367E+04  0.20648740367E+04  0.50400001928E-02 0. -1.
    10030    2    1    2    0    0  0.00000000000E+00  0.00000000000E+00 -0.12635787149E+03  0.40033902019E+04  0.40013956062E+04 0.  0.
        5    1    3    3  502    0 -0.19227872833E+03  0.53135982119E+03  0.18570107363E+04  0.19410886980E+04  0.46999998093E+01 0.  1.
       -5    1    3    3    0  502  0.19227872833E+03 -0.53135982119E+03 -0.19833686077E+04  0.20623015039E+04  0.46999998093E+01 0. -1.
</event>
<event>
 5   0  0.1101474E-07  0.3998366E+04  0.7818609E-02  0.8004876E-01
       -2   -1    0    0    0  501  0.00000000000E+00  0.00000000000E+00  0.17471198670E+04  0.17471198670E+04  0.25500000920E-02 0. -1.
        2   -1    0    0  501    0  0.00000000000E+00  0.00000000000E+00 -0.22876116774E+04  0.22876116774E+04  0.25500000920E-02 0.  1.
    10030    2    1    2    0    0  0.00000000000E+00  0.00000000000E+00 -0.54049181038E+03  0.40347315445E+04  0.39983655709E+04 0.  0.
        5    1    3    3  502    0  0.19799551268E+03 -0.59432884156E+03  0.16455156299E+04  0.17607307498E+04  0.46999998093E+01 0. -1.
       -5    1    3    3    0  502 -0.19799551268E+03  0.59432884156E+03 -0.21860074403E+04  0.22740007946E+04  0.46999998093E+01 0.  1.
</event>
<event>
 5   0  0.1095903E-07  0.4029689E+04  0.7818609E-02  0.7998584E-01
       -2   -1    0    0    0  501  0.00000000000E+00  0.00000000000E+00  0.15353648218E+04  0.15353648218E+04  0.25500000920E-02 0. -1.
        2   -1    0    0  501    0  0.00000000000E+00  0.00000000000E+00 -0.26440609466E+04  0.26440609466E+04  0.25500000920E-02 0.  1.
    10030    2    1    2    0    0  0.00000000000E+00  0.00000000000E+00 -0.11086961248E+04  0.41794257684E+04  0.40296889032E+04 0.  0.
        3    1    3    3  502    0 -0.18516866475E+04 -0.49671483195E+03  0.88463522226E+02  0.19191912020E+04  0.10100000352E+00 0.  1.
       -3    1    3    3    0  502  0.18516866475E+04  0.49671483195E+03 -0.11971596470E+04  0.22602345664E+04  0.10100000352E+00 0. -1.
</event>
<event>
 5   0  0.1087688E-07  0.4013436E+04  0.7818609E-02  0.8001842E-01
        2   -1    0    0  501    0  0.00000000000E+00  0.00000000000E+00  0.13549743797E+04  0.13549743797E+04  0.25500000920E-02 0. -1.
       -2   -1    0    0    0  501  0.00000000000E+00  0.00000000000E+00 -0.29719506453E+04  0.29719506453E+04  0.25500000920E-02 0.  1.
    10030    2    1    2    0    0  0.00000000000E+00  0.00000000000E+00 -0.16169762656E+04  0.43269250250E+04  0.40134359255E+04 0.  0.
        2    1    3    3  502    0  0.19552550629E+04  0.10173013803E+03 -0.12827898399E+04  0.23407095410E+04  0.25500000920E-02 0. -1.
       -2    1    3    3    0  502 -0.19552550629E+04 -0.10173013803E+03 -0.33418642568E+03  0.19862154840E+04  0.25500000920E-02 0.  1.
</event>
<event>
 5   0  0.3399500E-08  0.3967704E+04  0.7818609E-02  0.8011094E-01
        1   -1    0    0  501    0  0.00000000000E+00  0.00000000000E+00  0.17843987401E+04  0.17843987401E+04  0.50400001928E-02 0. -1.
       -1   -1    0    0    0  501  0.00000000000E+00  0.00000000000E+00 -0.22055995062E+04  0.22055995062E+04  0.50400001928E-02 0.  1.
    10030    2    1    2    0    0  0.00000000000E+00  0.00000000000E+00 -0.42120076608E+03  0.39899982464E+04  0.39677041120E+04 0.  0.
        3    1    3    3  502    0  0.35879952762E+03 -0.13705463296E+04 -0.16071203447E+04  0.21424215633E+04  0.10100000352E+00 0.  1.
       -3    1    3    3    0  502 -0.35879952762E+03  0.13705463296E+04  0.11859195786E+04  0.18475766830E+04  0.10100000352E+00 0. -1.
</event>
<event>
 5   0  0.1073271E-07  0.4038052E+04  0.7818609E-02  0.7996914E-01
       -2   -1    0    0    0  501  0.00000000000E+00  0.00000000000E+00  0.30577398921E+04  0.30577398921E+04  0.25500000920E-02 0. -1.
        2   -1    0    0  501    0  0.00000000000E+00  0.00000000000E+00 -0.13331630201E+04  0.13331630201E+04  0.25500000920E-02 0.  1.
    10030    2    1    2    0    0  0.00000000000E+00  0.00000000000E+00  0.17245768720E+04  0.43909029121E+04  0.40380518813E+04 0.  0.
        1    1    3    3  502    0  0.10899919266E+04  0.54492097443E+03 -0.88817439875E+03  0.15079373432E+04  0.50400001928E-02 0.  1.
       -1    1    3    3    0  502 -0.10899919266E+04 -0.54492097443E+03  0.26127512708E+04  0.28829655689E+04  0.50400001928E-02 0. -1.
</event>
<event>
 5   0  0.3399500E-08  0.3971983E+04  0.7818609E-02  0.8010223E-01
        1   -1    0    0  501    0  0.00000000000E+00  0.00000000000E+00  0.26230000708E+04  0.26230000709E+04  0.50400001928E-02 0. -1.
       -1   -1    0    0    0  501  0.00000000000E+00  0.00000000000E+00 -0.15036832821E+04  0.15036832821E+04  0.50400001928E-02 0.  1.
    10030    2    1    2    0    0  0.00000000000E+00  0.00000000000E+00  0.11193167888E+04  0.41266833529E+04  0.39719825556E+04 0.  0.
        2    1    3    3  502    0 -0.43545924602E+03  0.17536113739E+04 -0.29669178099E+03  0.18310662518E+04  0.25500000920E-02 0.  1.
       -2    1    3    3    0  502  0.43545924602E+03 -0.17536113739E+04  0.14160085698E+04  0.22956171012E+04  0.25500000920E-02 0. -1.
</event>
<event>
 5   0  0.3399500E-08  0.3995529E+04  0.7818609E-02  0.8005449E-01
        1   -1    0    0  501    0  0.00000000000E+00  0.00000000000E+00  0.11416358572E+04  0.11416358572E+04  0.50400001928E-02 0.  1.
       -1   -1    0    0    0  501  0.00000000000E+00  0.00000000000E+00 -0.34959157192E+04  0.34959157192E+04  0.50400001928E-02 0. -1.
    10030    2    1    2    0    0  0.00000000000E+00  0.00000000000E+00 -0.23542798620E+04  0.46375515765E+04  0.39955288706E+04 0.  0.
        5    1    3    3  502    0  0.14068420147E+04  0.14009526187E+04 -0.91977133647E+03  0.21881211337E+04  0.46999998093E+01 0. -1.
       -5    1    3    3    0  502 -0.14068420147E+04 -0.14009526187E+04 -0.14345085256E+04  0.24494304428E+04  0.46999998093E+01 0.  1.
</event>
<event>
 5   0  0.3399500E-08  0.4025110E+04  0.7818609E-02  0.7999500E-01
       -1   -1    0    0    0  501  0.00000000000E+00  0.00000000000E+00  0.29699948127E+04  0.29699948127E+04  0.50400001928E-02 0.  1.
        1   -1    0    0  501    0  0.00000000000E+00  0.00000000000E+00 -0.13637659886E+04  0.13637659886E+04  0.50400001928E-02 0. -1.
    10030    2    1    2    0    0  0.00000000000E+00  0.00000000000E+00  0.16062288241E+04  0.43337608014E+04  0.40251101411E+04 0.  0.
        5    1    3    3  502    0 -0.16381186977E+04 -0.91103988984E+03  0.15920575618E+04  0.24592876852E+04  0.46999998093E+01 0.  1.
       -5    1    3    3    0  502  0.16381186977E+04  0.91103988984E+03  0.14171262376E+02  0.18744731162E+04  0.46999998093E+01 0. -1.
</event>
<event>
 5   0  0.3399500E-08  0.3995319E+04  0.7818609E-02  0.8005491E-01
        1   -1    0    0  501    0  0.00000000000E+00  0.00000000000E+00  0.14493196491E+04  0.14493196491E+04  0.50400001928E-02 0. -1.
       -1   -1    0    0    0  501  0.00000000000E+00  0.00000000000E+00 -0.27534605010E+04  0.27534605011E+04  0.50400001928E-02 0.  1.
    10030    2    1    2    0    0  0.00000000000E+00  0.00000000000E+00 -0.13041408520E+04  0.42027801501E+04  0.39953194651E+04 0.  0.
        2    1    3    3  502    0 -0.15423755616E+04 -0.11392487215E+04 -0.62771806669E+02  0.19185281656E+04  0.25500000920E-02 0.  1.
       -2    1    3    3    0  502  0.15423755616E+04  0.11392487215E+04 -0.12413690453E+04  0.22842519846E+04  0.25500000920E-02 0. -1.
</event>
<event>
 5   0  0.1095109E-07  0.3904390E+04  0.7818609E-02  0.8024117E-01
       -2   -1    0    0    0  501  0.00000000000E+00  0.00000000000E+00  0.19295196628E+04  0.19295196628E+04  0.25500000920E-02 0.  1.
        2   -1    0    0  501    0  0.00000000000E+00  0.00000000000E+00 -0.19751368857E+04  0.19751368857E+04  0.25500000920E-02 0. -1.
    10030    2    1    2    0    0  0.00000000000E+00  0.00000000000E+00 -0.45617222972E+02  0.39046565485E+04  0.39043900715E+04 0.  0.
        4    1    3    3  502    0 -0.15024813475E+04 -0.45021746443E+03  0.11395606448E+04  0.19387485760E+04  0.12699999809E+01 0.  1.
       -4    1    3    3    0  502  0.15024813475E+04  0.45021746443E+03 -0.11851778678E+04  0.19659079725E+04  0.12699999809E+01 0. -1.
</event>
<event>
 5   0  0.3399500E-08  0.3996445E+04  0.7818609E-02  0.8005264E-01
       -1   -1    0    0    0  501  0.00000000000E+00  0.00000000000E+00  0.34681726406E+04  0.34681726406E+04  0.50400001928E-02 0.  1.
        1   -1    0    0  501    0  0.00000000000E+00  0.00000000000E+00 -0.11512961345E+04  0.11512961345E+04  0.50400001928E-02 0. -1.
    10030    2    1    2    0    0  0.00000000000E+00  0.00000000000E+00  0.23168765061E+04  0.46194687751E+04  0.39964452979E+04 0.  0.
        4    1    3    3  502    0  0.18852497759E+04  0.34222757406E+03  0.18139493375E+04  0.26385034095E+04  0.12699999809E+01 0.  1.
       -4    1    3    3    0  502 -0.18852497759E+04 -0.34222757406E+03  0.50292716868E+03  0.19809653656E+04  0.12699999809E+01 0. -1.
</event>
<event>
 5   0  0.3399500E-08  0.3996174E+04  0.7818609E-02  0.8005319E-01
        1   -1    0    0  501    0  0.00000000000E+00  0.00000000000E+00  0.19284136951E+04  0.19284136951E+04  0.50400001928E-02 0. -1.
       -1   -1    0    0    0  501  0.00000000000E+00  0.00000000000E+00 -0.20702773279E+04  0.20702773279E+04  0.50400001928E-02 0.  1.
    10030    2    1    2    0    0  0.00000000000E+00  0.00000000000E+00 -0.14186363279E+03  0.39986910230E+04  0.39961737459E+04 0.  0.
        5    1    3    3  502    0 -0.22453720475E+02  0.15310149154E+04 -0.13554141512E+04  0.20449157567E+04  0.46999998093E+01 0.  1.
       -5    1    3    3    0  502  0.22453720475E+02 -0.15310149154E+04  0.12135505184E+04  0.19537752663E+04  0.46999998093E+01 0. -1.
</event>
<event>
 5   0  0.3399500E-08  0.4026826E+04  0.7818609E-02  0.7999157E-01
        1   -1    0    0  501    0  0.00000000000E+00  0.00000000000E+00  0.21029469660E+04  0.21029469660E+04  0.50400001928E-02 0. -1.
       -1   -1    0    0    0  501  0.00000000000E+00  0.00000000000E+00 -0.19276905511E+04  0.19276905511E+04  0.50400001928E-02 0.  1.
    10030    2    1    2    0    0  0.00000000000E+00  0.00000000000E+00  0.17525641495E+03  0.40306375171E+04  0.40268255467E+04 0.  0.
        2    1    3    3  502    0 -0.53464760143E+03  0.15216448845E+04 -0.11187428951E+04  0.19628644573E+04  0.25500000920E-02 0.  1.
       -2    1    3    3    0  502  0.53464760143E+03 -0.15216448845E+04  0.12939993101E+04  0.20677730598E+04  0.25500000920E-02 0. -1.
</event>
<event>
 5   0  0.1073271E-07  0.3982137E+04  0.7818609E-02  0.8008160E-01
        2   -1    0    0  501    0  0.00000000000E+00  0.00000000000E+00  0.16263199987E+04  0.16263199987E+04  0.25500000920E-02 0.  1.
       -2   -1    0    0    0  501  0.00000000000E+00  0.00000000000E+00 -0.24376218162E+04  0.24376218162E+04  0.25500000920E-02 0. -1.
    10030    2    1    2    0    0  0.00000000000E+00  0.00000000000E+00 -0.81130181752E+03  0.40639418148E+04  0.39821366671E+04 0.  0.
        1    1    3    3  502    0 -0.49532274906E+03 -0.87014952301E+03 -0.21620076228E+04  0.23825997941E+04  0.50400001928E-02 0. -1.
       -1    1    3    3    0  502  0.49532274906E+03  0.87014952301E+03  0.13507058052E+04  0.16813420207E+04  0.50400001928E-02 0.  1.
</event>
<event>
 5   0  0.1095903E-07  0.3986336E+04  0.7818609E-02  0.8007309E-01
        2   -1    0    0  501    0  0.00000000000E+00  0.00000000000E+00  0.20838637918E+04  0.20838637918E+04  0.25500000920E-02 0. -1.
       -2   -1    0    0    0  501  0.00000000000E+00  0.00000000000E+00 -0.19064194200E+04  0.19064194200E+04  0.25500000920E-02 0.  1.
    10030    2    1    2    0    0  0.00000000000E+00  0.00000000000E+00  0.17744437176E+03  0.39902832118E+04  0.39863358620E+04 0.  0.
        3    1    3    3  502    0 -0.19085169341E+04  0.57469948700E+03  0.90138815624E+02  0.19952046022E+04  0.10100000352E+00 0.  1.
       -3    1    3    3    0  502  0.19085169341E+04 -0.57469948700E+03  0.87305556133E+02  0.19950786096E+04  0.10100000352E+00 0. -1.
</event>
<event>
 5   0  0.1095903E-07  0.3961871E+04  0.7818609E-02  0.8012283E-01
        2   -1    0    0  501    0  0.00000000000E+00  0.00000000000E+00  0.30400261209E+04  0.30400261209E+04  0.25500000920E-02 0.  1.
       -2   -1    0    0    0  501  0.00000000000E+00  0.00000000000E+00 -0.12908132063E+04  0.12908132063E+04  0.25500000920E-02 0. -1.
    10030    2    1    2    0    0  0.00000000000E+00  0.00000000000E+00  0.17492129146E+04  0.43308393272E+04  0.39618712066E+04 0.  0.
        3    1    3    3  502    0 -0.15515186068E+04 -0.10059232159E+04  0.16514321450E+04  0.24791772110E+04  0.10100000352E+00 0.  1.
       -3    1    3    3    0  502  0.15515186068E+04  0.10059232159E+04  0.97780769564E+02  0.18516621163E+04  0.10100000352E+00 0. -1.
</event>
<event>
 5   0  0.3399500E-08  0.3984955E+04  0.7818609E-02  0.8007588E-01
       -1   -1    0    0    0  501  0.00000000000E+00  0.00000000000E+00  0.15359379526E+04  0.15359379526E+04  0.50400001928E-02 0. -1.
        1   -1    0    0  501    0  0.00000000000E+00  0.00000000000E+00 -0.25847182697E+04  0.25847182697E+04  0.50400001928E-02 0.  1.
    10030    2    1    2    0    0  0.00000000000E+00  0.00000000000E+00 -0.10487803172E+04  0.41206562223E+04  0.39849551502E+04 0.  0.
        4    1    3    3  502    0 -0.76834229495E+03 -0.11985847267E+04 -0.19657767205E+04  0.24271866342E+04  0.12699999809E+01 0. -1.
       -4    1    3    3    0  502  0.76834229495E+03  0.11985847267E+04  0.91699640340E+03  0.16934695881E+04  0.12699999809E+01 0.  1.
</event>
<event>
 5   0  0.1073271E-07  0.3970310E+04  0.7818609E-02  0.8010563E-01
       -2   -1    0    0    0  501  0.00000000000E+00  0.00000000000E+00  0.26046334285E+04  0.26046334285E+04  0.25500000920E-02 0. -1.
        2   -1    0    0  501    0  0.00000000000E+00  0.00000000000E+00 -0.15130115371E+04  0.15130115371E+04  0.25500000920E-02 0.  1.
    10030    2    1    2    0    0  0.00000000000E+00  0.00000000000E+00  0.10916218914E+04  0.41176449657E+04  0.39703100269E+04 0.  0.
        1    1    3    3  502    0  0.12776647512E+04 -0.91720917436E+03  0.18020154213E+04  0.23918527264E+04  0.50400001928E-02 0. -1.
       -1    1    3    3    0  502 -0.12776647512E+04  0.91720917436E+03 -0.71039352989E+03  0.17257922393E+04  0.50400001928E-02 0.  1.
</event>
<event>
 5   0  0.3399500E-08  0.4000320E+04  0.7818609E-02  0.8004482E-01
       -1   -1    0    0    0  501  0.00000000000E+00  0.00000000000E+00  0.18660722725E+04  0.18660722725E+04  0.50400001928E-02 0.  1.
        1   -1    0    0  501    0  0.00000000000E+00  0.00000000000E+00 -0.21438829591E+04  0.21438829591E+04  0.50400001928E-02 0. -1.
    10030    2    1    2    0    0  0.00000000000E+00  0.00000000000E+00 -0.27781068661E+03  0.40099552316E+04  0.40003202599E+04 0.  0.
        2    1    3    3  502    0  0.27912092784E+03  0.91924173688E+03 -0.18974758577E+04  0.21268118144E+04  0.25500000920E-02 0. -1.
       -2    1    3    3    0  502 -0.27912092784E+03 -0.91924173688E+03  0.16196651711E+04  0.18831434172E+04  0.25500000920E-02 0.  1.
</event>
<event>
 5   0  0.3399500E-08  0.4066384E+04  0.7818609E-02  0.7991287E-01
        1   -1    0    0  501    0  0.00000000000E+00  0.00000000000E+00  0.15351782907E+04  0.15351782907E+04  0.50400001928E-02 0.  1.
       -1   -1    0    0    0  501  0.00000000000E+00  0.00000000000E+00 -0.26927618042E+04  0.26927618042E+04  0.50400001928E-02 0. -1.
    10030    2    1    2    0    0  0.00000000000E+00  0.00000000000E+00 -0.11575835134E+04  0.42279400949E+04  0.40663838795E+04 0.  0.
        3    1    3    3  502    0  0.17182857649E+04 -0.54708789889E+03  0.39770116447E+03  0.18466124025E+04  0.10100000352E+00 0.  1.
       -3    1    3    3    0  502 -0.17182857649E+04  0.54708789889E+03 -0.15552846779E+04  0.23813276923E+04  0.10100000352E+00 0. -1.
</event>
<event>
 5   0  0.3399500E-08  0.4087125E+04  0.7818609E-02  0.7987198E-01
        3   -1    0    0  501    0  0.00000000000E+00  0.00000000000E+00  0.17642433828E+04  0.17642433857E+04  0.10100000352E+00 0.  1.
       -3   -1    0    0    0  501  0.00000000000E+00  0.00000000000E+00 -0.23671044058E+04  0.23671044080E+04  0.10100000352E+00 0. -1.
    10030    2    1    2    0    0  0.00000000000E+00  0.00000000000E+00 -0.60286102300E+03  0.41313477937E+04  0.40871252953E+04 0.  0.
        1    1    3    3  502    0  0.12645025892E+04  0.16024305527E+04 -0.39942177993E+03  0.20799731327E+04  0.50400001928E-02 0. -1.
       -1    1    3    3    0  502 -0.12645025892E+04 -0.16024305527E+04 -0.20343924307E+03  0.20513746610E+04  0.50400001928E-02 0.  1.
</event>
<event>
 5   0  0.1087688E-07  0.3998807E+04  0.7818609E-02  0.8004787E-01
        2   -1    0    0  501    0  0.00000000000E+00  0.00000000000E+00  0.17504979021E+04  0.17504979021E+04  0.25500000920E-02 0.  1.
       -2   -1    0    0    0  501  0.00000000000E+00  0.00000000000E+00 -0.22837017923E+04  0.22837017923E+04  0.25500000920E-02 0. -1.
    10030    2    1    2    0    0  0.00000000000E+00  0.00000000000E+00 -0.53320389012E+03  0.40341996944E+04  0.39988074205E+04 0.  0.
        2    1    3    3  502    0 -0.99288752770E+03 -0.12856667545E+04 -0.14426166443E+04  0.21725347934E+04  0.25500000920E-02 0. -1.
       -2    1    3    3    0  502  0.99288752770E+03  0.12856667545E+04  0.90941275414E+03  0.18616649010E+04  0.25500000920E-02 0.  1.
</event>
<event>
 5   0  0.1073271E-07  0.3536667E+04  0.7818609E-02  0.8105155E-01
       -2   -1    0    0    0  501  0.00000000000E+00  0.00000000000E+00  0.19788658114E+04  0.19788658114E+04  0.25500000920E-02 0. -1.
        2   -1    0    0  501    0  0.00000000000E+00  0.00000000000E+00 -0.15801995564E+04  0.15801995564E+04  0.25500000920E-02 0.  1.
    10030    2    1    2    0    0  0.00000000000E+00  0.00000000000E+00  0.39866625494E+03  0.35590653678E+04  0.35366667230E+04 0.  0.
        1    1    3    3  502    0 -0.33972691231E+03  0.10061960450E+03 -0.15441125180E+04  0.15842418212E+04  0.50400001928E-02 0.  1.
       -1    1    3    3    0  502  0.33972691231E+03 -0.10061960450E+03  0.19427787729E+04  0.19748235466E+04  0.50400001928E-02 0. -1.
</event>
<event>
 5   0  0.1095903E-07  0.3979974E+04  0.7818609E-02  0.8008599E-01
        2   -1    0    0  501    0  0.00000000000E+00  0.00000000000E+00  0.17535335005E+04  0.17535335005E+04  0.25500000920E-02 0.  1.
       -2   -1    0    0    0  501  0.00000000000E+00  0.00000000000E+00 -0.22583243459E+04  0.22583243459E+04  0.25500000920E-02 0. -1.
    10030    2    1    2    0    0  0.00000000000E+00  0.00000000000E+00 -0.50479084538E+03  0.40118578465E+04  0.39799735656E+04 0.  0.
        3    1    3    3  502    0  0.93540813284E+02  0.13391436820E+04 -0.17331743779E+04  0.21922475041E+04  0.10100000352E+00 0. -1.
       -3    1    3    3    0  502 -0.93540813284E+02 -0.13391436820E+04  0.12283835325E+04  0.18196103424E+04  0.10100000352E+00 0.  1.
</event>
<event>
 5   0  0.3399500E-08  0.4004646E+04  0.7818609E-02  0.8003610E-01
       -1   -1    0    0    0  501  0.00000000000E+00  0.00000000000E+00  0.18052458533E+04  0.18052458533E+04  0.50400001928E-02 0.  1.
        1   -1    0    0  501    0  0.00000000000E+00  0.00000000000E+00 -0.22209153868E+04  0.22209153868E+04  0.50400001928E-02 0. -1.
    10030    2    1    2    0    0  0.00000000000E+00  0.00000000000E+00 -0.41566953353E+03  0.40261612402E+04  0.40046464476E+04 0.  0.
        2    1    3    3  502    0 -0.36629136900E+03 -0.21922045567E+03 -0.21746350451E+04  0.22161373050E+04  0.25500000920E-02 0. -1.
       -2    1    3    3    0  502  0.36629136900E+03  0.21922045567E+03  0.17589655115E+04  0.18100239352E+04  0.25500000920E-02 0.  1.
</event>
<event>
 5   0  0.1095109E-07  0.4005815E+04  0.7818609E-02  0.8003375E-01
       -2   -1    0    0    0  501  0.00000000000E+00  0.00000000000E+00  0.31066643237E+04  0.31066643237E+04  0.25500000920E-02 0.  1.
        2   -1    0    0  501    0  0.00000000000E+00  0.00000000000E+00 -0.12913009266E+04  0.12913009266E+04  0.25500000920E-02 0. -1.
    10030    2    1    2    0    0  0.00000000000E+00  0.00000000000E+00  0.18153633970E+04  0.43979652503E+04  0.40058150331E+04 0.  0.
        4    1    3    3  502    0  0.58193357415E+03  0.19133171318E+04  0.78637656761E+03  0.21489110848E+04  0.12699999809E+01 0. -1.
       -4    1    3    3    0  502 -0.58193357415E+03 -0.19133171318E+04  0.10289868294E+04  0.22490541655E+04  0.12699999809E+01 0.  1.
</event>
<event>
 5   0  0.1073271E-07  0.4026166E+04  0.7818609E-02  0.7999289E-01
        2   -1    0    0  501    0  0.00000000000E+00  0.00000000000E+00  0.16741401494E+04  0.16741401494E+04  0.25500000920E-02 0.  1.
       -2   -1    0    0    0  501  0.00000000000E+00  0.00000000000E+00 -0.24206477398E+04  0.24206477398E+04  0.25500000920E-02 0. -1.
    10030    2    1    2    0    0  0.00000000000E+00  0.00000000000E+00 -0.74650759037E+03  0.40947878892E+04  0.40261662006E+04 0.  0.
        1    1    3    3  502    0 -0.52102026170E+03  0.65458593542E+03 -0.22354605918E+04  0.23868868673E+04  0.50400001928E-02 0. -1.
       -1    1    3    3    0  502  0.52102026170E+03 -0.65458593542E+03  0.14889530014E+04  0.17079010219E+04  0.50400001928E-02 0.  1.
</event>
<event>
 5   0  0.3399500E-08  0.3939356E+04  0.7818609E-02  0.8016893E-01
        1   -1    0    0  501    0  0.00000000000E+00  0.00000000000E+00  0.13928925350E+04  0.13928925350E+04  0.50400001928E-02 0. -1.
       -1   -1    0    0    0  501  0.00000000000E+00  0.00000000000E+00 -0.27853054670E+04  0.27853054670E+04  0.50400001928E-02 0.  1.
    10030    2    1    2    0    0  0.00000000000E+00  0.00000000000E+00 -0.13924129320E+04  0.41781980020E+04  0.39393558827E+04 0.  0.
        1    1    3    3  502    0 -0.91089096444E+03  0.16807430727E+04 -0.11993202574E+04  0.22567650975E+04  0.50400001928E-02 0. -1.
       -1    1    3    3    0  502  0.91089096444E+03 -0.16807430727E+04 -0.19309267459E+03  0.19214329045E+04  0.50400001928E-02 0.  1.
</event>
<event>
 5   0  0.3399500E-08  0.3910265E+04  0.7818609E-02  0.8022898E-01
       -1   -1    0    0    0  501  0.00000000000E+00  0.00000000000E+00  0.28238352642E+04  0.28238352642E+04  0.50400001928E-02 0.  1.
        1   -1    0    0  501    0  0.00000000000E+00  0.00000000000E+00 -0.13536705367E+04  0.13536705367E+04  0.50400001928E-02 0. -1.
    10030    2    1    2    0    0  0.00000000000E+00  0.00000000000E+00  0.14701647275E+04  0.41775058009E+04  0.39102647469E+04 0.  0.
        5    1    3    3  502    0  0.17347652202E+04 -0.42410560498E+03 -0.11506974776E+03  0.17895639330E+04  0.46999998093E+01 0. -1.
       -5    1    3    3    0  502 -0.17347652202E+04  0.42410560498E+03  0.15852344752E+04  0.23879418680E+04  0.46999998093E+01 0.  1.
</event>
<event>
 5   0  0.1101474E-07  0.4005306E+04  0.7818609E-02  0.8003477E-01
       -2   -1    0    0    0  501  0.00000000000E+00  0.00000000000E+00  0.21660879976E+04  0.21660879976E+04  0.25500000920E-02 0. -1.
        2   -1    0    0  501    0  0.00000000000E+00  0.00000000000E+00 -0.18515498515E+04  0.18515498515E+04  0.25500000920E-02 0.  1.
    10030    2    1    2    0    0  0.00000000000E+00  0.00000000000E+00  0.31453814612E+03  0.40176378491E+04  0.40053064354E+04 0.  0.
        5    1    3    3  502    0 -0.58532804022E+03  0.18653929179E+04  0.59253842119E+03  0.20428958670E+04  0.46999998093E+01 0. -1.
       -5    1    3    3    0  502  0.58532804022E+03 -0.18653929179E+04 -0.27800027507E+03  0.19747419821E+04  0.46999998093E+01 0.  1.
</event>
<event>
 5   0  0.1101474E-07  0.3891137E+04  0.7818609E-02  0.8026875E-01
       -2   -1    0    0    0  501  0.00000000000E+00  0.00000000000E+00  0.16925030324E+04  0.16925030324E+04  0.25500000920E-02 0.  1.
        2   -1    0    0  501    0  0.00000000000E+00  0.00000000000E+00 -0.22364724915E+04  0.22364724915E+04  0.25500000920E-02 0. -1.
    10030    2    1    2    0    0  0.00000000000E+00  0.00000000000E+00 -0.54396945909E+03  0.39289755239E+04  0.38911368384E+04 0.  0.
        5    1    3    3  502    0 -0.75560884398E+03  0.28331717768E+03 -0.20595108116E+04  0.22119720209E+04  0.46999998093E+01 0. -1.
       -5    1    3    3    0  502  0.75560884398E+03 -0.28331717768E+03  0.15155413525E+04  0.17170035030E+04  0.46999998093E+01 0.  1.
</event>
<event>
 5   0  0.1101474E-07  0.3988316E+04  0.7818609E-02  0.8006908E-01
       -2   -1    0    0    0  501  0.00000000000E+00  0.00000000000E+00  0.14776539057E+04  0.14776539057E+04  0.25500000920E-02 0. -1.
        2   -1    0    0  501    0  0.00000000000E+00  0.00000000000E+00 -0.26912024851E+04  0.26912024851E+04  0.25500000920E-02 0.  1.
    10030    2    1    2    0    0  0.00000000000E+00  0.00000000000E+00 -0.12135485794E+04  0.41688563908E+04  0.39883158667E+04 0.  0.
        5    1    3    3  502    0  0.11227258252E+04 -0.11080677352E+04  0.66841606911E+03  0.17132219692E+04  0.46999998093E+01 0. -1.
       -5    1    3    3    0  502 -0.11227258252E+04  0.11080677352E+04 -0.18819646485E+04  0.24556344216E+04  0.46999998093E+01 0.  1.
</event>
<event>
 5   0  0.1095109E-07  0.3990472E+04  0.7818609E-02  0.8006471E-01
       -2   -1    0    0    0  501  0.00000000000E+00  0.00000000000E+00  0.29809030047E+04  0.29809030047E+04  0.25500000920E-02 0.  1.
        2   -1    0    0  501    0  0.00000000000E+00  0.00000000000E+00 -0.13354903641E+04  0.13354903641E+04  0.25500000920E-02 0. -1.
    10030    2    1    2    0    0  0.00000000000E+00  0.00000000000E+00  0.16454126406E+04  0.43163933688E+04  0.39904722724E+04 0.  0.
        4    1    3    3  502    0 -0.98106238708E+03  0.44256371951E+03  0.26399906996E+04  0.28509469585E+04  0.12699999809E+01 0.  1.
       -4    1    3    3    0  502  0.98106238708E+03 -0.44256371951E+03 -0.99457805902E+03  0.14654464103E+04  0.12699999809E+01 0. -1.
</event>
<event>
 5   0  0.1095109E-07  0.4111391E+04  0.7818609E-02  0.7982445E-01
       -2   -1    0    0    0  501  0.00000000000E+00  0.00000000000E+00  0.31615464572E+04  0.31615464572E+04  0.25500000920E-02 0. -1.
        2   -1    0    0  501    0  0.00000000000E+00  0.00000000000E+00 -0.13366507185E+04  0.13366507186E+04  0.25500000920E-02 0.  1.
    10030    2    1    2    0    0  0.00000000000E+00  0.00000000000E+00  0.18248957386E+04  0.44981971757E+04  0.41113906862E+04 0.  0.
        4    1    3    3  502    0  0.19970230494E+03 -0.93323294410E+03 -0.10795852308E+04  0.14409408808E+04  0.12699999809E+01 0.  1.
       -4    1    3    3    0  502 -0.19970230494E+03  0.93323294410E+03  0.29044809694E+04  0.30572562950E+04  0.12699999809E+01 0. -1.
</event>
<event>
 5   0  0.3399500E-08  0.3993311E+04  0.7818609E-02  0.8005897E-01
        1   -1    0    0  501    0  0.00000000000E+00  0.00000000000E+00  0.19463880060E+04  0.19463880060E+04  0.50400001928E-02 0. -1.
       -1   -1    0    0    0  501  0.00000000000E+00  0.00000000000E+00 -0.20482209292E+04  0.20482209292E+04  0.50400001928E-02 0.  1.
    10030    2    1    2    0    0  0.00000000000E+00  0.00000000000E+00 -0.10183292317E+03  0.39946089352E+04  0.39933107318E+04 0.  0.
        5    1    3    3  502    0  0.12784744141E+04 -0.11305136544E+04 -0.10876184731E+04  0.20237326857E+04  0.46999998093E+01 0.  1.
       -5    1    3    3    0  502 -0.12784744141E+04  0.11305136544E+04  0.98578554991E+03  0.19708762495E+04  0.46999998093E+01 0. -1.
</event>
<event>
 5   0  0.1095903E-07  0.4021873E+04  0.7818609E-02  0.8000149E-01
       -2   -1    0    0    0  501  0.00000000000E+00  0.00000000000E+00  0.17701550811E+04  0.17701550811E+04  0.25500000920E-02 0.  1.
        2   -1    0    0  501    0  0.00000000000E+00  0.00000000000E+00 -0.22844693624E+04  0.22844693624E+04  0.25500000920E-02 0. -1.
    10030    2    1    2    0    0  0.00000000000E+00  0.00000000000E+00 -0.51431428132E+03  0.40546244436E+04  0.40218727228E+04 0.  0.
        3    1    3    3  502    0 -0.27306521469E+03  0.18773090749E+04  0.41536674943E+03  0.19420050260E+04  0.10100000352E+00 0. -1.
       -3    1    3    3    0  502  0.27306521469E+03 -0.18773090749E+04 -0.92968103075E+03  0.21126194176E+04  0.10100000352E+00 0.  1.
</event>
<event>
 5   0  0.1087688E-07  0.4006598E+04  0.7818609E-02  0.8003217E-01
       -2   -1    0    0    0  501  0.00000000000E+00  0.00000000000E+00  0.26991715327E+04  0.26991715327E+04  0.25500000920E-02 0. -1.
        2   -1    0    0  501    0  0.00000000000E+00  0.00000000000E+00 -0.14868288282E+04  0.14868288282E+04  0.25500000920E-02 0.  1.
    10030    2    1    2    0    0  0.00000000000E+00  0.00000000000E+00  0.12123427045E+04  0.41860003609E+04  0.40065975825E+04 0.  0.
        2    1    3    3  502    0  0.12106250412E+04  0.79717665853E+03  0.20508761455E+04  0.25114132634E+04  0.25500000920E-02 0. -1.
       -2    1    3    3    0  502 -0.12106250412E+04 -0.79717665853E+03 -0.83853344100E+03  0.16745870975E+04  0.25500000920E-02 0.  1.
</event>
<event>
 5   0  0.3399500E-08  0.3972796E+04  0.7818609E-02  0.8010057E-01
        1   -1    0    0  501    0  0.00000000000E+00  0.00000000000E+00  0.30934267638E+04  0.30934267638E+04  0.50400001928E-02 0.  1.
       -1   -1    0    0    0  501  0.00000000000E+00  0.00000000000E+00 -0.12755360643E+04  0.12755360643E+04  0.50400001928E-02 0. -1.
    10030    2    1    2    0    0  0.00000000000E+00  0.00000000000E+00  0.18178906995E+04  0.43689628282E+04  0.39727961940E+04 0.  0.
        3    1    3    3  502    0 -0.68573309967E+03 -0.46514563566E+03  0.28942936396E+04  0.30105690539E+04  0.10100000352E+00 0.  1.
       -3    1    3    3    0  502  0.68573309967E+03  0.46514563566E+03 -0.10764029401E+04  0.13583937743E+04  0.10100000352E+00 0. -1.
</event>
<event>
 5   0  0.1101474E-07  0.3987828E+04  0.7818609E-02  0.8007006E-01
        2   -1    0    0  501    0  0.00000000000E+00  0.00000000000E+00  0.28499248574E+04  0.28499248574E+04  0.25500000920E-02 0. -1.
       -2   -1    0    0    0  501  0.00000000000E+00  0.00000000000E+00 -0.13950170516E+04  0.13950170516E+04  0.25500000920E-02 0.  1.
    10030    2    1    2    0    0  0.00000000000E+00  0.00000000000E+00  0.14549078058E+04  0.42449419091E+04  0.39878283674E+04 0.  0.
        5    1    3    3  502    0 -0.75853776244E+03 -0.12042771699E+04  0.22139150466E+04  0.26319393919E+04  0.46999998093E+01 0. -1.
       -5    1    3    3    0  502  0.75853776244E+03  0.12042771699E+04 -0.75900724079E+03  0.16130025172E+04  0.46999998093E+01 0.  1.
</event>
<event>
 5   0  0.1087688E-07  0.3993291E+04  0.7818609E-02  0.8005901E-01
        2   -1    0    0  501    0  0.00000000000E+00  0.00000000000E+00  0.27356880835E+04  0.27356880835E+04  0.25500000920E-02 0. -1.
       -2   -1    0    0    0  501  0.00000000000E+00  0.00000000000E+00 -0.14572543814E+04  0.14572543814E+04  0.25500000920E-02 0.  1.
    10030    2    1    2    0    0  0.00000000000E+00  0.00000000000E+00  0.12784337021E+04  0.41929424650E+04  0.39932910968E+04 0.  0.
        2    1    3    3  502    0  0.25530913262E+03 -0.19780728649E+04  0.54162682403E+03  0.20667159042E+04  0.25500000920E-02 0. -1.
       -2    1    3    3    0  502 -0.25530913262E+03  0.19780728649E+04  0.73680687807E+03  0.21262265608E+04  0.25500000920E-02 0.  1.
</event>
<event>
 5   0  0.3399500E-08  0.3989858E+04  0.7818609E-02  0.8006596E-01
       -1   -1    0    0    0  501  0.00000000000E+00  0.00000000000E+00  0.25150634560E+04  0.25150634560E+04  0.50400001928E-02 0. -1.
        1   -1    0    0  501    0  0.00000000000E+00  0.00000000000E+00 -0.15823626952E+04  0.15823626952E+04  0.50400001928E-02 0.  1.
    10030    2    1    2    0    0  0.00000000000E+00  0.00000000000E+00  0.93270076083E+03  0.40974261512E+04  0.39898584380E+04 0.  0.
        1    1    3    3  502    0  0.48809906526E+03  0.71324281353E+03 -0.13801192339E+04  0.16283995542E+04  0.50400001928E-02 0.  1.
       -1    1    3    3    0  502 -0.48809906526E+03 -0.71324281353E+03  0.23128199947E+04  0.24690265969E+04  0.50400001928E-02 0. -1.
</event>
<event>
 5   0  0.1101474E-07  0.3955736E+04  0.7818609E-02  0.8013536E-01
       -2   -1    0    0    0  501  0.00000000000E+00  0.00000000000E+00  0.23672099771E+04  0.23672099771E+04  0.25500000920E-02 0.  1.
        2   -1    0    0  501    0  0.00000000000E+00  0.00000000000E+00 -0.16525621901E+04  0.16525621901E+04  0.25500000920E-02 0. -1.
    10030    2    1    2    0    0  0.00000000000E+00  0.00000000000E+00  0.71464778703E+03  0.40197721672E+04  0.39557359386E+04 0.  0.
        5    1    3    3  502    0 -0.86906361399E+03 -0.14444661409E+04  0.14085683066E+04  0.21967796343E+04  0.46999998093E+01 0.  1.
       -5    1    3    3    0  502  0.86906361399E+03  0.14444661409E+04 -0.69392051957E+03  0.18229925328E+04  0.46999998093E+01 0. -1.
</event>
<event>
 5   0  0.1101474E-07  0.3990060E+04  0.7818609E-02  0.8006555E-01
       -2   -1    0    0    0  501  0.00000000000E+00  0.00000000000E+00  0.29430096810E+04  0.29430096810E+04  0.25500000920E-02 0. -1.
        2   -1    0    0  501    0  0.00000000000E+00  0.00000000000E+00 -0.13524064916E+04  0.13524064916E+04  0.25500000920E-02 0.  1.
    10030    2    1    2    0    0  0.00000000000E+00  0.00000000000E+00  0.15906031893E+04  0.42954161726E+04  0.39900603492E+04 0.  0.
        5    1    3    3  502    0 -0.56922302625E+03 -0.17847333269E+04  0.56614791551E+02  0.18741705435E+04  0.46999998093E+01 0.  1.
       -5    1    3    3    0  502  0.56922302625E+03  0.17847333269E+04  0.15339883978E+04  0.24212456291E+04  0.46999998093E+01 0. -1.
</event>
<event>
 5   0  0.1095903E-07  0.4009800E+04  0.7818609E-02  0.8002573E-01
       -2   -1    0    0    0  501  0.00000000000E+00  0.00000000000E+00  0.15854620796E+04  0.15854620796E+04  0.25500000920E-02 0.  1.
        2   -1    0    0  501    0  0.00000000000E+00  0.00000000000E+00 -0.25353009355E+04  0.25353009355E+04  0.25500000920E-02 0. -1.
    10030    2    1    2    0    0  0.00000000000E+00  0.00000000000E+00 -0.94983885591E+03  0.41207630150E+04  0.40097997424E+04 0.  0.
        3    1    3    3  502    0  0.14615023281E+04  0.48018819175E+03  0.84637146053E+03  0.17558230019E+04  0.10100000352E+00 0.  1.
       -3    1    3    3    0  502 -0.14615023281E+04 -0.48018819175E+03 -0.17962103164E+04  0.23649400131E+04  0.10100000352E+00 0. -1.
</event>
<event>
 5   0  0.3399500E-08  0.4027945E+04  0.7818609E-02  0.7998933E-01
       -1   -1    0    0    0  501  0.00000000000E+00  0.00000000000E+00  0.23184155682E+04  0.23184155682E+04  0.50400001928E-02 0.  1.
        1   -1    0    0  501    0  0.00000000000E+00  0.00000000000E+00 -0.17495069936E+04  0.17495069936E+04  0.50400001928E-02 0. -1.
    10030    2    1    2    0    0  0.00000000000E+00  0.00000000000E+00  0.56890857466E+03  0.40679225618E+04  0.40279445133E+04 0.  0.
        2    1    3    3  502    0  0.24708421805E+03  0.12725874486E+04 -0.12721267183E+04  0.18162697522E+04  0.25500000920E-02 0. -1.
       -2    1    3    3    0  502 -0.24708421805E+03 -0.12725874486E+04  0.18410352930E+04  0.22516528096E+04  0.25500000920E-02 0.  1.
</event>
<event>
 5   0  0.3399500E-08  0.4008715E+04  0.7818609E-02  0.8002791E-01
        1   -1    0    0  501    0  0.00000000000E+00  0.00000000000E+00  0.18062345044E+04  0.18062345044E+04  0.50400001928E-02 0.  1.
       -1   -1    0    0    0  501  0.00000000000E+00  0.00000000000E+00 -0.22242121769E+04  0.22242121769E+04  0.50400001928E-02 0. -1.
    10030    2    1    2    0    0  0.00000000000E+00  0.00000000000E+00 -0.41797767250E+03  0.40304466813E+04  0.40087148958E+04 0.  0.
        5    1    3    3  502    0 -0.14318062781E+04 -0.13871957777E+04 -0.41758730118E+03  0.20368560548E+04  0.46999998093E+01 0. -1.
       -5    1    3    3    0  502  0.14318062781E+04  0.13871957777E+04 -0.39037132098E+00  0.19935906265E+04  0.46999998093E+01 0.  1.
</event>
<event>
 5   0  0.1087688E-07  0.3987372E+04  0.7818609E-02  0.8007099E-01
        2   -1    0    0  501    0  0.00000000000E+00  0.00000000000E+00  0.18832347251E+04  0.18832347251E+04  0.25500000920E-02 0.  1.
       -2   -1    0    0    0  501  0.00000000000E+00  0.00000000000E+00 -0.21106153188E+04  0.21106153188E+04  0.25500000920E-02 0. -1.
    10030    2    1    2    0    0  0.00000000000E+00  0.00000000000E+00 -0.22738059378E+03  0.39938500439E+04  0.39873720969E+04 0.  0.
        2    1    3    3  502    0  0.13525121454E+04  0.14151475912E+03  0.13465768971E+04  0.19137880944E+04  0.25500000920E-02 0.  1.
       -2    1    3    3    0  502 -0.13525121454E+04 -0.14151475912E+03 -0.15739574909E+04  0.20800619495E+04  0.25500000920E-02 0. -1.
</event>
<event>
 5   0  0.1073271E-07  0.3834545E+04  0.7818609E-02  0.8038782E-01
       -2   -1    0    0    0  501  0.00000000000E+00  0.00000000000E+00  0.18820563405E+04  0.18820563405E+04  0.25500000920E-02 0. -1.
        2   -1    0    0  501    0  0.00000000000E+00  0.00000000000E+00 -0.19531471144E+04  0.19531471144E+04  0.25500000920E-02 0.  1.
    10030    2    1    2    0    0  0.00000000000E+00  0.00000000000E+00 -0.71090773945E+02  0.38352034549E+04  0.38345445157E+04 0.  0.
        1    1    3    3  502    0 -0.14327418157E+04  0.57273914696E+03 -0.11737891368E+04  0.19387006418E+04  0.50400001928E-02 0.  1.
       -1    1    3    3    0  502  0.14327418157E+04 -0.57273914696E+03  0.11026983628E+04  0.18965028131E+04  0.50400001928E-02 0. -1.
</event>
<event>
 5   0  0.3399500E-08  0.3996743E+04  0.7818609E-02  0.8005204E-01
       -1   -1    0    0    0  501  0.00000000000E+00  0.00000000000E+00  0.27197224558E+04  0.27197224558E+04  0.50400001928E-02 0.  1.
        1   -1    0    0  501    0  0.00000000000E+00  0.00000000000E+00 -0.14683442281E+04  0.14683442282E+04  0.50400001928E-02 0. -1.
    10030    2    1    2    0    0  0.00000000000E+00  0.00000000000E+00  0.12513782276E+04  0.41880666839E+04  0.39967430591E+04 0.  0.
        4    1    3    3  502    0 -0.10982202636E+04  0.11197458342E+04  0.19233433038E+04  0.24817674262E+04  0.12699999809E+01 0.  1.
       -4    1    3    3    0  502  0.10982202636E+04 -0.11197458342E+04 -0.67196507618E+03  0.17062992577E+04  0.12699999809E+01 0. -1.
</event>
<event>
 5   0  0.3399500E-08  0.3950695E+04  0.7818609E-02  0.8014567E-01
       -1   -1    0    0    0  501  0.00000000000E+00  0.00000000000E+00  0.11481016151E+04  0.11481016151E+04  0.50400001928E-02 0. -1.
        1   -1    0    0  501    0  0.00000000000E+00  0.00000000000E+00 -0.33986516760E+04  0.33986516760E+04  0.50400001928E-02 0.  1.
    10030    2    1    2    0    0  0.00000000000E+00  0.00000000000E+00 -0.22505500609E+04  0.45467532911E+04  0.39506948646E+04 0.  0.
        3    1    3    3  502    0  0.76569937493E+03 -0.16937360114E+04 -0.18946930568E+04  0.26542228616E+04  0.10100000352E+00 0.  1.
       -3    1    3    3    0  502 -0.76569937493E+03  0.16937360114E+04 -0.35585700401E+03  0.18925304295E+04  0.10100000352E+00 0. -1.
</event>
<event>
 5   0  0.1087688E-07  0.3631617E+04  0.7818609E-02  0.8083288E-01
       -2   -1    0    0    0  501  0.00000000000E+00  0.00000000000E+00  0.19131847240E+04  0.19131847240E+04  0.25500000920E-02 0.  1.
        2   -1    0    0  501    0  0.00000000000E+00  0.00000000000E+00 -0.17233884295E+04  0.17233884295E+04  0.25500000920E-02 0. -1.
    10030    2    1    2    0    0  0.00000000000E+00  0.00000000000E+00  0.18979629446E+03  0.36365731535E+04  0.36316169495E+04 0.  0.
        2    1    3    3  502    0  0.17169101115E+04  0.58900870216E+03  0.14445138552E+03  0.18208728085E+04  0.25500000920E-02 0. -1.
       -2    1    3    3    0  502 -0.17169101115E+04 -0.58900870216E+03  0.45344908942E+02  0.18157003450E+04  0.25500000920E-02 0.  1.
</event>
<event>
 5   0  0.3399500E-08  0.4016167E+04  0.7818609E-02  0.8001293E-01
        1   -1    0    0  501    0  0.00000000000E+00  0.00000000000E+00  0.13598925035E+04  0.13598925036E+04  0.50400001928E-02 0. -1.
       -1   -1    0    0    0  501  0.00000000000E+00  0.00000000000E+00 -0.29652335040E+04  0.29652335040E+04  0.50400001928E-02 0.  1.
    10030    2    1    2    0    0  0.00000000000E+00  0.00000000000E+00 -0.16053410004E+04  0.43251260075E+04  0.40161667363E+04 0.  0.
        3    1    3    3  502    0 -0.95054389282E+03 -0.23503114014E+03  0.10853752049E+04  0.14617840725E+04  0.10100000352E+00 0. -1.
       -3    1    3    3    0  502  0.95054389282E+03  0.23503114014E+03 -0.26907162054E+04  0.28633419350E+04  0.10100000352E+00 0.  1.
</event>
<event>
 5   0  0.3399500E-08  0.4005054E+04  0.7818609E-02  0.8003528E-01
        1   -1    0    0  501    0  0.00000000000E+00  0.00000000000E+00  0.22594886664E+04  0.22594886664E+04  0.50400001928E-02 0. -1.
       -1   -1    0    0    0  501  0.00000000000E+00  0.00000000000E+00 -0.17747883875E+04  0.17747883875E+04  0.50400001928E-02 0.  1.
    10030    2    1    2    0    0  0.00000000000E+00  0.00000000000E+00  0.48470027895E+03  0.40342770539E+04  0.40050539306E+04 0.  0.
        1    1    3    3  502    0  0.11906402091E+04 -0.15588378423E+04 -0.16372247756E+03  0.19683507248E+04  0.50400001928E-02 0. -1.
       -1    1    3    3    0  502 -0.11906402091E+04  0.15588378423E+04  0.64842275651E+03  0.20659263291E+04  0.50400001928E-02 0.  1.
</event>
<event>
 5   0  0.3399500E-08  0.3991768E+04  0.7818609E-02  0.8006209E-01
        1   -1    0    0  501    0  0.00000000000E+00  0.00000000000E+00  0.21098705321E+04  0.21098705321E+04  0.50400001928E-02 0. -1.
       -1   -1    0    0    0  501  0.00000000000E+00  0.00000000000E+00 -0.18880560204E+04  0.18880560204E+04  0.50400001928E-02 0.  1.
    10030    2    1    2    0    0  0.00000000000E+00  0.00000000000E+00  0.22181451173E+03  0.39979265525E+04  0.39917684103E+04 0.  0.
        2    1    3    3  502    0  0.18921587813E+04  0.54343906523E+03  0.43999122225E+03  0.20172216405E+04  0.25500000920E-02 0. -1.
       -2    1    3    3    0  502 -0.18921587813E+04 -0.54343906523E+03 -0.21817671052E+03  0.19807049120E+04  0.25500000920E-02 0.  1.
</event>
<event>
 5   0  0.1095109E-07  0.4013430E+04  0.7818609E-02  0.8001843E-01
       -2   -1    0    0    0  501  0.00000000000E+00  0.00000000000E+00  0.14558850449E+04  0.14558850449E+04  0.25500000920E-02 0.  1.
        2   -1    0    0  501    0  0.00000000000E+00  0.00000000000E+00 -0.27659493708E+04  0.27659493708E+04  0.25500000920E-02 0. -1.
    10030    2    1    2    0    0  0.00000000000E+00  0.00000000000E+00 -0.13100643259E+04  0.42218344157E+04  0.40134296176E+04 0.  0.
        4    1    3    3  502    0  0.16650972711E+04  0.10941906226E+04 -0.90639793930E+03  0.21889177412E+04  0.12699999809E+01 0. -1.
       -4    1    3    3    0  502 -0.16650972711E+04 -0.10941906226E+04 -0.40366638657E+03  0.20329166744E+04  0.12699999809E+01 0.  1.
</event>
<event>
 5   0  0.3399500E-08  0.4006189E+04  0.7818609E-02  0.8003299E-01
        4   -1    0    0  501    0  0.00000000000E+00  0.00000000000E+00  0.26370552854E+04  0.26370555912E+04  0.12699999809E+01 0.  1.
       -4   -1    0    0    0  501  0.00000000000E+00  0.00000000000E+00 -0.15215403427E+04  0.15215408727E+04  0.12699999809E+01 0. -1.
    10030    2    1    2    0    0  0.00000000000E+00  0.00000000000E+00  0.11155149427E+04  0.41585964639E+04  0.40061890821E+04 0.  0.
        1    1    3    3  502    0 -0.18842319257E+04  0.62955009214E+03  0.82387831419E+03  0.21506833205E+04  0.50400001928E-02 0.  1.
       -1    1    3    3    0  502  0.18842319257E+04 -0.62955009214E+03  0.29163662850E+03  0.20079131434E+04  0.50400001928E-02 0. -1.
</event>
<event>
 5   0  0.1095109E-07  0.4116843E+04  0.7818609E-02  0.7981382E-01
       -2   -1    0    0    0  501  0.00000000000E+00  0.00000000000E+00  0.29331946408E+04  0.29331946408E+04  0.25500000920E-02 0.  1.
        2   -1    0    0  501    0  0.00000000000E+00  0.00000000000E+00 -0.14445336930E+04  0.14445336930E+04  0.25500000920E-02 0. -1.
    10030    2    1    2    0    0  0.00000000000E+00  0.00000000000E+00  0.14886609478E+04  0.43777283338E+04  0.41168427159E+04 0.  0.
        4    1    3    3  502    0 -0.58199030952E+03  0.15229394802E+04  0.20805598904E+04  0.26432533839E+04  0.12699999809E+01 0.  1.
       -4    1    3    3    0  502  0.58199030952E+03 -0.15229394802E+04 -0.59189894262E+03  0.17344749499E+04  0.12699999809E+01 0. -1.
</event>
<event>
 5   0  0.1073271E-07  0.4000775E+04  0.7818609E-02  0.8004390E-01
        2   -1    0    0  501    0  0.00000000000E+00  0.00000000000E+00  0.26223773786E+04  0.26223773786E+04  0.25500000920E-02 0.  1.
       -2   -1    0    0    0  501  0.00000000000E+00  0.00000000000E+00 -0.15259245219E+04  0.15259245219E+04  0.25500000920E-02 0. -1.
    10030    2    1    2    0    0  0.00000000000E+00  0.00000000000E+00  0.10964528567E+04  0.41483019005E+04  0.40007748988E+04 0.  0.
        1    1    3    3  502    0 -0.28980966896E+03 -0.14106542079E+04 -0.89135550728E+03  0.16936497805E+04  0.50400001928E-02 0. -1.
       -1    1    3    3    0  502  0.28980966896E+03  0.14106542079E+04  0.19878083640E+04  0.24546521201E+04  0.50400001928E-02 0.  1.
</event>
<event>
 5   0  0.1101474E-07  0.4010572E+04  0.7818609E-02  0.8002417E-01
       -2   -1    0    0    0  501  0.00000000000E+00  0.00000000000E+00  0.19233265488E+04  0.19233265488E+04  0.25500000920E-02 0. -1.
        2   -1    0    0  501    0  0.00000000000E+00  0.00000000000E+00 -0.20907383225E+04  0.20907383225E+04  0.25500000920E-02 0.  1.
    10030    2    1    2    0    0  0.00000000000E+00  0.00000000000E+00 -0.16741177370E+03  0.40140648712E+04  0.40105722894E+04 0.  0.
        5    1    3    3  502    0 -0.20429184452E+03 -0.24702694522E+03 -0.20649228236E+04  0.20896616536E+04  0.46999998093E+01 0.  1.
       -5    1    3    3    0  502  0.20429184452E+03  0.24702694522E+03  0.18975110499E+04  0.19244032176E+04  0.46999998093E+01 0. -1.
</event>
<event>
 5   0  0.1095903E-07  0.3917041E+04  0.7818609E-02  0.8021494E-01
       -2   -1    0    0    0  501  0.00000000000E+00  0.00000000000E+00  0.20066781251E+04  0.20066781251E+04  0.25500000920E-02 0.  1.
        2   -1    0    0  501    0  0.00000000000E+00  0.00000000000E+00 -0.19115182222E+04  0.19115182222E+04  0.25500000920E-02 0. -1.
    10030    2    1    2    0    0  0.00000000000E+00  0.00000000000E+00  0.95159902876E+02  0.39181963473E+04  0.39170406188E+04 0.  0.
        3    1    3    3  502    0 -0.16000575952E+04  0.51276346396E+03 -0.95904251722E+03  0.19346506759E+04  0.10100000352E+00 0. -1.
       -3    1    3    3    0  502  0.16000575952E+04 -0.51276346396E+03  0.10542024201E+04  0.19835456714E+04  0.10100000352E+00 0.  1.
</event>
<event>
 5   0  0.1095109E-07  0.3864020E+04  0.7818609E-02  0.8032554E-01
        2   -1    0    0  501    0  0.00000000000E+00  0.00000000000E+00  0.20407925470E+04  0.20407925470E+04  0.25500000920E-02 0. -1.
       -2   -1    0    0    0  501  0.00000000000E+00  0.00000000000E+00 -0.18290262877E+04  0.18290262877E+04  0.25500000920E-02 0.  1.
    10030    2    1    2    0    0  0.00000000000E+00  0.00000000000E+00  0.21176625926E+03  0.38698188347E+04  0.38640202982E+04 0.  0.
        4    1    3    3  502    0 -0.13338779327E+04  0.10533637568E+04 -0.81411177413E+03  0.18845649729E+04  0.12699999809E+01 0.  1.
       -4    1    3    3    0  502  0.13338779327E+04 -0.10533637568E+04  0.10258780334E+04  0.19852538618E+04  0.12699999809E+01 0. -1.
</event>
<event>
 5   0  0.3399500E-08  0.3782810E+04  0.7818609E-02  0.8049854E-01
        1   -1    0    0  501    0  0.00000000000E+00  0.00000000000E+00  0.27156602375E+04  0.27156602375E+04  0.50400001928E-02 0. -1.
       -1   -1    0    0    0  501  0.00000000000E+00  0.00000000000E+00 -0.13173271335E+04  0.13173271335E+04  0.50400001928E-02 0.  1.
    10030    2    1    2    0    0  0.00000000000E+00  0.00000000000E+00  0.13983331040E+04  0.40329873711E+04  0.37828100224E+04 0.  0.
        3    1    3    3  502    0 -0.40003430064E+03 -0.10280384830E+04 -0.93884284419E+03  0.14485566819E+04  0.10100000352E+00 0.  1.
       -3    1    3    3    0  502  0.40003430064E+03  0.10280384830E+04  0.23371759482E+04  0.25844306892E+04  0.10100000352E+00 0. -1.
</event>
<event>
 5   0  0.3399500E-08  0.3989960E+04  0.7818609E-02  0.8006575E-01
       -1   -1    0    0    0  501  0.00000000000E+00  0.00000000000E+00  0.16806742757E+04  0.16806742757E+04  0.50400001928E-02 0.  1.
        1   -1    0    0  501    0  0.00000000000E+00  0.00000000000E+00 -0.23680640538E+04  0.23680640538E+04  0.50400001928E-02 0. -1.
    10030    2    1    2    0    0  0.00000000000E+00  0.00000000000E+00 -0.68738977810E+03  0.40487383295E+04  0.39899595679E+04 0.  0.
        2    1    3    3  502    0  0.48957662260E+03 -0.17505083397E+04  0.49059699002E+03  0.18827241230E+04  0.25500000920E-02 0.  1.
       -2    1    3    3    0  502 -0.48957662260E+03  0.17505083397E+04 -0.11779867681E+04  0.21660142065E+04  0.25500000920E-02 0. -1.
</event>
<event>
 5   0  0.3399500E-08  0.3957374E+04  0.7818609E-02  0.8013201E-01
       -1   -1    0    0    0  501  0.00000000000E+00  0.00000000000E+00  0.27822109569E+04  0.27822109569E+04  0.50400001928E-02 0.  1.
        1   -1    0    0  501    0  0.00000000000E+00  0.00000000000E+00 -0.14072266491E+04  0.14072266491E+04  0.50400001928E-02 0. -1.
    10030    2    1    2    0    0  0.00000000000E+00  0.00000000000E+00  0.13749843078E+04  0.41894376061E+04  0.39573735745E+04 0.  0.
        5    1    3    3  502    0 -0.83217203965E+03  0.10564784454E+03  0.25846486204E+04  0.27173704848E+04  0.46999998093E+01 0.  1.
       -5    1    3    3    0  502  0.83217203965E+03 -0.10564784454E+03 -0.12096643125E+04  0.14720671213E+04  0.46999998093E+01 0. -1.
</event>
<event>
 5   0  0.1095109E-07  0.3992152E+04  0.7818609E-02  0.8006132E-01
        2   -1    0    0  501    0  0.00000000000E+00  0.00000000000E+00  0.24008991922E+04  0.24008991922E+04  0.25500000920E-02 0. -1.
       -2   -1    0    0    0  501  0.00000000000E+00  0.00000000000E+00 -0.16595116671E+04  0.16595116671E+04  0.25500000920E-02 0.  1.
    10030    2    1    2    0    0  0.00000000000E+00  0.00000000000E+00  0.74138752508E+03  0.40604108594E+04  0.39921524125E+04 0.  0.
        4    1    3    3  502    0 -0.14743003734E+04 -0.69659520900E+03  0.15416878998E+04  0.22440164147E+04  0.12699999809E+01 0. -1.
       -4    1    3    3    0  502  0.14743003734E+04  0.69659520900E+03 -0.80030037468E+03  0.18163944447E+04  0.12699999809E+01 0.  1.
</event>
<event>
 5   0  0.3399500E-08  0.4004009E+04  0.7818609E-02  0.8003738E-01
       -1   -1    0    0    0  501  0.00000000000E+00  0.00000000000E+00  0.25301834181E+04  0.25301834181E+04  0.50400001928E-02 0. -1.
        1   -1    0    0  501    0  0.00000000000E+00  0.00000000000E+00 -0.15840833391E+04  0.15840833391E+04  0.50400001928E-02 0.  1.
    10030    2    1    2    0    0  0.00000000000E+00  0.00000000000E+00  0.94610007893E+03  0.41142667572E+04  0.40040086901E+04 0.  0.
        1    1    3    3  502    0 -0.10995806435E+04  0.19304844699E+03 -0.12345407606E+04  0.16644627313E+04  0.50400001928E-02 0.  1.
       -1    1    3    3    0  502  0.10995806435E+04 -0.19304844699E+03  0.21806408395E+04  0.24498040259E+04  0.50400001928E-02 0. -1.
</event>
<event>
 5   0  0.3399500E-08  0.3989879E+04  0.7818609E-02  0.8006591E-01
        1   -1    0    0  501    0  0.00000000000E+00  0.00000000000E+00  0.26494504409E+04  0.26494504410E+04  0.50400001928E-02 0. -1.
       -1   -1    0    0    0  501  0.00000000000E+00  0.00000000000E+00 -0.15021166090E+04  0.15021166090E+04  0.50400001928E-02 0.  1.
    10030    2    1    2    0    0  0.00000000000E+00  0.00000000000E+00  0.11473338320E+04  0.41515670499E+04  0.39898789516E+04 0.  0.
        5    1    3    3  502    0  0.21083156001E+03  0.85431009822E+03  0.24366027892E+04  0.25906275172E+04  0.46999998093E+01 0. -1.
       -5    1    3    3    0  502 -0.21083156001E+03 -0.85431009822E+03 -0.12892689572E+04  0.15609395327E+04  0.46999998093E+01 0.  1.
</event>
<event>
 5   0  0.3399500E-08  0.4024427E+04  0.7818609E-02  0.7999637E-01
       -1   -1    0    0    0  501  0.00000000000E+00  0.00000000000E+00  0.14915991642E+04  0.14915991642E+04  0.50400001928E-02 0. -1.
        1   -1    0    0  501    0  0.00000000000E+00  0.00000000000E+00 -0.27145383997E+04  0.27145383997E+04  0.50400001928E-02 0.  1.
    10030    2    1    2    0    0  0.00000000000E+00  0.00000000000E+00 -0.12229392355E+04  0.42061375640E+04  0.40244270193E+04 0.  0.
        1    1    3    3  502    0 -0.12006051375E+04 -0.71822156988E+03  0.90010633759E+03  0.16635763700E+04  0.50400001928E-02 0. -1.
       -1    1    3    3    0  502  0.12006051375E+04  0.71822156988E+03 -0.21230455731E+04  0.25425611940E+04  0.50400001928E-02 0.  1.
</event>
<event>
 5   0  0.3399500E-08  0.4035164E+04  0.7818609E-02  0.7997490E-01
       -1   -1    0    0    0  501  0.00000000000E+00  0.00000000000E+00  0.19090671708E+04  0.19090671708E+04  0.50400001928E-02 0.  1.
        1   -1    0    0  501    0  0.00000000000E+00  0.00000000000E+00 -0.21322649011E+04  0.21322649011E+04  0.50400001928E-02 0. -1.
    10030    2    1    2    0    0  0.00000000000E+00  0.00000000000E+00 -0.22319773033E+03  0.40413320719E+04  0.40351638986E+04 0.  0.
        2    1    3    3  502    0  0.22983412501E+03 -0.13415593239E+04 -0.16031812300E+04  0.21030442698E+04  0.25500000920E-02 0. -1.
       -2    1    3    3    0  502 -0.22983412501E+03  0.13415593239E+04  0.13799834996E+04  0.19382878021E+04  0.25500000920E-02 0.  1.
</event>
<event>
 5   0  0.1101474E-07  0.4007233E+04  0.7818609E-02  0.8003089E-01
       -2   -1    0    0    0  501  0.00000000000E+00  0.00000000000E+00  0.33076209331E+04  0.33076209331E+04  0.25500000920E-02 0. -1.
        2   -1    0    0  501    0  0.00000000000E+00  0.00000000000E+00 -0.12137056494E+04  0.12137056494E+04  0.25500000920E-02 0.  1.
    10030    2    1    2    0    0  0.00000000000E+00  0.00000000000E+00  0.20939152837E+04  0.45213265825E+04  0.40072325676E+04 0.  0.
        5    1    3    3  502    0 -0.19876447744E+04 -0.16353937065E+03  0.82998730415E+03  0.21601800596E+04  0.46999998093E+01 0. -1.
       -5    1    3    3    0  502  0.19876447744E+04  0.16353937065E+03  0.12639279796E+04  0.23611465229E+04  0.46999998093E+01 0.  1.
</event>
<event>
 5   0  0.1095109E-07  0.4029376E+04  0.7818609E-02  0.7998647E-01
       -2   -1    0    0    0  501  0.00000000000E+00  0.00000000000E+00  0.33451941267E+04  0.33451941267E+04  0.25500000920E-02 0. -1.
        2   -1    0    0  501    0  0.00000000000E+00  0.00000000000E+00 -0.12133728558E+04  0.12133728558E+04  0.25500000920E-02 0.  1.
    10030    2    1    2    0    0  0.00000000000E+00  0.00000000000E+00  0.21318212709E+04  0.45585669825E+04  0.40293760066E+04 0.  0.
        4    1    3    3  502    0  0.15697426660E+04 -0.76475034645E+03 -0.71082644776E+02  0.17475667326E+04  0.12699999809E+01 0.  1.
       -4    1    3    3    0  502 -0.15697426660E+04  0.76475034645E+03  0.22029039157E+04  0.28110002498E+04  0.12699999809E+01 0. -1.
</event>
<event>
 5   0  0.3399500E-08  0.4034250E+04  0.7818609E-02  0.7997673E-01
        1   -1    0    0  501    0  0.00000000000E+00  0.00000000000E+00  0.16775168592E+04  0.16775168592E+04  0.50400001928E-02 0. -1.
       -1   -1    0    0    0  501  0.00000000000E+00  0.00000000000E+00 -0.24254856835E+04  0.24254856835E+04  0.50400001928E-02 0.  1.
    10030    2    1    2    0    0  0.00000000000E+00  0.00000000000E+00 -0.74796882434E+03  0.41030025427E+04  0.40342499307E+04 0.  0.
        5    1    3    3  502    0 -0.56428100368E+01  0.70974247489E+03 -0.22942842543E+04  0.24015679360E+04  0.46999998093E+01 0.  1.
       -5    1    3    3    0  502  0.56428100368E+01 -0.70974247489E+03  0.15463154299E+04  0.17014346067E+04  0.46999998093E+01 0. -1.
</event>
<event>
 5   0  0.3399500E-08  0.3826920E+04  0.7818609E-02  0.8040403E-01
        1   -1    0    0  501    0  0.00000000000E+00  0.00000000000E+00  0.25134650573E+04  0.25134650574E+04  0.50400001928E-02 0. -1.
       -1   -1    0    0    0  501  0.00000000000E+00  0.00000000000E+00 -0.14566856113E+04  0.14566856114E+04  0.50400001928E-02 0.  1.
    10030    2    1    2    0    0  0.00000000000E+00  0.00000000000E+00  0.10567794460E+04  0.39701506687E+04  0.38269195882E+04 0.  0.
        2    1    3    3  502    0 -0.27701223364E+02  0.69075406640E+03  0.23793820205E+04  0.24777746745E+04  0.25500000920E-02 0. -1.
       -2    1    3    3    0  502  0.27701223364E+02 -0.69075406640E+03 -0.13226025745E+04  0.14923759942E+04  0.25500000920E-02 0.  1.
</event>
<event>
 5   0  0.1095109E-07  0.3991967E+04  0.7818609E-02  0.8006169E-01
        2   -1    0    0  501    0  0.00000000000E+00  0.00000000000E+00  0.16307931555E+04  0.16307931555E+04  0.25500000920E-02 0.  1.
       -2   -1    0    0    0  501  0.00000000000E+00  0.00000000000E+00 -0.24429524116E+04  0.24429524116E+04  0.25500000920E-02 0. -1.
    10030    2    1    2    0    0  0.00000000000E+00  0.00000000000E+00 -0.81215925614E+03  0.40737455671E+04  0.39919669698E+04 0.  0.
        4    1    3    3  502    0 -0.13148225310E+04 -0.14900912769E+04 -0.21566081397E+03  0.19989100783E+04  0.12699999809E+01 0.  1.
       -4    1    3    3    0  502  0.13148225310E+04  0.14900912769E+04 -0.59649844217E+03  0.20748354888E+04  0.12699999809E+01 0. -1.
</event>
<event>
 5   0  0.3399500E-08  0.4005227E+04  0.7818609E-02  0.8003493E-01
        1   -1    0    0  501    0  0.00000000000E+00  0.00000000000E+00  0.27140590543E+04  0.27140590543E+04  0.50400001928E-02 0.  1.
       -1   -1    0    0    0  501  0.00000000000E+00  0.00000000000E+00 -0.14776619376E+04  0.14776619376E+04  0.50400001928E-02 0. -1.
    10030    2    1    2    0    0  0.00000000000E+00  0.00000000000E+00  0.12363971167E+04  0.41917209919E+04  0.40052274647E+04 0.  0.
        1    1    3    3  502    0 -0.13514080346E+04  0.97018798557E+03  0.17849601265E+04  0.24400104624E+04  0.50400001928E-02 0.  1.
       -1    1    3    3    0  502  0.13514080346E+04 -0.97018798557E+03 -0.54856300984E+03  0.17517105295E+04  0.50400001928E-02 0. -1.
</event>
<event>
 5   0  0.1073271E-07  0.3994852E+04  0.7818609E-02  0.8005586E-01
        2   -1    0    0  501    0  0.00000000000E+00  0.00000000000E+00  0.21752644092E+04  0.21752644092E+04  0.25500000920E-02 0.  1.
       -2   -1    0    0    0  501  0.00000000000E+00  0.00000000000E+00 -0.18341263482E+04  0.18341263482E+04  0.25500000920E-02 0. -1.
    10030    2    1    2    0    0  0.00000000000E+00  0.00000000000E+00  0.34113806100E+03  0.40093907575E+04  0.39948515704E+04 0.  0.
        1    1    3    3  502    0  0.58478733870E+03  0.13450540411E+04 -0.11903021418E+04  0.18889059780E+04  0.50400001928E-02 0. -1.
       -1    1    3    3    0  502 -0.58478733870E+03 -0.13450540411E+04  0.15314402028E+04  0.21204847794E+04  0.50400001928E-02 0.  1.
</event>
<event>
 5   0  0.3399500E-08  0.4018788E+04  0.7818609E-02  0.8000767E-01
       -1   -1    0    0    0  501  0.00000000000E+00  0.00000000000E+00  0.26985210856E+04  0.26985210856E+04  0.50400001928E-02 0.  1.
        1   -1    0    0  501    0  0.00000000000E+00  0.00000000000E+00 -0.14962504605E+04  0.14962504605E+04  0.50400001928E-02 0. -1.
    10030    2    1    2    0    0  0.00000000000E+00  0.00000000000E+00  0.12022706252E+04  0.41947715461E+04  0.40187875868E+04 0.  0.
        1    1    3    3  502    0  0.12800680125E+03  0.15131268595E+03 -0.14860230924E+04  0.14991817439E+04  0.50400001928E-02 0. -1.
       -1    1    3    3    0  502 -0.12800680125E+03 -0.15131268595E+03  0.26882937175E+04  0.26955898022E+04  0.50400001928E-02 0.  1.
</event>
<event>
 5   0  0.3399500E-08  0.4005333E+04  0.7818609E-02  0.8003472E-01
        1   -1    0    0  501    0  0.00000000000E+00  0.00000000000E+00  0.22285811412E+04  0.22285811412E+04  0.50400001928E-02 0.  1.
       -1   -1    0    0    0  501  0.00000000000E+00  0.00000000000E+00 -0.17996532331E+04  0.17996532331E+04  0.50400001928E-02 0. -1.
    10030    2    1    2    0    0  0.00000000000E+00  0.00000000000E+00  0.42892790806E+03  0.40282343743E+04  0.40053330728E+04 0.  0.
        1    1    3    3  502    0  0.10320146990E+04 -0.17147999394E+04  0.14278171311E+03  0.20064844352E+04  0.50400001928E-02 0. -1.
       -1    1    3    3    0  502 -0.10320146990E+04  0.17147999394E+04  0.28614619494E+03  0.20217499391E+04  0.50400001928E-02 0.  1.
</event>
<event>
 5   0  0.1095903E-07  0.4003854E+04  0.7818609E-02  0.8003770E-01
       -2   -1    0    0    0  501  0.00000000000E+00  0.00000000000E+00  0.13031892528E+04  0.13031892528E+04  0.25500000920E-02 0. -1.
        2   -1    0    0  501    0  0.00000000000E+00  0.00000000000E+00 -0.30753105056E+04  0.30753105056E+04  0.25500000920E-02 0.  1.
    10030    2    1    2    0    0  0.00000000000E+00  0.00000000000E+00 -0.17721212528E+04  0.43784997584E+04  0.40038539433E+04 0.  0.
        3    1    3    3  502    0  0.15021081122E+04  0.87140453224E+03  0.20314788862E+03  0.17484117692E+04  0.10100000352E+00 0. -1.
       -3    1    3    3    0  502 -0.15021081122E+04 -0.87140453224E+03 -0.19752691414E+04  0.26300879892E+04  0.10100000352E+00 0.  1.
</event>
<event>
 5   0  0.1095903E-07  0.4000077E+04  0.7818609E-02  0.8004531E-01
       -2   -1    0    0    0  501  0.00000000000E+00  0.00000000000E+00  0.14886341103E+04  0.14886341103E+04  0.25500000920E-02 0. -1.
        2   -1    0    0  501    0  0.00000000000E+00  0.00000000000E+00 -0.26871298155E+04  0.26871298155E+04  0.25500000920E-02 0.  1.
    10030    2    1    2    0    0  0.00000000000E+00  0.00000000000E+00 -0.11984957052E+04  0.41757639258E+04  0.40000765503E+04 0.  0.
        3    1    3    3  502    0 -0.53920396386E+03 -0.11487087838E+04 -0.22130701472E+04  0.25510688488E+04  0.10100000352E+00 0.  1.
       -3    1    3    3    0  502  0.53920396386E+03  0.11487087838E+04  0.10145744419E+04  0.16246950770E+04  0.10100000352E+00 0. -1.
</event>
<event>
 5   0  0.1095109E-07  0.4050639E+04  0.7818609E-02  0.7994408E-01
        2   -1    0    0  501    0  0.00000000000E+00  0.00000000000E+00  0.19620072403E+04  0.19620072403E+04  0.25500000920E-02 0.  1.
       -2   -1    0    0    0  501  0.00000000000E+00  0.00000000000E+00 -0.20906748640E+04  0.20906748640E+04  0.25500000920E-02 0. -1.
    10030    2    1    2    0    0  0.00000000000E+00  0.00000000000E+00 -0.12866762371E+03  0.40526821043E+04  0.40506390707E+04 0.  0.
        4    1    3    3  502    0 -0.15995350383E+04 -0.12422540338E+04 -0.49828775803E+02  0.20258805352E+04  0.12699999809E+01 0. -1.
       -4    1    3    3    0  502  0.15995350383E+04  0.12422540338E+04 -0.78838847905E+02  0.20268015690E+04  0.12699999809E+01 0.  1.
</event>
<event>
 5   0  0.1095903E-07  0.3993044E+04  0.7818609E-02  0.8005951E-01
       -2   -1    0    0    0  501  0.00000000000E+00  0.00000000000E+00  0.22580621197E+04  0.22580621197E+04  0.25500000920E-02 0.  1.
        2   -1    0    0  501    0  0.00000000000E+00  0.00000000000E+00 -0.17652751032E+04  0.17652751032E+04  0.25500000920E-02 0. -1.
    10030    2    1    2    0    0  0.00000000000E+00  0.00000000000E+00  0.49278701645E+03  0.40233372229E+04  0.39930443731E+04 0.  0.
        3    1    3    3  502    0  0.13127875534E+04 -0.94680750746E+03  0.14241259161E+04  0.21559198157E+04  0.10100000352E+00 0.  1.
       -3    1    3    3    0  502 -0.13127875534E+04  0.94680750746E+03 -0.93133889965E+03  0.18674174072E+04  0.10100000352E+00 0. -1.
</event>
<event>
 5   0  0.1073271E-07  0.3907016E+04  0.7818609E-02  0.8023572E-01
        2   -1    0    0  501    0  0.00000000000E+00  0.00000000000E+00  0.28221739959E+04  0.28221739959E+04  0.25500000920E-02 0.  1.
       -2   -1    0    0    0  501  0.00000000000E+00  0.00000000000E+00 -0.13522174547E+04  0.13522174547E+04  0.25500000920E-02 0. -1.
    10030    2    1    2    0    0  0.00000000000E+00  0.00000000000E+00  0.14699565413E+04  0.41743914506E+04  0.39070157090E+04 0.  0.
        1    1    3    3  502    0  0.73159205870E+03  0.15314772022E+04 -0.29844925624E+03  0.17232879388E+04  0.50400001928E-02 0. -1.
       -1    1    3    3    0  502 -0.73159205870E+03 -0.15314772022E+04  0.17684057975E+04  0.24511035119E+04  0.50400001928E-02 0.  1.
</event>
<event>
 5   0  0.3399500E-08  0.3963563E+04  0.7818609E-02  0.8011938E-01
       -1   -1    0    0    0  501  0.00000000000E+00  0.00000000000E+00  0.26871033299E+04  0.26871033299E+04  0.50400001928E-02 0. -1.
        1   -1    0    0  501    0  0.00000000000E+00  0.00000000000E+00 -0.14615951007E+04  0.14615951008E+04  0.50400001928E-02 0.  1.
    10030    2    1    2    0    0  0.00000000000E+00  0.00000000000E+00  0.12255082291E+04  0.41486984306E+04  0.39635625703E+04 0.  0.
        2    1    3    3  502    0  0.39543535996E+03 -0.18228578474E+04  0.13135628022E+04  0.22813651814E+04  0.25500000920E-02 0. -1.
       -2    1    3    3    0  502 -0.39543535996E+03  0.18228578474E+04 -0.88054573087E+02  0.18673332492E+04  0.25500000920E-02 0.  1.
</event>
<event>
 5   0  0.3399500E-08  0.4010274E+04  0.7818609E-02  0.8002477E-01
        1   -1    0    0  501    0  0.00000000000E+00  0.00000000000E+00  0.23580925715E+04  0.23580925715E+04  0.50400001928E-02 0. -1.
       -1   -1    0    0    0  501  0.00000000000E+00  0.00000000000E+00 -0.17050111628E+04  0.17050111628E+04  0.50400001928E-02 0.  1.
    10030    2    1    2    0    0  0.00000000000E+00  0.00000000000E+00  0.65308140868E+03  0.40631037343E+04  0.40102738845E+04 0.  0.
        4    1    3    3  502    0  0.12725180325E+04  0.15287147844E+04  0.58345866142E+03  0.20728474757E+04  0.12699999809E+01 0. -1.
       -4    1    3    3    0  502 -0.12725180325E+04 -0.15287147844E+04  0.69622747257E+02  0.19902562586E+04  0.12699999809E+01 0.  1.
</event>
<event>
 5   0  0.1101474E-07  0.3985612E+04  0.7818609E-02  0.8007455E-01
        2   -1    0    0  501    0  0.00000000000E+00  0.00000000000E+00  0.22467576014E+04  0.22467576014E+04  0.25500000920E-02 0. -1.
       -2   -1    0    0    0  501  0.00000000000E+00  0.00000000000E+00 -0.17675587068E+04  0.17675587068E+04  0.25500000920E-02 0.  1.
    10030    2    1    2    0    0  0.00000000000E+00  0.00000000000E+00  0.47919889462E+03  0.40143163082E+04  0.39856121038E+04 0.  0.
        5    1    3    3  502    0  0.76931865876E+03  0.54324424016E+03 -0.15292629453E+04  0.17960046629E+04  0.46999998093E+01 0.  1.
       -5    1    3    3    0  502 -0.76931865876E+03 -0.54324424016E+03  0.20084618399E+04  0.22183116453E+04  0.46999998093E+01 0. -1.
</event>
<event>
 5   0  0.3399500E-08  0.3973255E+04  0.7818609E-02  0.8009964E-01
        1   -1    0    0  501    0  0.00000000000E+00  0.00000000000E+00  0.23583452070E+04  0.23583452070E+04  0.50400001928E-02 0.  1.
       -1   -1    0    0    0  501  0.00000000000E+00  0.00000000000E+00 -0.16734989105E+04  0.16734989105E+04  0.50400001928E-02 0. -1.
    10030    2    1    2    0    0  0.00000000000E+00  0.00000000000E+00  0.68484629650E+03  0.40318441176E+04  0.39732546531E+04 0.  0.
        1    1    3    3  502    0  0.92745480524E+03 -0.11469981362E+04  0.16928022217E+04  0.22452965287E+04  0.50400001928E-02 0.  1.
       -1    1    3    3    0  502 -0.92745480524E+03  0.11469981362E+04 -0.10079559251E+04  0.17865475889E+04  0.50400001928E-02 0. -1.
</event>
<event>
 5   0  0.3399500E-08  0.4007871E+04  0.7818609E-02  0.8002961E-01
       -1   -1    0    0    0  501  0.00000000000E+00  0.00000000000E+00  0.17681454206E+04  0.17681454206E+04  0.50400001928E-02 0. -1.
        1   -1    0    0  501    0  0.00000000000E+00  0.00000000000E+00 -0.22711692977E+04  0.22711692977E+04  0.50400001928E-02 0.  1.
    10030    2    1    2    0    0  0.00000000000E+00  0.00000000000E+00 -0.50302387717E+03  0.40393147183E+04  0.40078710524E+04 0.  0.
        4    1    3    3  502    0 -0.14192411208E+04  0.76661585925E+03 -0.14498782479E+04  0.21688922936E+04  0.12699999809E+01 0.  1.
       -4    1    3    3    0  502  0.14192411208E+04 -0.76661585925E+03  0.94685437069E+03  0.18704224247E+04  0.12699999809E+01 0. -1.
</event>
<event>
 5   0  0.3399500E-08  0.3687898E+04  0.7818609E-02  0.8070649E-01
        1   -1    0    0  501    0  0.00000000000E+00  0.00000000000E+00  0.19137051032E+04  0.19137051032E+04  0.50400001928E-02 0.  1.
       -1   -1    0    0    0  501  0.00000000000E+00  0.00000000000E+00 -0.17767351072E+04  0.17767351072E+04  0.50400001928E-02 0. -1.
    10030    2    1    2    0    0  0.00000000000E+00  0.00000000000E+00  0.13696999598E+03  0.36904402104E+04  0.36878975266E+04 0.  0.
        5    1    3    3  502    0 -0.78526350634E+03 -0.16353601451E+04  0.39899043493E+03  0.18574867525E+04  0.46999998093E+01 0.  1.
       -5    1    3    3    0  502  0.78526350634E+03  0.16353601451E+04 -0.26202043895E+03  0.18329534579E+04  0.46999998093E+01 0. -1.
</event>
<event>
 5   0  0.1095109E-07  0.4009790E+04  0.7818609E-02  0.8002574E-01
        2   -1    0    0  501    0  0.00000000000E+00  0.00000000000E+00  0.23597176456E+04  0.23597176456E+04  0.25500000920E-02 0.  1.
       -2   -1    0    0    0  501  0.00000000000E+00  0.00000000000E+00 -0.17034260459E+04  0.17034260459E+04  0.25500000920E-02 0. -1.
    10030    2    1    2    0    0  0.00000000000E+00  0.00000000000E+00  0.65629159972E+03  0.40631436916E+04  0.40097902681E+04 0.  0.
        4    1    3    3  502    0 -0.34305406632E+03 -0.60565482940E+03  0.22333490574E+04  0.23393061984E+04  0.12699999809E+01 0.  1.
       -4    1    3    3    0  502  0.34305406632E+03  0.60565482940E+03 -0.15770574577E+04  0.17238374931E+04  0.12699999809E+01 0. -1.
</event>
<event>
 5   0  0.3399500E-08  0.4037992E+04  0.7818609E-02  0.7996926E-01
        1   -1    0    0  501    0  0.00000000000E+00  0.00000000000E+00  0.21397552218E+04  0.21397552219E+04  0.50400001928E-02 0.  1.
       -1   -1    0    0    0  501  0.00000000000E+00  0.00000000000E+00 -0.19050515144E+04  0.19050515144E+04  0.50400001928E-02 0. -1.
    10030    2    1    2    0    0  0.00000000000E+00  0.00000000000E+00  0.23470370748E+03  0.40448067362E+04  0.40379915432E+04 0.  0.
        1    1    3    3  502    0  0.39788582165E+03  0.16345950566E+04 -0.10008340456E+04  0.19575195817E+04  0.50400001928E-02 0. -1.
       -1    1    3    3    0  502 -0.39788582165E+03 -0.16345950566E+04  0.12355377531E+04  0.20872871545E+04  0.50400001928E-02 0.  1.
</event>
<event>
 5   0  0.1087688E-07  0.4004160E+04  0.7818609E-02  0.8003708E-01
       -2   -1    0    0    0  501  0.00000000000E+00  0.00000000000E+00  0.26030888605E+04  0.26030888605E+04  0.25500000920E-02 0. -1.
        2   -1    0    0  501    0  0.00000000000E+00  0.00000000000E+00 -0.15398335652E+04  0.15398335652E+04  0.25500000920E-02 0.  1.
    10030    2    1    2    0    0  0.00000000000E+00  0.00000000000E+00  0.10632552953E+04  0.41429224257E+04  0.40041596375E+04 0.  0.
        2    1    3    3  502    0  0.73669975633E+03  0.19186313442E+03 -0.13842403505E+04  0.15797655969E+04  0.25500000920E-02 0.  1.
       -2    1    3    3    0  502 -0.73669975633E+03 -0.19186313442E+03  0.24474956457E+04  0.25631568288E+04  0.25500000920E-02 0. -1.
</event>
<event>
 5   0  0.1101474E-07  0.3977656E+04  0.7818609E-02  0.8009069E-01
        2   -1    0    0  501    0  0.00000000000E+00  0.00000000000E+00  0.26071119957E+04  0.26071119957E+04  0.25500000920E-02 0.  1.
       -2   -1    0    0    0  501  0.00000000000E+00  0.00000000000E+00 -0.15171719225E+04  0.15171719225E+04  0.25500000920E-02 0. -1.
    10030    2    1    2    0    0  0.00000000000E+00  0.00000000000E+00  0.10899400733E+04  0.41242839182E+04  0.39776561534E+04 0.  0.
        5    1    3    3  502    0  0.79214757713E+03  0.12361219777E+04  0.19360365047E+04  0.24297643435E+04  0.46999998093E+01 0.  1.
       -5    1    3    3    0  502 -0.79214757713E+03 -0.12361219777E+04 -0.84609643142E+03  0.16945195746E+04  0.46999998093E+01 0. -1.
</event>
<event>
 5   0  0.3399500E-08  0.4013631E+04  0.7818609E-02  0.8001802E-01
        1   -1    0    0  501    0  0.00000000000E+00  0.00000000000E+00  0.15798117971E+04  0.15798117971E+04  0.50400001928E-02 0.  1.
       -1   -1    0    0    0  501  0.00000000000E+00  0.00000000000E+00 -0.25492325340E+04  0.25492325340E+04  0.50400001928E-02 0. -1.
    10030    2    1    2    0    0  0.00000000000E+00  0.00000000000E+00 -0.96942073695E+03  0.41290443311E+04  0.40136305912E+04 0.  0.
        3    1    3    3  502    0 -0.93481959402E+03  0.10428803271E+04 -0.19633367355E+04  0.24116753922E+04  0.10100000352E+00 0. -1.
       -3    1    3    3    0  502  0.93481959402E+03 -0.10428803271E+04  0.99391599853E+03  0.17173689389E+04  0.10100000352E+00 0.  1.
</event>
<event>
 5   0  0.3399500E-08  0.4053522E+04  0.7818609E-02  0.7993836E-01
       -1   -1    0    0    0  501  0.00000000000E+00  0.00000000000E+00  0.16344672539E+04  0.16344672539E+04  0.50400001928E-02 0.  1.
        1   -1    0    0  501    0  0.00000000000E+00  0.00000000000E+00 -0.25132099598E+04  0.25132099598E+04  0.50400001928E-02 0. -1.
    10030    2    1    2    0    0  0.00000000000E+00  0.00000000000E+00 -0.87874270588E+03  0.41476772137E+04  0.40535216203E+04 0.  0.
        5    1    3    3  502    0  0.14132651448E+04  0.12334356565E+04  0.34595564706E+03  0.19074562349E+04  0.46999998093E+01 0.  1.
       -5    1    3    3    0  502 -0.14132651448E+04 -0.12334356565E+04 -0.12246983529E+04  0.22402209788E+04  0.46999998093E+01 0. -1.
</event>
<event>
 5   0  0.1087688E-07  0.3713160E+04  0.7818609E-02  0.8065052E-01
        2   -1    0    0  501    0  0.00000000000E+00  0.00000000000E+00  0.19013333057E+04  0.19013333057E+04  0.25500000920E-02 0.  1.
       -2   -1    0    0    0  501  0.00000000000E+00  0.00000000000E+00 -0.18128798980E+04  0.18128798980E+04  0.25500000920E-02 0. -1.
    10030    2    1    2    0    0  0.00000000000E+00  0.00000000000E+00  0.88453407678E+02  0.37142132037E+04  0.37131598023E+04 0.  0.
        2    1    3    3  502    0 -0.80779206930E+03  0.15682093451E+04  0.62325217804E+03  0.18708960032E+04  0.25500000920E-02 0. -1.
       -2    1    3    3    0  502  0.80779206930E+03 -0.15682093451E+04 -0.53479877037E+03  0.18433172006E+04  0.25500000920E-02 0.  1.
</event>
<event>
 5   0  0.3399500E-08  0.3999000E+04  0.7818609E-02  0.8004748E-01
        1   -1    0    0  501    0  0.00000000000E+00  0.00000000000E+00  0.24377090367E+04  0.24377090367E+04  0.50400001928E-02 0.  1.
       -1   -1    0    0    0  501  0.00000000000E+00  0.00000000000E+00 -0.16400648361E+04  0.16400648361E+04  0.50400001928E-02 0. -1.
    10030    2    1    2    0    0  0.00000000000E+00  0.00000000000E+00  0.79764420054E+03  0.40777738728E+04  0.39990003109E+04 0.  0.
        4    1    3    3  502    0 -0.56738966769E+03  0.96159151713E+03  0.20902338959E+04  0.23697402038E+04  0.12699999809E+01 0.  1.
       -4    1    3    3    0  502  0.56738966769E+03 -0.96159151713E+03 -0.12925896954E+04  0.17080336690E+04  0.12699999809E+01 0. -1.
</event>
<event>
 5   0  0.1095903E-07  0.3928434E+04  0.7818609E-02  0.8019141E-01
       -2   -1    0    0    0  501  0.00000000000E+00  0.00000000000E+00  0.12898595449E+04  0.12898595449E+04  0.25500000920E-02 0.  1.
        2   -1    0    0  501    0  0.00000000000E+00  0.00000000000E+00 -0.29911384268E+04  0.29911384268E+04  0.25500000920E-02 0. -1.
    10030    2    1    2    0    0  0.00000000000E+00  0.00000000000E+00 -0.17012788819E+04  0.42809979717E+04  0.39284340136E+04 0.  0.
        3    1    3    3  502    0  0.15380778794E+04 -0.87937590436E+03  0.73503595720E+02  0.17732423222E+04  0.10100000352E+00 0.  1.
       -3    1    3    3    0  502 -0.15380778794E+04  0.87937590436E+03 -0.17747824776E+04  0.25077556495E+04  0.10100000352E+00 0. -1.
</event>
<event>
 5   0  0.1101474E-07  0.4035142E+04  0.7818609E-02  0.7997495E-01
        2   -1    0    0  501    0  0.00000000000E+00  0.00000000000E+00  0.14288006530E+04  0.14288006530E+04  0.25500000920E-02 0. -1.
       -2   -1    0    0    0  501  0.00000000000E+00  0.00000000000E+00 -0.28489577298E+04  0.28489577298E+04  0.25500000920E-02 0.  1.
    10030    2    1    2    0    0  0.00000000000E+00  0.00000000000E+00 -0.14201570768E+04  0.42777583828E+04  0.40351419627E+04 0.  0.
        5    1    3    3  502    0 -0.22318947573E+02 -0.11528856908E+04 -0.24651959266E+04  0.27215540777E+04  0.46999998093E+01 0.  1.
       -5    1    3    3    0  502  0.22318947573E+02  0.11528856908E+04  0.10450388498E+04  0.15562043051E+04  0.46999998093E+01 0. -1.
</event>
<event>
 5   0  0.1073271E-07  0.4009289E+04  0.7818609E-02  0.8002675E-01
       -2   -1    0    0    0  501  0.00000000000E+00  0.00000000000E+00  0.18983348462E+04  0.18983348462E+04  0.25500000920E-02 0. -1.
        2   -1    0    0  501    0  0.00000000000E+00  0.00000000000E+00 -0.21169076526E+04  0.21169076526E+04  0.25500000920E-02 0.  1.
    10030    2    1    2    0    0  0.00000000000E+00  0.00000000000E+00 -0.21857280640E+03  0.40152424988E+04  0.40092889959E+04 0.  0.
        1    1    3    3  502    0  0.27455050775E+03 -0.47224172951E+03  0.18223621194E+04  0.19024704799E+04  0.50400001928E-02 0. -1.
       -1    1    3    3    0  502 -0.27455050775E+03  0.47224172951E+03 -0.20409349258E+04  0.21127720189E+04  0.50400001928E-02 0.  1.
</event>
<event>
 5   0  0.3399500E-08  0.3878551E+04  0.7818609E-02  0.8029505E-01
       -1   -1    0    0    0  501  0.00000000000E+00  0.00000000000E+00  0.28345397114E+04  0.28345397114E+04  0.50400001928E-02 0.  1.
        1   -1    0    0  501    0  0.00000000000E+00  0.00000000000E+00 -0.13267722234E+04  0.13267722234E+04  0.50400001928E-02 0. -1.
    10030    2    1    2    0    0  0.00000000000E+00  0.00000000000E+00  0.15077674880E+04  0.41613119348E+04  0.38785505309E+04 0.  0.
        1    1    3    3  502    0  0.14299879799E+03 -0.19068876488E+04  0.11000834011E+04  0.22060944338E+04  0.50400001928E-02 0.  1.
       -1    1    3    3    0  502 -0.14299879799E+03  0.19068876488E+04  0.40768408689E+03  0.19552175010E+04  0.50400001928E-02 0. -1.
</event>
<event>
 5   0  0.1073271E-07  0.4002015E+04  0.7818609E-02  0.8004140E-01
       -2   -1    0    0    0  501  0.00000000000E+00  0.00000000000E+00  0.23534545964E+04  0.23534545964E+04  0.25500000920E-02 0.  1.
        2   -1    0    0  501    0  0.00000000000E+00  0.00000000000E+00 -0.17013421983E+04  0.17013421983E+04  0.25500000920E-02 0. -1.
    10030    2    1    2    0    0  0.00000000000E+00  0.00000000000E+00  0.65211239812E+03  0.40547967947E+04  0.40020153006E+04 0.  0.
        1    1    3    3  502    0  0.89564350646E+00  0.45608343665E+03 -0.16479773175E+04  0.17099246013E+04  0.50400001928E-02 0. -1.
       -1    1    3    3    0  502 -0.89564350646E+00 -0.45608343665E+03  0.23000897156E+04  0.23448721933E+04  0.50400001928E-02 0.  1.
</event>
<event>
 5   0  0.3399500E-08  0.3975947E+04  0.7818609E-02  0.8009416E-01
        1   -1    0    0  501    0  0.00000000000E+00  0.00000000000E+00  0.12151370894E+04  0.12151370894E+04  0.50400001928E-02 0.  1.
       -1   -1    0    0    0  501  0.00000000000E+00  0.00000000000E+00 -0.32523395265E+04  0.32523395265E+04  0.50400001928E-02 0. -1.
    10030    2    1    2    0    0  0.00000000000E+00  0.00000000000E+00 -0.20372024371E+04  0.44674766159E+04  0.39759468738E+04 0.  0.
        1    1    3    3  502    0  0.15280776298E+04 -0.28381320851E+03  0.37418147848E+03  0.15986190787E+04  0.50400001928E-02 0.  1.
       -1    1    3    3    0  502 -0.15280776298E+04  0.28381320851E+03 -0.24113839156E+04  0.28688575371E+04  0.50400001928E-02 0. -1.
</event>
<event>
 5   0  0.1095109E-07  0.3990870E+04  0.7818609E-02  0.8006391E-01
        2   -1    0    0  501    0  0.00000000000E+00  0.00000000000E+00  0.16597181461E+04  0.16597181461E+04  0.25500000920E-02 0. -1.
       -2   -1    0    0    0  501  0.00000000000E+00  0.00000000000E+00 -0.23990587915E+04  0.23990587915E+04  0.25500000920E-02 0.  1.
    10030    2    1    2    0    0  0.00000000000E+00  0.00000000000E+00 -0.73934064531E+03  0.40587769376E+04  0.39908702860E+04 0.  0.
        4    1    3    3  502    0  0.16520028979E+03  0.16518236146E+04  0.75639475889E+03  0.18242661630E+04  0.12699999809E+01 0. -1.
       -4    1    3    3    0  502 -0.16520028979E+03 -0.16518236146E+04 -0.14957354042E+04  0.22345107746E+04  0.12699999809E+01 0.  1.
</event>
<event>
 5   0  0.3399500E-08  0.3987612E+04  0.7818609E-02  0.8007050E-01
       -1   -1    0    0    0  501  0.00000000000E+00  0.00000000000E+00  0.19204631653E+04  0.19204631654E+04  0.50400001928E-02 0.  1.
        1   -1    0    0  501    0  0.00000000000E+00  0.00000000000E+00 -0.20699494368E+04  0.20699494368E+04  0.50400001928E-02 0. -1.
    10030    2    1    2    0    0  0.00000000000E+00  0.00000000000E+00 -0.14948627145E+03  0.39904126022E+04  0.39876116398E+04 0.  0.
        1    1    3    3  502    0  0.16731351125E+04  0.10296371355E+04 -0.41517014315E+03  0.20079591588E+04  0.50400001928E-02 0. -1.
       -1    1    3    3    0  502 -0.16731351125E+04 -0.10296371355E+04  0.26568387170E+03  0.19824534434E+04  0.50400001928E-02 0.  1.
</event>
<event>
 5   0  0.1101474E-07  0.3944808E+04  0.7818609E-02  0.8015774E-01
       -2   -1    0    0    0  501  0.00000000000E+00  0.00000000000E+00  0.14942625351E+04  0.14942625351E+04  0.25500000920E-02 0.  1.
        2   -1    0    0  501    0  0.00000000000E+00  0.00000000000E+00 -0.26035440184E+04  0.26035440184E+04  0.25500000920E-02 0. -1.
    10030    2    1    2    0    0  0.00000000000E+00  0.00000000000E+00 -0.11092814834E+04  0.40978065535E+04  0.39448083782E+04 0.  0.
        5    1    3    3  502    0 -0.19503366744E+04 -0.29409004261E+03 -0.54700031692E+03  0.20468350040E+04  0.46999998093E+01 0.  1.
       -5    1    3    3    0  502  0.19503366744E+04  0.29409004261E+03 -0.56228116647E+03  0.20509715495E+04  0.46999998093E+01 0. -1.
</event>
<event>
 5   0  0.1101474E-07  0.4005784E+04  0.7818609E-02  0.8003381E-01
        2   -1    0    0  501    0  0.00000000000E+00  0.00000000000E+00  0.16696908544E+04  0.16696908544E+04  0.25500000920E-02 0. -1.
       -2   -1    0    0    0  501  0.00000000000E+00  0.00000000000E+00 -0.24025861476E+04  0.24025861476E+04  0.25500000920E-02 0.  1.
    10030    2    1    2    0    0  0.00000000000E+00  0.00000000000E+00 -0.73289529313E+03  0.40722770020E+04  0.40057838771E+04 0.  0.
        5    1    3    3  502    0  0.17258978634E+04 -0.10119529896E+04 -0.46171411726E+03  0.20532837855E+04  0.46999998093E+01 0.  1.
       -5    1    3    3    0  502 -0.17258978634E+04  0.10119529896E+04 -0.27118117586E+03  0.20189932164E+04  0.46999998093E+01 0. -1.
</event>
<event>
 5   0  0.1087688E-07  0.3993705E+04  0.7818609E-02  0.8005818E-01
       -2   -1    0    0    0  501  0.00000000000E+00  0.00000000000E+00  0.18207102481E+04  0.18207102481E+04  0.25500000920E-02 0. -1.
        2   -1    0    0  501    0  0.00000000000E+00  0.00000000000E+00 -0.21900350729E+04  0.21900350729E+04  0.25500000920E-02 0.  1.
    10030    2    1    2    0    0  0.00000000000E+00  0.00000000000E+00 -0.36932482473E+03  0.40107453210E+04  0.39937046966E+04 0.  0.
        2    1    3    3  502    0  0.89088034995E+03  0.60126064859E+03 -0.18747684099E+04  0.21610041084E+04  0.25500000920E-02 0.  1.
       -2    1    3    3    0  502 -0.89088034995E+03 -0.60126064859E+03  0.15054435852E+04  0.18497412126E+04  0.25500000920E-02 0. -1.
</event>
<event>
 5   0  0.1087688E-07  0.3996934E+04  0.7818609E-02  0.8005165E-01
        2   -1    0    0  501    0  0.00000000000E+00  0.00000000000E+00  0.24747473257E+04  0.24747473257E+04  0.25500000920E-02 0.  1.
       -2   -1    0    0    0  501  0.00000000000E+00  0.00000000000E+00 -0.16138495926E+04  0.16138495926E+04  0.25500000920E-02 0. -1.
    10030    2    1    2    0    0  0.00000000000E+00  0.00000000000E+00  0.86089773305E+03  0.40885969183E+04  0.39969338065E+04 0.  0.
        2    1    3    3  502    0 -0.73661179715E+03 -0.42033213280E+03 -0.14206348766E+04  0.16545330139E+04  0.25500000920E-02 0. -1.
       -2    1    3    3    0  502  0.73661179715E+03  0.42033213280E+03  0.22815326096E+04  0.24340639043E+04  0.25500000920E-02 0.  1.
</event>
<event>
 5   0  0.1073271E-07  0.4004550E+04  0.7818609E-02  0.8003629E-01
        2   -1    0    0  501    0  0.00000000000E+00  0.00000000000E+00  0.15938764444E+04  0.15938764444E+04  0.25500000920E-02 0.  1.
       -2   -1    0    0    0  501  0.00000000000E+00  0.00000000000E+00 -0.25153170070E+04  0.25153170070E+04  0.25500000920E-02 0. -1.
    10030    2    1    2    0    0  0.00000000000E+00  0.00000000000E+00 -0.92144056263E+03  0.41091934514E+04  0.40045496763E+04 0.  0.
        1    1    3    3  502    0 -0.60302592289E+03  0.65588598700E+03  0.13792557060E+04  0.16420027388E+04  0.50400001928E-02 0.  1.
       -1    1    3    3    0  502  0.60302592289E+03 -0.65588598700E+03 -0.23006962686E+04  0.24671907126E+04  0.50400001928E-02 0. -1.
</event>
<event>
 5   0  0.3399500E-08  0.3965338E+04  0.7818609E-02  0.8011576E-01
       -1   -1    0    0    0  501  0.00000000000E+00  0.00000000000E+00  0.15870549203E+04  0.15870549203E+04  0.50400001928E-02 0.  1.
        1   -1    0    0  501    0  0.00000000000E+00  0.00000000000E+00 -0.24768998401E+04  0.24768998401E+04  0.50400001928E-02 0. -1.
    10030    2    1    2    0    0  0.00000000000E+00  0.00000000000E+00 -0.88984491982E+03  0.40639547604E+04  0.39653378561E+04 0.  0.
        5    1    3    3  502    0 -0.59734662616E+03 -0.18843439044E+04 -0.60162717534E+03  0.20662894981E+04  0.46999998093E+01 0. -1.
       -5    1    3    3    0  502  0.59734662616E+03  0.18843439044E+04 -0.28821774448E+03  0.19976652623E+04  0.46999998093E+01 0.  1.
</event>
<event>
 5   0  0.3399500E-08  0.3989339E+04  0.7818609E-02  0.8006701E-01
       -1   -1    0    0    0  501  0.00000000000E+00  0.00000000000E+00  0.17300746053E+04  0.17300746053E+04  0.50400001928E-02 0.  1.
        1   -1    0    0  501    0  0.00000000000E+00  0.00000000000E+00 -0.22997311224E+04  0.22997311224E+04  0.50400001928E-02 0. -1.
    10030    2    1    2    0    0  0.00000000000E+00  0.00000000000E+00 -0.56965651709E+03  0.40298057278E+04  0.39893389999E+04 0.  0.
        3    1    3    3  502    0  0.14686896386E+04 -0.76074322796E+03 -0.14110034580E+04  0.21740998786E+04  0.10100000352E+00 0. -1.
       -3    1    3    3    0  502 -0.14686896386E+04  0.76074322796E+03  0.84134694088E+03  0.18557058492E+04  0.10100000352E+00 0.  1.
</event>
<event>
 5   0  0.1095903E-07  0.4003771E+04  0.7818609E-02  0.8003786E-01
       -2   -1    0    0    0  501  0.00000000000E+00  0.00000000000E+00  0.18439950521E+04  0.18439950521E+04  0.25500000920E-02 0. -1.
        2   -1    0    0  501    0  0.00000000000E+00  0.00000000000E+00 -0.21732947234E+04  0.21732947234E+04  0.25500000920E-02 0.  1.
    10030    2    1    2    0    0  0.00000000000E+00  0.00000000000E+00 -0.32929967132E+03  0.40172897755E+04  0.40037705812E+04 0.  0.
        3    1    3    3  502    0  0.59254892456E+03  0.11201525258E+04 -0.17196210059E+04  0.21361068146E+04  0.10100000352E+00 0.  1.
       -3    1    3    3    0  502 -0.59254892456E+03 -0.11201525258E+04  0.13903213346E+04  0.18811829610E+04  0.10100000352E+00 0. -1.
</event>
<event>
 5   0  0.3399500E-08  0.3998624E+04  0.7818609E-02  0.8004824E-01
        1   -1    0    0  501    0  0.00000000000E+00  0.00000000000E+00  0.16931361008E+04  0.16931361008E+04  0.50400001928E-02 0.  1.
       -1   -1    0    0    0  501  0.00000000000E+00  0.00000000000E+00 -0.23608550822E+04  0.23608550822E+04  0.50400001928E-02 0. -1.
    10030    2    1    2    0    0  0.00000000000E+00  0.00000000000E+00 -0.66771898144E+03  0.40539911830E+04  0.39986242476E+04 0.  0.
        1    1    3    3  502    0  0.37036616158E+03  0.40337427095E+03  0.16156191857E+04  0.17059036460E+04  0.50400001928E-02 0.  1.
       -1    1    3    3    0  502 -0.37036616158E+03 -0.40337427095E+03 -0.22833381671E+04  0.23480875370E+04  0.50400001928E-02 0. -1.
</event>
<event>
 5   0  0.1087688E-07  0.4004921E+04  0.7818609E-02  0.8003555E-01
        2   -1    0    0  501    0  0.00000000000E+00  0.00000000000E+00  0.24686000115E+04  0.24686000115E+04  0.25500000920E-02 0.  1.
       -2   -1    0    0    0  501  0.00000000000E+00  0.00000000000E+00 -0.16243406969E+04  0.16243406969E+04  0.25500000920E-02 0. -1.
    10030    2    1    2    0    0  0.00000000000E+00  0.00000000000E+00  0.84425931456E+03  0.40929407084E+04  0.40049207048E+04 0.  0.
        2    1    3    3  502    0  0.14951822026E+04  0.12848440774E+04  0.78121109494E+03  0.21205388223E+04  0.25500000920E-02 0.  1.
       -2    1    3    3    0  502 -0.14951822026E+04 -0.12848440774E+04  0.63048219619E+02  0.19724018861E+04  0.25500000920E-02 0. -1.
</event>
<event>
 5   0  0.3399500E-08  0.3998675E+04  0.7818609E-02  0.8004814E-01
        1   -1    0    0  501    0  0.00000000000E+00  0.00000000000E+00  0.19321514637E+04  0.19321514637E+04  0.50400001928E-02 0. -1.
       -1   -1    0    0    0  501  0.00000000000E+00  0.00000000000E+00 -0.20688596627E+04  0.20688596627E+04  0.50400001928E-02 0.  1.
    10030    2    1    2    0    0  0.00000000000E+00  0.00000000000E+00 -0.13670819902E+03  0.40010111264E+04  0.39986748933E+04 0.  0.
        4    1    3    3  502    0 -0.45980629218E+03  0.40084382070E+03 -0.19734757162E+04  0.20656005447E+04  0.12699999809E+01 0.  1.
       -4    1    3    3    0  502  0.45980629218E+03 -0.40084382070E+03  0.18367675172E+04  0.19354105817E+04  0.12699999809E+01 0. -1.
</event>
<event>
 5   0  0.3399500E-08  0.3961977E+04  0.7818609E-02  0.8012261E-01
        1   -1    0    0  501    0  0.00000000000E+00  0.00000000000E+00  0.13678090310E+04  0.13678090310E+04  0.50400001928E-02 0. -1.
       -1   -1    0    0    0  501  0.00000000000E+00  0.00000000000E+00 -0.28690521194E+04  0.28690521194E+04  0.50400001928E-02 0.  1.
    10030    2    1    2    0    0  0.00000000000E+00  0.00000000000E+00 -0.15012430884E+04  0.42368611504E+04  0.39619769809E+04 0.  0.
        1    1    3    3  502    0  0.13400295563E+04 -0.77128324817E+03 -0.20749958673E+04  0.25876949028E+04  0.50400001928E-02 0.  1.
       -1    1    3    3    0  502 -0.13400295563E+04  0.77128324817E+03  0.57375277889E+03  0.16491662475E+04  0.50400001928E-02 0. -1.
</event>
<event>
 5   0  0.3399500E-08  0.3947746E+04  0.7818609E-02  0.8015172E-01
        1   -1    0    0  501    0  0.00000000000E+00  0.00000000000E+00  0.25834380090E+04  0.25834380090E+04  0.50400001928E-02 0. -1.
       -1   -1    0    0    0  501  0.00000000000E+00  0.00000000000E+00 -0.15081354749E+04  0.15081354749E+04  0.50400001928E-02 0.  1.
    10030    2    1    2    0    0  0.00000000000E+00  0.00000000000E+00  0.10753025342E+04  0.40915734839E+04  0.39477459435E+04 0.  0.
        2    1    3    3  502    0  0.14180618773E+04 -0.10620515180E+04  0.14395989135E+04  0.22828267447E+04  0.25500000920E-02 0.  1.
       -2    1    3    3    0  502 -0.14180618773E+04  0.10620515180E+04 -0.36429637929E+03  0.18087467392E+04  0.25500000920E-02 0. -1.
</event>
<event>
 5   0  0.3399500E-08  0.4127081E+04  0.7818609E-02  0.7979390E-01
       -1   -1    0    0    0  501  0.00000000000E+00  0.00000000000E+00  0.34804019640E+04  0.34804019640E+04  0.50400001928E-02 0. -1.
        1   -1    0    0  501    0  0.00000000000E+00  0.00000000000E+00 -0.12234792689E+04  0.12234792690E+04  0.50400001928E-02 0.  1.
    10030    2    1    2    0    0  0.00000000000E+00  0.00000000000E+00  0.22569226951E+04  0.47038812329E+04  0.41270811238E+04 0.  0.
        5    1    3    3  502    0  0.69478665736E+02  0.69059556802E+03  0.33433604584E+04  0.34146494356E+04  0.46999998093E+01 0. -1.
       -5    1    3    3    0  502 -0.69478665736E+02 -0.69059556802E+03 -0.10864377633E+04  0.12892317973E+04  0.46999998093E+01 0.  1.
</event>
<event>
 5   0  0.1095109E-07  0.3984216E+04  0.7818609E-02  0.8007738E-01
        2   -1    0    0  501    0  0.00000000000E+00  0.00000000000E+00  0.15203839721E+04  0.15203839721E+04  0.25500000920E-02 0.  1.
       -2   -1    0    0    0  501  0.00000000000E+00  0.00000000000E+00 -0.26101925719E+04  0.26101925719E+04  0.25500000920E-02 0. -1.
    10030    2    1    2    0    0  0.00000000000E+00  0.00000000000E+00 -0.10898085998E+04  0.41305765440E+04  0.39842163347E+04 0.  0.
        4    1    3    3  502    0 -0.18266845691E+04  0.96890234452E+02  0.27295353597E+03  0.18495051982E+04  0.12699999809E+01 0.  1.
       -4    1    3    3    0  502  0.18266845691E+04 -0.96890234452E+02 -0.13627621358E+04  0.22810713457E+04  0.12699999809E+01 0. -1.
</event>
<event>
 5   0  0.1095109E-07  0.4010090E+04  0.7818609E-02  0.8002514E-01
        2   -1    0    0  501    0  0.00000000000E+00  0.00000000000E+00  0.15902863755E+04  0.15902863755E+04  0.25500000920E-02 0. -1.
       -2   -1    0    0    0  501  0.00000000000E+00  0.00000000000E+00 -0.25279758022E+04  0.25279758022E+04  0.25500000920E-02 0.  1.
    10030    2    1    2    0    0  0.00000000000E+00  0.00000000000E+00 -0.93768942666E+03  0.41182621777E+04  0.40100900119E+04 0.  0.
        4    1    3    3  502    0  0.12122310730E+04 -0.15540769366E+04 -0.90749723715E+02  0.19730424284E+04  0.12699999809E+01 0. -1.
       -4    1    3    3    0  502 -0.12122310730E+04  0.15540769366E+04 -0.84693970295E+03  0.21452197492E+04  0.12699999809E+01 0.  1.
</event>
<event>
 5   0  0.3399500E-08  0.4006611E+04  0.7818609E-02  0.8003214E-01
        1   -1    0    0  501    0  0.00000000000E+00  0.00000000000E+00  0.27515607511E+04  0.27515607511E+04  0.50400001928E-02 0.  1.
       -1   -1    0    0    0  501  0.00000000000E+00  0.00000000000E+00 -0.14585293491E+04  0.14585293491E+04  0.50400001928E-02 0. -1.
    10030    2    1    2    0    0  0.00000000000E+00  0.00000000000E+00  0.12930314020E+04  0.42100901002E+04  0.40066105932E+04 0.  0.
        2    1    3    3  502    0  0.12523110284E+04  0.87586883834E+03  0.20075990962E+04  0.25230702061E+04  0.25500000920E-02 0.  1.
       -2    1    3    3    0  502 -0.12523110284E+04 -0.87586883834E+03 -0.71456769417E+03  0.16870198942E+04  0.25500000920E-02 0. -1.
</event>
<event>
 5   0  0.1095109E-07  0.4019081E+04  0.7818609E-02  0.8000708E-01
       -2   -1    0    0    0  501  0.00000000000E+00  0.00000000000E+00  0.17343685432E+04  0.17343685432E+04  0.25500000920E-02 0. -1.
        2   -1    0    0  501    0  0.00000000000E+00  0.00000000000E+00 -0.23283705940E+04  0.23283705940E+04  0.25500000920E-02 0.  1.
    10030    2    1    2    0    0  0.00000000000E+00  0.00000000000E+00 -0.59400205081E+03  0.40627391372E+04  0.40190808477E+04 0.  0.
        4    1    3    3  502    0  0.10103518081E+04 -0.82931119794E+03 -0.18399111719E+04  0.22569542690E+04  0.12699999809E+01 0.  1.
       -4    1    3    3    0  502 -0.10103518081E+04  0.82931119794E+03  0.12459091211E+04  0.18057848681E+04  0.12699999809E+01 0. -1.
</event>
<event>
 5   0  0.1073271E-07  0.4001839E+04  0.7818609E-02  0.8004176E-01
        2   -1    0    0  501    0  0.00000000000E+00  0.00000000000E+00  0.27451833631E+04  0.27451833631E+04  0.25500000920E-02 0. -1.
       -2   -1    0    0    0  501  0.00000000000E+00  0.00000000000E+00 -0.14584377256E+04  0.14584377256E+04  0.25500000920E-02 0.  1.
    10030    2    1    2    0    0  0.00000000000E+00  0.00000000000E+00  0.12867456375E+04  0.42036210887E+04  0.40018390675E+04 0.  0.
        1    1    3    3  502    0  0.65426841697E+03  0.43818351662E+03  0.25755809324E+04  0.26932673642E+04  0.50400001928E-02 0. -1.
       -1    1    3    3    0  502 -0.65426841697E+03 -0.43818351662E+03 -0.12888352949E+04  0.15103537245E+04  0.50400001928E-02 0.  1.
</event>
<event>
 5   0  0.1095109E-07  0.3967050E+04  0.7818609E-02  0.8011227E-01
       -2   -1    0    0    0  501  0.00000000000E+00  0.00000000000E+00  0.25826569906E+04  0.25826569906E+04  0.25500000920E-02 0. -1.
        2   -1    0    0  501    0  0.00000000000E+00  0.00000000000E+00 -0.15233811719E+04  0.15233811719E+04  0.25500000920E-02 0.  1.
    10030    2    1    2    0    0  0.00000000000E+00  0.00000000000E+00  0.10592758187E+04  0.41060381626E+04  0.39670498021E+04 0.  0.
        4    1    3    3  502    0 -0.98298255048E+03 -0.68944317180E+03  0.21638091076E+04  0.24746026042E+04  0.12699999809E+01 0. -1.
       -4    1    3    3    0  502  0.98298255048E+03  0.68944317180E+03 -0.11045332890E+04  0.16314355583E+04  0.12699999809E+01 0.  1.
</event>
<event>
 5   0  0.3399500E-08  0.4016234E+04  0.7818609E-02  0.8001280E-01
       -1   -1    0    0    0  501  0.00000000000E+00  0.00000000000E+00  0.19058041980E+04  0.19058041980E+04  0.50400001928E-02 0. -1.
        1   -1    0    0  501    0  0.00000000000E+00  0.00000000000E+00 -0.21159226741E+04  0.21159226741E+04  0.50400001928E-02 0.  1.
    10030    2    1    2    0    0  0.00000000000E+00  0.00000000000E+00 -0.21011847612E+03  0.40217268722E+04  0.40162342138E+04 0.  0.
        5    1    3    3  502    0 -0.95020141974E+03 -0.13492407679E+04  0.10406991084E+04  0.19510023353E+04  0.46999998093E+01 0. -1.
       -5    1    3    3    0  502  0.95020141974E+03  0.13492407679E+04 -0.12508175845E+04  0.20707245369E+04  0.46999998093E+01 0.  1.
</event>
<event>
 5   0  0.1101474E-07  0.3902367E+04  0.7818609E-02  0.8024537E-01
       -2   -1    0    0    0  501  0.00000000000E+00  0.00000000000E+00  0.12287035057E+04  0.12287035057E+04  0.25500000920E-02 0.  1.
        2   -1    0    0  501    0  0.00000000000E+00  0.00000000000E+00 -0.30984832407E+04  0.30984832407E+04  0.25500000920E-02 0. -1.
    10030    2    1    2    0    0  0.00000000000E+00  0.00000000000E+00 -0.18697797349E+04  0.43271867464E+04  0.39023670869E+04 0.  0.
        5    1    3    3  502    0  0.12335273551E+03  0.94096011698E+03  0.95554050549E+03  0.13467373860E+04  0.46999998093E+01 0.  1.
       -5    1    3    3    0  502 -0.12335273551E+03 -0.94096011698E+03 -0.28253202404E+04  0.29804493604E+04  0.46999998093E+01 0. -1.
</event>
<event>
 5   0  0.3399500E-08  0.4026393E+04  0.7818609E-02  0.7999243E-01
       -1   -1    0    0    0  501  0.00000000000E+00  0.00000000000E+00  0.17164670620E+04  0.17164670620E+04  0.50400001928E-02 0.  1.
        1   -1    0    0  501    0  0.00000000000E+00  0.00000000000E+00 -0.23612216417E+04  0.23612216417E+04  0.50400001928E-02 0. -1.
    10030    2    1    2    0    0  0.00000000000E+00  0.00000000000E+00 -0.64475457975E+03  0.40776887037E+04  0.40263925164E+04 0.  0.
        5    1    3    3  502    0 -0.13023988848E+04 -0.13100404615E+04 -0.11328782443E+04  0.21669988629E+04  0.46999998093E+01 0. -1.
       -5    1    3    3    0  502  0.13023988848E+04  0.13100404615E+04  0.48812366451E+03  0.19106898407E+04  0.46999998093E+01 0.  1.
</event>
<event>
 5   0  0.3399500E-08  0.4005031E+04  0.7818609E-02  0.8003532E-01
       -1   -1    0    0    0  501  0.00000000000E+00  0.00000000000E+00  0.16369209450E+04  0.16369209450E+04  0.50400001928E-02 0. -1.
        1   -1    0    0  501    0  0.00000000000E+00  0.00000000000E+00 -0.24497628618E+04  0.24497628618E+04  0.50400001928E-02 0.  1.
    10030    2    1    2    0    0  0.00000000000E+00  0.00000000000E+00 -0.81284191683E+03  0.40866838068E+04  0.40050309057E+04 0.  0.
        3    1    3    3  502    0 -0.59337943662E+03 -0.12351482527E+04 -0.18964585941E+04  0.23397105743E+04  0.10100000352E+00 0.  1.
       -3    1    3    3    0  502  0.59337943662E+03  0.12351482527E+04  0.10836166773E+04  0.17469732326E+04  0.10100000352E+00 0. -1.
</event>
<event>
 5   0  0.1095903E-07  0.3999606E+04  0.7818609E-02  0.8004626E-01
       -2   -1    0    0    0  501  0.00000000000E+00  0.00000000000E+00  0.16943924390E+04  0.16943924390E+04  0.25500000920E-02 0. -1.
        2   -1    0    0  501    0  0.00000000000E+00  0.00000000000E+00 -0.23602629410E+04  0.23602629410E+04  0.25500000920E-02 0.  1.
    10030    2    1    2    0    0  0.00000000000E+00  0.00000000000E+00 -0.66587050206E+03  0.40546553800E+04  0.39996058212E+04 0.  0.
        3    1    3    3  502    0 -0.68537989881E+03  0.77170755111E+03 -0.20693836837E+04  0.23124936736E+04  0.10100000352E+00 0.  1.
       -3    1    3    3    0  502  0.68537989881E+03 -0.77170755111E+03  0.14035131816E+04  0.17421617064E+04  0.10100000352E+00 0. -1.
</event>
<event>
 5   0  0.3399500E-08  0.4030537E+04  0.7818609E-02  0.7998414E-01
       -1   -1    0    0    0  501  0.00000000000E+00  0.00000000000E+00  0.19983222458E+04  0.19983222458E+04  0.50400001928E-02 0.  1.
        1   -1    0    0  501    0  0.00000000000E+00  0.00000000000E+00 -0.20323587947E+04  0.20323587947E+04  0.50400001928E-02 0. -1.
    10030    2    1    2    0    0  0.00000000000E+00  0.00000000000E+00 -0.34036548887E+02  0.40306810405E+04  0.40305373294E+04 0.  0.
        1    1    3    3  502    0  0.18619350073E+04 -0.32300722800E+03 -0.71716619123E+03  0.20212528260E+04  0.50400001928E-02 0. -1.
       -1    1    3    3    0  502 -0.18619350073E+04  0.32300722800E+03  0.68312964235E+03  0.20094282145E+04  0.50400001928E-02 0.  1.
</event>
<event>
 5   0  0.3399500E-08  0.3989374E+04  0.7818609E-02  0.8006694E-01
       -1   -1    0    0    0  501  0.00000000000E+00  0.00000000000E+00  0.27730416042E+04  0.27730416043E+04  0.50400001928E-02 0.  1.
        1   -1    0    0  501    0  0.00000000000E+00  0.00000000000E+00 -0.14348056891E+04  0.14348056891E+04  0.50400001928E-02 0. -1.
    10030    2    1    2    0    0  0.00000000000E+00  0.00000000000E+00  0.13382359151E+04  0.42078472934E+04  0.39893738205E+04 0.  0.
        4    1    3    3  502    0  0.12049970163E+04  0.15658635827E+04  0.38059099684E+03  0.20121624409E+04  0.12699999809E+01 0. -1.
       -4    1    3    3    0  502 -0.12049970163E+04 -0.15658635827E+04  0.95764491828E+03  0.21956848525E+04  0.12699999809E+01 0.  1.
</event>
<event>
 5   0  0.3399500E-08  0.3971606E+04  0.7818609E-02  0.8010299E-01
        1   -1    0    0  501    0  0.00000000000E+00  0.00000000000E+00  0.22384101748E+04  0.22384101748E+04  0.50400001928E-02 0. -1.
       -1   -1    0    0    0  501  0.00000000000E+00  0.00000000000E+00 -0.17617029392E+04  0.17617029393E+04  0.50400001928E-02 0.  1.
    10030    2    1    2    0    0  0.00000000000E+00  0.00000000000E+00  0.47670723559E+03  0.40001131141E+04  0.39716061156E+04 0.  0.
        5    1    3    3  502    0 -0.15723630890E+04 -0.29976628830E+03 -0.94532924094E+03  0.18589930003E+04  0.46999998093E+01 0.  1.
       -5    1    3    3    0  502  0.15723630890E+04  0.29976628830E+03  0.14220364765E+04  0.21411201138E+04  0.46999998093E+01 0. -1.
</event>
<event>
 5   0  0.3399500E-08  0.3988297E+04  0.7818609E-02  0.8006911E-01
        1   -1    0    0  501    0  0.00000000000E+00  0.00000000000E+00  0.26044576428E+04  0.26044576428E+04  0.50400001928E-02 0.  1.
       -1   -1    0    0    0  501  0.00000000000E+00  0.00000000000E+00 -0.15268549793E+04  0.15268549793E+04  0.50400001928E-02 0. -1.
    10030    2    1    2    0    0  0.00000000000E+00  0.00000000000E+00  0.10776026635E+04  0.41313126221E+04  0.39882974414E+04 0.  0.
        1    1    3    3  502    0 -0.14990799264E+04 -0.11071071602E+04  0.12739707906E+04  0.22574163252E+04  0.50400001928E-02 0.  1.
       -1    1    3    3    0  502  0.14990799264E+04  0.11071071602E+04 -0.19636812712E+03  0.18738962969E+04  0.50400001928E-02 0. -1.
</event>
<event>
 5   0  0.3399500E-08  0.3995063E+04  0.7818609E-02  0.8005543E-01
       -1   -1    0    0    0  501  0.00000000000E+00  0.00000000000E+00  0.18575076454E+04  0.18575076454E+04  0.50400001928E-02 0. -1.
        1   -1    0    0  501    0  0.00000000000E+00  0.00000000000E+00 -0.21481102328E+04  0.21481102328E+04  0.50400001928E-02 0.  1.
    10030    2    1    2    0    0  0.00000000000E+00  0.00000000000E+00 -0.29060258739E+03  0.40056178782E+04  0.39950625429E+04 0.  0.
        1    1    3    3  502    0 -0.35850528184E+03 -0.67346534006E+03 -0.19962691896E+04  0.21370943542E+04  0.50400001928E-02 0.  1.
       -1    1    3    3    0  502  0.35850528184E+03  0.67346534006E+03  0.17056666023E+04  0.18685235239E+04  0.50400001928E-02 0. -1.
</event>
<event>
 5   0  0.1095109E-07  0.3987529E+04  0.7818609E-02  0.8007067E-01
        2   -1    0    0  501    0  0.00000000000E+00  0.00000000000E+00  0.30190080520E+04  0.30190080520E+04  0.25500000920E-02 0. -1.
       -2   -1    0    0    0  501  0.00000000000E+00  0.00000000000E+00 -0.13166894884E+04  0.13166894884E+04  0.25500000920E-02 0.  1.
    10030    2    1    2    0    0  0.00000000000E+00  0.00000000000E+00  0.17023185635E+04  0.43356975404E+04  0.39875286419E+04 0.  0.
        4    1    3    3  502    0  0.14960751984E+04 -0.11759523698E+03 -0.57609364180E+03  0.16074685490E+04  0.12699999809E+01 0.  1.
       -4    1    3    3    0  502 -0.14960751984E+04  0.11759523698E+03  0.22784122053E+04  0.27282289914E+04  0.12699999809E+01 0. -1.
</event>
<event>
 5   0  0.3399500E-08  0.3989939E+04  0.7818609E-02  0.8006579E-01
        1   -1    0    0  501    0  0.00000000000E+00  0.00000000000E+00  0.19426740071E+04  0.19426740071E+04  0.50400001928E-02 0.  1.
       -1   -1    0    0    0  501  0.00000000000E+00  0.00000000000E+00 -0.20486724109E+04  0.20486724109E+04  0.50400001928E-02 0. -1.
    10030    2    1    2    0    0  0.00000000000E+00  0.00000000000E+00 -0.10599840380E+03  0.39913464179E+04  0.39899386670E+04 0.  0.
        4    1    3    3  502    0  0.10723959914E+04 -0.11166517932E+04 -0.13115991583E+04  0.20290979164E+04  0.12699999809E+01 0. -1.
       -4    1    3    3    0  502 -0.10723959914E+04  0.11166517932E+04  0.12056007545E+04  0.19622485015E+04  0.12699999809E+01 0.  1.
</event>
<event>
 5   0  0.3399500E-08  0.4024959E+04  0.7818609E-02  0.7999530E-01
        1   -1    0    0  501    0  0.00000000000E+00  0.00000000000E+00  0.18053214066E+04  0.18053214066E+04  0.50400001928E-02 0.  1.
       -1   -1    0    0    0  501  0.00000000000E+00  0.00000000000E+00 -0.22434089615E+04  0.22434089615E+04  0.50400001928E-02 0. -1.
    10030    2    1    2    0    0  0.00000000000E+00  0.00000000000E+00 -0.43808755493E+03  0.40487303681E+04  0.40249592405E+04 0.  0.
        1    1    3    3  502    0  0.11303065656E+04  0.61060896958E+03 -0.17772690061E+04  0.21929708995E+04  0.50400001928E-02 0. -1.
       -1    1    3    3    0  502 -0.11303065656E+04 -0.61060896958E+03  0.13391814512E+04  0.18557594686E+04  0.50400001928E-02 0.  1.
</event>
<event>
 5   0  0.3399500E-08  0.4033573E+04  0.7818609E-02  0.7997808E-01
        1   -1    0    0  501    0  0.00000000000E+00  0.00000000000E+00  0.23049129162E+04  0.23049129162E+04  0.50400001928E-02 0. -1.
       -1   -1    0    0    0  501  0.00000000000E+00  0.00000000000E+00 -0.17646772699E+04  0.17646772699E+04  0.50400001928E-02 0.  1.
    10030    2    1    2    0    0  0.00000000000E+00  0.00000000000E+00  0.54023564627E+03  0.40695901862E+04  0.40335728244E+04 0.  0.
        3    1    3    3  502    0 -0.84718665694E+03 -0.26388298369E+03 -0.15571499554E+04  0.17922263960E+04  0.10100000352E+00 0.  1.
       -3    1    3    3    0  502  0.84718665694E+03  0.26388298369E+03  0.20973856016E+04  0.22773637902E+04  0.10100000352E+00 0. -1.
</event>
<event>
 5   0  0.3399500E-08  0.4044969E+04  0.7818609E-02  0.7995536E-01
       -1   -1    0    0    0  501  0.00000000000E+00  0.00000000000E+00  0.20036626583E+04  0.20036626583E+04  0.50400001928E-02 0.  1.
        1   -1    0    0  501    0  0.00000000000E+00  0.00000000000E+00 -0.20414830344E+04  0.20414830344E+04  0.50400001928E-02 0. -1.
    10030    2    1    2    0    0  0.00000000000E+00  0.00000000000E+00 -0.37820376100E+02  0.40451456927E+04  0.40449688867E+04 0.  0.
        5    1    3    3  502    0  0.19823029513E+04 -0.39612110062E+03  0.44214014125E+02  0.20219826622E+04  0.46999998093E+01 0. -1.
       -5    1    3    3    0  502 -0.19823029513E+04  0.39612110062E+03 -0.82034390225E+02  0.20231630306E+04  0.46999998093E+01 0.  1.
</event>
<event>
 5   0  0.1095109E-07  0.4010657E+04  0.7818609E-02  0.8002400E-01
       -2   -1    0    0    0  501  0.00000000000E+00  0.00000000000E+00  0.20109730777E+04  0.20109730777E+04  0.25500000920E-02 0.  1.
        2   -1    0    0  501    0  0.00000000000E+00  0.00000000000E+00 -0.19996993818E+04  0.19996993818E+04  0.25500000920E-02 0. -1.
    10030    2    1    2    0    0  0.00000000000E+00  0.00000000000E+00  0.11273695845E+02  0.40106724595E+04  0.40106566147E+04 0.  0.
        4    1    3    3  502    0  0.14017316978E+03  0.14586511612E+04  0.13745937820E+04  0.20091842638E+04  0.12699999809E+01 0.  1.
       -4    1    3    3    0  502 -0.14017316978E+03 -0.14586511612E+04 -0.13633200861E+04  0.20014881957E+04  0.12699999809E+01 0. -1.
</event>
<event>
 5   0  0.3399500E-08  0.4046776E+04  0.7818609E-02  0.7995176E-01
        1   -1    0    0  501    0  0.00000000000E+00  0.00000000000E+00  0.21566083900E+04  0.21566083901E+04  0.50400001928E-02 0. -1.
       -1   -1    0    0    0  501  0.00000000000E+00  0.00000000000E+00 -0.18983974672E+04  0.18983974672E+04  0.50400001928E-02 0.  1.
    10030    2    1    2    0    0  0.00000000000E+00  0.00000000000E+00  0.25821092285E+03  0.40550058573E+04  0.40467764482E+04 0.  0.
        2    1    3    3  502    0 -0.13882091287E+04 -0.10294761561E+04  0.11834591484E+04  0.20946410902E+04  0.25500000920E-02 0. -1.
       -2    1    3    3    0  502  0.13882091287E+04  0.10294761561E+04 -0.92524822552E+03  0.19603647670E+04  0.25500000920E-02 0.  1.
</event>
<event>
 5   0  0.3399500E-08  0.4000223E+04  0.7818609E-02  0.8004502E-01
       -1   -1    0    0    0  501  0.00000000000E+00  0.00000000000E+00  0.23671002252E+04  0.23671002252E+04  0.50400001928E-02 0.  1.
        1   -1    0    0  501    0  0.00000000000E+00  0.00000000000E+00 -0.16900194882E+04  0.16900194882E+04  0.50400001928E-02 0. -1.
    10030    2    1    2    0    0  0.00000000000E+00  0.00000000000E+00  0.67708073694E+03  0.40571197134E+04  0.40002227493E+04 0.  0.
        4    1    3    3  502    0 -0.42725879694E+03 -0.11687578911E+04 -0.12495854958E+04  0.17635222176E+04  0.12699999809E+01 0. -1.
       -4    1    3    3    0  502  0.42725879694E+03  0.11687578911E+04  0.19266662328E+04  0.22935974958E+04  0.12699999809E+01 0.  1.
</event>
<event>
 5   0  0.1095109E-07  0.3602654E+04  0.7818609E-02  0.8089884E-01
        2   -1    0    0  501    0  0.00000000000E+00  0.00000000000E+00  0.18234757475E+04  0.18234757475E+04  0.25500000920E-02 0.  1.
       -2   -1    0    0    0  501  0.00000000000E+00  0.00000000000E+00 -0.17794469036E+04  0.17794469036E+04  0.25500000920E-02 0. -1.
    10030    2    1    2    0    0  0.00000000000E+00  0.00000000000E+00  0.44028843910E+02  0.36029226511E+04  0.36026536179E+04 0.  0.
        4    1    3    3  502    0  0.14202216831E+04  0.94162637506E+03 -0.56205556053E+03  0.17943238073E+04  0.12699999809E+01 0.  1.
       -4    1    3    3    0  502 -0.14202216831E+04 -0.94162637506E+03  0.60608440444E+03  0.18085988438E+04  0.12699999809E+01 0. -1.
</event>
<event>
 5   0  0.1101474E-07  0.4002392E+04  0.7818609E-02  0.8004064E-01
        2   -1    0    0  501    0  0.00000000000E+00  0.00000000000E+00  0.28637361799E+04  0.28637361799E+04  0.25500000920E-02 0. -1.
       -2   -1    0    0    0  501  0.00000000000E+00  0.00000000000E+00 -0.13984478571E+04  0.13984478571E+04  0.25500000920E-02 0.  1.
    10030    2    1    2    0    0  0.00000000000E+00  0.00000000000E+00  0.14652883228E+04  0.42621840370E+04  0.40023921467E+04 0.  0.
        5    1    3    3  502    0  0.44281183863E+03  0.25021483112E+03  0.27937520607E+04  0.28396764697E+04  0.46999998093E+01 0. -1.
       -5    1    3    3    0  502 -0.44281183863E+03 -0.25021483112E+03 -0.13284637379E+04  0.14225075673E+04  0.46999998093E+01 0.  1.
</event>
<event>
 5   0  0.3399500E-08  0.4134357E+04  0.7818609E-02  0.7977978E-01
        1   -1    0    0  501    0  0.00000000000E+00  0.00000000000E+00  0.20570950770E+04  0.20570950770E+04  0.50400001928E-02 0.  1.
       -1   -1    0    0    0  501  0.00000000000E+00  0.00000000000E+00 -0.20773110617E+04  0.20773110617E+04  0.50400001928E-02 0. -1.
    10030    2    1    2    0    0  0.00000000000E+00  0.00000000000E+00 -0.20215984689E+02  0.41344061387E+04  0.41343567134E+04 0.  0.
        4    1    3    3  502    0  0.17777381439E+04  0.67308964987E+03 -0.82241208350E+03  0.20711749885E+04  0.12699999809E+01 0. -1.
       -4    1    3    3    0  502 -0.17777381439E+04 -0.67308964987E+03  0.80219609881E+03  0.20632311502E+04  0.12699999809E+01 0.  1.
</event>
<event>
 5   0  0.1095109E-07  0.3959685E+04  0.7818609E-02  0.8012729E-01
       -2   -1    0    0    0  501  0.00000000000E+00  0.00000000000E+00  0.24546942966E+04  0.24546942966E+04  0.25500000920E-02 0. -1.
        2   -1    0    0  501    0  0.00000000000E+00  0.00000000000E+00 -0.15968494649E+04  0.15968494649E+04  0.25500000920E-02 0.  1.
    10030    2    1    2    0    0  0.00000000000E+00  0.00000000000E+00  0.85784483161E+03  0.40515437615E+04  0.39596854795E+04 0.  0.
        4    1    3    3  502    0  0.78301511287E+02  0.12820948047E+04 -0.11126397678E+04  0.16993725550E+04  0.12699999809E+01 0.  1.
       -4    1    3    3    0  502 -0.78301511287E+02 -0.12820948047E+04  0.19704845994E+04  0.23521712065E+04  0.12699999809E+01 0. -1.
</event>
<event>
 5   0  0.1095903E-07  0.4003067E+04  0.7818609E-02  0.8003928E-01
        2   -1    0    0  501    0  0.00000000000E+00  0.00000000000E+00  0.18074327411E+04  0.18074327411E+04  0.25500000920E-02 0. -1.
       -2   -1    0    0    0  501  0.00000000000E+00  0.00000000000E+00 -0.22164784961E+04  0.22164784961E+04  0.25500000920E-02 0.  1.
    10030    2    1    2    0    0  0.00000000000E+00  0.00000000000E+00 -0.40904575501E+03  0.40239112372E+04  0.40030667263E+04 0.  0.
        3    1    3    3  502    0 -0.15292130122E+03 -0.19828719543E+04  0.22417370274E+02  0.19888862864E+04  0.10100000352E+00 0. -1.
       -3    1    3    3    0  502  0.15292130122E+03  0.19828719543E+04 -0.43146312528E+03  0.20350249508E+04  0.10100000352E+00 0.  1.
</event>
<event>
 5   0  0.3399500E-08  0.3985485E+04  0.7818609E-02  0.8007481E-01
       -1   -1    0    0    0  501  0.00000000000E+00  0.00000000000E+00  0.17151223465E+04  0.17151223465E+04  0.50400001928E-02 0.  1.
        1   -1    0    0  501    0  0.00000000000E+00  0.00000000000E+00 -0.23153003976E+04  0.23153003976E+04  0.50400001928E-02 0. -1.
    10030    2    1    2    0    0  0.00000000000E+00  0.00000000000E+00 -0.60017805110E+03  0.40304227442E+04  0.39854853912E+04 0.  0.
        5    1    3    3  502    0  0.79207278306E+03 -0.26893606672E+03  0.15289765025E+04  0.17428416844E+04  0.46999998093E+01 0.  1.
       -5    1    3    3    0  502 -0.79207278306E+03  0.26893606672E+03 -0.21291545536E+04  0.22875810598E+04  0.46999998093E+01 0. -1.
</event>
<event>
 5   0  0.1087688E-07  0.4019148E+04  0.7818609E-02  0.8000695E-01
       -2   -1    0    0    0  501  0.00000000000E+00  0.00000000000E+00  0.18423654537E+04  0.18423654537E+04  0.25500000920E-02 0. -1.
        2   -1    0    0  501    0  0.00000000000E+00  0.00000000000E+00 -0.21919577865E+04  0.21919577865E+04  0.25500000920E-02 0.  1.
    10030    2    1    2    0    0  0.00000000000E+00  0.00000000000E+00 -0.34959233281E+03  0.40343232402E+04  0.40191478211E+04 0.  0.
        2    1    3    3  502    0  0.11779111609E+04 -0.14843930813E+04  0.49667639816E+03  0.19589754892E+04  0.25500000920E-02 0. -1.
       -2    1    3    3    0  502 -0.11779111609E+04  0.14843930813E+04 -0.84626873097E+03  0.20753477510E+04  0.25500000920E-02 0.  1.
</event>
<event>
 5   0  0.1087688E-07  0.3999075E+04  0.7818609E-02  0.8004733E-01
        2   -1    0    0  501    0  0.00000000000E+00  0.00000000000E+00  0.24149415116E+04  0.24149415117E+04  0.25500000920E-02 0. -1.
       -2   -1    0    0    0  501  0.00000000000E+00  0.00000000000E+00 -0.16555884710E+04  0.16555884710E+04  0.25500000920E-02 0.  1.
    10030    2    1    2    0    0  0.00000000000E+00  0.00000000000E+00  0.75935304066E+03  0.40705299826E+04  0.39990745553E+04 0.  0.
        2    1    3    3  502    0  0.50023432225E+02 -0.49399188588E+03 -0.15918418149E+04  0.16674803419E+04  0.25500000920E-02 0.  1.
       -2    1    3    3    0  502 -0.50023432225E+02  0.49399188588E+03  0.23511948555E+04  0.24030496407E+04  0.25500000920E-02 0. -1.
</event>
<event>
 5   0  0.3399500E-08  0.3962919E+04  0.7818609E-02  0.8012069E-01
       -1   -1    0    0    0  501  0.00000000000E+00  0.00000000000E+00  0.16318029635E+04  0.16318029635E+04  0.50400001928E-02 0.  1.
        1   -1    0    0  501    0  0.00000000000E+00  0.00000000000E+00 -0.24060385199E+04  0.24060385199E+04  0.50400001928E-02 0. -1.
    10030    2    1    2    0    0  0.00000000000E+00  0.00000000000E+00 -0.77423555640E+03  0.40378414833E+04  0.39629185139E+04 0.  0.
        3    1    3    3  502    0  0.14564453660E+04 -0.64186928508E+03 -0.15896649458E+04  0.22495030415E+04  0.10100000352E+00 0. -1.
       -3    1    3    3    0  502 -0.14564453660E+04  0.64186928508E+03  0.81542938945E+03  0.17883384419E+04  0.10100000352E+00 0.  1.
</event>
<event>
 5   0  0.1095903E-07  0.3965884E+04  0.7818609E-02  0.8011464E-01
       -2   -1    0    0    0  501  0.00000000000E+00  0.00000000000E+00  0.13237901453E+04  0.13237901453E+04  0.25500000920E-02 0.  1.
        2   -1    0    0  501    0  0.00000000000E+00  0.00000000000E+00 -0.29703041457E+04  0.29703041457E+04  0.25500000920E-02 0. -1.
    10030    2    1    2    0    0  0.00000000000E+00  0.00000000000E+00 -0.16465140004E+04  0.42940942910E+04  0.39658841923E+04 0.  0.
        3    1    3    3  502    0 -0.54873420680E+03 -0.46326565699E+03 -0.28245550701E+04  0.29144185788E+04  0.10100000352E+00 0. -1.
       -3    1    3    3    0  502  0.54873420680E+03  0.46326565699E+03  0.11780410697E+04  0.13796757122E+04  0.10100000352E+00 0.  1.
</event>
<event>
 5   0  0.3399500E-08  0.3983460E+04  0.7818609E-02  0.8007891E-01
       -1   -1    0    0    0  501  0.00000000000E+00  0.00000000000E+00  0.27697571659E+04  0.27697571659E+04  0.50400001928E-02 0. -1.
        1   -1    0    0  501    0  0.00000000000E+00  0.00000000000E+00 -0.14322514632E+04  0.14322514632E+04  0.50400001928E-02 0.  1.
    10030    2    1    2    0    0  0.00000000000E+00  0.00000000000E+00  0.13375057028E+04  0.42020086291E+04  0.39834601811E+04 0.  0.
        4    1    3    3  502    0  0.19891561333E+04 -0.34611308375E+02  0.76908741486E+03  0.21329409579E+04  0.12699999809E+01 0. -1.
       -4    1    3    3    0  502 -0.19891561333E+04  0.34611308375E+02  0.56841828789E+03  0.20690676712E+04  0.12699999809E+01 0.  1.
</event>
<event>
 5   0  0.3399500E-08  0.4012168E+04  0.7818609E-02  0.8002096E-01
        1   -1    0    0  501    0  0.00000000000E+00  0.00000000000E+00  0.15993623599E+04  0.15993623599E+04  0.50400001928E-02 0. -1.
       -1   -1    0    0    0  501  0.00000000000E+00  0.00000000000E+00 -0.25162363857E+04  0.25162363857E+04  0.50400001928E-02 0.  1.
    10030    2    1    2    0    0  0.00000000000E+00  0.00000000000E+00 -0.91687402576E+03  0.41155987456E+04  0.40121683733E+04 0.  0.
        3    1    3    3  502    0  0.14525056501E+04  0.11307584948E+04  0.35960905571E+03  0.18755548833E+04  0.10100000352E+00 0. -1.
       -3    1    3    3    0  502 -0.14525056501E+04 -0.11307584948E+04 -0.12764830815E+04  0.22400438622E+04  0.10100000352E+00 0.  1.
</event>
<event>
 5   0  0.1087688E-07  0.3961976E+04  0.7818609E-02  0.8012261E-01
        2   -1    0    0  501    0  0.00000000000E+00  0.00000000000E+00  0.21421537455E+04  0.21421537455E+04  0.25500000920E-02 0.  1.
       -2   -1    0    0    0  501  0.00000000000E+00  0.00000000000E+00 -0.18319480014E+04  0.18319480014E+04  0.25500000920E-02 0. -1.
    10030    2    1    2    0    0  0.00000000000E+00  0.00000000000E+00  0.31020574404E+03  0.39741017469E+04  0.39619764122E+04 0.  0.
        2    1    3    3  502    0  0.74221341753E+03 -0.37565119318E+03 -0.16482646779E+04  0.18462857375E+04  0.25500000920E-02 0. -1.
       -2    1    3    3    0  502 -0.74221341753E+03  0.37565119318E+03  0.19584704220E+04  0.21278160094E+04  0.25500000920E-02 0.  1.
</event>
<event>
 5   0  0.3399500E-08  0.4048931E+04  0.7818609E-02  0.7994748E-01
        1   -1    0    0  501    0  0.00000000000E+00  0.00000000000E+00  0.24267962173E+04  0.24267962173E+04  0.50400001928E-02 0. -1.
       -1   -1    0    0    0  501  0.00000000000E+00  0.00000000000E+00 -0.16888360413E+04  0.16888360413E+04  0.50400001928E-02 0.  1.
    10030    2    1    2    0    0  0.00000000000E+00  0.00000000000E+00  0.73796017597E+03  0.41156322586E+04  0.40489311758E+04 0.  0.
        5    1    3    3  502    0 -0.13615965137E+04 -0.37542382218E+03 -0.11052750885E+04  0.17934723927E+04  0.46999998093E+01 0. -1.
       -5    1    3    3    0  502  0.13615965137E+04  0.37542382218E+03  0.18432352644E+04  0.23221598658E+04  0.46999998093E+01 0.  1.
</event>
<event>
 5   0  0.1095109E-07  0.4031527E+04  0.7818609E-02  0.7998217E-01
        2   -1    0    0  501    0  0.00000000000E+00  0.00000000000E+00  0.25137064311E+04  0.25137064311E+04  0.25500000920E-02 0.  1.
       -2   -1    0    0    0  501  0.00000000000E+00  0.00000000000E+00 -0.16164585187E+04  0.16164585187E+04  0.25500000920E-02 0. -1.
    10030    2    1    2    0    0  0.00000000000E+00  0.00000000000E+00  0.89724791238E+03  0.41301649497E+04  0.40315268442E+04 0.  0.
        4    1    3    3  502    0  0.10555632325E+04 -0.30089527508E+03 -0.12834668261E+04  0.16887985111E+04  0.12699999809E+01 0. -1.
       -4    1    3    3    0  502 -0.10555632325E+04  0.30089527508E+03  0.21807147385E+04  0.24413664387E+04  0.12699999809E+01 0.  1.
</event>
<event>
 5   0  0.1095903E-07  0.3985373E+04  0.7818609E-02  0.8007504E-01
       -2   -1    0    0    0  501  0.00000000000E+00  0.00000000000E+00  0.28408183463E+04  0.28408183463E+04  0.25500000920E-02 0. -1.
        2   -1    0    0  501    0  0.00000000000E+00  0.00000000000E+00 -0.13977662867E+04  0.13977662867E+04  0.25500000920E-02 0.  1.
    10030    2    1    2    0    0  0.00000000000E+00  0.00000000000E+00  0.14430520596E+04  0.42385846331E+04  0.39853733131E+04 0.  0.
        3    1    3    3  502    0  0.12490998128E+04  0.50617285127E+03 -0.83949535589E+03  0.15878330393E+04  0.10100000352E+00 0.  1.
       -3    1    3    3    0  502 -0.12490998128E+04 -0.50617285127E+03  0.22825474155E+04  0.26507515938E+04  0.10100000352E+00 0. -1.
</event>
<event>
 5   0  0.1101474E-07  0.4022405E+04  0.7818609E-02  0.8000042E-01
       -2   -1    0    0    0  501  0.00000000000E+00  0.00000000000E+00  0.22255279660E+04  0.22255279660E+04  0.25500000920E-02 0. -1.
        2   -1    0    0  501    0  0.00000000000E+00  0.00000000000E+00 -0.18175170643E+04  0.18175170643E+04  0.25500000920E-02 0.  1.
    10030    2    1    2    0    0  0.00000000000E+00  0.00000000000E+00  0.40801090168E+03  0.40430450303E+04  0.40224047809E+04 0.  0.
        5    1    3    3  502    0  0.51989547403E+03 -0.17779045202E+04 -0.58338980301E+03  0.19420611574E+04  0.46999998093E+01 0.  1.
       -5    1    3    3    0  502 -0.51989547403E+03  0.17779045202E+04  0.99140070469E+03  0.21009838729E+04  0.46999998093E+01 0. -1.
</event>
<event>
 5   0  0.3399500E-08  0.3921006E+04  0.7818609E-02  0.8020675E-01
       -1   -1    0    0    0  501  0.00000000000E+00  0.00000000000E+00  0.28226000548E+04  0.28226000548E+04  0.50400001928E-02 0. -1.
        1   -1    0    0  501    0  0.00000000000E+00  0.00000000000E+00 -0.13617130139E+04  0.13617130139E+04  0.50400001928E-02 0.  1.
    10030    2    1    2    0    0  0.00000000000E+00  0.00000000000E+00  0.14608870410E+04  0.41843130687E+04  0.39210055994E+04 0.  0.
        4    1    3    3  502    0 -0.10291531988E+04  0.13229492625E+04  0.18157012092E+04  0.24710571729E+04  0.12699999809E+01 0. -1.
       -4    1    3    3    0  502  0.10291531988E+04 -0.13229492625E+04 -0.35481416823E+03  0.17132558958E+04  0.12699999809E+01 0.  1.
</event>
<event>
 5   0  0.3399500E-08  0.4033139E+04  0.7818609E-02  0.7997894E-01
        1   -1    0    0  501    0  0.00000000000E+00  0.00000000000E+00  0.28211283244E+04  0.28211283244E+04  0.50400001928E-02 0. -1.
       -1   -1    0    0    0  501  0.00000000000E+00  0.00000000000E+00 -0.14414634505E+04  0.14414634505E+04  0.50400001928E-02 0.  1.
    10030    2    1    2    0    0  0.00000000000E+00  0.00000000000E+00  0.13796648738E+04  0.42625917749E+04  0.40331394069E+04 0.  0.
        3    1    3    3  502    0 -0.40704233192E+03  0.73848222788E+03  0.26258532851E+04  0.27579240283E+04  0.10100000352E+00 0. -1.
       -3    1    3    3    0  502  0.40704233192E+03 -0.73848222788E+03 -0.12461884113E+04  0.15046677466E+04  0.10100000352E+00 0.  1.
</event>
<event>
 5   0  0.3399500E-08  0.4073647E+04  0.7818609E-02  0.7989852E-01
        1   -1    0    0  501    0  0.00000000000E+00  0.00000000000E+00  0.28748229927E+04  0.28748229927E+04  0.50400001928E-02 0. -1.
       -1   -1    0    0    0  501  0.00000000000E+00  0.00000000000E+00 -0.14430976884E+04  0.14430976884E+04  0.50400001928E-02 0.  1.
    10030    2    1    2    0    0  0.00000000000E+00  0.00000000000E+00  0.14317253043E+04  0.43179206811E+04  0.40736472186E+04 0.  0.
        5    1    3    3  502    0 -0.13044261155E+04  0.11816042652E+04  0.18024745601E+04  0.25192563903E+04  0.46999998093E+01 0. -1.
       -5    1    3    3    0  502  0.13044261155E+04 -0.11816042652E+04 -0.37074925585E+03  0.17986642908E+04  0.46999998093E+01 0.  1.
</event>
<event>
 5   0  0.1095109E-07  0.4012505E+04  0.7818609E-02  0.8002029E-01
       -2   -1    0    0    0  501  0.00000000000E+00  0.00000000000E+00  0.14514492810E+04  0.14514492810E+04  0.25500000920E-02 0. -1.
        2   -1    0    0  501    0  0.00000000000E+00  0.00000000000E+00 -0.27731244780E+04  0.27731244780E+04  0.25500000920E-02 0.  1.
    10030    2    1    2    0    0  0.00000000000E+00  0.00000000000E+00 -0.13216751971E+04  0.42245737590E+04  0.40125052173E+04 0.  0.
        4    1    3    3  502    0  0.17605803825E+04 -0.18945896827E+03 -0.16538225984E+04  0.24229463023E+04  0.12699999809E+01 0.  1.
       -4    1    3    3    0  502 -0.17605803825E+04  0.18945896827E+03  0.33214740138E+03  0.18016274567E+04  0.12699999809E+01 0. -1.
</event>
<event>
 5   0  0.1073271E-07  0.4006732E+04  0.7818609E-02  0.8003190E-01
        2   -1    0    0  501    0  0.00000000000E+00  0.00000000000E+00  0.29141867389E+04  0.29141867389E+04  0.25500000920E-02 0. -1.
       -2   -1    0    0    0  501  0.00000000000E+00  0.00000000000E+00 -0.13772193926E+04  0.13772193926E+04  0.25500000920E-02 0.  1.
    10030    2    1    2    0    0  0.00000000000E+00  0.00000000000E+00  0.15369673463E+04  0.42914061315E+04  0.40067315810E+04 0.  0.
        1    1    3    3  502    0 -0.25150542595E+03  0.53619744866E+03 -0.12813128043E+04  0.14115683426E+04  0.50400001928E-02 0.  1.
       -1    1    3    3    0  502  0.25150542595E+03 -0.53619744866E+03  0.28182801506E+04  0.28798377889E+04  0.50400001928E-02 0. -1.
</event>
<event>
 5   0  0.1101474E-07  0.3994168E+04  0.7818609E-02  0.8005724E-01
       -2   -1    0    0    0  501  0.00000000000E+00  0.00000000000E+00  0.21362991060E+04  0.21362991060E+04  0.25500000920E-02 0.  1.
        2   -1    0    0  501    0  0.00000000000E+00  0.00000000000E+00 -0.18669409251E+04  0.18669409251E+04  0.25500000920E-02 0. -1.
    10030    2    1    2    0    0  0.00000000000E+00  0.00000000000E+00  0.26935818083E+03  0.40032400311E+04  0.39941678629E+04 0.  0.
        5    1    3    3  502    0  0.11419677710E+04 -0.76330097055E+03 -0.13183044571E+04  0.19038559539E+04  0.46999998093E+01 0. -1.
       -5    1    3    3    0  502 -0.11419677710E+04  0.76330097055E+03  0.15876626379E+04  0.20993840772E+04  0.46999998093E+01 0.  1.
</event>
<event>
 5   0  0.1095109E-07  0.3994712E+04  0.7818609E-02  0.8005614E-01
        2   -1    0    0  501    0  0.00000000000E+00  0.00000000000E+00  0.20690889257E+04  0.20690889257E+04  0.25500000920E-02 0.  1.
       -2   -1    0    0    0  501  0.00000000000E+00  0.00000000000E+00 -0.19281104446E+04  0.19281104446E+04  0.25500000920E-02 0. -1.
    10030    2    1    2    0    0  0.00000000000E+00  0.00000000000E+00  0.14097848104E+03  0.39971993703E+04  0.39947124895E+04 0.  0.
        4    1    3    3  502    0  0.30475232006E+03 -0.72244198179E+03  0.19086505447E+04  0.20634303740E+04  0.12699999809E+01 0.  1.
       -4    1    3    3    0  502 -0.30475232006E+03  0.72244198179E+03 -0.17676720636E+04  0.19337689963E+04  0.12699999809E+01 0. -1.
</event>
<event>
 5   0  0.1087688E-07  0.4006903E+04  0.7818609E-02  0.8003155E-01
       -2   -1    0    0    0  501  0.00000000000E+00  0.00000000000E+00  0.19582054865E+04  0.19582054865E+04  0.25500000920E-02 0. -1.
        2   -1    0    0  501    0  0.00000000000E+00  0.00000000000E+00 -0.20497429934E+04  0.20497429934E+04  0.25500000920E-02 0.  1.
    10030    2    1    2    0    0  0.00000000000E+00  0.00000000000E+00 -0.91537506909E+02  0.40079484799E+04  0.40069030313E+04 0.  0.
        2    1    3    3  502    0  0.50368801714E+03 -0.64634766403E+03 -0.18744555500E+04  0.20457396047E+04  0.25500000920E-02 0.  1.
       -2    1    3    3    0  502 -0.50368801714E+03  0.64634766403E+03  0.17829180431E+04  0.19622088752E+04  0.25500000920E-02 0. -1.
</event>
<event>
 5   0  0.1101474E-07  0.4004068E+04  0.7818609E-02  0.8003726E-01
       -2   -1    0    0    0  501  0.00000000000E+00  0.00000000000E+00  0.16257858784E+04  0.16257858784E+04  0.25500000920E-02 0. -1.
        2   -1    0    0  501    0  0.00000000000E+00  0.00000000000E+00 -0.24653558217E+04  0.24653558217E+04  0.25500000920E-02 0.  1.
    10030    2    1    2    0    0  0.00000000000E+00  0.00000000000E+00 -0.83956994332E+03  0.40911417000E+04  0.40040682711E+04 0.  0.
        5    1    3    3  502    0  0.15544450045E+04 -0.10882267946E+04  0.23251959513E+03  0.19117071640E+04  0.46999998093E+01 0. -1.
       -5    1    3    3    0  502 -0.15544450045E+04  0.10882267946E+04 -0.10720895385E+04  0.21794345361E+04  0.46999998093E+01 0.  1.
</event>
<event>
 5   0  0.1101474E-07  0.4081666E+04  0.7818609E-02  0.7988272E-01
        2   -1    0    0  501    0  0.00000000000E+00  0.00000000000E+00  0.29990306103E+04  0.29990306103E+04  0.25500000920E-02 0.  1.
       -2   -1    0    0    0  501  0.00000000000E+00  0.00000000000E+00 -0.13887817440E+04  0.13887817440E+04  0.25500000920E-02 0. -1.
    10030    2    1    2    0    0  0.00000000000E+00  0.00000000000E+00  0.16102488663E+04  0.43878123543E+04  0.40816658175E+04 0.  0.
        5    1    3    3  502    0  0.11922220575E+03 -0.10711319995E+04 -0.10579063159E+04  0.15102071241E+04  0.46999998093E+01 0. -1.
       -5    1    3    3    0  502 -0.11922220575E+03  0.10711319995E+04  0.26681551822E+04  0.28776052302E+04  0.46999998093E+01 0.  1.
</event>
<event>
 5   0  0.3399500E-08  0.3995966E+04  0.7818609E-02  0.8005361E-01
       -1   -1    0    0    0  501  0.00000000000E+00  0.00000000000E+00  0.16879143750E+04  0.16879143750E+04  0.50400001928E-02 0.  1.
        1   -1    0    0  501    0  0.00000000000E+00  0.00000000000E+00 -0.23650104665E+04  0.23650104665E+04  0.50400001928E-02 0. -1.
    10030    2    1    2    0    0  0.00000000000E+00  0.00000000000E+00 -0.67709609154E+03  0.40529248415E+04  0.39959655472E+04 0.  0.
        2    1    3    3  502    0  0.51736260249E+03  0.17162151579E+04  0.55657173070E+03  0.18769205157E+04  0.25500000920E-02 0.  1.
       -2    1    3    3    0  502 -0.51736260249E+03 -0.17162151579E+04 -0.12336678222E+04  0.21760043259E+04  0.25500000920E-02 0. -1.
</event>
<event>
 5   0  0.3399500E-08  0.4009860E+04  0.7818609E-02  0.8002560E-01
        1   -1    0    0  501    0  0.00000000000E+00  0.00000000000E+00  0.17914429711E+04  0.17914429711E+04  0.50400001928E-02 0.  1.
       -1   -1    0    0    0  501  0.00000000000E+00  0.00000000000E+00 -0.22438587572E+04  0.22438587572E+04  0.50400001928E-02 0. -1.
    10030    2    1    2    0    0  0.00000000000E+00  0.00000000000E+00 -0.45241578607E+03  0.40353017283E+04  0.40098603461E+04 0.  0.
        2    1    3    3  502    0  0.72505510378E+03 -0.58376827049E+03  0.15607992643E+04  0.18173014722E+04  0.25500000920E-02 0.  1.
       -2    1    3    3    0  502 -0.72505510378E+03  0.58376827049E+03 -0.20132150504E+04  0.22180002562E+04  0.25500000920E-02 0. -1.
</event>
<event>
 5   0  0.3399500E-08  0.4014447E+04  0.7818609E-02  0.8001638E-01
       -1   -1    0    0    0  501  0.00000000000E+00  0.00000000000E+00  0.24926787086E+04  0.24926787086E+04  0.50400001928E-02 0. -1.
        1   -1    0    0  501    0  0.00000000000E+00  0.00000000000E+00 -0.16163120192E+04  0.16163120192E+04  0.50400001928E-02 0.  1.
    10030    2    1    2    0    0  0.00000000000E+00  0.00000000000E+00  0.87636668942E+03  0.41089907278E+04  0.40144471882E+04 0.  0.
        2    1    3    3  502    0 -0.21787507569E+03 -0.10885395246E+03 -0.16011316280E+04  0.16195496972E+04  0.25500000920E-02 0.  1.
       -2    1    3    3    0  502  0.21787507569E+03  0.10885395246E+03  0.24774983174E+04  0.24894410305E+04  0.25500000920E-02 0. -1.
</event>
<event>
 5   0  0.3399500E-08  0.4043007E+04  0.7818609E-02  0.7995926E-01
        1   -1    0    0  501    0  0.00000000000E+00  0.00000000000E+00  0.13921240138E+04  0.13921240138E+04  0.50400001928E-02 0.  1.
       -1   -1    0    0    0  501  0.00000000000E+00  0.00000000000E+00 -0.29354261613E+04  0.29354261613E+04  0.50400001928E-02 0. -1.
    10030    2    1    2    0    0  0.00000000000E+00  0.00000000000E+00 -0.15433021475E+04  0.43275501751E+04  0.40430074201E+04 0.  0.
        5    1    3    3  502    0  0.12717170055E+04 -0.24512749647E+03  0.88971487660E+03  0.15712944610E+04  0.46999998093E+01 0.  1.
       -5    1    3    3    0  502 -0.12717170055E+04  0.24512749647E+03 -0.24330170241E+04  0.27562557140E+04  0.46999998093E+01 0. -1.
</event>
<event>
 5   0  0.1095903E-07  0.4008506E+04  0.7818609E-02  0.8002833E-01
        2   -1    0    0  501    0  0.00000000000E+00  0.00000000000E+00  0.21331180105E+04  0.21331180105E+04  0.25500000920E-02 0.  1.
       -2   -1    0    0    0  501  0.00000000000E+00  0.00000000000E+00 -0.18831725011E+04  0.18831725011E+04  0.25500000920E-02 0. -1.
    10030    2    1    2    0    0  0.00000000000E+00  0.00000000000E+00  0.24994550942E+03  0.40162905116E+04  0.40085055465E+04 0.  0.
        3    1    3    3  502    0  0.10287085177E+04  0.17196185583E+04  0.16628350323E+03  0.20107161446E+04  0.10100000352E+00 0. -1.
       -3    1    3    3    0  502 -0.10287085177E+04 -0.17196185583E+04  0.83662006189E+02  0.20055743671E+04  0.10100000352E+00 0.  1.
</event>
<event>
 5   0  0.3399500E-08  0.3961592E+04  0.7818609E-02  0.8012340E-01
        1   -1    0    0  501    0  0.00000000000E+00  0.00000000000E+00  0.11766044552E+04  0.11766044552E+04  0.50400001928E-02 0.  1.
       -1   -1    0    0    0  501  0.00000000000E+00  0.00000000000E+00 -0.33346406099E+04  0.33346406099E+04  0.50400001928E-02 0. -1.
    10030    2    1    2    0    0  0.00000000000E+00  0.00000000000E+00 -0.21580361547E+04  0.45112450651E+04  0.39615921032E+04 0.  0.
        3    1    3    3  502    0 -0.19702705837E+04  0.12205454232E+03 -0.12650540415E+04  0.23446162207E+04  0.10100000352E+00 0. -1.
       -3    1    3    3    0  502  0.19702705837E+04 -0.12205454232E+03 -0.89298211318E+03  0.21666288443E+04  0.10100000352E+00 0.  1.
</event>
<event>
 5   0  0.3399500E-08  0.4019494E+04  0.7818609E-02  0.8000626E-01
       -1   -1    0    0    0  501  0.00000000000E+00  0.00000000000E+00  0.31895828360E+04  0.31895828360E+04  0.50400001928E-02 0.  1.
        1   -1    0    0  501    0  0.00000000000E+00  0.00000000000E+00 -0.12663357798E+04  0.12663357798E+04  0.50400001928E-02 0. -1.
    10030    2    1    2    0    0  0.00000000000E+00  0.00000000000E+00  0.19232470562E+04  0.44559186158E+04  0.40194939323E+04 0.  0.
        2    1    3    3  502    0 -0.12695815585E+04 -0.25599954868E+03 -0.74202159910E+03  0.14926383206E+04  0.25500000920E-02 0. -1.
       -2    1    3    3    0  502  0.12695815585E+04  0.25599954868E+03  0.26652686553E+04  0.29632802952E+04  0.25500000920E-02 0.  1.
</event>
<event>
 5   0  0.3399500E-08  0.4017771E+04  0.7818609E-02  0.8000971E-01
        1   -1    0    0  501    0  0.00000000000E+00  0.00000000000E+00  0.17225862924E+04  0.17225862924E+04  0.50400001928E-02 0. -1.
       -1   -1    0    0    0  501  0.00000000000E+00  0.00000000000E+00 -0.23427685497E+04  0.23427685497E+04  0.50400001928E-02 0.  1.
    10030    2    1    2    0    0  0.00000000000E+00  0.00000000000E+00 -0.62018225729E+03  0.40653548421E+04  0.40177710189E+04 0.  0.
        5    1    3    3  502    0  0.14720992561E+04  0.11799069491E+04  0.38825839087E+03  0.19261420759E+04  0.46999998093E+01 0. -1.
       -5    1    3    3    0  502 -0.14720992561E+04 -0.11799069491E+04 -0.10084406482E+04  0.21392127662E+04  0.46999998093E+01 0.  1.
</event>
<event>
 5   0  0.1087688E-07  0.3973087E+04  0.7818609E-02  0.8009998E-01
        2   -1    0    0  501    0  0.00000000000E+00  0.00000000000E+00  0.18236583825E+04  0.18236583825E+04  0.25500000920E-02 0.  1.
       -2   -1    0    0    0  501  0.00000000000E+00  0.00000000000E+00 -0.21639768842E+04  0.21639768842E+04  0.25500000920E-02 0. -1.
    10030    2    1    2    0    0  0.00000000000E+00  0.00000000000E+00 -0.34031850170E+03  0.39876352668E+04  0.39730867519E+04 0.  0.
        2    1    3    3  502    0 -0.10905681364E+04  0.23132109959E+03 -0.18204143036E+04  0.21346560726E+04  0.25500000920E-02 0. -1.
       -2    1    3    3    0  502  0.10905681364E+04 -0.23132109959E+03  0.14800958019E+04  0.18529791942E+04  0.25500000920E-02 0.  1.
</event>
<event>
 5   0  0.1095109E-07  0.3675438E+04  0.7818609E-02  0.8073427E-01
        2   -1    0    0  501    0  0.00000000000E+00  0.00000000000E+00  0.14497842843E+04  0.14497842843E+04  0.25500000920E-02 0. -1.
       -2   -1    0    0    0  501  0.00000000000E+00  0.00000000000E+00 -0.23294574758E+04  0.23294574758E+04  0.25500000920E-02 0.  1.
    10030    2    1    2    0    0  0.00000000000E+00  0.00000000000E+00 -0.87967319150E+03  0.37792417600E+04  0.36754378456E+04 0.  0.
        4    1    3    3  502    0  0.64818079392E+03  0.26972735850E+03 -0.21861298036E+04  0.22960958866E+04  0.12699999809E+01 0.  1.
       -4    1    3    3    0  502 -0.64818079392E+03 -0.26972735850E+03  0.13064566121E+04  0.14831458734E+04  0.12699999809E+01 0. -1.
</event>
<event>
 5   0  0.3399500E-08  0.3997925E+04  0.7818609E-02  0.8004965E-01
        1   -1    0    0  501    0  0.00000000000E+00  0.00000000000E+00  0.25487121385E+04  0.25487121385E+04  0.50400001928E-02 0.  1.
       -1   -1    0    0    0  501  0.00000000000E+00  0.00000000000E+00 -0.15677920390E+04  0.15677920390E+04  0.50400001928E-02 0. -1.
    10030    2    1    2    0    0  0.00000000000E+00  0.00000000000E+00  0.98092009950E+03  0.41165041774E+04  0.39979247618E+04 0.  0.
        3    1    3    3  502    0 -0.36761570359E+03  0.16520558249E+04  0.15856918116E+04  0.23192344180E+04  0.10100000352E+00 0.  1.
       -3    1    3    3    0  502  0.36761570359E+03 -0.16520558249E+04 -0.60477171208E+03  0.17972697594E+04  0.10100000352E+00 0. -1.
</event>
<event>
 5   0  0.1087688E-07  0.3980278E+04  0.7818609E-02  0.8008537E-01
        2   -1    0    0  501    0  0.00000000000E+00  0.00000000000E+00  0.29231173636E+04  0.29231173636E+04  0.25500000920E-02 0.  1.
       -2   -1    0    0    0  501  0.00000000000E+00  0.00000000000E+00 -0.13549413458E+04  0.13549413458E+04  0.25500000920E-02 0. -1.
    10030    2    1    2    0    0  0.00000000000E+00  0.00000000000E+00  0.15681760178E+04  0.42780587094E+04  0.39802776659E+04 0.  0.
        2    1    3    3  502    0  0.83839652119E+03  0.10418266925E+03 -0.11526333683E+04  0.14290998695E+04  0.25500000920E-02 0. -1.
       -2    1    3    3    0  502 -0.83839652119E+03 -0.10418266925E+03  0.27208093861E+04  0.28489588398E+04  0.25500000920E-02 0.  1.
</event>
<event>
 5   0  0.3399500E-08  0.3968716E+04  0.7818609E-02  0.8010887E-01
       -3   -1    0    0    0  501  0.00000000000E+00  0.00000000000E+00  0.22460691869E+04  0.22460691892E+04  0.10100000352E+00 0. -1.
        3   -1    0    0  501    0  0.00000000000E+00  0.00000000000E+00 -0.17531415958E+04  0.17531415988E+04  0.10100000352E+00 0.  1.
    10030    2    1    2    0    0  0.00000000000E+00  0.00000000000E+00  0.49292759108E+03  0.39992107880E+04  0.39687163311E+04 0.  0.
        2    1    3    3  502    0  0.11666961971E+04 -0.69235432326E+03 -0.12128148903E+04  0.18197402242E+04  0.25500000920E-02 0.  1.
       -2    1    3    3    0  502 -0.11666961971E+04  0.69235432326E+03  0.17057424814E+04  0.21794705638E+04  0.25500000920E-02 0. -1.
</event>
<event>
 5   0  0.3399500E-08  0.3972108E+04  0.7818609E-02  0.8010197E-01
        1   -1    0    0  501    0  0.00000000000E+00  0.00000000000E+00  0.12288175384E+04  0.12288175384E+04  0.50400001928E-02 0. -1.
       -1   -1    0    0    0  501  0.00000000000E+00  0.00000000000E+00 -0.32099235458E+04  0.32099235458E+04  0.50400001928E-02 0.  1.
    10030    2    1    2    0    0  0.00000000000E+00  0.00000000000E+00 -0.19811060075E+04  0.44387410842E+04  0.39721079290E+04 0.  0.
        1    1    3    3  502    0  0.11705308355E+04  0.12616197453E+04 -0.20982564653E+04  0.27137625196E+04  0.50400001928E-02 0.  1.
       -1    1    3    3    0  502 -0.11705308355E+04 -0.12616197453E+04  0.11715045787E+03  0.17249785646E+04  0.50400001928E-02 0. -1.
</event>
<event>
 5   0  0.3399500E-08  0.4006883E+04  0.7818609E-02  0.8003159E-01
       -1   -1    0    0    0  501  0.00000000000E+00  0.00000000000E+00  0.17287143742E+04  0.17287143742E+04  0.50400001928E-02 0. -1.
        1   -1    0    0  501    0  0.00000000000E+00  0.00000000000E+00 -0.23218287246E+04  0.23218287246E+04  0.50400001928E-02 0.  1.
    10030    2    1    2    0    0  0.00000000000E+00  0.00000000000E+00 -0.59311435042E+03  0.40505430989E+04  0.40068834227E+04 0.  0.
        4    1    3    3  502    0 -0.21961900355E+03 -0.17367732315E+04 -0.12814228974E+04  0.21694838140E+04  0.12699999809E+01 0.  1.
       -4    1    3    3    0  502  0.21961900355E+03  0.17367732315E+04  0.68830854697E+03  0.18810592849E+04  0.12699999809E+01 0. -1.
</event>
<event>
 5   0  0.3399500E-08  0.3992595E+04  0.7818609E-02  0.8006042E-01
       -3   -1    0    0    0  501  0.00000000000E+00  0.00000000000E+00  0.16110349788E+04  0.16110349819E+04  0.10100000352E+00 0.  1.
        3   -1    0    0  501    0  0.00000000000E+00  0.00000000000E+00 -0.24736915309E+04  0.24736915329E+04  0.10100000352E+00 0. -1.
    10030    2    1    2    0    0  0.00000000000E+00  0.00000000000E+00 -0.86265655212E+03  0.40847265149E+04  0.39925949424E+04 0.  0.
        4    1    3    3  502    0  0.12771171580E+04 -0.13188975275E+04  0.37078065800E+03  0.18729652512E+04  0.12699999809E+01 0.  1.
       -4    1    3    3    0  502 -0.12771171580E+04  0.13188975275E+04 -0.12334372101E+04  0.22117612636E+04  0.12699999809E+01 0. -1.
</event>
<event>
 5   0  0.3399500E-08  0.3997515E+04  0.7818609E-02  0.8005048E-01
       -1   -1    0    0    0  501  0.00000000000E+00  0.00000000000E+00  0.15698079633E+04  0.15698079633E+04  0.50400001928E-02 0. -1.
        1   -1    0    0  501    0  0.00000000000E+00  0.00000000000E+00 -0.25449172945E+04  0.25449172945E+04  0.50400001928E-02 0.  1.
    10030    2    1    2    0    0  0.00000000000E+00  0.00000000000E+00 -0.97510933124E+03  0.41147252578E+04  0.39975149455E+04 0.  0.
        3    1    3    3  502    0  0.15674489792E+04  0.10486747406E+04  0.19398972467E+03  0.18958499511E+04  0.10100000352E+00 0. -1.
       -3    1    3    3    0  502 -0.15674489792E+04 -0.10486747406E+04 -0.11690990559E+04  0.22188753067E+04  0.10100000352E+00 0.  1.
</event>
<event>
 5   0  0.1095903E-07  0.4011936E+04  0.7818609E-02  0.8002143E-01
        2   -1    0    0  501    0  0.00000000000E+00  0.00000000000E+00  0.31167312026E+04  0.31167312026E+04  0.25500000920E-02 0.  1.
       -2   -1    0    0    0  501  0.00000000000E+00  0.00000000000E+00 -0.12910664576E+04  0.12910664576E+04  0.25500000920E-02 0. -1.
    10030    2    1    2    0    0  0.00000000000E+00  0.00000000000E+00  0.18256647451E+04  0.44077976602E+04  0.40119357487E+04 0.  0.
        3    1    3    3  502    0  0.22016748196E+03  0.38531345318E+03  0.30621224578E+04  0.30941128186E+04  0.10100000352E+00 0.  1.
       -3    1    3    3    0  502 -0.22016748196E+03 -0.38531345318E+03 -0.12364577128E+04  0.13136848416E+04  0.10100000352E+00 0. -1.
</event>
<event>
 5   0  0.1095903E-07  0.4003674E+04  0.7818609E-02  0.8003806E-01
       -2   -1    0    0    0  501  0.00000000000E+00  0.00000000000E+00  0.14592892895E+04  0.14592892895E+04  0.25500000920E-02 0.  1.
        2   -1    0    0  501    0  0.00000000000E+00  0.00000000000E+00 -0.27460984864E+04  0.27460984864E+04  0.25500000920E-02 0. -1.
    10030    2    1    2    0    0  0.00000000000E+00  0.00000000000E+00 -0.12868091969E+04  0.42053877759E+04  0.40036743670E+04 0.  0.
        3    1    3    3  502    0 -0.29861701706E+03  0.15446302551E+04  0.65682134066E+03  0.17048369517E+04  0.10100000352E+00 0.  1.
       -3    1    3    3    0  502  0.29861701706E+03 -0.15446302551E+04 -0.19436305376E+04  0.25005508243E+04  0.10100000352E+00 0. -1.
</event>
<event>
 5   0  0.3399500E-08  0.3984608E+04  0.7818609E-02  0.8007659E-01
        1   -1    0    0  501    0  0.00000000000E+00  0.00000000000E+00  0.27959417941E+04  0.27959417941E+04  0.50400001928E-02 0. -1.
       -1   -1    0    0    0  501  0.00000000000E+00  0.00000000000E+00 -0.14196560428E+04  0.14196560428E+04  0.50400001928E-02 0.  1.
    10030    2    1    2    0    0  0.00000000000E+00  0.00000000000E+00  0.13762857513E+04  0.42155978369E+04  0.39846082183E+04 0.  0.
        5    1    3    3  502    0 -0.19011237476E+04 -0.49382157264E+03  0.10408174934E+04  0.22229382344E+04  0.46999998093E+01 0. -1.
       -5    1    3    3    0  502  0.19011237476E+04  0.49382157264E+03  0.33546825784E+03  0.19926596025E+04  0.46999998093E+01 0.  1.
</event>
<event>
 5   0  0.3399500E-08  0.3984914E+04  0.7818609E-02  0.8007597E-01
        1   -1    0    0  501    0  0.00000000000E+00  0.00000000000E+00  0.23114846243E+04  0.23114846243E+04  0.50400001928E-02 0.  1.
       -1   -1    0    0    0  501  0.00000000000E+00  0.00000000000E+00 -0.17174614657E+04  0.17174614657E+04  0.50400001928E-02 0. -1.
    10030    2    1    2    0    0  0.00000000000E+00  0.00000000000E+00  0.59402315864E+03  0.40289460900E+04  0.39849144386E+04 0.  0.
        3    1    3    3  502    0 -0.36597657199E+03 -0.26847124689E+03  0.22585181555E+04  0.23036753093E+04  0.10100000352E+00 0.  1.
       -3    1    3    3    0  502  0.36597657199E+03  0.26847124689E+03 -0.16644949969E+04  0.17252707806E+04  0.10100000352E+00 0. -1.
</event>
<event>
 5   0  0.3399500E-08  0.3994089E+04  0.7818609E-02  0.8005740E-01
       -1   -1    0    0    0  501  0.00000000000E+00  0.00000000000E+00  0.26475199028E+04  0.26475199028E+04  0.50400001928E-02 0. -1.
        1   -1    0    0  501    0  0.00000000000E+00  0.00000000000E+00 -0.15063860116E+04  0.15063860117E+04  0.50400001928E-02 0.  1.
    10030    2    1    2    0    0  0.00000000000E+00  0.00000000000E+00  0.11411338912E+04  0.41539059145E+04  0.39940891063E+04 0.  0.
        3    1    3    3  502    0  0.51580832430E+03  0.12624103458E+04  0.20878636438E+04  0.24937747922E+04  0.10100000352E+00 0. -1.
       -3    1    3    3    0  502 -0.51580832430E+03 -0.12624103458E+04 -0.94672975263E+03  0.16601311223E+04  0.10100000352E+00 0.  1.
</event>
<event>
 5   0  0.1087688E-07  0.3984545E+04  0.7818609E-02  0.8007672E-01
       -2   -1    0    0    0  501  0.00000000000E+00  0.00000000000E+00  0.18730022800E+04  0.18730022800E+04  0.25500000920E-02 0.  1.
        2   -1    0    0  501    0  0.00000000000E+00  0.00000000000E+00 -0.21191374994E+04  0.21191374994E+04  0.25500000920E-02 0. -1.
    10030    2    1    2    0    0  0.00000000000E+00  0.00000000000E+00 -0.24613521950E+03  0.39921397794E+04  0.39845448262E+04 0.  0.
        2    1    3    3  502    0  0.29869408403E+03 -0.68746255649E+03  0.17263453393E+04  0.18820444078E+04  0.25500000920E-02 0.  1.
       -2    1    3    3    0  502 -0.29869408403E+03  0.68746255649E+03 -0.19724805588E+04  0.21100953716E+04  0.25500000920E-02 0. -1.
</event>
<event>
 5   0  0.1087688E-07  0.4002958E+04  0.7818609E-02  0.8003950E-01
        2   -1    0    0  501    0  0.00000000000E+00  0.00000000000E+00  0.22630035038E+04  0.22630035038E+04  0.25500000920E-02 0.  1.
       -2   -1    0    0    0  501  0.00000000000E+00  0.00000000000E+00 -0.17701775936E+04  0.17701775936E+04  0.25500000920E-02 0. -1.
    10030    2    1    2    0    0  0.00000000000E+00  0.00000000000E+00  0.49282591019E+03  0.40331810974E+04  0.40029579547E+04 0.  0.
        2    1    3    3  502    0 -0.12145342626E+03 -0.15139209319E+04 -0.10669667333E+04  0.18561049358E+04  0.25500000920E-02 0. -1.
       -2    1    3    3    0  502  0.12145342626E+03  0.15139209319E+04  0.15597926435E+04  0.21770761616E+04  0.25500000920E-02 0.  1.
</event>
<event>
 5   0  0.3399500E-08  0.4011668E+04  0.7818609E-02  0.8002197E-01
        1   -1    0    0  501    0  0.00000000000E+00  0.00000000000E+00  0.17601949563E+04  0.17601949563E+04  0.50400001928E-02 0. -1.
       -1   -1    0    0    0  501  0.00000000000E+00  0.00000000000E+00 -0.22857528608E+04  0.22857528608E+04  0.50400001928E-02 0.  1.
    10030    2    1    2    0    0  0.00000000000E+00  0.00000000000E+00 -0.52555790446E+03  0.40459478172E+04  0.40116683098E+04 0.  0.
        1    1    3    3  502    0  0.18910483630E+03 -0.15608746690E+04 -0.15189257513E+04  0.21861440505E+04  0.50400001928E-02 0.  1.
       -1    1    3    3    0  502 -0.18910483630E+03  0.15608746690E+04  0.99336784686E+03  0.18598037667E+04  0.50400001928E-02 0. -1.
</event>
<event>
 5   0  0.1073271E-07  0.3996088E+04  0.7818609E-02  0.8005336E-01
        2   -1    0    0  501    0  0.00000000000E+00  0.00000000000E+00  0.32521490764E+04  0.32521490764E+04  0.25500000920E-02 0.  1.
       -2   -1    0    0    0  501  0.00000000000E+00  0.00000000000E+00 -0.12275514438E+04  0.12275514439E+04  0.25500000920E-02 0. -1.
    10030    2    1    2    0    0  0.00000000000E+00  0.00000000000E+00  0.20245976326E+04  0.44797005203E+04  0.39960882345E+04 0.  0.
        1    1    3    3  502    0 -0.12000233383E+04 -0.49982123224E+03  0.27132629398E+04  0.30085998500E+04  0.50400001928E-02 0.  1.
       -1    1    3    3    0  502  0.12000233383E+04  0.49982123224E+03 -0.68866530725E+03  0.14711006703E+04  0.50400001928E-02 0. -1.
</event>
<event>
 5   0  0.1101474E-07  0.4017683E+04  0.7818609E-02  0.8000989E-01
       -2   -1    0    0    0  501  0.00000000000E+00  0.00000000000E+00  0.19636108467E+04  0.19636108467E+04  0.25500000920E-02 0. -1.
        2   -1    0    0  501    0  0.00000000000E+00  0.00000000000E+00 -0.20551135332E+04  0.20551135332E+04  0.25500000920E-02 0.  1.
    10030    2    1    2    0    0  0.00000000000E+00  0.00000000000E+00 -0.91502686487E+02  0.40187243800E+04  0.40176825286E+04 0.  0.
        5    1    3    3  502    0 -0.67297683159E+03  0.79567246240E+03 -0.17635867606E+04  0.20484757347E+04  0.46999998093E+01 0.  1.
       -5    1    3    3    0  502  0.67297683159E+03 -0.79567246240E+03  0.16720840741E+04  0.19702486453E+04  0.46999998093E+01 0. -1.
</event>
<event>
 5   0  0.1101474E-07  0.3996591E+04  0.7818609E-02  0.8005235E-01
        2   -1    0    0  501    0  0.00000000000E+00  0.00000000000E+00  0.15826361886E+04  0.15826361886E+04  0.25500000920E-02 0. -1.
       -2   -1    0    0    0  501  0.00000000000E+00  0.00000000000E+00 -0.25231222208E+04  0.25231222208E+04  0.25500000920E-02 0.  1.
    10030    2    1    2    0    0  0.00000000000E+00  0.00000000000E+00 -0.94048603211E+03  0.41057584094E+04  0.39965908147E+04 0.  0.
        5    1    3    3  502    0 -0.18008685074E+04  0.75837430809E+03 -0.40604783116E+02  0.19544640724E+04  0.46999998093E+01 0.  1.
       -5    1    3    3    0  502  0.18008685074E+04 -0.75837430809E+03 -0.89988124899E+03  0.21512943370E+04  0.46999998093E+01 0. -1.
</event>
<event>
 5   0  0.1087688E-07  0.3992389E+04  0.7818609E-02  0.8006084E-01
        2   -1    0    0  501    0  0.00000000000E+00  0.00000000000E+00  0.18464370475E+04  0.18464370475E+04  0.25500000920E-02 0.  1.
       -2   -1    0    0    0  501  0.00000000000E+00  0.00000000000E+00 -0.21580976827E+04  0.21580976827E+04  0.25500000920E-02 0. -1.
    10030    2    1    2    0    0  0.00000000000E+00  0.00000000000E+00 -0.31166063518E+03  0.40045347302E+04  0.39923885149E+04 0.  0.
        2    1    3    3  502    0  0.19654309525E+04 -0.90214018998E+02  0.18244058617E+03  0.19759407799E+04  0.25500000920E-02 0.  1.
       -2    1    3    3    0  502 -0.19654309525E+04  0.90214018998E+02 -0.49410122135E+03  0.20285939503E+04  0.25500000920E-02 0. -1.
</event>
<event>
 5   0  0.1095903E-07  0.4001072E+04  0.7818609E-02  0.8004330E-01
       -2   -1    0    0    0  501  0.00000000000E+00  0.00000000000E+00  0.29241176170E+04  0.29241176170E+04  0.25500000920E-02 0.  1.
        2   -1    0    0  501    0  0.00000000000E+00  0.00000000000E+00 -0.13686675691E+04  0.13686675691E+04  0.25500000920E-02 0. -1.
    10030    2    1    2    0    0  0.00000000000E+00  0.00000000000E+00  0.15554500479E+04  0.42927851861E+04  0.40010723315E+04 0.  0.
        3    1    3    3  502    0  0.73783954463E+03 -0.17155036997E+04  0.79290900360E+01  0.18674643284E+04  0.10100000352E+00 0. -1.
       -3    1    3    3    0  502 -0.73783954463E+03  0.17155036997E+04  0.15475209579E+04  0.24253208577E+04  0.10100000352E+00 0.  1.
</event>
<event>
 5   0  0.3399500E-08  0.4011678E+04  0.7818609E-02  0.8002195E-01
        1   -1    0    0  501    0  0.00000000000E+00  0.00000000000E+00  0.23697968784E+04  0.23697968784E+04  0.50400001928E-02 0.  1.
       -1   -1    0    0    0  501  0.00000000000E+00  0.00000000000E+00 -0.16977786836E+04  0.16977786836E+04  0.50400001928E-02 0. -1.
    10030    2    1    2    0    0  0.00000000000E+00  0.00000000000E+00  0.67201819481E+03  0.40675755620E+04  0.40116782646E+04 0.  0.
        3    1    3    3  502    0 -0.75662939340E+03  0.62563057252E+03  0.21095204766E+04  0.23267957159E+04  0.10100000352E+00 0.  1.
       -3    1    3    3    0  502  0.75662939340E+03 -0.62563057252E+03 -0.14375022818E+04  0.17407798461E+04  0.10100000352E+00 0. -1.
</event>
<event>
 5   0  0.1095109E-07  0.3999380E+04  0.7818609E-02  0.8004672E-01
        2   -1    0    0  501    0  0.00000000000E+00  0.00000000000E+00  0.21461082828E+04  0.21461082828E+04  0.25500000920E-02 0. -1.
       -2   -1    0    0    0  501  0.00000000000E+00  0.00000000000E+00 -0.18632615376E+04  0.18632615376E+04  0.25500000920E-02 0.  1.
    10030    2    1    2    0    0  0.00000000000E+00  0.00000000000E+00  0.28284674518E+03  0.40093698205E+04  0.39993804615E+04 0.  0.
        4    1    3    3  502    0  0.87411952693E+03  0.17693136338E+04  0.46503566998E+03  0.20275146040E+04  0.12699999809E+01 0. -1.
       -4    1    3    3    0  502 -0.87411952693E+03 -0.17693136338E+04 -0.18218892480E+03  0.19818552165E+04  0.12699999809E+01 0.  1.
</event>
<event>
 5   0  0.3399500E-08  0.4035539E+04  0.7818609E-02  0.7997415E-01
       -1   -1    0    0    0  501  0.00000000000E+00  0.00000000000E+00  0.22568517901E+04  0.22568517901E+04  0.50400001928E-02 0.  1.
        1   -1    0    0  501    0  0.00000000000E+00  0.00000000000E+00 -0.18040149712E+04  0.18040149712E+04  0.50400001928E-02 0. -1.
    10030    2    1    2    0    0  0.00000000000E+00  0.00000000000E+00  0.45283681890E+03  0.40608667613E+04  0.40355393281E+04 0.  0.
        4    1    3    3  502    0  0.89911221217E+03 -0.17477174149E+04  0.68587339942E+03  0.20816682889E+04  0.12699999809E+01 0. -1.
       -4    1    3    3    0  502 -0.89911221217E+03  0.17477174149E+04 -0.23303658052E+03  0.19791984724E+04  0.12699999809E+01 0.  1.
</event>
<event>
 5   0  0.3399500E-08  0.3584038E+04  0.7818609E-02  0.8094158E-01
        1   -1    0    0  501    0  0.00000000000E+00  0.00000000000E+00  0.15047189910E+04  0.15047189910E+04  0.50400001928E-02 0. -1.
       -1   -1    0    0    0  501  0.00000000000E+00  0.00000000000E+00 -0.21341737367E+04  0.21341737367E+04  0.50400001928E-02 0.  1.
    10030    2    1    2    0    0  0.00000000000E+00  0.00000000000E+00 -0.62945474577E+03  0.36388927277E+04  0.35840378077E+04 0.  0.
        1    1    3    3  502    0  0.15933529166E+04 -0.55165690823E+03 -0.93083694925E+03  0.19260208429E+04  0.50400001928E-02 0.  1.
       -1    1    3    3    0  502 -0.15933529166E+04  0.55165690823E+03  0.30138220347E+03  0.17128718848E+04  0.50400001928E-02 0. -1.
</event>
<event>
 5   0  0.1101474E-07  0.4014137E+04  0.7818609E-02  0.8001701E-01
       -2   -1    0    0    0  501  0.00000000000E+00  0.00000000000E+00  0.15549173164E+04  0.15549173164E+04  0.25500000920E-02 0. -1.
        2   -1    0    0  501    0  0.00000000000E+00  0.00000000000E+00 -0.25906995586E+04  0.25906995586E+04  0.25500000920E-02 0.  1.
    10030    2    1    2    0    0  0.00000000000E+00  0.00000000000E+00 -0.10357822422E+04  0.41456168750E+04  0.40141368214E+04 0.  0.
        5    1    3    3  502    0  0.92342563667E+03  0.17792738158E+04 -0.41580349484E+03  0.20473018474E+04  0.46999998093E+01 0.  1.
       -5    1    3    3    0  502 -0.92342563667E+03 -0.17792738158E+04 -0.61997874735E+03  0.20983150276E+04  0.46999998093E+01 0. -1.
</event>
<event>
 5   0  0.3399500E-08  0.4003934E+04  0.7818609E-02  0.8003753E-01
        1   -1    0    0  501    0  0.00000000000E+00  0.00000000000E+00  0.28481706045E+04  0.28481706045E+04  0.50400001928E-02 0.  1.
       -1   -1    0    0    0  501  0.00000000000E+00  0.00000000000E+00 -0.14071738246E+04  0.14071738246E+04  0.50400001928E-02 0. -1.
    10030    2    1    2    0    0  0.00000000000E+00  0.00000000000E+00  0.14409967799E+04  0.42553444292E+04  0.40039336272E+04 0.  0.
        5    1    3    3  502    0  0.80746703289E+03 -0.80310541191E+03 -0.10293564028E+04  0.15351149813E+04  0.46999998093E+01 0. -1.
       -5    1    3    3    0  502 -0.80746703289E+03  0.80310541191E+03  0.24703531827E+04  0.27202294479E+04  0.46999998093E+01 0.  1.
</event>
<event>
 5   0  0.1095903E-07  0.4010528E+04  0.7818609E-02  0.8002426E-01
       -2   -1    0    0    0  501  0.00000000000E+00  0.00000000000E+00  0.16548785164E+04  0.16548785164E+04  0.25500000920E-02 0.  1.
        2   -1    0    0  501    0  0.00000000000E+00  0.00000000000E+00 -0.24298365589E+04  0.24298365589E+04  0.25500000920E-02 0. -1.
    10030    2    1    2    0    0  0.00000000000E+00  0.00000000000E+00 -0.77495804255E+03  0.40847150753E+04  0.40105283042E+04 0.  0.
        3    1    3    3  502    0 -0.17595373382E+03  0.88453291546E+03 -0.22116217753E+04  0.23884365351E+04  0.10100000352E+00 0. -1.
       -3    1    3    3    0  502  0.17595373382E+03 -0.88453291546E+03  0.14366637327E+04  0.16962785402E+04  0.10100000352E+00 0.  1.
</event>
<event>
 5   0  0.1073271E-07  0.3916410E+04  0.7818609E-02  0.8021625E-01
       -2   -1    0    0    0  501  0.00000000000E+00  0.00000000000E+00  0.12363899881E+04  0.12363899881E+04  0.25500000920E-02 0. -1.
        2   -1    0    0  501    0  0.00000000000E+00  0.00000000000E+00 -0.31014210173E+04  0.31014210173E+04  0.25500000920E-02 0.  1.
    10030    2    1    2    0    0  0.00000000000E+00  0.00000000000E+00 -0.18650310292E+04  0.43378110054E+04  0.39164095264E+04 0.  0.
        1    1    3    3  502    0 -0.37078076108E+03  0.48947387017E+03  0.11269939944E+04  0.12834245229E+04  0.50400001928E-02 0. -1.
       -1    1    3    3    0  502  0.37078076108E+03 -0.48947387017E+03 -0.29920250236E+04  0.30543864825E+04  0.50400001928E-02 0.  1.
</event>
<event>
 5   0  0.3399500E-08  0.3992844E+04  0.7818609E-02  0.8005992E-01
       -1   -1    0    0    0  501  0.00000000000E+00  0.00000000000E+00  0.23985353549E+04  0.23985353549E+04  0.50400001928E-02 0. -1.
        1   -1    0    0  501    0  0.00000000000E+00  0.00000000000E+00 -0.16617227216E+04  0.16617227217E+04  0.50400001928E-02 0.  1.
    10030    2    1    2    0    0  0.00000000000E+00  0.00000000000E+00  0.73681263325E+03  0.40602580766E+04  0.39928439478E+04 0.  0.
        2    1    3    3  502    0 -0.16185721222E+04 -0.11495631735E+03  0.15511037565E+04  0.22447524436E+04  0.25500000920E-02 0. -1.
       -2    1    3    3    0  502  0.16185721222E+04  0.11495631735E+03 -0.81429112330E+03  0.18155056329E+04  0.25500000920E-02 0.  1.
</event>
<event>
 5   0  0.3399500E-08  0.4000249E+04  0.7818609E-02  0.8004496E-01
        1   -1    0    0  501    0  0.00000000000E+00  0.00000000000E+00  0.22285616446E+04  0.22285616446E+04  0.50400001928E-02 0. -1.
       -1   -1    0    0    0  501  0.00000000000E+00  0.00000000000E+00 -0.17951030977E+04  0.17951030977E+04  0.50400001928E-02 0.  1.
    10030    2    1    2    0    0  0.00000000000E+00  0.00000000000E+00  0.43345854693E+03  0.40236647423E+04  0.40002489481E+04 0.  0.
        2    1    3    3  502    0  0.12635723801E+04 -0.13419458612E+04 -0.56438844731E+03  0.19276846666E+04  0.25500000920E-02 0.  1.
       -2    1    3    3    0  502 -0.12635723801E+04  0.13419458612E+04  0.99784699423E+03  0.20959800758E+04  0.25500000920E-02 0. -1.
</event>
<event>
 5   0  0.1095903E-07  0.3975360E+04  0.7818609E-02  0.8009536E-01
        2   -1    0    0  501    0  0.00000000000E+00  0.00000000000E+00  0.15863716661E+04  0.15863716661E+04  0.25500000920E-02 0. -1.
       -2   -1    0    0    0  501  0.00000000000E+00  0.00000000000E+00 -0.24905078269E+04  0.24905078269E+04  0.25500000920E-02 0.  1.
    10030    2    1    2    0    0  0.00000000000E+00  0.00000000000E+00 -0.90413616078E+03  0.40768794930E+04  0.39753596319E+04 0.  0.
        3    1    3    3  502    0  0.67702435933E+03 -0.60585924344E+03 -0.22651076668E+04  0.24405204687E+04  0.10100000352E+00 0.  1.
       -3    1    3    3    0  502 -0.67702435933E+03  0.60585924344E+03  0.13609715060E+04  0.16363590243E+04  0.10100000352E+00 0. -1.
</event>
<event>
 5   0  0.1095903E-07  0.3797724E+04  0.7818609E-02  0.8046643E-01
       -2   -1    0    0    0  501  0.00000000000E+00  0.00000000000E+00  0.17669229181E+04  0.17669229181E+04  0.25500000920E-02 0. -1.
        2   -1    0    0  501    0  0.00000000000E+00  0.00000000000E+00 -0.20406533232E+04  0.20406533232E+04  0.25500000920E-02 0.  1.
    10030    2    1    2    0    0  0.00000000000E+00  0.00000000000E+00 -0.27373040517E+03  0.38075762413E+04  0.37977241209E+04 0.  0.
        3    1    3    3  502    0 -0.13900760659E+04  0.11886358418E+04 -0.64859157049E+03  0.19405766331E+04  0.10100000352E+00 0.  1.
       -3    1    3    3    0  502  0.13900760659E+04 -0.11886358418E+04  0.37486116532E+03  0.18669996082E+04  0.10100000352E+00 0. -1.
</event>
<event>
 5   0  0.3399500E-08  0.4011422E+04  0.7818609E-02  0.8002246E-01
       -1   -1    0    0    0  501  0.00000000000E+00  0.00000000000E+00  0.14244504063E+04  0.14244504063E+04  0.50400001928E-02 0.  1.
        1   -1    0    0  501    0  0.00000000000E+00  0.00000000000E+00 -0.28241602973E+04  0.28241602973E+04  0.50400001928E-02 0. -1.
    10030    2    1    2    0    0  0.00000000000E+00  0.00000000000E+00 -0.13997098910E+04  0.42486107037E+04  0.40114218342E+04 0.  0.
        4    1    3    3  502    0  0.14490389172E+04 -0.13520966801E+04 -0.37341746503E+03  0.20167601324E+04  0.12699999809E+01 0.  1.
       -4    1    3    3    0  502 -0.14490389172E+04  0.13520966801E+04 -0.10262924260E+04  0.22318505712E+04  0.12699999809E+01 0. -1.
</event>
<event>
 5   0  0.3399500E-08  0.3754390E+04  0.7818609E-02  0.8056014E-01
       -1   -1    0    0    0  501  0.00000000000E+00  0.00000000000E+00  0.15423528580E+04  0.15423528580E+04  0.50400001928E-02 0. -1.
        1   -1    0    0  501    0  0.00000000000E+00  0.00000000000E+00 -0.22847308388E+04  0.22847308388E+04  0.50400001928E-02 0.  1.
    10030    2    1    2    0    0  0.00000000000E+00  0.00000000000E+00 -0.74237798084E+03  0.38270836968E+04  0.37543900378E+04 0.  0.
        4    1    3    3  502    0 -0.63898170612E+03  0.11990805196E+04  0.94917752048E+03  0.16574170542E+04  0.12699999809E+01 0. -1.
       -4    1    3    3    0  502  0.63898170612E+03 -0.11990805196E+04 -0.16915555013E+04  0.21696666426E+04  0.12699999809E+01 0.  1.
</event>
<event>
 5   0  0.3399500E-08  0.3983978E+04  0.7818609E-02  0.8007787E-01
        1   -1    0    0  501    0  0.00000000000E+00  0.00000000000E+00  0.17724254957E+04  0.17724254957E+04  0.50400001928E-02 0.  1.
       -1   -1    0    0    0  501  0.00000000000E+00  0.00000000000E+00 -0.22387512261E+04  0.22387512261E+04  0.50400001928E-02 0. -1.
    10030    2    1    2    0    0  0.00000000000E+00  0.00000000000E+00 -0.46632573045E+03  0.40111767218E+04  0.39839777870E+04 0.  0.
        1    1    3    3  502    0 -0.11219048622E+04  0.14153540830E+04  0.61288469060E+03  0.19072297565E+04  0.50400001928E-02 0.  1.
       -1    1    3    3    0  502  0.11219048622E+04 -0.14153540830E+04 -0.10792104210E+04  0.21039469654E+04  0.50400001928E-02 0. -1.
</event>
<event>
 5   0  0.3399500E-08  0.4026049E+04  0.7818609E-02  0.7999312E-01
        1   -1    0    0  501    0  0.00000000000E+00  0.00000000000E+00  0.21457642863E+04  0.21457642863E+04  0.50400001928E-02 0. -1.
       -1   -1    0    0    0  501  0.00000000000E+00  0.00000000000E+00 -0.18884961242E+04  0.18884961242E+04  0.50400001928E-02 0.  1.
    10030    2    1    2    0    0  0.00000000000E+00  0.00000000000E+00  0.25726816206E+03  0.40342604105E+04  0.40260489506E+04 0.  0.
        1    1    3    3  502    0  0.86706569732E+02  0.68032333751E+03  0.20250875521E+04  0.21380686300E+04  0.50400001928E-02 0. -1.
       -1    1    3    3    0  502 -0.86706569732E+02 -0.68032333751E+03 -0.17678193900E+04  0.18961917806E+04  0.50400001928E-02 0.  1.
</event>
<event>
 5   0  0.3399500E-08  0.4007482E+04  0.7818609E-02  0.8003039E-01
       -1   -1    0    0    0  501  0.00000000000E+00  0.00000000000E+00  0.23124710741E+04  0.23124710741E+04  0.50400001928E-02 0. -1.
        1   -1    0    0  501    0  0.00000000000E+00  0.00000000000E+00 -0.17362287678E+04  0.17362287678E+04  0.50400001928E-02 0.  1.
    10030    2    1    2    0    0  0.00000000000E+00  0.00000000000E+00  0.57624230624E+03  0.40486998419E+04  0.40074824035E+04 0.  0.
        2    1    3    3  502    0  0.18819265354E+04  0.61862870598E+03  0.59226537550E+03  0.20676380813E+04  0.25500000920E-02 0.  1.
       -2    1    3    3    0  502 -0.18819265354E+04 -0.61862870598E+03 -0.16023069260E+02  0.19810617606E+04  0.25500000920E-02 0. -1.
</event>
<event>
 5   0  0.3399500E-08  0.3988414E+04  0.7818609E-02  0.8006888E-01
        1   -1    0    0  501    0  0.00000000000E+00  0.00000000000E+00  0.16013421550E+04  0.16013421550E+04  0.50400001928E-02 0. -1.
       -1   -1    0    0    0  501  0.00000000000E+00  0.00000000000E+00 -0.24834550491E+04  0.24834550491E+04  0.50400001928E-02 0.  1.
    10030    2    1    2    0    0  0.00000000000E+00  0.00000000000E+00 -0.88211289413E+03  0.40847972041E+04  0.39884138502E+04 0.  0.
        5    1    3    3  502    0  0.10660780798E+04  0.16486166265E+04 -0.82774140407E+02  0.19650274557E+04  0.46999998093E+01 0.  1.
       -5    1    3    3    0  502 -0.10660780798E+04 -0.16486166265E+04 -0.79933875373E+03  0.21197697484E+04  0.46999998093E+01 0. -1.
</event>
<event>
 5   0  0.3399500E-08  0.3943470E+04  0.7818609E-02  0.8016049E-01
        1   -1    0    0  501    0  0.00000000000E+00  0.00000000000E+00  0.12406044099E+04  0.12406044099E+04  0.50400001928E-02 0.  1.
       -1   -1    0    0    0  501  0.00000000000E+00  0.00000000000E+00 -0.31337458826E+04  0.31337458826E+04  0.50400001928E-02 0. -1.
    10030    2    1    2    0    0  0.00000000000E+00  0.00000000000E+00 -0.18931414727E+04  0.43743502926E+04  0.39434700261E+04 0.  0.
        2    1    3    3  502    0 -0.16933667573E+04  0.10044521247E+04 -0.82852961403E+03  0.21360890354E+04  0.25500000920E-02 0.  1.
       -2    1    3    3    0  502  0.16933667573E+04 -0.10044521247E+04 -0.10646118587E+04  0.22382612572E+04  0.25500000920E-02 0. -1.
</event>
<event>
 5   0  0.1073271E-07  0.4006449E+04  0.7818609E-02  0.8003247E-01
        2   -1    0    0  501    0  0.00000000000E+00  0.00000000000E+00  0.30331047947E+04  0.30331047947E+04  0.25500000920E-02 0. -1.
       -2   -1    0    0    0  501  0.00000000000E+00  0.00000000000E+00 -0.13230366523E+04  0.13230366523E+04  0.25500000920E-02 0.  1.
    10030    2    1    2    0    0  0.00000000000E+00  0.00000000000E+00  0.17100681424E+04  0.43561414470E+04  0.40064492078E+04 0.  0.
        1    1    3    3  502    0 -0.85183729112E+03 -0.20257145951E+03  0.28140280551E+04  0.29471029608E+04  0.50400001928E-02 0. -1.
       -1    1    3    3    0  502  0.85183729112E+03  0.20257145951E+03 -0.11039599127E+04  0.14090384862E+04  0.50400001928E-02 0.  1.
</event>
<event>
 5   0  0.1073271E-07  0.3994077E+04  0.7818609E-02  0.8005742E-01
       -2   -1    0    0    0  501  0.00000000000E+00  0.00000000000E+00  0.14264974729E+04  0.14264974729E+04  0.25500000920E-02 0. -1.
        2   -1    0    0  501    0  0.00000000000E+00  0.00000000000E+00 -0.27957728727E+04  0.27957728727E+04  0.25500000920E-02 0.  1.
    10030    2    1    2    0    0  0.00000000000E+00  0.00000000000E+00 -0.13692753998E+04  0.42222703456E+04  0.39940770837E+04 0.  0.
        1    1    3    3  502    0 -0.99109467978E+03  0.16021938504E+04  0.15683246378E+02  0.18840222299E+04  0.50400001928E-02 0. -1.
       -1    1    3    3    0  502  0.99109467978E+03 -0.16021938504E+04 -0.13849586462E+04  0.23382481156E+04  0.50400001928E-02 0.  1.
</event>
<event>
 5   0  0.1087688E-07  0.4006147E+04  0.7818609E-02  0.8003308E-01
       -2   -1    0    0    0  501  0.00000000000E+00  0.00000000000E+00  0.22265054363E+04  0.22265054363E+04  0.25500000920E-02 0.  1.
        2   -1    0    0  501    0  0.00000000000E+00  0.00000000000E+00 -0.18020634170E+04  0.18020634170E+04  0.25500000920E-02 0. -1.
    10030    2    1    2    0    0  0.00000000000E+00  0.00000000000E+00  0.42444201931E+03  0.40285688532E+04  0.40061472736E+04 0.  0.
        2    1    3    3  502    0 -0.53744428423E+03  0.14285949064E+04 -0.10921796097E+04  0.18768553661E+04  0.25500000920E-02 0. -1.
       -2    1    3    3    0  502  0.53744428423E+03 -0.14285949064E+04  0.15166216290E+04  0.21517134872E+04  0.25500000920E-02 0.  1.
</event>
<event>
 5   0  0.3399500E-08  0.3961811E+04  0.7818609E-02  0.8012295E-01
        1   -1    0    0  501    0  0.00000000000E+00  0.00000000000E+00  0.26411923724E+04  0.26411923724E+04  0.50400001928E-02 0.  1.
       -1   -1    0    0    0  501  0.00000000000E+00  0.00000000000E+00 -0.14856877047E+04  0.14856877047E+04  0.50400001928E-02 0. -1.
    10030    2    1    2    0    0  0.00000000000E+00  0.00000000000E+00  0.11555046677E+04  0.41268800771E+04  0.39618112188E+04 0.  0.
        4    1    3    3  502    0  0.15581947116E+04 -0.48073594625E+03 -0.59378861845E+03  0.17354147474E+04  0.12699999809E+01 0. -1.
       -4    1    3    3    0  502 -0.15581947116E+04  0.48073594625E+03  0.17492932862E+04  0.23914653297E+04  0.12699999809E+01 0.  1.
</event>
<event>
 5   0  0.3399500E-08  0.4019431E+04  0.7818609E-02  0.8000638E-01
       -1   -1    0    0    0  501  0.00000000000E+00  0.00000000000E+00  0.30686693852E+04  0.30686693852E+04  0.50400001928E-02 0.  1.
        1   -1    0    0  501    0  0.00000000000E+00  0.00000000000E+00 -0.13161913171E+04  0.13161913171E+04  0.50400001928E-02 0. -1.
    10030    2    1    2    0    0  0.00000000000E+00  0.00000000000E+00  0.17524780682E+04  0.43848607023E+04  0.40194308054E+04 0.  0.
        4    1    3    3  502    0  0.17199779051E+03 -0.82351255683E+03 -0.11148536758E+04  0.13966590502E+04  0.12699999809E+01 0. -1.
       -4    1    3    3    0  502 -0.17199779051E+03  0.82351255683E+03  0.28673317439E+04  0.29882016521E+04  0.12699999809E+01 0.  1.
</event>
<event>
 5   0  0.3399500E-08  0.4003168E+04  0.7818609E-02  0.8003908E-01
        1   -1    0    0  501    0  0.00000000000E+00  0.00000000000E+00  0.17724141299E+04  0.17724141300E+04  0.50400001928E-02 0. -1.
       -1   -1    0    0    0  501  0.00000000000E+00  0.00000000000E+00 -0.22603855329E+04  0.22603855329E+04  0.50400001928E-02 0.  1.
    10030    2    1    2    0    0  0.00000000000E+00  0.00000000000E+00 -0.48797140293E+03  0.40327996628E+04  0.40031683740E+04 0.  0.
        1    1    3    3  502    0 -0.17093050834E+04  0.55696817068E+03 -0.11305004823E+04  0.21236687011E+04  0.50400001928E-02 0.  1.
       -1    1    3    3    0  502  0.17093050834E+04 -0.55696817068E+03  0.64252907939E+03  0.19091309618E+04  0.50400001928E-02 0. -1.
</event>
<event>
 5   0  0.3399500E-08  0.4007506E+04  0.7818609E-02  0.8003034E-01
        1   -1    0    0  501    0  0.00000000000E+00  0.00000000000E+00  0.19296167693E+04  0.19296167694E+04  0.50400001928E-02 0. -1.
       -1   -1    0    0    0  501  0.00000000000E+00  0.00000000000E+00 -0.20807376752E+04  0.20807376752E+04  0.50400001928E-02 0.  1.
    10030    2    1    2    0    0  0.00000000000E+00  0.00000000000E+00 -0.15112090589E+03  0.40103544446E+04  0.40075061127E+04 0.  0.
        2    1    3    3  502    0  0.18721030773E+04  0.67928331886E+03 -0.29669387120E+03  0.20135101223E+04  0.25500000920E-02 0.  1.
       -2    1    3    3    0  502 -0.18721030773E+04 -0.67928331886E+03  0.14557296531E+03  0.19968443223E+04  0.25500000920E-02 0. -1.
</event>
<event>
 5   0  0.3399500E-08  0.3993964E+04  0.7818609E-02  0.8005765E-01
        1   -1    0    0  501    0  0.00000000000E+00  0.00000000000E+00  0.12930321698E+04  0.12930321698E+04  0.50400001928E-02 0. -1.
       -1   -1    0    0    0  501  0.00000000000E+00  0.00000000000E+00 -0.30841749790E+04  0.30841749790E+04  0.50400001928E-02 0.  1.
    10030    2    1    2    0    0  0.00000000000E+00  0.00000000000E+00 -0.17911428092E+04  0.43772071488E+04  0.39939641787E+04 0.  0.
        2    1    3    3  502    0  0.13473788112E+04  0.53561923158E+03  0.60937143267E+03  0.15727845260E+04  0.25500000920E-02 0. -1.
       -2    1    3    3    0  502 -0.13473788112E+04 -0.53561923158E+03 -0.24005142419E+04  0.28044226228E+04  0.25500000920E-02 0.  1.
</event>
<event>
 5   0  0.1095903E-07  0.4007837E+04  0.7818609E-02  0.8002967E-01
       -2   -1    0    0    0  501  0.00000000000E+00  0.00000000000E+00  0.27777009590E+04  0.27777009590E+04  0.25500000920E-02 0. -1.
        2   -1    0    0  501    0  0.00000000000E+00  0.00000000000E+00 -0.14456880540E+04  0.14456880540E+04  0.25500000920E-02 0.  1.
    10030    2    1    2    0    0  0.00000000000E+00  0.00000000000E+00  0.13320129049E+04  0.42233890130E+04  0.40078368700E+04 0.  0.
        3    1    3    3  502    0  0.36801677660E+03 -0.12632333110E+04 -0.92673796868E+03  0.16093595057E+04  0.10100000352E+00 0.  1.
       -3    1    3    3    0  502 -0.36801677660E+03  0.12632333110E+04  0.22587508736E+04  0.26140295073E+04  0.10100000352E+00 0. -1.
</event>
<event>
 5   0  0.1073271E-07  0.3952768E+04  0.7818609E-02  0.8014143E-01
        2   -1    0    0  501    0  0.00000000000E+00  0.00000000000E+00  0.18089925134E+04  0.18089925134E+04  0.25500000920E-02 0. -1.
       -2   -1    0    0    0  501  0.00000000000E+00  0.00000000000E+00 -0.21592645970E+04  0.21592645970E+04  0.25500000920E-02 0.  1.
    10030    2    1    2    0    0  0.00000000000E+00  0.00000000000E+00 -0.35027208364E+03  0.39682571104E+04  0.39527678861E+04 0.  0.
        1    1    3    3  502    0 -0.11920192927E+04  0.73092416684E+03 -0.15773675062E+04  0.21079014165E+04  0.50400001928E-02 0.  1.
       -1    1    3    3    0  502  0.11920192927E+04 -0.73092416684E+03  0.12270954226E+04  0.18603556939E+04  0.50400001928E-02 0. -1.
</event>
<event>
 5   0  0.1095903E-07  0.4034255E+04  0.7818609E-02  0.7997672E-01
       -2   -1    0    0    0  501  0.00000000000E+00  0.00000000000E+00  0.18494862643E+04  0.18494862643E+04  0.25500000920E-02 0. -1.
        2   -1    0    0  501    0  0.00000000000E+00  0.00000000000E+00 -0.21999643012E+04  0.21999643012E+04  0.25500000920E-02 0.  1.
    10030    2    1    2    0    0  0.00000000000E+00  0.00000000000E+00 -0.35047803691E+03  0.40494505655E+04  0.40342552011E+04 0.  0.
        3    1    3    3  502    0 -0.14814683674E+03 -0.60459050198E+03 -0.21011442268E+04  0.21914114703E+04  0.10100000352E+00 0.  1.
       -3    1    3    3    0  502  0.14814683674E+03  0.60459050198E+03  0.17506661899E+04  0.18580390951E+04  0.10100000352E+00 0. -1.
</event>
<event>
 5   0  0.3399500E-08  0.3836374E+04  0.7818609E-02  0.8038394E-01
        1   -1    0    0  501    0  0.00000000000E+00  0.00000000000E+00  0.18550070534E+04  0.18550070534E+04  0.50400001928E-02 0. -1.
       -1   -1    0    0    0  501  0.00000000000E+00  0.00000000000E+00 -0.19835184354E+04  0.19835184354E+04  0.50400001928E-02 0.  1.
    10030    2    1    2    0    0  0.00000000000E+00  0.00000000000E+00 -0.12851138196E+03  0.38385254889E+04  0.38363736462E+04 0.  0.
        1    1    3    3  502    0 -0.14344684218E+04  0.98011328234E+03 -0.87780399764E+03  0.19464998222E+04  0.50400001928E-02 0. -1.
       -1    1    3    3    0  502  0.14344684218E+04 -0.98011328234E+03  0.74929261569E+03  0.18920256667E+04  0.50400001928E-02 0.  1.
</event>
<event>
 5   0  0.1087688E-07  0.4007459E+04  0.7818609E-02  0.8003044E-01
        2   -1    0    0  501    0  0.00000000000E+00  0.00000000000E+00  0.16915986931E+04  0.16915986931E+04  0.25500000920E-02 0. -1.
       -2   -1    0    0    0  501  0.00000000000E+00  0.00000000000E+00 -0.23734539678E+04  0.23734539678E+04  0.25500000920E-02 0.  1.
    10030    2    1    2    0    0  0.00000000000E+00  0.00000000000E+00 -0.68185527466E+03  0.40650526609E+04  0.40074588607E+04 0.  0.
        2    1    3    3  502    0 -0.83850639240E+03  0.44014240099E+03 -0.21321233912E+04  0.23329741658E+04  0.25500000920E-02 0.  1.
       -2    1    3    3    0  502  0.83850639240E+03 -0.44014240099E+03  0.14502681165E+04  0.17320784950E+04  0.25500000920E-02 0. -1.
</event>
<event>
 5   0  0.1087688E-07  0.3673091E+04  0.7818609E-02  0.8073951E-01
        2   -1    0    0  501    0  0.00000000000E+00  0.00000000000E+00  0.30742732311E+04  0.30742732311E+04  0.25500000920E-02 0.  1.
       -2   -1    0    0    0  501  0.00000000000E+00  0.00000000000E+00 -0.10971371158E+04  0.10971371158E+04  0.25500000920E-02 0. -1.
    10030    2    1    2    0    0  0.00000000000E+00  0.00000000000E+00  0.19771361153E+04  0.41714103470E+04  0.36730909415E+04 0.  0.
        2    1    3    3  502    0  0.20693803235E+03  0.16102950471E+04  0.19635410196E+04  0.25478160890E+04  0.25500000920E-02 0.  1.
       -2    1    3    3    0  502 -0.20693803235E+03 -0.16102950471E+04  0.13595095683E+02  0.16235942579E+04  0.25500000920E-02 0. -1.
</event>
<event>
 5   0  0.3399500E-08  0.4002685E+04  0.7818609E-02  0.8004005E-01
       -1   -1    0    0    0  501  0.00000000000E+00  0.00000000000E+00  0.19879240822E+04  0.19879240822E+04  0.50400001928E-02 0. -1.
        1   -1    0    0  501    0  0.00000000000E+00  0.00000000000E+00 -0.20148517732E+04  0.20148517732E+04  0.50400001928E-02 0.  1.
    10030    2    1    2    0    0  0.00000000000E+00  0.00000000000E+00 -0.26927690993E+02  0.40027758553E+04  0.40026852796E+04 0.  0.
        1    1    3    3  502    0 -0.13992103186E+04  0.82000943327E+03 -0.11861656886E+04  0.20092769912E+04  0.50400001928E-02 0.  1.
       -1    1    3    3    0  502  0.13992103186E+04 -0.82000943327E+03  0.11592379976E+04  0.19934988642E+04  0.50400001928E-02 0. -1.
</event>
<event>
 5   0  0.3399500E-08  0.4000747E+04  0.7818609E-02  0.8004396E-01
        1   -1    0    0  501    0  0.00000000000E+00  0.00000000000E+00  0.31459949279E+04  0.31459949279E+04  0.50400001928E-02 0.  1.
       -1   -1    0    0    0  501  0.00000000000E+00  0.00000000000E+00 -0.12719326872E+04  0.12719326872E+04  0.50400001928E-02 0. -1.
    10030    2    1    2    0    0  0.00000000000E+00  0.00000000000E+00  0.18740622407E+04  0.44179276150E+04  0.40007468215E+04 0.  0.
        4    1    3    3  502    0 -0.59386985690E+03  0.79394780682E+03 -0.98150539727E+03  0.13951304544E+04  0.12699999809E+01 0. -1.
       -4    1    3    3    0  502  0.59386985690E+03 -0.79394780682E+03  0.28555676379E+04  0.30227971607E+04  0.12699999809E+01 0.  1.
</event>
<event>
 5   0  0.3399500E-08  0.3990693E+04  0.7818609E-02  0.8006427E-01
        3   -1    0    0  501    0  0.00000000000E+00  0.00000000000E+00  0.23299523185E+04  0.23299523207E+04  0.10100000352E+00 0.  1.
       -3   -1    0    0    0  501  0.00000000000E+00  0.00000000000E+00 -0.17087934870E+04  0.17087934900E+04  0.10100000352E+00 0. -1.
    10030    2    1    2    0    0  0.00000000000E+00  0.00000000000E+00  0.62115883151E+03  0.40387458106E+04  0.39906928508E+04 0.  0.
        4    1    3    3  502    0 -0.15958456508E+04 -0.31300732477E+03 -0.85950346156E+03  0.18394142382E+04  0.12699999809E+01 0. -1.
       -4    1    3    3    0  502  0.15958456508E+04  0.31300732477E+03  0.14806622931E+04  0.21993315724E+04  0.12699999809E+01 0.  1.
</event>
<event>
 5   0  0.1095109E-07  0.3699188E+04  0.7818609E-02  0.8068142E-01
       -2   -1    0    0    0  501  0.00000000000E+00  0.00000000000E+00  0.12960032533E+04  0.12960032533E+04  0.25500000920E-02 0.  1.
        2   -1    0    0  501    0  0.00000000000E+00  0.00000000000E+00 -0.26396525523E+04  0.26396525523E+04  0.25500000920E-02 0. -1.
    10030    2    1    2    0    0  0.00000000000E+00  0.00000000000E+00 -0.13436492991E+04  0.39356558056E+04  0.36991881787E+04 0.  0.
        4    1    3    3  502    0  0.13792912037E+04  0.34854581337E+02 -0.19823692266E+04  0.24152532848E+04  0.12699999809E+01 0. -1.
       -4    1    3    3    0  502 -0.13792912037E+04 -0.34854581337E+02  0.63871992750E+03  0.15204025208E+04  0.12699999809E+01 0.  1.
</event>
<event>
 5   0  0.3399500E-08  0.3960250E+04  0.7818609E-02  0.8012614E-01
       -1   -1    0    0    0  501  0.00000000000E+00  0.00000000000E+00  0.26140839884E+04  0.26140839884E+04  0.50400001928E-02 0. -1.
        1   -1    0    0  501    0  0.00000000000E+00  0.00000000000E+00 -0.14999114122E+04  0.14999114122E+04  0.50400001928E-02 0.  1.
    10030    2    1    2    0    0  0.00000000000E+00  0.00000000000E+00  0.11141725762E+04  0.41139954006E+04  0.39602496924E+04 0.  0.
        5    1    3    3  502    0 -0.61371467122E+03  0.14680926764E+04 -0.66719579062E+03  0.17254315742E+04  0.46999998093E+01 0.  1.
       -5    1    3    3    0  502  0.61371467122E+03 -0.14680926764E+04  0.17813683668E+04  0.23885638264E+04  0.46999998093E+01 0. -1.
</event>
<event>
 5   0  0.1073271E-07  0.4008867E+04  0.7818609E-02  0.8002760E-01
       -2   -1    0    0    0  501  0.00000000000E+00  0.00000000000E+00  0.24127183125E+04  0.24127183125E+04  0.25500000920E-02 0.  1.
        2   -1    0    0  501    0  0.00000000000E+00  0.00000000000E+00 -0.16652393362E+04  0.16652393362E+04  0.25500000920E-02 0. -1.
    10030    2    1    2    0    0  0.00000000000E+00  0.00000000000E+00  0.74747897625E+03  0.40779576487E+04  0.40088668929E+04 0.  0.
        1    1    3    3  502    0  0.38914821616E+03  0.11552050413E+04 -0.12448523726E+04  0.17422951677E+04  0.50400001928E-02 0. -1.
       -1    1    3    3    0  502 -0.38914821616E+03 -0.11552050413E+04  0.19923313489E+04  0.23356624810E+04  0.50400001928E-02 0.  1.
</event>
<event>
 5   0  0.3399500E-08  0.3998835E+04  0.7818609E-02  0.8004782E-01
        1   -1    0    0  501    0  0.00000000000E+00  0.00000000000E+00  0.24088476345E+04  0.24088476345E+04  0.50400001928E-02 0.  1.
       -1   -1    0    0    0  501  0.00000000000E+00  0.00000000000E+00 -0.16595779697E+04  0.16595779697E+04  0.50400001928E-02 0. -1.
    10030    2    1    2    0    0  0.00000000000E+00  0.00000000000E+00  0.74926966480E+03  0.40684256041E+04  0.39988350636E+04 0.  0.
        5    1    3    3  502    0 -0.33862068286E+03 -0.62078622941E+03 -0.15281010483E+04  0.16837916775E+04  0.46999998093E+01 0. -1.
       -5    1    3    3    0  502  0.33862068286E+03  0.62078622941E+03  0.22773707131E+04  0.23846339267E+04  0.46999998093E+01 0.  1.
</event>
<event>
 5   0  0.3399500E-08  0.4004091E+04  0.7818609E-02  0.8003722E-01
        1   -1    0    0  501    0  0.00000000000E+00  0.00000000000E+00  0.22720377477E+04  0.22720377477E+04  0.50400001928E-02 0.  1.
       -1   -1    0    0    0  501  0.00000000000E+00  0.00000000000E+00 -0.17641371466E+04  0.17641371466E+04  0.50400001928E-02 0. -1.
    10030    2    1    2    0    0  0.00000000000E+00  0.00000000000E+00  0.50790060116E+03  0.40361748943E+04  0.40040910026E+04 0.  0.
        3    1    3    3  502    0  0.11993097662E+04  0.15334571568E+04  0.72497538888E+03  0.20773598850E+04  0.10100000352E+00 0.  1.
       -3    1    3    3    0  502 -0.11993097662E+04 -0.15334571568E+04 -0.21707478772E+03  0.19588150093E+04  0.10100000352E+00 0. -1.
</event>
<event>
 5   0  0.3399500E-08  0.3958295E+04  0.7818609E-02  0.8013013E-01
       -1   -1    0    0    0  501  0.00000000000E+00  0.00000000000E+00  0.21068357195E+04  0.21068357195E+04  0.50400001928E-02 0.  1.
        1   -1    0    0  501    0  0.00000000000E+00  0.00000000000E+00 -0.18591983409E+04  0.18591983409E+04  0.50400001928E-02 0. -1.
    10030    2    1    2    0    0  0.00000000000E+00  0.00000000000E+00  0.24763737854E+03  0.39660340604E+04  0.39582953271E+04 0.  0.
        3    1    3    3  502    0 -0.17356105463E+04  0.93890162421E+03 -0.28614329522E+02  0.19734991812E+04  0.10100000352E+00 0. -1.
       -3    1    3    3    0  502  0.17356105463E+04 -0.93890162421E+03  0.27625170806E+03  0.19925348792E+04  0.10100000352E+00 0.  1.
</event>
<event>
 5   0  0.1095109E-07  0.3952005E+04  0.7818609E-02  0.8014299E-01
        2   -1    0    0  501    0  0.00000000000E+00  0.00000000000E+00  0.21912288227E+04  0.21912288227E+04  0.25500000920E-02 0.  1.
       -2   -1    0    0    0  501  0.00000000000E+00  0.00000000000E+00 -0.17819164268E+04  0.17819164268E+04  0.25500000920E-02 0. -1.
    10030    2    1    2    0    0  0.00000000000E+00  0.00000000000E+00  0.40931239598E+03  0.39731452495E+04  0.39520053816E+04 0.  0.
        4    1    3    3  502    0 -0.15356693453E+03 -0.61632631287E+03  0.20857996163E+04  0.21803675332E+04  0.12699999809E+01 0.  1.
       -4    1    3    3    0  502  0.15356693453E+03  0.61632631287E+03 -0.16764872203E+04  0.17927777163E+04  0.12699999809E+01 0. -1.
</event>
<event>
 5   0  0.1095903E-07  0.3981942E+04  0.7818609E-02  0.8008199E-01
       -2   -1    0    0    0  501  0.00000000000E+00  0.00000000000E+00  0.27034672975E+04  0.27034672975E+04  0.25500000920E-02 0. -1.
        2   -1    0    0  501    0  0.00000000000E+00  0.00000000000E+00 -0.14662526478E+04  0.14662526478E+04  0.25500000920E-02 0.  1.
    10030    2    1    2    0    0  0.00000000000E+00  0.00000000000E+00  0.12372146497E+04  0.41697199452E+04  0.39819422814E+04 0.  0.
        3    1    3    3  502    0 -0.18711529439E+03 -0.40723080503E+03 -0.14127474894E+04  0.14821283821E+04  0.10100000352E+00 0.  1.
       -3    1    3    3    0  502  0.18711529439E+03  0.40723080503E+03  0.26499621390E+04  0.26875915632E+04  0.10100000352E+00 0. -1.
</event>
<event>
 5   0  0.1087688E-07  0.3954986E+04  0.7818609E-02  0.8013689E-01
        2   -1    0    0  501    0  0.00000000000E+00  0.00000000000E+00  0.22111566873E+04  0.22111566873E+04  0.25500000920E-02 0.  1.
       -2   -1    0    0    0  501  0.00000000000E+00  0.00000000000E+00 -0.17685219719E+04  0.17685219719E+04  0.25500000920E-02 0. -1.
    10030    2    1    2    0    0  0.00000000000E+00  0.00000000000E+00  0.44263471540E+03  0.39796786593E+04  0.39549863135E+04 0.  0.
        2    1    3    3  502    0  0.88065307613E+03  0.63550461443E+03 -0.14415932313E+04  0.18048842068E+04  0.25500000920E-02 0. -1.
       -2    1    3    3    0  502 -0.88065307613E+03 -0.63550461443E+03  0.18842279467E+04  0.21747944525E+04  0.25500000920E-02 0.  1.
</event>
<event>
 5   0  0.1073271E-07  0.3995482E+04  0.7818609E-02  0.8005459E-01
       -2   -1    0    0    0  501  0.00000000000E+00  0.00000000000E+00  0.27344455800E+04  0.27344455800E+04  0.25500000920E-02 0.  1.
        2   -1    0    0  501    0  0.00000000000E+00  0.00000000000E+00 -0.14595167496E+04  0.14595167497E+04  0.25500000920E-02 0. -1.
    10030    2    1    2    0    0  0.00000000000E+00  0.00000000000E+00  0.12749288304E+04  0.41939623297E+04  0.39954820110E+04 0.  0.
        1    1    3    3  502    0  0.18471324842E+04  0.25996439072E+03 -0.11324798726E+03  0.18687709879E+04  0.50400001928E-02 0. -1.
       -1    1    3    3    0  502 -0.18471324842E+04 -0.25996439072E+03  0.13881768176E+04  0.23251913417E+04  0.50400001928E-02 0.  1.
</event>
<event>
 5   0  0.1101474E-07  0.3866912E+04  0.7818609E-02  0.8031946E-01
        2   -1    0    0  501    0  0.00000000000E+00  0.00000000000E+00  0.18582448437E+04  0.18582448437E+04  0.25500000920E-02 0.  1.
       -2   -1    0    0    0  501  0.00000000000E+00  0.00000000000E+00 -0.20117117896E+04  0.20117117896E+04  0.25500000920E-02 0. -1.
    10030    2    1    2    0    0  0.00000000000E+00  0.00000000000E+00 -0.15346694587E+03  0.38699566332E+04  0.38669124945E+04 0.  0.
        5    1    3    3  502    0 -0.14937038855E+04 -0.67360104575E+03 -0.11038655940E+04  0.19757102536E+04  0.46999998093E+01 0. -1.
       -5    1    3    3    0  502  0.14937038855E+04  0.67360104575E+03  0.95039864813E+03  0.18942463797E+04  0.46999998093E+01 0.  1.
</event>
<event>
 5   0  0.1095903E-07  0.3956462E+04  0.7818609E-02  0.8013388E-01
        2   -1    0    0  501    0  0.00000000000E+00  0.00000000000E+00  0.32023970129E+04  0.32023970129E+04  0.25500000920E-02 0. -1.
       -2   -1    0    0    0  501  0.00000000000E+00  0.00000000000E+00 -0.12220212787E+04  0.12220212787E+04  0.25500000920E-02 0.  1.
    10030    2    1    2    0    0  0.00000000000E+00  0.00000000000E+00  0.19803757342E+04  0.44244182916E+04  0.39564616984E+04 0.  0.
        3    1    3    3  502    0  0.83453203694E+03 -0.99318404674E+03  0.26603326643E+04  0.29597682623E+04  0.10100000352E+00 0. -1.
       -3    1    3    3    0  502 -0.83453203694E+03  0.99318404674E+03 -0.67995693013E+03  0.14646500293E+04  0.10100000352E+00 0.  1.
</event>
<event>
 5   0  0.3399500E-08  0.4026946E+04  0.7818609E-02  0.7999133E-01
       -1   -1    0    0    0  501  0.00000000000E+00  0.00000000000E+00  0.16908494538E+04  0.16908494538E+04  0.50400001928E-02 0.  1.
        1   -1    0    0  501    0  0.00000000000E+00  0.00000000000E+00 -0.23976548526E+04  0.23976548526E+04  0.50400001928E-02 0. -1.
    10030    2    1    2    0    0  0.00000000000E+00  0.00000000000E+00 -0.70680539880E+03  0.40885043065E+04  0.40269459386E+04 0.  0.
        3    1    3    3  502    0  0.14143873671E+04 -0.79219404984E+03 -0.15658140658E+04  0.22538493152E+04  0.10100000352E+00 0. -1.
       -3    1    3    3    0  502 -0.14143873671E+04  0.79219404984E+03  0.85900866702E+03  0.18346549913E+04  0.10100000352E+00 0.  1.
</event>
<event>
 5   0  0.3399500E-08  0.4025275E+04  0.7818609E-02  0.7999467E-01
        1   -1    0    0  501    0  0.00000000000E+00  0.00000000000E+00  0.12476468498E+04  0.12476468498E+04  0.50400001928E-02 0. -1.
       -1   -1    0    0    0  501  0.00000000000E+00  0.00000000000E+00 -0.32466793366E+04  0.32466793366E+04  0.50400001928E-02 0.  1.
    10030    2    1    2    0    0  0.00000000000E+00  0.00000000000E+00 -0.19990324868E+04  0.44943261864E+04  0.40252747715E+04 0.  0.
        3    1    3    3  502    0  0.84884804863E+03  0.34641165790E+01  0.10380007117E+04  0.13408954088E+04  0.10100000352E+00 0. -1.
       -3    1    3    3    0  502 -0.84884804863E+03 -0.34641165790E+01 -0.30370331985E+04  0.31534307775E+04  0.10100000352E+00 0.  1.
</event>
<event>
 5   0  0.3399500E-08  0.4010045E+04  0.7818609E-02  0.8002523E-01
       -1   -1    0    0    0  501  0.00000000000E+00  0.00000000000E+00  0.20949820840E+04  0.20949820840E+04  0.50400001928E-02 0.  1.
        1   -1    0    0  501    0  0.00000000000E+00  0.00000000000E+00 -0.19189260862E+04  0.19189260862E+04  0.50400001928E-02 0. -1.
    10030    2    1    2    0    0  0.00000000000E+00  0.00000000000E+00  0.17605599777E+03  0.40139081702E+04  0.40100452721E+04 0.  0.
        5    1    3    3  502    0  0.33589560075E+02  0.77598350574E+01  0.20946798876E+04  0.20949688292E+04  0.46999998093E+01 0.  1.
       -5    1    3    3    0  502 -0.33589560075E+02 -0.77598350574E+01 -0.19186238899E+04  0.19189393410E+04  0.46999998093E+01 0. -1.
</event>
<event>
 5   0  0.3399500E-08  0.3938601E+04  0.7818609E-02  0.8017049E-01
        1   -1    0    0  501    0  0.00000000000E+00  0.00000000000E+00  0.20805378610E+04  0.20805378610E+04  0.50400001928E-02 0. -1.
       -1   -1    0    0    0  501  0.00000000000E+00  0.00000000000E+00 -0.18640102342E+04  0.18640102342E+04  0.50400001928E-02 0.  1.
    10030    2    1    2    0    0  0.00000000000E+00  0.00000000000E+00  0.21652762682E+03  0.39445480952E+04  0.39386006985E+04 0.  0.
        5    1    3    3  502    0  0.67541452043E+03  0.18301799698E+04  0.37770217498E+03  0.19870642967E+04  0.46999998093E+01 0. -1.
       -5    1    3    3    0  502 -0.67541452043E+03 -0.18301799698E+04 -0.16117454816E+03  0.19574837985E+04  0.46999998093E+01 0.  1.
</event>
<event>
 5   0  0.1087688E-07  0.4029908E+04  0.7818609E-02  0.7998540E-01
        2   -1    0    0  501    0  0.00000000000E+00  0.00000000000E+00  0.31032069728E+04  0.31032069728E+04  0.25500000920E-02 0.  1.
       -2   -1    0    0    0  501  0.00000000000E+00  0.00000000000E+00 -0.13083368826E+04  0.13083368827E+04  0.25500000920E-02 0. -1.
    10030    2    1    2    0    0  0.00000000000E+00  0.00000000000E+00  0.17948700901E+04  0.44115438554E+04  0.40299082555E+04 0.  0.
        2    1    3    3  502    0  0.62422547852E+02  0.17499975477E+02  0.31020650049E+04  0.31027423545E+04  0.25500000920E-02 0.  1.
       -2    1    3    3    0  502 -0.62422547852E+02 -0.17499975477E+02 -0.13071949148E+04  0.13088015009E+04  0.25500000920E-02 0. -1.
</event>
<event>
 5   0  0.1095903E-07  0.3976422E+04  0.7818609E-02  0.8009320E-01
       -2   -1    0    0    0  501  0.00000000000E+00  0.00000000000E+00  0.20685806329E+04  0.20685806329E+04  0.25500000920E-02 0. -1.
        2   -1    0    0  501    0  0.00000000000E+00  0.00000000000E+00 -0.19109643148E+04  0.19109643148E+04  0.25500000920E-02 0.  1.
    10030    2    1    2    0    0  0.00000000000E+00  0.00000000000E+00  0.15761631806E+03  0.39795449476E+04  0.39764223979E+04 0.  0.
        3    1    3    3  502    0  0.19444043203E+04 -0.71667918188E-01 -0.33657872803E+03  0.19733204039E+04  0.10100000352E+00 0. -1.
       -3    1    3    3    0  502 -0.19444043203E+04  0.71667918188E-01  0.49419504610E+03  0.20062245437E+04  0.10100000352E+00 0.  1.
</event>
<event>
 5   0  0.3399500E-08  0.3957818E+04  0.7818609E-02  0.8013110E-01
        1   -1    0    0  501    0  0.00000000000E+00  0.00000000000E+00  0.25305188882E+04  0.25305188882E+04  0.50400001928E-02 0.  1.
       -1   -1    0    0    0  501  0.00000000000E+00  0.00000000000E+00 -0.15475408327E+04  0.15475408327E+04  0.50400001928E-02 0. -1.
    10030    2    1    2    0    0  0.00000000000E+00  0.00000000000E+00  0.98297805556E+03  0.40780597209E+04  0.39578182411E+04 0.  0.
        3    1    3    3  502    0  0.57463954300E+03 -0.15265747931E+04 -0.66301574547E+03  0.17607473107E+04  0.10100000352E+00 0. -1.
       -3    1    3    3    0  502 -0.57463954300E+03  0.15265747931E+04  0.16459938010E+04  0.23173124102E+04  0.10100000352E+00 0.  1.
</event>
<event>
 5   0  0.3399500E-08  0.4006801E+04  0.7818609E-02  0.8003176E-01
       -1   -1    0    0    0  501  0.00000000000E+00  0.00000000000E+00  0.14158697238E+04  0.14158697239E+04  0.50400001928E-02 0.  1.
        1   -1    0    0  501    0  0.00000000000E+00  0.00000000000E+00 -0.28347336527E+04  0.28347336527E+04  0.50400001928E-02 0. -1.
    10030    2    1    2    0    0  0.00000000000E+00  0.00000000000E+00 -0.14188639289E+04  0.42506033766E+04  0.40068009953E+04 0.  0.
        2    1    3    3  502    0  0.13834051623E+04 -0.64410954399E+03  0.66759772512E+03  0.16656451213E+04  0.25500000920E-02 0.  1.
       -2    1    3    3    0  502 -0.13834051623E+04  0.64410954399E+03 -0.20864616540E+04  0.25849582552E+04  0.25500000920E-02 0. -1.
</event>
<event>
 5   0  0.1087688E-07  0.3875015E+04  0.7818609E-02  0.8030246E-01
        2   -1    0    0  501    0  0.00000000000E+00  0.00000000000E+00  0.11558846722E+04  0.11558846722E+04  0.25500000920E-02 0. -1.
       -2   -1    0    0    0  501  0.00000000000E+00  0.00000000000E+00 -0.32476737160E+04  0.32476737160E+04  0.25500000920E-02 0.  1.
    10030    2    1    2    0    0  0.00000000000E+00  0.00000000000E+00 -0.20917890438E+04  0.44035583882E+04  0.38750154934E+04 0.  0.
        2    1    3    3  502    0  0.42514645851E+03  0.18029824087E+04 -0.40060357200E+03  0.18952515135E+04  0.25500000920E-02 0. -1.
       -2    1    3    3    0  502 -0.42514645851E+03 -0.18029824087E+04 -0.16911854718E+04  0.25083068747E+04  0.25500000920E-02 0.  1.
</event>
<event>
 5   0  0.3399500E-08  0.4037429E+04  0.7818609E-02  0.7997038E-01
       -1   -1    0    0    0  501  0.00000000000E+00  0.00000000000E+00  0.19100286168E+04  0.19100286168E+04  0.50400001928E-02 0.  1.
        1   -1    0    0  501    0  0.00000000000E+00  0.00000000000E+00 -0.21335851903E+04  0.21335851903E+04  0.50400001928E-02 0. -1.
    10030    2    1    2    0    0  0.00000000000E+00  0.00000000000E+00 -0.22355657351E+03  0.40436138072E+04  0.40374292662E+04 0.  0.
        4    1    3    3  502    0  0.13126018737E+04  0.13839751690E+04  0.55021545313E+03  0.19852076982E+04  0.12699999809E+01 0.  1.
       -4    1    3    3    0  502 -0.13126018737E+04 -0.13839751690E+04 -0.77377202664E+03  0.20584061090E+04  0.12699999809E+01 0. -1.
</event>
<event>
 5   0  0.1073271E-07  0.3983230E+04  0.7818609E-02  0.8007938E-01
        2   -1    0    0  501    0  0.00000000000E+00  0.00000000000E+00  0.22075665319E+04  0.22075665319E+04  0.25500000920E-02 0.  1.
       -2   -1    0    0    0  501  0.00000000000E+00  0.00000000000E+00 -0.17967881251E+04  0.17967881251E+04  0.25500000920E-02 0. -1.
    10030    2    1    2    0    0  0.00000000000E+00  0.00000000000E+00  0.41077840677E+03  0.40043546569E+04  0.39832295087E+04 0.  0.
        1    1    3    3  502    0  0.63232980983E+03 -0.20762230441E+03  0.20924650408E+04  0.21957590844E+04  0.50400001928E-02 0.  1.
       -1    1    3    3    0  502 -0.63232980983E+03  0.20762230441E+03 -0.16816866341E+04  0.18085955725E+04  0.50400001928E-02 0. -1.
</event>
<event>
 5   0  0.3399500E-08  0.3990456E+04  0.7818609E-02  0.8006475E-01
        1   -1    0    0  501    0  0.00000000000E+00  0.00000000000E+00  0.13872633802E+04  0.13872633802E+04  0.50400001928E-02 0. -1.
       -1   -1    0    0    0  501  0.00000000000E+00  0.00000000000E+00 -0.28696309823E+04  0.28696309823E+04  0.50400001928E-02 0.  1.
    10030    2    1    2    0    0  0.00000000000E+00  0.00000000000E+00 -0.14823676021E+04  0.42568943625E+04  0.39904556012E+04 0.  0.
        4    1    3    3  502    0  0.37020765257E+03 -0.25050235071E+03 -0.28155290234E+04  0.28507911934E+04  0.12699999809E+01 0.  1.
       -4    1    3    3    0  502 -0.37020765257E+03  0.25050235071E+03  0.13331614214E+04  0.14061031691E+04  0.12699999809E+01 0. -1.
</event>
<event>
 5   0  0.3399500E-08  0.4021080E+04  0.7818609E-02  0.8000307E-01
       -1   -1    0    0    0  501  0.00000000000E+00  0.00000000000E+00  0.30641956930E+04  0.30641956930E+04  0.50400001928E-02 0. -1.
        1   -1    0    0  501    0  0.00000000000E+00  0.00000000000E+00 -0.13191951423E+04  0.13191951423E+04  0.50400001928E-02 0.  1.
    10030    2    1    2    0    0  0.00000000000E+00  0.00000000000E+00  0.17450005508E+04  0.43833908353E+04  0.40210804883E+04 0.  0.
        3    1    3    3  502    0  0.15250758867E+04  0.59897965127E+03  0.21426636290E+04  0.26973395263E+04  0.10100000352E+00 0. -1.
       -3    1    3    3    0  502 -0.15250758867E+04 -0.59897965127E+03 -0.39766307822E+03  0.16860513091E+04  0.10100000352E+00 0.  1.
</event>
<event>
 5   0  0.3399500E-08  0.3933430E+04  0.7818609E-02  0.8018112E-01
       -1   -1    0    0    0  501  0.00000000000E+00  0.00000000000E+00  0.25462947730E+04  0.25462947730E+04  0.50400001928E-02 0.  1.
        1   -1    0    0  501    0  0.00000000000E+00  0.00000000000E+00 -0.15190577375E+04  0.15190577375E+04  0.50400001928E-02 0. -1.
    10030    2    1    2    0    0  0.00000000000E+00  0.00000000000E+00  0.10272370356E+04  0.40653525105E+04  0.39334304503E+04 0.  0.
        2    1    3    3  502    0  0.37702418742E+03  0.16809374152E+04 -0.46702994358E+03  0.17848850943E+04  0.25500000920E-02 0. -1.
       -2    1    3    3    0  502 -0.37702418742E+03 -0.16809374152E+04  0.14942669791E+04  0.22804674162E+04  0.25500000920E-02 0.  1.
</event>
<event>
 5   0  0.1073271E-07  0.4293029E+04  0.7818609E-02  0.7947908E-01
       -2   -1    0    0    0  501  0.00000000000E+00  0.00000000000E+00  0.21734098656E+04  0.21734098656E+04  0.25500000920E-02 0.  1.
        2   -1    0    0  501    0  0.00000000000E+00  0.00000000000E+00 -0.21199514878E+04  0.21199514878E+04  0.25500000920E-02 0. -1.
    10030    2    1    2    0    0  0.00000000000E+00  0.00000000000E+00  0.53458377765E+02  0.42933613534E+04  0.42930285246E+04 0.  0.
        1    1    3    3  502    0 -0.15720274998E+04  0.14490880384E+04 -0.16406525230E+03  0.21443050180E+04  0.50400001928E-02 0. -1.
       -1    1    3    3    0  502  0.15720274998E+04 -0.14490880384E+04  0.21752363007E+03  0.21490563354E+04  0.50400001928E-02 0.  1.
</event>
<event>
 5   0  0.1101474E-07  0.3991809E+04  0.7818609E-02  0.8006201E-01
        2   -1    0    0  501    0  0.00000000000E+00  0.00000000000E+00  0.28369056984E+04  0.28369056984E+04  0.25500000920E-02 0. -1.
       -2   -1    0    0    0  501  0.00000000000E+00  0.00000000000E+00 -0.14042185960E+04  0.14042185960E+04  0.25500000920E-02 0.  1.
    10030    2    1    2    0    0  0.00000000000E+00  0.00000000000E+00  0.14326871024E+04  0.42411242944E+04  0.39918094828E+04 0.  0.
        5    1    3    3  502    0  0.13926882905E+03 -0.76859811647E+03 -0.12350727499E+04  0.14613574713E+04  0.46999998093E+01 0.  1.
       -5    1    3    3    0  502 -0.13926882905E+03  0.76859811647E+03  0.26677598523E+04  0.27797668231E+04  0.46999998093E+01 0. -1.
</event>
<event>
 5   0  0.3399500E-08  0.3975685E+04  0.7818609E-02  0.8009470E-01
       -1   -1    0    0    0  501  0.00000000000E+00  0.00000000000E+00  0.23267589764E+04  0.23267589764E+04  0.50400001928E-02 0. -1.
        1   -1    0    0  501    0  0.00000000000E+00  0.00000000000E+00 -0.16982926967E+04  0.16982926967E+04  0.50400001928E-02 0.  1.
    10030    2    1    2    0    0  0.00000000000E+00  0.00000000000E+00  0.62846627974E+03  0.40250516731E+04  0.39756849858E+04 0.  0.
        5    1    3    3  502    0 -0.18193951461E+04 -0.29586585615E+03 -0.43915787453E+03  0.18948923534E+04  0.46999998093E+01 0.  1.
       -5    1    3    3    0  502  0.18193951461E+04  0.29586585615E+03  0.10676241543E+04  0.21301593197E+04  0.46999998093E+01 0. -1.
</event>
<event>
 5   0  0.1095109E-07  0.4030012E+04  0.7818609E-02  0.7998519E-01
       -2   -1    0    0    0  501  0.00000000000E+00  0.00000000000E+00  0.23431178469E+04  0.23431178469E+04  0.25500000920E-02 0. -1.
        2   -1    0    0  501    0  0.00000000000E+00  0.00000000000E+00 -0.17328403503E+04  0.17328403503E+04  0.25500000920E-02 0.  1.
    10030    2    1    2    0    0  0.00000000000E+00  0.00000000000E+00  0.61027749660E+03  0.40759581972E+04  0.40300119854E+04 0.  0.
        4    1    3    3  502    0 -0.15602060138E+04  0.88162060519E+03 -0.62664093429E+03  0.18984673214E+04  0.12699999809E+01 0.  1.
       -4    1    3    3    0  502  0.15602060138E+04 -0.88162060519E+03  0.12369184309E+04  0.21774908759E+04  0.12699999809E+01 0. -1.
</event>
<event>
 5   0  0.3399500E-08  0.3979089E+04  0.7818609E-02  0.8008778E-01
        1   -1    0    0  501    0  0.00000000000E+00  0.00000000000E+00  0.16657313170E+04  0.16657313170E+04  0.50400001928E-02 0. -1.
       -1   -1    0    0    0  501  0.00000000000E+00  0.00000000000E+00 -0.23763056564E+04  0.23763056564E+04  0.50400001928E-02 0.  1.
    10030    2    1    2    0    0  0.00000000000E+00  0.00000000000E+00 -0.71057433935E+03  0.40420369734E+04  0.39790887151E+04 0.  0.
        1    1    3    3  502    0 -0.22153055528E+03  0.19612201385E+04 -0.10066969632E+03  0.19762577277E+04  0.50400001928E-02 0.  1.
       -1    1    3    3    0  502  0.22153055528E+03 -0.19612201385E+04 -0.60990464304E+03  0.20657792457E+04  0.50400001928E-02 0. -1.
</event>
<event>
 5   0  0.3399500E-08  0.3995774E+04  0.7818609E-02  0.8005400E-01
        3   -1    0    0  501    0  0.00000000000E+00  0.00000000000E+00  0.14331871164E+04  0.14331871199E+04  0.10100000352E+00 0. -1.
       -3   -1    0    0    0  501  0.00000000000E+00  0.00000000000E+00 -0.27850878097E+04  0.27850878115E+04  0.10100000352E+00 0.  1.
    10030    2    1    2    0    0  0.00000000000E+00  0.00000000000E+00 -0.13519006933E+04  0.42182749315E+04  0.39957737565E+04 0.  0.
        4    1    3    3  502    0  0.13014185115E+04  0.13016489279E+04  0.14420839742E+03  0.18462875584E+04  0.12699999809E+01 0. -1.
       -4    1    3    3    0  502 -0.13014185115E+04 -0.13016489279E+04 -0.14961090907E+04  0.23719873730E+04  0.12699999809E+01 0.  1.
</event>
<event>
 5   0  0.3399500E-08  0.3514784E+04  0.7818609E-02  0.8110295E-01
        1   -1    0    0  501    0  0.00000000000E+00  0.00000000000E+00  0.23196036270E+04  0.23196036271E+04  0.50400001928E-02 0. -1.
       -1   -1    0    0    0  501  0.00000000000E+00  0.00000000000E+00 -0.13314456126E+04  0.13314456126E+04  0.50400001928E-02 0.  1.
    10030    2    1    2    0    0  0.00000000000E+00  0.00000000000E+00  0.98815801442E+03  0.36510492397E+04  0.35147836760E+04 0.  0.
        2    1    3    3  502    0  0.13729884093E+04  0.72886962304E+03 -0.35750779116E+03  0.15950422942E+04  0.25500000920E-02 0. -1.
       -2    1    3    3    0  502 -0.13729884093E+04 -0.72886962304E+03  0.13456658056E+04  0.20560069455E+04  0.25500000920E-02 0.  1.
</event>
<event>
 5   0  0.3399500E-08  0.3989562E+04  0.7818609E-02  0.8006656E-01
       -1   -1    0    0    0  501  0.00000000000E+00  0.00000000000E+00  0.22557724032E+04  0.22557724032E+04  0.50400001928E-02 0.  1.
        1   -1    0    0  501    0  0.00000000000E+00  0.00000000000E+00 -0.17639858976E+04  0.17639858976E+04  0.50400001928E-02 0. -1.
    10030    2    1    2    0    0  0.00000000000E+00  0.00000000000E+00  0.49178650565E+03  0.40197583009E+04  0.39895617341E+04 0.  0.
        2    1    3    3  502    0  0.58205897710E+03  0.19079453257E+04  0.25610349591E+03  0.20111282951E+04  0.25500000920E-02 0.  1.
       -2    1    3    3    0  502 -0.58205897710E+03 -0.19079453257E+04  0.23568300973E+03  0.20086300057E+04  0.25500000920E-02 0. -1.
</event>
<event>
 5   0  0.3399500E-08  0.3987447E+04  0.7818609E-02  0.8007084E-01
       -3   -1    0    0    0  501  0.00000000000E+00  0.00000000000E+00  0.15982223866E+04  0.15982223898E+04  0.10100000352E+00 0. -1.
        3   -1    0    0  501    0  0.00000000000E+00  0.00000000000E+00 -0.24870961989E+04  0.24870962009E+04  0.10100000352E+00 0.  1.
    10030    2    1    2    0    0  0.00000000000E+00  0.00000000000E+00 -0.88887381225E+03  0.40853185907E+04  0.39874467186E+04 0.  0.
        5    1    3    3  502    0  0.50909954020E+03  0.10017690954E+04  0.12428574696E+04  0.16755418354E+04  0.46999998093E+01 0. -1.
       -5    1    3    3    0  502 -0.50909954020E+03 -0.10017690954E+04 -0.21317312819E+04  0.24097767553E+04  0.46999998093E+01 0.  1.
</event>
<event>
 5   0  0.3399500E-08  0.3990206E+04  0.7818609E-02  0.8006525E-01
        1   -1    0    0  501    0  0.00000000000E+00  0.00000000000E+00  0.32183453230E+04  0.32183453230E+04  0.50400001928E-02 0.  1.
       -1   -1    0    0    0  501  0.00000000000E+00  0.00000000000E+00 -0.12367957179E+04  0.12367957179E+04  0.50400001928E-02 0. -1.
    10030    2    1    2    0    0  0.00000000000E+00  0.00000000000E+00  0.19815496051E+04  0.44551410409E+04  0.39902058665E+04 0.  0.
        2    1    3    3  502    0 -0.81414195606E+03  0.51460459233E+03  0.29415834405E+04  0.30952476716E+04  0.25500000920E-02 0.  1.
       -2    1    3    3    0  502  0.81414195606E+03 -0.51460459233E+03 -0.96003383533E+03  0.13598933694E+04  0.25500000920E-02 0. -1.
</event>
<event>
 5   0  0.3399500E-08  0.4071327E+04  0.7818609E-02  0.7990310E-01
       -1   -1    0    0    0  501  0.00000000000E+00  0.00000000000E+00  0.19781215181E+04  0.19781215181E+04  0.50400001928E-02 0.  1.
        1   -1    0    0  501    0  0.00000000000E+00  0.00000000000E+00 -0.20948797434E+04  0.20948797434E+04  0.50400001928E-02 0. -1.
    10030    2    1    2    0    0  0.00000000000E+00  0.00000000000E+00 -0.11675822535E+03  0.40730012615E+04  0.40713273994E+04 0.  0.
        2    1    3    3  502    0  0.73816687260E+03 -0.16914051882E+04 -0.91790919743E+03  0.20611402517E+04  0.25500000920E-02 0.  1.
       -2    1    3    3    0  502 -0.73816687260E+03  0.16914051882E+04  0.80115097207E+03  0.20118610098E+04  0.25500000920E-02 0. -1.
</event>
<event>
 5   0  0.3399500E-08  0.4007393E+04  0.7818609E-02  0.8003057E-01
       -1   -1    0    0    0  501  0.00000000000E+00  0.00000000000E+00  0.26477199394E+04  0.26477199394E+04  0.50400001928E-02 0. -1.
        1   -1    0    0  501    0  0.00000000000E+00  0.00000000000E+00 -0.15163235118E+04  0.15163235118E+04  0.50400001928E-02 0.  1.
    10030    2    1    2    0    0  0.00000000000E+00  0.00000000000E+00  0.11313964276E+04  0.41640434512E+04  0.40073931661E+04 0.  0.
        2    1    3    3  502    0  0.12295696738E+04 -0.18496196114E+03 -0.10669463059E+04  0.16384220853E+04  0.25500000920E-02 0.  1.
       -2    1    3    3    0  502 -0.12295696738E+04  0.18496196114E+03  0.21983427335E+04  0.25256213659E+04  0.25500000920E-02 0. -1.
</event>
<event>
 5   0  0.1073271E-07  0.4022333E+04  0.7818609E-02  0.8000056E-01
       -2   -1    0    0    0  501  0.00000000000E+00  0.00000000000E+00  0.23070485134E+04  0.23070485134E+04  0.25500000920E-02 0.  1.
        2   -1    0    0  501    0  0.00000000000E+00  0.00000000000E+00 -0.17532320482E+04  0.17532320482E+04  0.25500000920E-02 0. -1.
    10030    2    1    2    0    0  0.00000000000E+00  0.00000000000E+00  0.55381646520E+03  0.40602805616E+04  0.40223333479E+04 0.  0.
        1    1    3    3  502    0 -0.19823511309E+04 -0.32131157343E+03  0.38671990034E+03  0.20451184353E+04  0.50400001928E-02 0.  1.
       -1    1    3    3    0  502  0.19823511309E+04  0.32131157343E+03  0.16709656486E+03  0.20151621263E+04  0.50400001928E-02 0. -1.
</event>
<event>
 5   0  0.3399500E-08  0.3999296E+04  0.7818609E-02  0.8004689E-01
        3   -1    0    0  501    0  0.00000000000E+00  0.00000000000E+00  0.21808263812E+04  0.21808263836E+04  0.10100000352E+00 0.  1.
       -3   -1    0    0    0  501  0.00000000000E+00  0.00000000000E+00 -0.18335214665E+04  0.18335214693E+04  0.10100000352E+00 0. -1.
    10030    2    1    2    0    0  0.00000000000E+00  0.00000000000E+00  0.34730491471E+03  0.40143478529E+04  0.39992959355E+04 0.  0.
        4    1    3    3  502    0  0.39130161646E+03 -0.27843282356E+03 -0.17747736717E+04  0.18386040876E+04  0.12699999809E+01 0. -1.
       -4    1    3    3    0  502 -0.39130161646E+03  0.27843282356E+03  0.21220785864E+04  0.21757437653E+04  0.12699999809E+01 0.  1.
</event>
<event>
 5   0  0.3399500E-08  0.4040162E+04  0.7818609E-02  0.7996493E-01
       -1   -1    0    0    0  501  0.00000000000E+00  0.00000000000E+00  0.21031783389E+04  0.21031783389E+04  0.50400001928E-02 0. -1.
        1   -1    0    0  501    0  0.00000000000E+00  0.00000000000E+00 -0.19402672395E+04  0.19402672395E+04  0.50400001928E-02 0.  1.
    10030    2    1    2    0    0  0.00000000000E+00  0.00000000000E+00  0.16291109945E+03  0.40434455784E+04  0.40401623878E+04 0.  0.
        2    1    3    3  502    0 -0.11234562255E+04  0.64357081668E+03 -0.14704143324E+04  0.19591976918E+04  0.25500000920E-02 0.  1.
       -2    1    3    3    0  502  0.11234562255E+04 -0.64357081668E+03  0.16333254318E+04  0.20842478866E+04  0.25500000920E-02 0. -1.
</event>
<event>
 5   0  0.3399500E-08  0.4004183E+04  0.7818609E-02  0.8003703E-01
        1   -1    0    0  501    0  0.00000000000E+00  0.00000000000E+00  0.22912837451E+04  0.22912837451E+04  0.50400001928E-02 0.  1.
       -1   -1    0    0    0  501  0.00000000000E+00  0.00000000000E+00 -0.17493994599E+04  0.17493994599E+04  0.50400001928E-02 0. -1.
    10030    2    1    2    0    0  0.00000000000E+00  0.00000000000E+00  0.54188428517E+03  0.40406832050E+04  0.40041830858E+04 0.  0.
        1    1    3    3  502    0 -0.16894988248E+04 -0.10673573478E+04  0.39334314836E+03  0.20367564458E+04  0.50400001928E-02 0. -1.
       -1    1    3    3    0  502  0.16894988248E+04  0.10673573478E+04  0.14854113682E+03  0.20039267592E+04  0.50400001928E-02 0.  1.
</event>
<event>
 5   0  0.1101474E-07  0.3998830E+04  0.7818609E-02  0.8004783E-01
       -2   -1    0    0    0  501  0.00000000000E+00  0.00000000000E+00  0.14984211341E+04  0.14984211341E+04  0.25500000920E-02 0.  1.
        2   -1    0    0  501    0  0.00000000000E+00  0.00000000000E+00 -0.26679145624E+04  0.26679145624E+04  0.25500000920E-02 0. -1.
    10030    2    1    2    0    0  0.00000000000E+00  0.00000000000E+00 -0.11694934283E+04  0.41663356965E+04  0.39988296109E+04 0.  0.
        5    1    3    3  502    0  0.58150360706E+03  0.60081148761E+03 -0.24770062234E+04  0.26143264542E+04  0.46999998093E+01 0. -1.
       -5    1    3    3    0  502 -0.58150360706E+03 -0.60081148761E+03  0.13075127951E+04  0.15520092422E+04  0.46999998093E+01 0.  1.
</event>
<event>
 5   0  0.1101474E-07  0.3992200E+04  0.7818609E-02  0.8006122E-01
        2   -1    0    0  501    0  0.00000000000E+00  0.00000000000E+00  0.30519923116E+04  0.30519923116E+04  0.25500000920E-02 0. -1.
       -2   -1    0    0    0  501  0.00000000000E+00  0.00000000000E+00 -0.13055128097E+04  0.13055128097E+04  0.25500000920E-02 0.  1.
    10030    2    1    2    0    0  0.00000000000E+00  0.00000000000E+00  0.17464795019E+04  0.43575051213E+04  0.39921999238E+04 0.  0.
        5    1    3    3  502    0 -0.74954709908E+03  0.14840220184E+03 -0.11395579904E+04  0.13720271756E+04  0.46999998093E+01 0.  1.
       -5    1    3    3    0  502  0.74954709908E+03 -0.14840220184E+03  0.28860374923E+04  0.29854779457E+04  0.46999998093E+01 0. -1.
</event>
<event>
 5   0  0.1095109E-07  0.3900125E+04  0.7818609E-02  0.8025003E-01
        2   -1    0    0  501    0  0.00000000000E+00  0.00000000000E+00  0.15640235914E+04  0.15640235914E+04  0.25500000920E-02 0.  1.
       -2   -1    0    0    0  501  0.00000000000E+00  0.00000000000E+00 -0.24313850667E+04  0.24313850667E+04  0.25500000920E-02 0. -1.
    10030    2    1    2    0    0  0.00000000000E+00  0.00000000000E+00 -0.86736147528E+03  0.39954086581E+04  0.39001249231E+04 0.  0.
        4    1    3    3  502    0  0.32115275855E+03 -0.13843583955E+04  0.93429124712E+03  0.17007319038E+04  0.12699999809E+01 0.  1.
       -4    1    3    3    0  502 -0.32115275855E+03  0.13843583955E+04 -0.18016527224E+04  0.22946767542E+04  0.12699999809E+01 0. -1.
</event>
<event>
 5   0  0.3399500E-08  0.4070788E+04  0.7818609E-02  0.7990417E-01
       -1   -1    0    0    0  501  0.00000000000E+00  0.00000000000E+00  0.16984054347E+04  0.16984054347E+04  0.50400001928E-02 0.  1.
        1   -1    0    0  501    0  0.00000000000E+00  0.00000000000E+00 -0.24392460944E+04  0.24392460944E+04  0.50400001928E-02 0. -1.
    10030    2    1    2    0    0  0.00000000000E+00  0.00000000000E+00 -0.74084065964E+03  0.41376515291E+04  0.40707880433E+04 0.  0.
        5    1    3    3  502    0  0.15450753316E+04  0.67501403637E+03 -0.15292810145E+04  0.22763181326E+04  0.46999998093E+01 0. -1.
       -5    1    3    3    0  502 -0.15450753316E+04 -0.67501403637E+03  0.78844035485E+03  0.18613333965E+04  0.46999998093E+01 0.  1.
</event>
<event>
 5   0  0.1087688E-07  0.4034911E+04  0.7818609E-02  0.7997541E-01
       -2   -1    0    0    0  501  0.00000000000E+00  0.00000000000E+00  0.17942229953E+04  0.17942229953E+04  0.25500000920E-02 0.  1.
        2   -1    0    0  501    0  0.00000000000E+00  0.00000000000E+00 -0.22684621173E+04  0.22684621173E+04  0.25500000920E-02 0. -1.
    10030    2    1    2    0    0  0.00000000000E+00  0.00000000000E+00 -0.47423912195E+03  0.40626851126E+04  0.40349110994E+04 0.  0.
        2    1    3    3  502    0  0.18011835993E+04 -0.11730496525E+03 -0.11444908619E+04  0.21372604301E+04  0.25500000920E-02 0. -1.
       -2    1    3    3    0  502 -0.18011835993E+04  0.11730496525E+03  0.67025173999E+03  0.19254246825E+04  0.25500000920E-02 0.  1.
</event>
<event>
 5   0  0.3399500E-08  0.4190302E+04  0.7818609E-02  0.7967220E-01
        1   -1    0    0  501    0  0.00000000000E+00  0.00000000000E+00  0.14429066600E+04  0.14429066600E+04  0.50400001928E-02 0. -1.
       -1   -1    0    0    0  501  0.00000000000E+00  0.00000000000E+00 -0.30422321347E+04  0.30422321347E+04  0.50400001928E-02 0.  1.
    10030    2    1    2    0    0  0.00000000000E+00  0.00000000000E+00 -0.15993254748E+04  0.44851387947E+04  0.41903016638E+04 0.  0.
        2    1    3    3  502    0  0.17168800093E+04 -0.21056769618E+03 -0.20650645681E+04  0.26937905248E+04  0.25500000920E-02 0.  1.
       -2    1    3    3    0  502 -0.17168800093E+04  0.21056769618E+03  0.46573909329E+03  0.17913482699E+04  0.25500000920E-02 0. -1.
</event>
<event>
 5   0  0.1087688E-07  0.3981904E+04  0.7818609E-02  0.8008207E-01
        2   -1    0    0  501    0  0.00000000000E+00  0.00000000000E+00  0.20791195623E+04  0.20791195623E+04  0.25500000920E-02 0.  1.
       -2   -1    0    0    0  501  0.00000000000E+00  0.00000000000E+00 -0.19065230029E+04  0.19065230029E+04  0.25500000920E-02 0. -1.
    10030    2    1    2    0    0  0.00000000000E+00  0.00000000000E+00  0.17259655942E+03  0.39856425652E+04  0.39819037011E+04 0.  0.
        2    1    3    3  502    0 -0.29257622211E+03  0.17880965605E+04  0.91229984362E+03  0.20285909297E+04  0.25500000920E-02 0.  1.
       -2    1    3    3    0  502  0.29257622211E+03 -0.17880965605E+04 -0.73970328420E+03  0.19570516355E+04  0.25500000920E-02 0. -1.
</event>
<event>
 5   0  0.3399500E-08  0.4193387E+04  0.7818609E-02  0.7966631E-01
       -1   -1    0    0    0  501  0.00000000000E+00  0.00000000000E+00  0.20004343238E+04  0.20004343238E+04  0.50400001928E-02 0.  1.
        1   -1    0    0  501    0  0.00000000000E+00  0.00000000000E+00 -0.21975850358E+04  0.21975850358E+04  0.50400001928E-02 0. -1.
    10030    2    1    2    0    0  0.00000000000E+00  0.00000000000E+00 -0.19715071199E+03  0.41980193596E+04  0.41933874303E+04 0.  0.
        5    1    3    3  502    0 -0.61224785593E+03 -0.15711369063E+04  0.11489085399E+04  0.20404243525E+04  0.46999998093E+01 0.  1.
       -5    1    3    3    0  502  0.61224785593E+03  0.15711369063E+04 -0.13460592519E+04  0.21575950071E+04  0.46999998093E+01 0. -1.
</event>
<event>
 5   0  0.1095109E-07  0.3993503E+04  0.7818609E-02  0.8005858E-01
        2   -1    0    0  501    0  0.00000000000E+00  0.00000000000E+00  0.17192213605E+04  0.17192213605E+04  0.25500000920E-02 0. -1.
       -2   -1    0    0    0  501  0.00000000000E+00  0.00000000000E+00 -0.23190832802E+04  0.23190832802E+04  0.25500000920E-02 0.  1.
    10030    2    1    2    0    0  0.00000000000E+00  0.00000000000E+00 -0.59986191961E+03  0.40383046407E+04  0.39935034805E+04 0.  0.
        4    1    3    3  502    0 -0.19485215819E+04  0.32192994582E+03 -0.59758094973E+03  0.20633661453E+04  0.12699999809E+01 0.  1.
       -4    1    3    3    0  502  0.19485215819E+04 -0.32192994582E+03 -0.22809698865E+01  0.19749384954E+04  0.12699999809E+01 0. -1.
</event>
<event>
 5   0  0.3399500E-08  0.3980513E+04  0.7818609E-02  0.8008489E-01
       -1   -1    0    0    0  501  0.00000000000E+00  0.00000000000E+00  0.17122005275E+04  0.17122005275E+04  0.50400001928E-02 0.  1.
        1   -1    0    0  501    0  0.00000000000E+00  0.00000000000E+00 -0.23134676820E+04  0.23134676820E+04  0.50400001928E-02 0. -1.
    10030    2    1    2    0    0  0.00000000000E+00  0.00000000000E+00 -0.60126715449E+03  0.40256682096E+04  0.39805128241E+04 0.  0.
        1    1    3    3  502    0 -0.20656237255E+03 -0.19374298506E+04  0.10994989456E+03  0.19515100356E+04  0.50400001928E-02 0.  1.
       -1    1    3    3    0  502  0.20656237255E+03  0.19374298506E+04 -0.71121704906E+03  0.20741581740E+04  0.50400001928E-02 0. -1.
</event>
<event>
 5   0  0.3399500E-08  0.3998330E+04  0.7818609E-02  0.8004884E-01
       -1   -1    0    0    0  501  0.00000000000E+00  0.00000000000E+00  0.18716668431E+04  0.18716668431E+04  0.50400001928E-02 0.  1.
        1   -1    0    0  501    0  0.00000000000E+00  0.00000000000E+00 -0.21353480375E+04  0.21353480375E+04  0.50400001928E-02 0. -1.
    10030    2    1    2    0    0  0.00000000000E+00  0.00000000000E+00 -0.26368119434E+03  0.40070148806E+04  0.39983297114E+04 0.  0.
        5    1    3    3  502    0  0.27843650807E+03 -0.93854820954E+03  0.16149999950E+04  0.18885567782E+04  0.46999998093E+01 0.  1.
       -5    1    3    3    0  502 -0.27843650807E+03  0.93854820954E+03 -0.18786811893E+04  0.21184581024E+04  0.46999998093E+01 0. -1.
</event>
<event>
 5   0  0.3399500E-08  0.3703848E+04  0.7818609E-02  0.8067110E-01
       -1   -1    0    0    0  501  0.00000000000E+00  0.00000000000E+00  0.20474962285E+04  0.20474962285E+04  0.50400001928E-02 0. -1.
        1   -1    0    0  501    0  0.00000000000E+00  0.00000000000E+00 -0.16750324814E+04  0.16750324814E+04  0.50400001928E-02 0.  1.
    10030    2    1    2    0    0  0.00000000000E+00  0.00000000000E+00  0.37246374710E+03  0.37225287099E+04  0.37038481007E+04 0.  0.
        1    1    3    3  502    0 -0.81478014890E+03  0.16536259973E+04  0.84866912706E+01  0.18434797677E+04  0.50400001928E-02 0. -1.
       -1    1    3    3    0  502  0.81478014890E+03 -0.16536259973E+04  0.36397705583E+03  0.18790489422E+04  0.50400001928E-02 0.  1.
</event>
<event>
 5   0  0.1087688E-07  0.3946727E+04  0.7818609E-02  0.8015380E-01
        2   -1    0    0  501    0  0.00000000000E+00  0.00000000000E+00  0.23616349804E+04  0.23616349804E+04  0.25500000920E-02 0.  1.
       -2   -1    0    0    0  501  0.00000000000E+00  0.00000000000E+00 -0.16489271288E+04  0.16489271288E+04  0.25500000920E-02 0. -1.
    10030    2    1    2    0    0  0.00000000000E+00  0.00000000000E+00  0.71270785166E+03  0.40105621092E+04  0.39467272454E+04 0.  0.
        2    1    3    3  502    0 -0.30278240419E+03 -0.19195169121E+04  0.73730001184E+01  0.19432644497E+04  0.25500000920E-02 0.  1.
       -2    1    3    3    0  502  0.30278240419E+03  0.19195169121E+04  0.70533485154E+03  0.20672976595E+04  0.25500000920E-02 0. -1.
</event>
<event>
 5   0  0.1095903E-07  0.4039485E+04  0.7818609E-02  0.7996628E-01
        2   -1    0    0  501    0  0.00000000000E+00  0.00000000000E+00  0.16068687084E+04  0.16068687084E+04  0.25500000920E-02 0.  1.
       -2   -1    0    0    0  501  0.00000000000E+00  0.00000000000E+00 -0.25387012285E+04  0.25387012285E+04  0.25500000920E-02 0. -1.
    10030    2    1    2    0    0  0.00000000000E+00  0.00000000000E+00 -0.93183252003E+03  0.41455699369E+04  0.40394848999E+04 0.  0.
        3    1    3    3  502    0  0.13194584060E+04  0.14786415884E+04 -0.86603754388E+03  0.21627233919E+04  0.10100000352E+00 0. -1.
       -3    1    3    3    0  502 -0.13194584060E+04 -0.14786415884E+04 -0.65794976144E+02  0.19828465450E+04  0.10100000352E+00 0.  1.
</event>
<event>
 5   0  0.3399500E-08  0.4003061E+04  0.7818609E-02  0.8003929E-01
        1   -1    0    0  501    0  0.00000000000E+00  0.00000000000E+00  0.19453553413E+04  0.19453553413E+04  0.50400001928E-02 0. -1.
       -1   -1    0    0    0  501  0.00000000000E+00  0.00000000000E+00 -0.20593282907E+04  0.20593282907E+04  0.50400001928E-02 0.  1.
    10030    2    1    2    0    0  0.00000000000E+00  0.00000000000E+00 -0.11397294935E+03  0.40046836320E+04  0.40030614734E+04 0.  0.
        5    1    3    3  502    0 -0.17157866348E+04 -0.91342403159E+03  0.42052860486E+03  0.19887517782E+04  0.46999998093E+01 0. -1.
       -5    1    3    3    0  502  0.17157866348E+04  0.91342403159E+03 -0.53450155420E+03  0.20159318538E+04  0.46999998093E+01 0.  1.
</event>
<event>
 5   0  0.1101474E-07  0.3990992E+04  0.7818609E-02  0.8006366E-01
       -2   -1    0    0    0  501  0.00000000000E+00  0.00000000000E+00  0.13239690829E+04  0.13239690829E+04  0.25500000920E-02 0.  1.
        2   -1    0    0  501    0  0.00000000000E+00  0.00000000000E+00 -0.30076269586E+04  0.30076269586E+04  0.25500000920E-02 0. -1.
    10030    2    1    2    0    0  0.00000000000E+00  0.00000000000E+00 -0.16836578757E+04  0.43315960415E+04  0.39909924109E+04 0.  0.
        5    1    3    3  502    0 -0.64160399680E+03 -0.81293573263E+01  0.12089414783E+04  0.13686794230E+04  0.46999998093E+01 0.  1.
       -5    1    3    3    0  502  0.64160399680E+03  0.81293573263E+01 -0.28925993540E+04  0.29629166185E+04  0.46999998093E+01 0. -1.
</event>
<event>
 5   0  0.1101474E-07  0.3991450E+04  0.7818609E-02  0.8006274E-01
       -2   -1    0    0    0  501  0.00000000000E+00  0.00000000000E+00  0.17030505310E+04  0.17030505310E+04  0.25500000920E-02 0. -1.
        2   -1    0    0  501    0  0.00000000000E+00  0.00000000000E+00 -0.23386962190E+04  0.23386962190E+04  0.25500000920E-02 0.  1.
    10030    2    1    2    0    0  0.00000000000E+00  0.00000000000E+00 -0.63564568805E+03  0.40417467500E+04  0.39914497805E+04 0.  0.
        5    1    3    3  502    0  0.81780559675E+03  0.72389584129E+03  0.13735741522E+04  0.17548672955E+04  0.46999998093E+01 0. -1.
       -5    1    3    3    0  502 -0.81780559675E+03 -0.72389584129E+03 -0.20092198403E+04  0.22868794545E+04  0.46999998093E+01 0.  1.
</event>
<event>
 5   0  0.1101474E-07  0.3736306E+04  0.7818609E-02  0.8059963E-01
       -2   -1    0    0    0  501  0.00000000000E+00  0.00000000000E+00  0.29707300412E+04  0.29707300412E+04  0.25500000920E-02 0. -1.
        2   -1    0    0  501    0  0.00000000000E+00  0.00000000000E+00 -0.11747939934E+04  0.11747939934E+04  0.25500000920E-02 0.  1.
    10030    2    1    2    0    0  0.00000000000E+00  0.00000000000E+00  0.17959360478E+04  0.41455240345E+04  0.37363060947E+04 0.  0.
        5    1    3    3  502    0 -0.59951558049E+03  0.11837775359E+04 -0.56105722905E+03  0.14406788296E+04  0.46999998093E+01 0.  1.
       -5    1    3    3    0  502  0.59951558049E+03 -0.11837775359E+04  0.23569932768E+04  0.27048452050E+04  0.46999998093E+01 0. -1.
</event>
<event>
 5   0  0.3399500E-08  0.4186118E+04  0.7818609E-02  0.7968018E-01
        1   -1    0    0  501    0  0.00000000000E+00  0.00000000000E+00  0.24212079820E+04  0.24212079820E+04  0.50400001928E-02 0.  1.
       -1   -1    0    0    0  501  0.00000000000E+00  0.00000000000E+00 -0.18093843147E+04  0.18093843147E+04  0.50400001928E-02 0. -1.
    10030    2    1    2    0    0  0.00000000000E+00  0.00000000000E+00  0.61182366725E+03  0.42305922967E+04  0.41861178891E+04 0.  0.
        1    1    3    3  502    0 -0.56420156069E+03 -0.78836645023E+03  0.21806268337E+04  0.23864153974E+04  0.50400001928E-02 0.  1.
       -1    1    3    3    0  502  0.56420156069E+03  0.78836645023E+03 -0.15688031664E+04  0.18441768993E+04  0.50400001928E-02 0. -1.
</event>
<event>
 5   0  0.1095109E-07  0.4014305E+04  0.7818609E-02  0.8001667E-01
       -2   -1    0    0    0  501  0.00000000000E+00  0.00000000000E+00  0.21831693062E+04  0.21831693062E+04  0.25500000920E-02 0. -1.
        2   -1    0    0  501    0  0.00000000000E+00  0.00000000000E+00 -0.18453268842E+04  0.18453268842E+04  0.25500000920E-02 0.  1.
    10030    2    1    2    0    0  0.00000000000E+00  0.00000000000E+00  0.33784242197E+03  0.40284961904E+04  0.40143049279E+04 0.  0.
        4    1    3    3  502    0 -0.28862795310E+02 -0.14129381238E+04 -0.12614006110E+04  0.18942967869E+04  0.12699999809E+01 0.  1.
       -4    1    3    3    0  502  0.28862795310E+02  0.14129381238E+04  0.15992430329E+04  0.21341994035E+04  0.12699999809E+01 0. -1.
</event>
<event>
 5   0  0.3399500E-08  0.3525988E+04  0.7818609E-02  0.8107659E-01
        1   -1    0    0  501    0  0.00000000000E+00  0.00000000000E+00  0.16053532138E+04  0.16053532138E+04  0.50400001928E-02 0.  1.
       -1   -1    0    0    0  501  0.00000000000E+00  0.00000000000E+00 -0.19361150795E+04  0.19361150795E+04  0.50400001928E-02 0. -1.
    10030    2    1    2    0    0  0.00000000000E+00  0.00000000000E+00 -0.33076186563E+03  0.35414682933E+04  0.35259884091E+04 0.  0.
        1    1    3    3  502    0 -0.82050398660E+03 -0.87112753601E+02 -0.17302109573E+04  0.19168842899E+04  0.50400001928E-02 0. -1.
       -1    1    3    3    0  502  0.82050398660E+03  0.87112753601E+02  0.13994490917E+04  0.16245840034E+04  0.50400001928E-02 0.  1.
</event>
<event>
 5   0  0.3399500E-08  0.3978123E+04  0.7818609E-02  0.8008974E-01
       -1   -1    0    0    0  501  0.00000000000E+00  0.00000000000E+00  0.14049874547E+04  0.14049874548E+04  0.50400001928E-02 0. -1.
        1   -1    0    0  501    0  0.00000000000E+00  0.00000000000E+00 -0.28159443987E+04  0.28159443987E+04  0.50400001928E-02 0.  1.
    10030    2    1    2    0    0  0.00000000000E+00  0.00000000000E+00 -0.14109569440E+04  0.42209318535E+04  0.39781234538E+04 0.  0.
        3    1    3    3  502    0 -0.43921189302E+03 -0.92762057290E+03  0.11023285572E+04  0.15061591126E+04  0.10100000352E+00 0. -1.
       -3    1    3    3    0  502  0.43921189302E+03  0.92762057290E+03 -0.25132855012E+04  0.27147727409E+04  0.10100000352E+00 0.  1.
</event>
<event>
 5   0  0.3399500E-08  0.3997776E+04  0.7818609E-02  0.8004995E-01
       -1   -1    0    0    0  501  0.00000000000E+00  0.00000000000E+00  0.20130974837E+04  0.20130974837E+04  0.50400001928E-02 0.  1.
        1   -1    0    0  501    0  0.00000000000E+00  0.00000000000E+00 -0.19847787529E+04  0.19847787529E+04  0.50400001928E-02 0. -1.
    10030    2    1    2    0    0  0.00000000000E+00  0.00000000000E+00  0.28318730846E+02  0.39978762366E+04  0.39977759383E+04 0.  0.
        4    1    3    3  502    0  0.12567772577E+04  0.64704491364E+03 -0.13991684555E+04  0.19889268904E+04  0.12699999809E+01 0. -1.
       -4    1    3    3    0  502 -0.12567772577E+04 -0.64704491364E+03  0.14274871863E+04  0.20089493462E+04  0.12699999809E+01 0.  1.
</event>
<event>
 5   0  0.1095109E-07  0.3912407E+04  0.7818609E-02  0.8022454E-01
       -2   -1    0    0    0  501  0.00000000000E+00  0.00000000000E+00  0.21384378693E+04  0.21384378693E+04  0.25500000920E-02 0. -1.
        2   -1    0    0  501    0  0.00000000000E+00  0.00000000000E+00 -0.17894985984E+04  0.17894985985E+04  0.25500000920E-02 0.  1.
    10030    2    1    2    0    0  0.00000000000E+00  0.00000000000E+00  0.34893927088E+03  0.39279364678E+04  0.39124067120E+04 0.  0.
        4    1    3    3  502    0  0.18635597141E+04 -0.53300822702E+03  0.43967224056E+03  0.19875275772E+04  0.12699999809E+01 0. -1.
       -4    1    3    3    0  502 -0.18635597141E+04  0.53300822702E+03 -0.90732969682E+02  0.19404088906E+04  0.12699999809E+01 0.  1.
</event>
<event>
 5   0  0.3399500E-08  0.4003170E+04  0.7818609E-02  0.8003907E-01
        1   -1    0    0  501    0  0.00000000000E+00  0.00000000000E+00  0.24333811234E+04  0.24333811234E+04  0.50400001928E-02 0.  1.
       -1   -1    0    0    0  501  0.00000000000E+00  0.00000000000E+00 -0.16464096268E+04  0.16464096268E+04  0.50400001928E-02 0. -1.
    10030    2    1    2    0    0  0.00000000000E+00  0.00000000000E+00  0.78697149658E+03  0.40797907502E+04  0.40031697977E+04 0.  0.
        4    1    3    3  502    0  0.84351444421E+02  0.19120217272E+03 -0.16352602201E+04  0.16485602923E+04  0.12699999809E+01 0. -1.
       -4    1    3    3    0  502 -0.84351444421E+02 -0.19120217272E+03  0.24222317167E+04  0.24312304579E+04  0.12699999809E+01 0.  1.
</event>
<event>
 5   0  0.3399500E-08  0.3997318E+04  0.7818609E-02  0.8005088E-01
       -1   -1    0    0    0  501  0.00000000000E+00  0.00000000000E+00  0.20419529301E+04  0.20419529301E+04  0.50400001928E-02 0. -1.
        1   -1    0    0  501    0  0.00000000000E+00  0.00000000000E+00 -0.19562825274E+04  0.19562825274E+04  0.50400001928E-02 0.  1.
    10030    2    1    2    0    0  0.00000000000E+00  0.00000000000E+00  0.85670402732E+02  0.39982354575E+04  0.39973175200E+04 0.  0.
        3    1    3    3  502    0 -0.22052203764E+03 -0.17226325461E+04  0.10322761773E+04  0.20203185329E+04  0.10100000352E+00 0. -1.
       -3    1    3    3    0  502  0.22052203764E+03  0.17226325461E+04 -0.94660577458E+03  0.19779169246E+04  0.10100000352E+00 0.  1.
</event>
<event>
 5   0  0.1073271E-07  0.4139649E+04  0.7818609E-02  0.7976953E-01
        2   -1    0    0  501    0  0.00000000000E+00  0.00000000000E+00  0.24659686909E+04  0.24659686909E+04  0.25500000920E-02 0. -1.
       -2   -1    0    0    0  501  0.00000000000E+00  0.00000000000E+00 -0.17373186813E+04  0.17373186813E+04  0.25500000920E-02 0.  1.
    10030    2    1    2    0    0  0.00000000000E+00  0.00000000000E+00  0.72865000958E+03  0.42032873723E+04  0.41396490065E+04 0.  0.
        1    1    3    3  502    0 -0.16274581347E+04  0.12788865448E+04  0.36265668183E+03  0.21013544783E+04  0.50400001928E-02 0. -1.
       -1    1    3    3    0  502  0.16274581347E+04 -0.12788865448E+04  0.36599332774E+03  0.21019328939E+04  0.50400001928E-02 0.  1.
</event>
<event>
 5   0  0.1101474E-07  0.4000628E+04  0.7818609E-02  0.8004420E-01
        2   -1    0    0  501    0  0.00000000000E+00  0.00000000000E+00  0.17050611578E+04  0.17050611578E+04  0.25500000920E-02 0.  1.
       -2   -1    0    0    0  501  0.00000000000E+00  0.00000000000E+00 -0.23466930481E+04  0.23466930481E+04  0.25500000920E-02 0. -1.
    10030    2    1    2    0    0  0.00000000000E+00  0.00000000000E+00 -0.64163189024E+03  0.40517542059E+04  0.40006275336E+04 0.  0.
        5    1    3    3  502    0  0.19330231004E+03  0.59344521003E+03  0.16039158027E+04  0.17210784388E+04  0.46999998093E+01 0.  1.
       -5    1    3    3    0  502 -0.19330231004E+03 -0.59344521003E+03 -0.22455476929E+04  0.23306757671E+04  0.46999998093E+01 0. -1.
</event>
<event>
 5   0  0.3399500E-08  0.3997293E+04  0.7818609E-02  0.8005093E-01
        1   -1    0    0  501    0  0.00000000000E+00  0.00000000000E+00  0.22301763294E+04  0.22301763294E+04  0.50400001928E-02 0. -1.
       -1   -1    0    0    0  501  0.00000000000E+00  0.00000000000E+00 -0.17911532542E+04  0.17911532543E+04  0.50400001928E-02 0.  1.
    10030    2    1    2    0    0  0.00000000000E+00  0.00000000000E+00  0.43902307517E+03  0.40213295837E+04  0.39972928789E+04 0.  0.
        4    1    3    3  502    0 -0.10009290253E+04  0.61985946043E+03  0.18443089875E+04  0.21880497980E+04  0.12699999809E+01 0. -1.
       -4    1    3    3    0  502  0.10009290253E+04 -0.61985946043E+03 -0.14052859123E+04  0.18332797857E+04  0.12699999809E+01 0.  1.
</event>
<event>
 5   0  0.1095109E-07  0.3953593E+04  0.7818609E-02  0.8013974E-01
        2   -1    0    0  501    0  0.00000000000E+00  0.00000000000E+00  0.20455249754E+04  0.20455249754E+04  0.25500000920E-02 0. -1.
       -2   -1    0    0    0  501  0.00000000000E+00  0.00000000000E+00 -0.19103770483E+04  0.19103770483E+04  0.25500000920E-02 0.  1.
    10030    2    1    2    0    0  0.00000000000E+00  0.00000000000E+00  0.13514792712E+03  0.39559020237E+04  0.39535927786E+04 0.  0.
        4    1    3    3  502    0  0.17927434121E+04  0.81795598975E+03 -0.89811930684E+02  0.19725741402E+04  0.12699999809E+01 0.  1.
       -4    1    3    3    0  502 -0.17927434121E+04 -0.81795598975E+03  0.22495985780E+03  0.19833278835E+04  0.12699999809E+01 0. -1.
</event>
<event>
 5   0  0.1087688E-07  0.3999281E+04  0.7818609E-02  0.8004692E-01
        2   -1    0    0  501    0  0.00000000000E+00  0.00000000000E+00  0.26818016226E+04  0.26818016226E+04  0.25500000920E-02 0. -1.
       -2   -1    0    0    0  501  0.00000000000E+00  0.00000000000E+00 -0.14909986078E+04  0.14909986078E+04  0.25500000920E-02 0.  1.
    10030    2    1    2    0    0  0.00000000000E+00  0.00000000000E+00  0.11908030148E+04  0.41728002304E+04  0.39992811783E+04 0.  0.
        2    1    3    3  502    0  0.13682632907E+04  0.25855006898E+03  0.20927880445E+04  0.25137132633E+04  0.25500000920E-02 0. -1.
       -2    1    3    3    0  502 -0.13682632907E+04 -0.25855006898E+03 -0.90198502967E+03  0.16590869671E+04  0.25500000920E-02 0.  1.
</event>
<event>
 5   0  0.3399500E-08  0.3994300E+04  0.7818609E-02  0.8005697E-01
       -1   -1    0    0    0  501  0.00000000000E+00  0.00000000000E+00  0.15733460135E+04  0.15733460135E+04  0.50400001928E-02 0.  1.
        1   -1    0    0  501    0  0.00000000000E+00  0.00000000000E+00 -0.25351122648E+04  0.25351122648E+04  0.50400001928E-02 0. -1.
    10030    2    1    2    0    0  0.00000000000E+00  0.00000000000E+00 -0.96176625130E+03  0.41084582783E+04  0.39943003270E+04 0.  0.
        3    1    3    3  502    0 -0.89783864937E+03  0.15933730462E+04 -0.13060948060E+04  0.22474064068E+04  0.10100000352E+00 0. -1.
       -3    1    3    3    0  502  0.89783864937E+03 -0.15933730462E+04  0.34432855473E+03  0.18610518715E+04  0.10100000352E+00 0.  1.
</event>
<event>
 5   0  0.1087688E-07  0.4033470E+04  0.7818609E-02  0.7997828E-01
       -2   -1    0    0    0  501  0.00000000000E+00  0.00000000000E+00  0.22032865443E+04  0.22032865443E+04  0.25500000920E-02 0.  1.
        2   -1    0    0  501    0  0.00000000000E+00  0.00000000000E+00 -0.18459788855E+04  0.18459788855E+04  0.25500000920E-02 0. -1.
    10030    2    1    2    0    0  0.00000000000E+00  0.00000000000E+00  0.35730765882E+03  0.40492654298E+04  0.40334701880E+04 0.  0.
        2    1    3    3  502    0  0.10179231820E+04 -0.17109427613E+04  0.50198291477E+03  0.20531633115E+04  0.25500000920E-02 0.  1.
       -2    1    3    3    0  502 -0.10179231820E+04  0.17109427613E+04 -0.14467525595E+03  0.19961021183E+04  0.25500000920E-02 0. -1.
</event>
<event>
 5   0  0.3399500E-08  0.3972199E+04  0.7818609E-02  0.8010178E-01
        1   -1    0    0  501    0  0.00000000000E+00  0.00000000000E+00  0.16066328871E+04  0.16066328871E+04  0.50400001928E-02 0. -1.
       -1   -1    0    0    0  501  0.00000000000E+00  0.00000000000E+00 -0.24551914349E+04  0.24551914349E+04  0.50400001928E-02 0.  1.
    10030    2    1    2    0    0  0.00000000000E+00  0.00000000000E+00 -0.84855854777E+03  0.40618243220E+04  0.39721990401E+04 0.  0.
        2    1    3    3  502    0 -0.14492109781E+04  0.12321016432E+03 -0.18072739378E+04  0.23198345394E+04  0.25500000920E-02 0.  1.
       -2    1    3    3    0  502  0.14492109781E+04 -0.12321016432E+03  0.95871539008E+03  0.17419897826E+04  0.25500000920E-02 0. -1.
</event>
<event>
 5   0  0.3399500E-08  0.3990564E+04  0.7818609E-02  0.8006453E-01
       -1   -1    0    0    0  501  0.00000000000E+00  0.00000000000E+00  0.14193704917E+04  0.14193704917E+04  0.50400001928E-02 0.  1.
        1   -1    0    0  501    0  0.00000000000E+00  0.00000000000E+00 -0.28048704676E+04  0.28048704676E+04  0.50400001928E-02 0. -1.
    10030    2    1    2    0    0  0.00000000000E+00  0.00000000000E+00 -0.13854999760E+04  0.42242409593E+04  0.39905640577E+04 0.  0.
        1    1    3    3  502    0  0.14450608896E+04 -0.74443193894E+03 -0.19175564295E+04  0.25138421882E+04  0.50400001928E-02 0. -1.
       -1    1    3    3    0  502 -0.14450608896E+04  0.74443193894E+03  0.53205645356E+03  0.17103987711E+04  0.50400001928E-02 0.  1.
</event>
<event>
 5   0  0.1073271E-07  0.3997900E+04  0.7818609E-02  0.8004970E-01
       -2   -1    0    0    0  501  0.00000000000E+00  0.00000000000E+00  0.18670237230E+04  0.18670237230E+04  0.25500000920E-02 0.  1.
        2   -1    0    0  501    0  0.00000000000E+00  0.00000000000E+00 -0.21401986210E+04  0.21401986210E+04  0.25500000920E-02 0. -1.
    10030    2    1    2    0    0  0.00000000000E+00  0.00000000000E+00 -0.27317489804E+03  0.40072223440E+04  0.39979002475E+04 0.  0.
        1    1    3    3  502    0  0.10983417163E+04  0.41036821208E+03  0.14861517433E+04  0.18929880083E+04  0.50400001928E-02 0.  1.
       -1    1    3    3    0  502 -0.10983417163E+04 -0.41036821208E+03 -0.17593266414E+04  0.21142343357E+04  0.50400001928E-02 0. -1.
</event>
<event>
 5   0  0.1087688E-07  0.3929862E+04  0.7818609E-02  0.8018847E-01
       -2   -1    0    0    0  501  0.00000000000E+00  0.00000000000E+00  0.17576653295E+04  0.17576653295E+04  0.25500000920E-02 0.  1.
        2   -1    0    0  501    0  0.00000000000E+00  0.00000000000E+00 -0.21966371335E+04  0.21966371335E+04  0.25500000920E-02 0. -1.
    10030    2    1    2    0    0  0.00000000000E+00  0.00000000000E+00 -0.43897180400E+03  0.39543024630E+04  0.39298615401E+04 0.  0.
        2    1    3    3  502    0 -0.14564829246E+04  0.46268602630E+02 -0.15458148487E+04  0.21243885802E+04  0.25500000920E-02 0. -1.
       -2    1    3    3    0  502  0.14564829246E+04 -0.46268602630E+02  0.11068430447E+04  0.18299138829E+04  0.25500000920E-02 0.  1.
</event>
<event>
 5   0  0.3399500E-08  0.4008764E+04  0.7818609E-02  0.8002781E-01
       -1   -1    0    0    0  501  0.00000000000E+00  0.00000000000E+00  0.14806828985E+04  0.14806828985E+04  0.50400001928E-02 0. -1.
        1   -1    0    0  501    0  0.00000000000E+00  0.00000000000E+00 -0.27133062913E+04  0.27133062913E+04  0.50400001928E-02 0.  1.
    10030    2    1    2    0    0  0.00000000000E+00  0.00000000000E+00 -0.12326233928E+04  0.41939891898E+04  0.40087635121E+04 0.  0.
        1    1    3    3  502    0 -0.14659342078E+04 -0.17454164502E+03  0.80210424519E+03  0.16801187778E+04  0.50400001928E-02 0. -1.
       -1    1    3    3    0  502  0.14659342078E+04  0.17454164502E+03 -0.20347276380E+04  0.25138704120E+04  0.50400001928E-02 0.  1.
</event>
<event>
 5   0  0.3399500E-08  0.4023039E+04  0.7818609E-02  0.7999915E-01
       -1   -1    0    0    0  501  0.00000000000E+00  0.00000000000E+00  0.18010771472E+04  0.18010771472E+04  0.50400001928E-02 0.  1.
        1   -1    0    0  501    0  0.00000000000E+00  0.00000000000E+00 -0.22465504568E+04  0.22465504568E+04  0.50400001928E-02 0. -1.
    10030    2    1    2    0    0  0.00000000000E+00  0.00000000000E+00 -0.44547330962E+03  0.40476276040E+04  0.40230389945E+04 0.  0.
        2    1    3    3  502    0  0.14063180365E+04  0.14052211256E+04  0.85458700427E+02  0.19898944749E+04  0.25500000920E-02 0.  1.
       -2    1    3    3    0  502 -0.14063180365E+04 -0.14052211256E+04 -0.53093201005E+03  0.20577331292E+04  0.25500000920E-02 0. -1.
</event>
<event>
 5   0  0.1073271E-07  0.3519006E+04  0.7818609E-02  0.8109300E-01
        2   -1    0    0  501    0  0.00000000000E+00  0.00000000000E+00  0.19978868274E+04  0.19978868274E+04  0.25500000920E-02 0. -1.
       -2   -1    0    0    0  501  0.00000000000E+00  0.00000000000E+00 -0.15495627187E+04  0.15495627187E+04  0.25500000920E-02 0.  1.
    10030    2    1    2    0    0  0.00000000000E+00  0.00000000000E+00  0.44832410862E+03  0.35474495461E+04  0.35190060778E+04 0.  0.
        1    1    3    3  502    0 -0.16637078921E+04 -0.32029940637E+03 -0.25436975387E+03  0.17132482691E+04  0.50400001928E-02 0. -1.
       -1    1    3    3    0  502  0.16637078921E+04  0.32029940637E+03  0.70269386249E+03  0.18342012770E+04  0.50400001928E-02 0.  1.
</event>
<event>
 5   0  0.3399500E-08  0.3611811E+04  0.7818609E-02  0.8087792E-01
       -1   -1    0    0    0  501  0.00000000000E+00  0.00000000000E+00  0.12238261302E+04  0.12238261302E+04  0.50400001928E-02 0. -1.
        1   -1    0    0  501    0  0.00000000000E+00  0.00000000000E+00 -0.26648350827E+04  0.26648350827E+04  0.50400001928E-02 0.  1.
    10030    2    1    2    0    0  0.00000000000E+00  0.00000000000E+00 -0.14410089525E+04  0.38886612130E+04  0.36118110731E+04 0.  0.
        2    1    3    3  502    0  0.14464485555E+04 -0.43985812391E+03 -0.17839429345E+04  0.23384056505E+04  0.25500000920E-02 0.  1.
       -2    1    3    3    0  502 -0.14464485555E+04  0.43985812391E+03  0.34293398191E+03  0.15502555624E+04  0.25500000920E-02 0. -1.
</event>
<event>
 5   0  0.3399500E-08  0.4001582E+04  0.7818609E-02  0.8004227E-01
       -1   -1    0    0    0  501  0.00000000000E+00  0.00000000000E+00  0.14642106000E+04  0.14642106001E+04  0.50400001928E-02 0.  1.
        1   -1    0    0  501    0  0.00000000000E+00  0.00000000000E+00 -0.27340092983E+04  0.27340092983E+04  0.50400001928E-02 0. -1.
    10030    2    1    2    0    0  0.00000000000E+00  0.00000000000E+00 -0.12697986983E+04  0.41982198984E+04  0.40015823846E+04 0.  0.
        3    1    3    3  502    0 -0.15367033445E+04 -0.60091565901E+03 -0.18221478365E+04  0.24582065712E+04  0.10100000352E+00 0. -1.
       -3    1    3    3    0  502  0.15367033445E+04  0.60091565901E+03  0.55234913827E+03  0.17400133272E+04  0.10100000352E+00 0.  1.
</event>
<event>
 5   0  0.1095109E-07  0.4001818E+04  0.7818609E-02  0.8004180E-01
       -2   -1    0    0    0  501  0.00000000000E+00  0.00000000000E+00  0.17909652423E+04  0.17909652423E+04  0.25500000920E-02 0.  1.
        2   -1    0    0  501    0  0.00000000000E+00  0.00000000000E+00 -0.22354634894E+04  0.22354634894E+04  0.25500000920E-02 0. -1.
    10030    2    1    2    0    0  0.00000000000E+00  0.00000000000E+00 -0.44449824717E+03  0.40264287317E+04  0.40018182917E+04 0.  0.
        4    1    3    3  502    0  0.24930196811E+03 -0.44970583485E+02  0.17747648684E+04  0.17927536852E+04  0.12699999809E+01 0.  1.
       -4    1    3    3    0  502 -0.24930196811E+03  0.44970583485E+02 -0.22192631156E+04  0.22336750466E+04  0.12699999809E+01 0. -1.
</event>
<event>
 5   0  0.1095109E-07  0.3899431E+04  0.7818609E-02  0.8025147E-01
       -2   -1    0    0    0  501  0.00000000000E+00  0.00000000000E+00  0.17511091964E+04  0.17511091964E+04  0.25500000920E-02 0. -1.
        2   -1    0    0  501    0  0.00000000000E+00  0.00000000000E+00 -0.21708475763E+04  0.21708475763E+04  0.25500000920E-02 0.  1.
    10030    2    1    2    0    0  0.00000000000E+00  0.00000000000E+00 -0.41973837988E+03  0.39219567727E+04  0.38994313200E+04 0.  0.
        4    1    3    3  502    0 -0.67095331365E+03 -0.83060864107E+03  0.14309037429E+04  0.17853784467E+04  0.12699999809E+01 0. -1.
       -4    1    3    3    0  502  0.67095331365E+03  0.83060864107E+03 -0.18506421228E+04  0.21365783260E+04  0.12699999809E+01 0.  1.
</event>
<event>
 5   0  0.1095109E-07  0.3971413E+04  0.7818609E-02  0.8010338E-01
        2   -1    0    0  501    0  0.00000000000E+00  0.00000000000E+00  0.28248942384E+04  0.28248942384E+04  0.25500000920E-02 0. -1.
       -2   -1    0    0    0  501  0.00000000000E+00  0.00000000000E+00 -0.13958154733E+04  0.13958154733E+04  0.25500000920E-02 0.  1.
    10030    2    1    2    0    0  0.00000000000E+00  0.00000000000E+00  0.14290787651E+04  0.42207097118E+04  0.39714133950E+04 0.  0.
        4    1    3    3  502    0 -0.14571878534E+04  0.12643486183E+04  0.12142184482E+04  0.22795398487E+04  0.12699999809E+01 0. -1.
       -4    1    3    3    0  502  0.14571878534E+04 -0.12643486183E+04  0.21486031687E+03  0.19411698631E+04  0.12699999809E+01 0.  1.
</event>
<event>
 5   0  0.1095903E-07  0.3996223E+04  0.7818609E-02  0.8005309E-01
        2   -1    0    0  501    0  0.00000000000E+00  0.00000000000E+00  0.25761938045E+04  0.25761938045E+04  0.25500000920E-02 0.  1.
       -2   -1    0    0    0  501  0.00000000000E+00  0.00000000000E+00 -0.15497470639E+04  0.15497470639E+04  0.25500000920E-02 0. -1.
    10030    2    1    2    0    0  0.00000000000E+00  0.00000000000E+00  0.10264467406E+04  0.41259408684E+04  0.39962226086E+04 0.  0.
        3    1    3    3  502    0  0.11192554877E+04  0.12910572933E+04 -0.55620159202E+03  0.17969201436E+04  0.10100000352E+00 0. -1.
       -3    1    3    3    0  502 -0.11192554877E+04 -0.12910572933E+04  0.15826483327E+04  0.23290207248E+04  0.10100000352E+00 0.  1.
</event>
<event>
 5   0  0.3399500E-08  0.4016579E+04  0.7818609E-02  0.8001210E-01
        1   -1    0    0  501    0  0.00000000000E+00  0.00000000000E+00  0.15680709339E+04  0.15680709339E+04  0.50400001928E-02 0. -1.
       -1   -1    0    0    0  501  0.00000000000E+00  0.00000000000E+00 -0.25720951133E+04  0.25720951133E+04  0.50400001928E-02 0.  1.
    10030    2    1    2    0    0  0.00000000000E+00  0.00000000000E+00 -0.10040241795E+04  0.41401660472E+04  0.40165794335E+04 0.  0.
        1    1    3    3  502    0  0.14193227941E+04 -0.86987017391E+02 -0.19638097564E+04  0.24245809317E+04  0.50400001928E-02 0.  1.
       -1    1    3    3    0  502 -0.14193227941E+04  0.86987017391E+02  0.95978557690E+03  0.17155851155E+04  0.50400001928E-02 0. -1.
</event>
<event>
 5   0  0.1087688E-07  0.3991500E+04  0.7818609E-02  0.8006263E-01
       -2   -1    0    0    0  501  0.00000000000E+00  0.00000000000E+00  0.32085445539E+04  0.32085445539E+04  0.25500000920E-02 0. -1.
        2   -1    0    0  501    0  0.00000000000E+00  0.00000000000E+00 -0.12413784067E+04  0.12413784067E+04  0.25500000920E-02 0.  1.
    10030    2    1    2    0    0  0.00000000000E+00  0.00000000000E+00  0.19671661472E+04  0.44499229606E+04  0.39914999317E+04 0.  0.
        2    1    3    3  502    0  0.11612668188E+04  0.13378124359E+04 -0.41069555853E+02  0.17719958935E+04  0.25500000920E-02 0. -1.
       -2    1    3    3    0  502 -0.11612668188E+04 -0.13378124359E+04  0.20082357030E+04  0.26779270671E+04  0.25500000920E-02 0.  1.
</event>
<event>
 5   0  0.1073271E-07  0.3975353E+04  0.7818609E-02  0.8009537E-01
        2   -1    0    0  501    0  0.00000000000E+00  0.00000000000E+00  0.20111387623E+04  0.20111387623E+04  0.25500000920E-02 0.  1.
       -2   -1    0    0    0  501  0.00000000000E+00  0.00000000000E+00 -0.19644875875E+04  0.19644875875E+04  0.25500000920E-02 0. -1.
    10030    2    1    2    0    0  0.00000000000E+00  0.00000000000E+00  0.46651174757E+02  0.39756263498E+04  0.39753526311E+04 0.  0.
        1    1    3    3  502    0  0.36851750624E+03 -0.14386427161E+04 -0.12978857796E+04  0.19723096902E+04  0.50400001928E-02 0. -1.
       -1    1    3    3    0  502 -0.36851750624E+03  0.14386427161E+04  0.13445369544E+04  0.20033166596E+04  0.50400001928E-02 0.  1.
</event>
<event>
 5   0  0.3399500E-08  0.3923426E+04  0.7818609E-02  0.8020175E-01
       -1   -1    0    0    0  501  0.00000000000E+00  0.00000000000E+00  0.17529487053E+04  0.17529487053E+04  0.50400001928E-02 0.  1.
        1   -1    0    0  501    0  0.00000000000E+00  0.00000000000E+00 -0.21953399526E+04  0.21953399526E+04  0.50400001928E-02 0. -1.
    10030    2    1    2    0    0  0.00000000000E+00  0.00000000000E+00 -0.44239124732E+03  0.39482886579E+04  0.39234262209E+04 0.  0.
        2    1    3    3  502    0  0.96306081105E+03 -0.10262014124E+04  0.11541186453E+04  0.18200454148E+04  0.25500000920E-02 0.  1.
       -2    1    3    3    0  502 -0.96306081105E+03  0.10262014124E+04 -0.15965098926E+04  0.21282432431E+04  0.25500000920E-02 0. -1.
</event>
<event>
 5   0  0.3399500E-08  0.4253516E+04  0.7818609E-02  0.7955270E-01
        1   -1    0    0  501    0  0.00000000000E+00  0.00000000000E+00  0.14613060194E+04  0.14613060194E+04  0.50400001928E-02 0. -1.
       -1   -1    0    0    0  501  0.00000000000E+00  0.00000000000E+00 -0.30952452344E+04  0.30952452344E+04  0.50400001928E-02 0.  1.
    10030    2    1    2    0    0  0.00000000000E+00  0.00000000000E+00 -0.16339392150E+04  0.45565512538E+04  0.42535164242E+04 0.  0.
        2    1    3    3  502    0 -0.13178299636E+04  0.37009355647E+03  0.92670906437E+03  0.16530077869E+04  0.25500000920E-02 0. -1.
       -2    1    3    3    0  502  0.13178299636E+04 -0.37009355647E+03 -0.25606482794E+04  0.29035434669E+04  0.25500000920E-02 0.  1.
</event>
<event>
 5   0  0.1073271E-07  0.4090660E+04  0.7818609E-02  0.7986503E-01
        2   -1    0    0  501    0  0.00000000000E+00  0.00000000000E+00  0.16795609352E+04  0.16795609352E+04  0.25500000920E-02 0.  1.
       -2   -1    0    0    0  501  0.00000000000E+00  0.00000000000E+00 -0.24907551770E+04  0.24907551770E+04  0.25500000920E-02 0. -1.
    10030    2    1    2    0    0  0.00000000000E+00  0.00000000000E+00 -0.81119424180E+03  0.41703161123E+04  0.40906601397E+04 0.  0.
        1    1    3    3  502    0  0.94107276424E+03  0.63829836545E+03 -0.21388002660E+04  0.24222942284E+04  0.50400001928E-02 0. -1.
       -1    1    3    3    0  502 -0.94107276424E+03 -0.63829836545E+03  0.13276060242E+04  0.17480218839E+04  0.50400001928E-02 0.  1.
</event>
<event>
 5   0  0.1095109E-07  0.4009069E+04  0.7818609E-02  0.8002720E-01
        2   -1    0    0  501    0  0.00000000000E+00  0.00000000000E+00  0.26683863037E+04  0.26683863037E+04  0.25500000920E-02 0. -1.
       -2   -1    0    0    0  501  0.00000000000E+00  0.00000000000E+00 -0.15058380760E+04  0.15058380760E+04  0.25500000920E-02 0.  1.
    10030    2    1    2    0    0  0.00000000000E+00  0.00000000000E+00  0.11625482277E+04  0.41742243796E+04  0.40090685689E+04 0.  0.
        4    1    3    3  502    0 -0.17778416432E+03  0.16618295607E+04 -0.57105769627E+03  0.17661803994E+04  0.12699999809E+01 0.  1.
       -4    1    3    3    0  502  0.17778416432E+03 -0.16618295607E+04  0.17336059240E+04  0.24080439802E+04  0.12699999809E+01 0. -1.
</event>
<event>
 5   0  0.1095109E-07  0.3928156E+04  0.7818609E-02  0.8019199E-01
       -2   -1    0    0    0  501  0.00000000000E+00  0.00000000000E+00  0.17532468845E+04  0.17532468845E+04  0.25500000920E-02 0. -1.
        2   -1    0    0  501    0  0.00000000000E+00  0.00000000000E+00 -0.22002615381E+04  0.22002615381E+04  0.25500000920E-02 0.  1.
    10030    2    1    2    0    0  0.00000000000E+00  0.00000000000E+00 -0.44701465362E+03  0.39535084226E+04  0.39281556419E+04 0.  0.
        4    1    3    3  502    0 -0.12407600013E+04  0.10271074768E+04 -0.13546672507E+04  0.21046520194E+04  0.12699999809E+01 0.  1.
       -4    1    3    3    0  502  0.12407600013E+04 -0.10271074768E+04  0.90765259709E+03  0.18488564032E+04  0.12699999809E+01 0. -1.
</event>
<event>
 5   0  0.3399500E-08  0.4029583E+04  0.7818609E-02  0.7998605E-01
       -1   -1    0    0    0  501  0.00000000000E+00  0.00000000000E+00  0.25883774556E+04  0.25883774556E+04  0.50400001928E-02 0. -1.
        1   -1    0    0  501    0  0.00000000000E+00  0.00000000000E+00 -0.15683122316E+04  0.15683122316E+04  0.50400001928E-02 0.  1.
    10030    2    1    2    0    0  0.00000000000E+00  0.00000000000E+00  0.10200652240E+04  0.41566896872E+04  0.40295826204E+04 0.  0.
        5    1    3    3  502    0 -0.48797501139E+03 -0.19434093602E+04  0.29266708597E+03  0.20250026336E+04  0.46999998093E+01 0.  1.
       -5    1    3    3    0  502  0.48797501139E+03  0.19434093602E+04  0.72739813803E+03  0.21316870535E+04  0.46999998093E+01 0. -1.
</event>
<event>
 5   0  0.3399500E-08  0.3993219E+04  0.7818609E-02  0.8005916E-01
        1   -1    0    0  501    0  0.00000000000E+00  0.00000000000E+00  0.20475450754E+04  0.20475450754E+04  0.50400001928E-02 0.  1.
       -1   -1    0    0    0  501  0.00000000000E+00  0.00000000000E+00 -0.19469407068E+04  0.19469407068E+04  0.50400001928E-02 0. -1.
    10030    2    1    2    0    0  0.00000000000E+00  0.00000000000E+00  0.10060436859E+03  0.39944857822E+04  0.39932186799E+04 0.  0.
        5    1    3    3  502    0  0.11330218086E+03 -0.19200252943E+04 -0.48567773766E+03  0.19837438015E+04  0.46999998093E+01 0. -1.
       -5    1    3    3    0  502 -0.11330218086E+03  0.19200252943E+04  0.58628210626E+03  0.20107419808E+04  0.46999998093E+01 0.  1.
</event>
<event>
 5   0  0.1087688E-07  0.3796289E+04  0.7818609E-02  0.8046952E-01
       -2   -1    0    0    0  501  0.00000000000E+00  0.00000000000E+00  0.17026558957E+04  0.17026558957E+04  0.25500000920E-02 0.  1.
        2   -1    0    0  501    0  0.00000000000E+00  0.00000000000E+00 -0.21160778377E+04  0.21160778377E+04  0.25500000920E-02 0. -1.
    10030    2    1    2    0    0  0.00000000000E+00  0.00000000000E+00 -0.41342194207E+03  0.38187337334E+04  0.37962889280E+04 0.  0.
        2    1    3    3  502    0  0.95661068786E+03  0.70301637107E+03 -0.16965538158E+04  0.20706595269E+04  0.25500000920E-02 0. -1.
       -2    1    3    3    0  502 -0.95661068786E+03 -0.70301637107E+03  0.12831318738E+04  0.17480742066E+04  0.25500000920E-02 0.  1.
</event>
<event>
 5   0  0.3399500E-08  0.4013525E+04  0.7818609E-02  0.8001824E-01
       -1   -1    0    0    0  501  0.00000000000E+00  0.00000000000E+00  0.16926636786E+04  0.16926636786E+04  0.50400001928E-02 0.  1.
        1   -1    0    0  501    0  0.00000000000E+00  0.00000000000E+00 -0.23791474210E+04  0.23791474210E+04  0.50400001928E-02 0. -1.
    10030    2    1    2    0    0  0.00000000000E+00  0.00000000000E+00 -0.68648374246E+03  0.40718110996E+04  0.40135253459E+04 0.  0.
        2    1    3    3  502    0 -0.19673597482E+04  0.28902334710E+03 -0.61745874076E+03  0.20821369241E+04  0.25500000920E-02 0. -1.
       -2    1    3    3    0  502  0.19673597482E+04 -0.28902334710E+03 -0.69025001704E+02  0.19896741755E+04  0.25500000920E-02 0.  1.
</event>
<event>
 5   0  0.3399500E-08  0.4038246E+04  0.7818609E-02  0.7996875E-01
        1   -1    0    0  501    0  0.00000000000E+00  0.00000000000E+00  0.17873986299E+04  0.17873986299E+04  0.50400001928E-02 0. -1.
       -1   -1    0    0    0  501  0.00000000000E+00  0.00000000000E+00 -0.22808886253E+04  0.22808886253E+04  0.50400001928E-02 0.  1.
    10030    2    1    2    0    0  0.00000000000E+00  0.00000000000E+00 -0.49348999543E+03  0.40682872552E+04  0.40382457596E+04 0.  0.
        2    1    3    3  502    0 -0.98517562888E+03 -0.92992520460E+03 -0.17550552630E+04  0.22171041658E+04  0.25500000920E-02 0.  1.
       -2    1    3    3    0  502  0.98517562888E+03  0.92992520460E+03  0.12615652676E+04  0.18511830893E+04  0.25500000920E-02 0. -1.
</event>
<event>
 5   0  0.3399500E-08  0.4003437E+04  0.7818609E-02  0.8003854E-01
       -1   -1    0    0    0  501  0.00000000000E+00  0.00000000000E+00  0.18248012782E+04  0.18248012782E+04  0.50400001928E-02 0. -1.
        1   -1    0    0  501    0  0.00000000000E+00  0.00000000000E+00 -0.21957881271E+04  0.21957881271E+04  0.50400001928E-02 0.  1.
    10030    2    1    2    0    0  0.00000000000E+00  0.00000000000E+00 -0.37098684892E+03  0.40205894054E+04  0.40034370139E+04 0.  0.
        1    1    3    3  502    0 -0.19193784459E+04  0.45777836380E+03  0.15255284583E+03  0.19791025794E+04  0.50400001928E-02 0. -1.
       -1    1    3    3    0  502  0.19193784459E+04 -0.45777836380E+03 -0.52353969475E+03  0.20414868260E+04  0.50400001928E-02 0.  1.
</event>
<event>
 5   0  0.1087688E-07  0.3997190E+04  0.7818609E-02  0.8005114E-01
        2   -1    0    0  501    0  0.00000000000E+00  0.00000000000E+00  0.25656624002E+04  0.25656624002E+04  0.25500000920E-02 0. -1.
       -2   -1    0    0    0  501  0.00000000000E+00  0.00000000000E+00 -0.15568615383E+04  0.15568615383E+04  0.25500000920E-02 0.  1.
    10030    2    1    2    0    0  0.00000000000E+00  0.00000000000E+00  0.10088008619E+04  0.41225239385E+04  0.39971895682E+04 0.  0.
        2    1    3    3  502    0  0.17574734467E+04  0.50677090870E+02  0.14845139252E+04  0.23011003189E+04  0.25500000920E-02 0. -1.
       -2    1    3    3    0  502 -0.17574734467E+04 -0.50677090870E+02 -0.47571306332E+03  0.18214236196E+04  0.25500000920E-02 0.  1.
</event>
<event>
 5   0  0.1095109E-07  0.4027293E+04  0.7818609E-02  0.7999063E-01
       -2   -1    0    0    0  501  0.00000000000E+00  0.00000000000E+00  0.16233905134E+04  0.16233905134E+04  0.25500000920E-02 0. -1.
        2   -1    0    0  501    0  0.00000000000E+00  0.00000000000E+00 -0.24977177993E+04  0.24977177993E+04  0.25500000920E-02 0.  1.
    10030    2    1    2    0    0  0.00000000000E+00  0.00000000000E+00 -0.87432728591E+03  0.41211083127E+04  0.40272925796E+04 0.  0.
        4    1    3    3  502    0  0.20048438578E+04 -0.15314391597E+03 -0.54887547104E+03  0.20842547466E+04  0.12699999809E+01 0. -1.
       -4    1    3    3    0  502 -0.20048438578E+04  0.15314391597E+03 -0.32545181487E+03  0.20368535661E+04  0.12699999809E+01 0.  1.
</event>
<event>
 5   0  0.3399500E-08  0.3936453E+04  0.7818609E-02  0.8017490E-01
        1   -1    0    0  501    0  0.00000000000E+00  0.00000000000E+00  0.19282141628E+04  0.19282141628E+04  0.50400001928E-02 0. -1.
       -1   -1    0    0    0  501  0.00000000000E+00  0.00000000000E+00 -0.20090689038E+04  0.20090689038E+04  0.50400001928E-02 0.  1.
    10030    2    1    2    0    0  0.00000000000E+00  0.00000000000E+00 -0.80854740996E+02  0.39372830666E+04  0.39364527760E+04 0.  0.
        3    1    3    3  502    0  0.13408062106E+04  0.85712918199E+03  0.11180411598E+04  0.19448516073E+04  0.10100000352E+00 0. -1.
       -3    1    3    3    0  502 -0.13408062106E+04 -0.85712918199E+03 -0.11988959008E+04  0.19924314593E+04  0.10100000352E+00 0.  1.
</event>
<event>
 5   0  0.1073271E-07  0.4002541E+04  0.7818609E-02  0.8004034E-01
       -2   -1    0    0    0  501  0.00000000000E+00  0.00000000000E+00  0.23291805565E+04  0.23291805565E+04  0.25500000920E-02 0.  1.
        2   -1    0    0  501    0  0.00000000000E+00  0.00000000000E+00 -0.17195244047E+04  0.17195244047E+04  0.25500000920E-02 0. -1.
    10030    2    1    2    0    0  0.00000000000E+00  0.00000000000E+00  0.60965615183E+03  0.40487049612E+04  0.40025405981E+04 0.  0.
        1    1    3    3  502    0  0.70930539734E+03 -0.10476453097E+04 -0.12636717088E+04  0.17881669467E+04  0.50400001928E-02 0. -1.
       -1    1    3    3    0  502 -0.70930539734E+03  0.10476453097E+04  0.18733278606E+04  0.22605380145E+04  0.50400001928E-02 0.  1.
</event>
<event>
 5   0  0.3399500E-08  0.4016469E+04  0.7818609E-02  0.8001232E-01
       -1   -1    0    0    0  501  0.00000000000E+00  0.00000000000E+00  0.15847157954E+04  0.15847157954E+04  0.50400001928E-02 0.  1.
        1   -1    0    0  501    0  0.00000000000E+00  0.00000000000E+00 -0.25449395436E+04  0.25449395436E+04  0.50400001928E-02 0. -1.
    10030    2    1    2    0    0  0.00000000000E+00  0.00000000000E+00 -0.96022374819E+03  0.41296553390E+04  0.40164690429E+04 0.  0.
        2    1    3    3  502    0 -0.43591915563E+03 -0.24405994041E+03 -0.24800261524E+04  0.25298459402E+04  0.25500000920E-02 0. -1.
       -2    1    3    3    0  502  0.43591915563E+03  0.24405994041E+03  0.15198024042E+04  0.15998093988E+04  0.25500000920E-02 0.  1.
</event>
<event>
 5   0  0.3399500E-08  0.4003956E+04  0.7818609E-02  0.8003749E-01
       -1   -1    0    0    0  501  0.00000000000E+00  0.00000000000E+00  0.16777255747E+04  0.16777255748E+04  0.50400001928E-02 0.  1.
        1   -1    0    0  501    0  0.00000000000E+00  0.00000000000E+00 -0.23888983105E+04  0.23888983105E+04  0.50400001928E-02 0. -1.
    10030    2    1    2    0    0  0.00000000000E+00  0.00000000000E+00 -0.71117273577E+03  0.40666238853E+04  0.40039559393E+04 0.  0.
        1    1    3    3  502    0 -0.18772912498E+04 -0.36382699887E+03  0.24641596621E+03  0.19280335449E+04  0.50400001928E-02 0.  1.
       -1    1    3    3    0  502  0.18772912498E+04  0.36382699887E+03 -0.95758870198E+03  0.21385903404E+04  0.50400001928E-02 0. -1.
</event>
<event>
 5   0  0.3399500E-08  0.3993953E+04  0.7818609E-02  0.8005767E-01
        1   -1    0    0  501    0  0.00000000000E+00  0.00000000000E+00  0.21051074679E+04  0.21051074679E+04  0.50400001928E-02 0. -1.
       -1   -1    0    0    0  501  0.00000000000E+00  0.00000000000E+00 -0.18944000227E+04  0.18944000227E+04  0.50400001928E-02 0.  1.
    10030    2    1    2    0    0  0.00000000000E+00  0.00000000000E+00  0.21070744513E+03  0.39995074906E+04  0.39939532471E+04 0.  0.
        3    1    3    3  502    0 -0.15897408611E+04  0.11576140878E+04  0.45306742467E+03  0.20180724673E+04  0.10100000352E+00 0. -1.
       -3    1    3    3    0  502  0.15897408611E+04 -0.11576140878E+04 -0.24235997954E+03  0.19814350233E+04  0.10100000352E+00 0.  1.
</event>
<event>
 5   0  0.3399500E-08  0.3842457E+04  0.7818609E-02  0.8037105E-01
       -1   -1    0    0    0  501  0.00000000000E+00  0.00000000000E+00  0.19533323451E+04  0.19533323451E+04  0.50400001928E-02 0. -1.
        1   -1    0    0  501    0  0.00000000000E+00  0.00000000000E+00 -0.18896520057E+04  0.18896520057E+04  0.50400001928E-02 0.  1.
    10030    2    1    2    0    0  0.00000000000E+00  0.00000000000E+00  0.63680339402E+02  0.38429843507E+04  0.38424567056E+04 0.  0.
        1    1    3    3  502    0 -0.99222409328E+03  0.58689578830E+03 -0.15053038879E+04  0.18960208629E+04  0.50400001928E-02 0. -1.
       -1    1    3    3    0  502  0.99222409328E+03 -0.58689578830E+03  0.15689842273E+04  0.19469634879E+04  0.50400001928E-02 0.  1.
</event>
<event>
 5   0  0.3399500E-08  0.4002006E+04  0.7818609E-02  0.8004142E-01
        1   -1    0    0  501    0  0.00000000000E+00  0.00000000000E+00  0.13053854976E+04  0.13053854976E+04  0.50400001928E-02 0.  1.
       -1   -1    0    0    0  501  0.00000000000E+00  0.00000000000E+00 -0.30673032038E+04  0.30673032038E+04  0.50400001928E-02 0. -1.
    10030    2    1    2    0    0  0.00000000000E+00  0.00000000000E+00 -0.17619177063E+04  0.43726887014E+04  0.40020060564E+04 0.  0.
        1    1    3    3  502    0  0.13103164996E+04 -0.10557542957E+04  0.30214009771E+03  0.17096301064E+04  0.50400001928E-02 0.  1.
       -1    1    3    3    0  502 -0.13103164996E+04  0.10557542957E+04 -0.20640578040E+04  0.26630585950E+04  0.50400001928E-02 0. -1.
</event>
<event>
 5   0  0.3399500E-08  0.4001007E+04  0.7818609E-02  0.8004343E-01
        1   -1    0    0  501    0  0.00000000000E+00  0.00000000000E+00  0.22938201576E+04  0.22938201576E+04  0.50400001928E-02 0.  1.
       -1   -1    0    0    0  501  0.00000000000E+00  0.00000000000E+00 -0.17446943158E+04  0.17446943158E+04  0.50400001928E-02 0. -1.
    10030    2    1    2    0    0  0.00000000000E+00  0.00000000000E+00  0.54912584184E+03  0.40385144734E+04  0.40010073683E+04 0.  0.
        2    1    3    3  502    0  0.17073270196E+04  0.10097446427E+04  0.53673846769E+03  0.20549058319E+04  0.25500000920E-02 0.  1.
       -2    1    3    3    0  502 -0.17073270196E+04 -0.10097446427E+04  0.12387374149E+02  0.19836086415E+04  0.25500000920E-02 0. -1.
</event>
<event>
 5   0  0.3399500E-08  0.3935698E+04  0.7818609E-02  0.8017645E-01
       -1   -1    0    0    0  501  0.00000000000E+00  0.00000000000E+00  0.24281356028E+04  0.24281356028E+04  0.50400001928E-02 0. -1.
        1   -1    0    0  501    0  0.00000000000E+00  0.00000000000E+00 -0.15948158072E+04  0.15948158072E+04  0.50400001928E-02 0.  1.
    10030    2    1    2    0    0  0.00000000000E+00  0.00000000000E+00  0.83331979560E+03  0.40229514099E+04  0.39356976720E+04 0.  0.
        1    1    3    3  502    0 -0.46004339897E+02  0.17493045099E+04  0.13367526406E+04  0.22020650058E+04  0.50400001928E-02 0. -1.
       -1    1    3    3    0  502  0.46004339897E+02 -0.17493045099E+04 -0.50343284499E+03  0.18208864042E+04  0.50400001928E-02 0.  1.
</event>
<event>
 5   0  0.1087688E-07  0.4014480E+04  0.7818609E-02  0.8001632E-01
       -2   -1    0    0    0  501  0.00000000000E+00  0.00000000000E+00  0.27763395844E+04  0.27763395844E+04  0.25500000920E-02 0. -1.
        2   -1    0    0  501    0  0.00000000000E+00  0.00000000000E+00 -0.14511956595E+04  0.14511956595E+04  0.25500000920E-02 0.  1.
    10030    2    1    2    0    0  0.00000000000E+00  0.00000000000E+00  0.13251439249E+04  0.42275352439E+04  0.40144797691E+04 0.  0.
        2    1    3    3  502    0  0.23553827320E+03  0.14856433912E+04 -0.73702235479E+03  0.16750571678E+04  0.25500000920E-02 0.  1.
       -2    1    3    3    0  502 -0.23553827320E+03 -0.14856433912E+04  0.20621662796E+04  0.25524780761E+04  0.25500000920E-02 0. -1.
</event>
<event>
 5   0  0.3399500E-08  0.3998707E+04  0.7818609E-02  0.8004807E-01
        1   -1    0    0  501    0  0.00000000000E+00  0.00000000000E+00  0.22791126679E+04  0.22791126679E+04  0.50400001928E-02 0.  1.
       -1   -1    0    0    0  501  0.00000000000E+00  0.00000000000E+00 -0.17539346707E+04  0.17539346707E+04  0.50400001928E-02 0. -1.
    10030    2    1    2    0    0  0.00000000000E+00  0.00000000000E+00  0.52517799721E+03  0.40330473386E+04  0.39987071544E+04 0.  0.
        2    1    3    3  502    0  0.33095432545E+03 -0.18708997096E+04 -0.36534763635E+03  0.19347546057E+04  0.25500000920E-02 0. -1.
       -2    1    3    3    0  502 -0.33095432545E+03  0.18708997096E+04  0.89052563356E+03  0.20982927329E+04  0.25500000920E-02 0.  1.
</event>
<event>
 5   0  0.3399500E-08  0.3976298E+04  0.7818609E-02  0.8009345E-01
       -1   -1    0    0    0  501  0.00000000000E+00  0.00000000000E+00  0.29867185563E+04  0.29867185563E+04  0.50400001928E-02 0.  1.
        1   -1    0    0  501    0  0.00000000000E+00  0.00000000000E+00 -0.13234377955E+04  0.13234377955E+04  0.50400001928E-02 0. -1.
    10030    2    1    2    0    0  0.00000000000E+00  0.00000000000E+00  0.16632807608E+04  0.43101563518E+04  0.39762978872E+04 0.  0.
        5    1    3    3  502    0  0.16401765066E+04  0.24336276143E+03 -0.35741703459E+03  0.16962232852E+04  0.46999998093E+01 0. -1.
       -5    1    3    3    0  502 -0.16401765066E+04 -0.24336276143E+03  0.20206977954E+04  0.26139330667E+04  0.46999998093E+01 0.  1.
</event>
<event>
 5   0  0.1073271E-07  0.3920271E+04  0.7818609E-02  0.8020826E-01
       -2   -1    0    0    0  501  0.00000000000E+00  0.00000000000E+00  0.15933508631E+04  0.15933508631E+04  0.25500000920E-02 0.  1.
        2   -1    0    0  501    0  0.00000000000E+00  0.00000000000E+00 -0.24113533282E+04  0.24113533282E+04  0.25500000920E-02 0. -1.
    10030    2    1    2    0    0  0.00000000000E+00  0.00000000000E+00 -0.81800246512E+03  0.40047041912E+04  0.39202713715E+04 0.  0.
        1    1    3    3  502    0 -0.13168096170E+04  0.27996402247E+03  0.10463812252E+04  0.17050750980E+04  0.50400001928E-02 0.  1.
       -1    1    3    3    0  502  0.13168096170E+04 -0.27996402247E+03 -0.18643836904E+04  0.22996290932E+04  0.50400001928E-02 0. -1.
</event>
<event>
 5   0  0.1073271E-07  0.3979014E+04  0.7818609E-02  0.8008794E-01
        2   -1    0    0  501    0  0.00000000000E+00  0.00000000000E+00  0.16648417593E+04  0.16648417593E+04  0.25500000920E-02 0. -1.
       -2   -1    0    0    0  501  0.00000000000E+00  0.00000000000E+00 -0.23774860351E+04  0.23774860351E+04  0.25500000920E-02 0.  1.
    10030    2    1    2    0    0  0.00000000000E+00  0.00000000000E+00 -0.71264427582E+03  0.40423277944E+04  0.39790139650E+04 0.  0.
        1    1    3    3  502    0 -0.51792557342E+03  0.12974762654E+04  0.10827078813E+04  0.17674693534E+04  0.50400001928E-02 0. -1.
       -1    1    3    3    0  502  0.51792557342E+03 -0.12974762654E+04 -0.17953521571E+04  0.22748584411E+04  0.50400001928E-02 0.  1.
</event>
<event>
 5   0  0.1087688E-07  0.4012702E+04  0.7818609E-02  0.8001989E-01
       -2   -1    0    0    0  501  0.00000000000E+00  0.00000000000E+00  0.16184706937E+04  0.16184706937E+04  0.25500000920E-02 0.  1.
        2   -1    0    0  501    0  0.00000000000E+00  0.00000000000E+00 -0.24871904013E+04  0.24871904013E+04  0.25500000920E-02 0. -1.
    10030    2    1    2    0    0  0.00000000000E+00  0.00000000000E+00 -0.86871970754E+03  0.41056610950E+04  0.40127022188E+04 0.  0.
        2    1    3    3  502    0  0.41247168347E+03 -0.57207535132E+03  0.14874615179E+04  0.16461910170E+04  0.25500000920E-02 0.  1.
       -2    1    3    3    0  502 -0.41247168347E+03  0.57207535132E+03 -0.23561812254E+04  0.24594700780E+04  0.25500000920E-02 0. -1.
</event>
<event>
 5   0  0.1101474E-07  0.3938340E+04  0.7818609E-02  0.8017102E-01
        2   -1    0    0  501    0  0.00000000000E+00  0.00000000000E+00  0.12470823068E+04  0.12470823068E+04  0.25500000920E-02 0.  1.
       -2   -1    0    0    0  501  0.00000000000E+00  0.00000000000E+00 -0.31093628002E+04  0.31093628002E+04  0.25500000920E-02 0. -1.
    10030    2    1    2    0    0  0.00000000000E+00  0.00000000000E+00 -0.18622804934E+04  0.43564451070E+04  0.39383404290E+04 0.  0.
        5    1    3    3  502    0 -0.17704368030E+04 -0.77817503517E+03 -0.13414749851E+04  0.23536312549E+04  0.46999998093E+01 0. -1.
       -5    1    3    3    0  502  0.17704368030E+04  0.77817503517E+03 -0.52080550834E+03  0.20028138521E+04  0.46999998093E+01 0.  1.
</event>
<event>
 5   0  0.3399500E-08  0.3997794E+04  0.7818609E-02  0.8004992E-01
       -1   -1    0    0    0  501  0.00000000000E+00  0.00000000000E+00  0.14024977275E+04  0.14024977275E+04  0.50400001928E-02 0.  1.
        1   -1    0    0  501    0  0.00000000000E+00  0.00000000000E+00 -0.28489094993E+04  0.28489094993E+04  0.50400001928E-02 0. -1.
    10030    2    1    2    0    0  0.00000000000E+00  0.00000000000E+00 -0.14464117718E+04  0.42514072268E+04  0.39977939410E+04 0.  0.
        4    1    3    3  502    0  0.14629383982E+04 -0.10821761998E+04 -0.16029036275E+04  0.24249939663E+04  0.12699999809E+01 0. -1.
       -4    1    3    3    0  502 -0.14629383982E+04  0.10821761998E+04  0.15649185576E+03  0.18264132605E+04  0.12699999809E+01 0.  1.
</event>
<event>
 5   0  0.1073271E-07  0.3950407E+04  0.7818609E-02  0.8014626E-01
        2   -1    0    0  501    0  0.00000000000E+00  0.00000000000E+00  0.21149710104E+04  0.21149710104E+04  0.25500000920E-02 0.  1.
       -2   -1    0    0    0  501  0.00000000000E+00  0.00000000000E+00 -0.18446728960E+04  0.18446728960E+04  0.25500000920E-02 0. -1.
    10030    2    1    2    0    0  0.00000000000E+00  0.00000000000E+00  0.27029811445E+03  0.39596439064E+04  0.39504074213E+04 0.  0.
        1    1    3    3  502    0 -0.11478002770E+04  0.63512249880E+03 -0.13449903062E+04  0.18787828475E+04  0.50400001928E-02 0. -1.
       -1    1    3    3    0  502  0.11478002770E+04 -0.63512249880E+03  0.16152884206E+04  0.20808610589E+04  0.50400001928E-02 0.  1.
</event>
<event>
 5   0  0.3399500E-08  0.3748320E+04  0.7818609E-02  0.8057337E-01
        1   -1    0    0  501    0  0.00000000000E+00  0.00000000000E+00  0.27618393983E+04  0.27618393983E+04  0.50400001928E-02 0.  1.
       -1   -1    0    0    0  501  0.00000000000E+00  0.00000000000E+00 -0.12717888268E+04  0.12717888268E+04  0.50400001928E-02 0. -1.
    10030    2    1    2    0    0  0.00000000000E+00  0.00000000000E+00  0.14900505714E+04  0.40336282251E+04  0.37483204176E+04 0.  0.
        1    1    3    3  502    0 -0.19660877557E+03 -0.16205869502E+04  0.17357066339E+04  0.23827787545E+04  0.50400001928E-02 0.  1.
       -1    1    3    3    0  502  0.19660877557E+03  0.16205869502E+04 -0.24565606249E+03  0.16508494707E+04  0.50400001928E-02 0. -1.
</event>
<event>
 5   0  0.3399500E-08  0.4006943E+04  0.7818609E-02  0.8003147E-01
        1   -1    0    0  501    0  0.00000000000E+00  0.00000000000E+00  0.29716898706E+04  0.29716898706E+04  0.50400001928E-02 0. -1.
       -1   -1    0    0    0  501  0.00000000000E+00  0.00000000000E+00 -0.13507121769E+04  0.13507121770E+04  0.50400001928E-02 0.  1.
    10030    2    1    2    0    0  0.00000000000E+00  0.00000000000E+00  0.16209776936E+04  0.43224020475E+04  0.40069428218E+04 0.  0.
        2    1    3    3  502    0  0.13019405538E+04  0.65119417856E+03 -0.67439706824E+03  0.16043423791E+04  0.25500000920E-02 0.  1.
       -2    1    3    3    0  502 -0.13019405538E+04 -0.65119417856E+03  0.22953747619E+04  0.27180596684E+04  0.25500000920E-02 0. -1.
</event>
<event>
 5   0  0.3399500E-08  0.3944118E+04  0.7818609E-02  0.8015915E-01
        1   -1    0    0  501    0  0.00000000000E+00  0.00000000000E+00  0.28403297249E+04  0.28403297249E+04  0.50400001928E-02 0. -1.
       -1   -1    0    0    0  501  0.00000000000E+00  0.00000000000E+00 -0.13692133939E+04  0.13692133939E+04  0.50400001928E-02 0.  1.
    10030    2    1    2    0    0  0.00000000000E+00  0.00000000000E+00  0.14711163310E+04  0.42095431188E+04  0.39441184072E+04 0.  0.
        3    1    3    3  502    0  0.15261013860E+04  0.66527425180E+03 -0.39267160793E+03  0.17104871447E+04  0.10100000352E+00 0.  1.
       -3    1    3    3    0  502 -0.15261013860E+04 -0.66527425180E+03  0.18637879389E+04  0.24990559741E+04  0.10100000352E+00 0. -1.
</event>
<event>
 5   0  0.3399500E-08  0.3983312E+04  0.7818609E-02  0.8007922E-01
       -1   -1    0    0    0  501  0.00000000000E+00  0.00000000000E+00  0.21881964703E+04  0.21881964703E+04  0.50400001928E-02 0.  1.
        1   -1    0    0  501    0  0.00000000000E+00  0.00000000000E+00 -0.18127680853E+04  0.18127680853E+04  0.50400001928E-02 0. -1.
    10030    2    1    2    0    0  0.00000000000E+00  0.00000000000E+00  0.37542838494E+03  0.40009645556E+04  0.39833115499E+04 0.  0.
        5    1    3    3  502    0 -0.13881249718E+04  0.10052719811E+04 -0.83128066670E+03  0.19048654362E+04  0.46999998093E+01 0. -1.
       -5    1    3    3    0  502  0.13881249718E+04 -0.10052719811E+04  0.12067090516E+04  0.20960991194E+04  0.46999998093E+01 0.  1.
</event>
<event>
 5   0  0.3399500E-08  0.3968666E+04  0.7818609E-02  0.8010898E-01
       -1   -1    0    0    0  501  0.00000000000E+00  0.00000000000E+00  0.14835078129E+04  0.14835078129E+04  0.50400001928E-02 0.  1.
        1   -1    0    0  501    0  0.00000000000E+00  0.00000000000E+00 -0.26542345850E+04  0.26542345850E+04  0.50400001928E-02 0. -1.
    10030    2    1    2    0    0  0.00000000000E+00  0.00000000000E+00 -0.11707267721E+04  0.41377423979E+04  0.39686661458E+04 0.  0.
        2    1    3    3  502    0  0.63658253819E+03 -0.15165447642E+04  0.57208180680E+03  0.17413853518E+04  0.25500000920E-02 0.  1.
       -2    1    3    3    0  502 -0.63658253819E+03  0.15165447642E+04 -0.17428085789E+04  0.23963570461E+04  0.25500000920E-02 0. -1.
</event>
<event>
 5   0  0.1073271E-07  0.3997775E+04  0.7818609E-02  0.8004996E-01
       -2   -1    0    0    0  501  0.00000000000E+00  0.00000000000E+00  0.16965404235E+04  0.16965404235E+04  0.25500000920E-02 0.  1.
        2   -1    0    0  501    0  0.00000000000E+00  0.00000000000E+00 -0.23551165409E+04  0.23551165409E+04  0.25500000920E-02 0. -1.
    10030    2    1    2    0    0  0.00000000000E+00  0.00000000000E+00 -0.65857611736E+03  0.40516569644E+04  0.39977745878E+04 0.  0.
        1    1    3    3  502    0 -0.17310780171E+04  0.47977986505E+03  0.55930199574E+03  0.18813927135E+04  0.50400001928E-02 0.  1.
       -1    1    3    3    0  502  0.17310780171E+04 -0.47977986505E+03 -0.12178781131E+04  0.21702642508E+04  0.50400001928E-02 0. -1.
</event>
<event>
 5   0  0.1095903E-07  0.3864516E+04  0.7818609E-02  0.8032450E-01
        2   -1    0    0  501    0  0.00000000000E+00  0.00000000000E+00  0.28348151684E+04  0.28348151684E+04  0.25500000920E-02 0.  1.
       -2   -1    0    0    0  501  0.00000000000E+00  0.00000000000E+00 -0.13170598841E+04  0.13170598841E+04  0.25500000920E-02 0. -1.
    10030    2    1    2    0    0  0.00000000000E+00  0.00000000000E+00  0.15177552843E+04  0.41518750525E+04  0.38645161856E+04 0.  0.
        3    1    3    3  502    0  0.12515960152E+04 -0.60773061259E+03  0.21993963274E+04  0.26025320935E+04  0.10100000352E+00 0.  1.
       -3    1    3    3    0  502 -0.12515960152E+04  0.60773061259E+03 -0.68164104315E+03  0.15493429590E+04  0.10100000352E+00 0. -1.
</event>
<event>
 5   0  0.3399500E-08  0.3915707E+04  0.7818609E-02  0.8021770E-01
        1   -1    0    0  501    0  0.00000000000E+00  0.00000000000E+00  0.28815327149E+04  0.28815327149E+04  0.50400001928E-02 0.  1.
       -1   -1    0    0    0  501  0.00000000000E+00  0.00000000000E+00 -0.13302606371E+04  0.13302606372E+04  0.50400001928E-02 0. -1.
    10030    2    1    2    0    0  0.00000000000E+00  0.00000000000E+00  0.15512720778E+04  0.42117933521E+04  0.39157066005E+04 0.  0.
        1    1    3    3  502    0  0.96939731667E+03  0.79020254120E+03 -0.84459828376E+03  0.15091379906E+04  0.50400001928E-02 0. -1.
       -1    1    3    3    0  502 -0.96939731667E+03 -0.79020254120E+03  0.23958703615E+04  0.27026553615E+04  0.50400001928E-02 0.  1.
</event>
<event>
 5   0  0.3399500E-08  0.3613724E+04  0.7818609E-02  0.8087355E-01
        1   -1    0    0  501    0  0.00000000000E+00  0.00000000000E+00  0.15861068031E+04  0.15861068031E+04  0.50400001928E-02 0. -1.
       -1   -1    0    0    0  501  0.00000000000E+00  0.00000000000E+00 -0.20583421659E+04  0.20583421659E+04  0.50400001928E-02 0.  1.
    10030    2    1    2    0    0  0.00000000000E+00  0.00000000000E+00 -0.47223536278E+03  0.36444489690E+04  0.36137241247E+04 0.  0.
        2    1    3    3  502    0 -0.65033071275E+03  0.79046707861E+03  0.12654952125E+04  0.16276505679E+04  0.25500000920E-02 0. -1.
       -2    1    3    3    0  502  0.65033071275E+03 -0.79046707861E+03 -0.17377305753E+04  0.20167984011E+04  0.25500000920E-02 0.  1.
</event>
<event>
 5   0  0.3399500E-08  0.4023482E+04  0.7818609E-02  0.7999826E-01
        1   -1    0    0  501    0  0.00000000000E+00  0.00000000000E+00  0.22650150622E+04  0.22650150622E+04  0.50400001928E-02 0. -1.
       -1   -1    0    0    0  501  0.00000000000E+00  0.00000000000E+00 -0.17867883282E+04  0.17867883282E+04  0.50400001928E-02 0.  1.
    10030    2    1    2    0    0  0.00000000000E+00  0.00000000000E+00  0.47822673405E+03  0.40518033904E+04  0.40234823108E+04 0.  0.
        1    1    3    3  502    0  0.17685767231E+04  0.59913007398E+03  0.99290203520E+03  0.21148699541E+04  0.50400001928E-02 0. -1.
       -1    1    3    3    0  502 -0.17685767231E+04 -0.59913007398E+03 -0.51467530115E+03  0.19369334363E+04  0.50400001928E-02 0.  1.
</event>
<event>
 5   0  0.3399500E-08  0.3923175E+04  0.7818609E-02  0.8020227E-01
        1   -1    0    0  501    0  0.00000000000E+00  0.00000000000E+00  0.19118305867E+04  0.19118305867E+04  0.50400001928E-02 0. -1.
       -1   -1    0    0    0  501  0.00000000000E+00  0.00000000000E+00 -0.20126390137E+04  0.20126390137E+04  0.50400001928E-02 0.  1.
    10030    2    1    2    0    0  0.00000000000E+00  0.00000000000E+00 -0.10080842695E+03  0.39244696004E+04  0.39231746463E+04 0.  0.
        4    1    3    3  502    0 -0.24185057931E+03 -0.14561101231E+03  0.18914034258E+04  0.19123553022E+04  0.12699999809E+01 0. -1.
       -4    1    3    3    0  502  0.24185057931E+03  0.14561101231E+03 -0.19922118528E+04  0.20121142982E+04  0.12699999809E+01 0.  1.
</event>
<event>
 5   0  0.3399500E-08  0.3956532E+04  0.7818609E-02  0.8013373E-01
       -1   -1    0    0    0  501  0.00000000000E+00  0.00000000000E+00  0.32061967810E+04  0.32061967810E+04  0.50400001928E-02 0. -1.
        1   -1    0    0  501    0  0.00000000000E+00  0.00000000000E+00 -0.12206166022E+04  0.12206166023E+04  0.50400001928E-02 0.  1.
    10030    2    1    2    0    0  0.00000000000E+00  0.00000000000E+00  0.19855801788E+04  0.44268133833E+04  0.39565323307E+04 0.  0.
        5    1    3    3  502    0  0.12028735762E+03 -0.19283796040E+04  0.51757268564E+03  0.20002551138E+04  0.46999998093E+01 0.  1.
       -5    1    3    3    0  502 -0.12028735762E+03  0.19283796040E+04  0.14680074932E+04  0.24265582695E+04  0.46999998093E+01 0. -1.
</event>
<event>
 5   0  0.1073271E-07  0.4010049E+04  0.7818609E-02  0.8002522E-01
        2   -1    0    0  501    0  0.00000000000E+00  0.00000000000E+00  0.25748551723E+04  0.25748551723E+04  0.25500000920E-02 0.  1.
       -2   -1    0    0    0  501  0.00000000000E+00  0.00000000000E+00 -0.15613009176E+04  0.15613009176E+04  0.25500000920E-02 0. -1.
    10030    2    1    2    0    0  0.00000000000E+00  0.00000000000E+00  0.10135542547E+04  0.41361560899E+04  0.40100492482E+04 0.  0.
        1    1    3    3  502    0 -0.50085116933E+03 -0.12440928953E+04  0.20441203349E+04  0.24447999856E+04  0.50400001928E-02 0.  1.
       -1    1    3    3    0  502  0.50085116933E+03  0.12440928953E+04 -0.10305660802E+04  0.16913561043E+04  0.50400001928E-02 0. -1.
</event>
<event>
 5   0  0.3399500E-08  0.4001994E+04  0.7818609E-02  0.8004144E-01
        1   -1    0    0  501    0  0.00000000000E+00  0.00000000000E+00  0.25585709496E+04  0.25585709496E+04  0.50400001928E-02 0.  1.
       -1   -1    0    0    0  501  0.00000000000E+00  0.00000000000E+00 -0.15649320540E+04  0.15649320540E+04  0.50400001928E-02 0. -1.
    10030    2    1    2    0    0  0.00000000000E+00  0.00000000000E+00  0.99363889556E+03  0.41235030037E+04  0.40019943486E+04 0.  0.
        5    1    3    3  502    0 -0.85999386069E+03 -0.77300327122E+03  0.21794495673E+04  0.24672142194E+04  0.46999998093E+01 0.  1.
       -5    1    3    3    0  502  0.85999386069E+03  0.77300327122E+03 -0.11858106717E+04  0.16562887843E+04  0.46999998093E+01 0. -1.
</event>
<event>
 5   0  0.1087688E-07  0.4008844E+04  0.7818609E-02  0.8002765E-01
        2   -1    0    0  501    0  0.00000000000E+00  0.00000000000E+00  0.31120566598E+04  0.31120566598E+04  0.25500000920E-02 0.  1.
       -2   -1    0    0    0  501  0.00000000000E+00  0.00000000000E+00 -0.12910135620E+04  0.12910135620E+04  0.25500000920E-02 0. -1.
    10030    2    1    2    0    0  0.00000000000E+00  0.00000000000E+00  0.18210430978E+04  0.44030702219E+04  0.40088439000E+04 0.  0.
        2    1    3    3  502    0 -0.33212838876E+03  0.58944317834E+03  0.29828505738E+04  0.30586189813E+04  0.25500000920E-02 0.  1.
       -2    1    3    3    0  502  0.33212838876E+03 -0.58944317834E+03 -0.11618074760E+04  0.13444512406E+04  0.25500000920E-02 0. -1.
</event>
<event>
 5   0  0.3399500E-08  0.3990410E+04  0.7818609E-02  0.8006484E-01
       -1   -1    0    0    0  501  0.00000000000E+00  0.00000000000E+00  0.17425257935E+04  0.17425257935E+04  0.50400001928E-02 0. -1.
        1   -1    0    0  501    0  0.00000000000E+00  0.00000000000E+00 -0.22845247369E+04  0.22845247369E+04  0.50400001928E-02 0.  1.
    10030    2    1    2    0    0  0.00000000000E+00  0.00000000000E+00 -0.54199894336E+03  0.40270505305E+04  0.39904101444E+04 0.  0.
        4    1    3    3  502    0 -0.16021683009E+04 -0.84388372179E+03  0.57440284913E+03  0.18997429421E+04  0.12699999809E+01 0. -1.
       -4    1    3    3    0  502  0.16021683009E+04  0.84388372179E+03 -0.11164017925E+04  0.21273075883E+04  0.12699999809E+01 0.  1.
</event>
<event>
 5   0  0.1095903E-07  0.3998454E+04  0.7818609E-02  0.8004859E-01
        2   -1    0    0  501    0  0.00000000000E+00  0.00000000000E+00  0.13377104243E+04  0.13377104243E+04  0.25500000920E-02 0.  1.
       -2   -1    0    0    0  501  0.00000000000E+00  0.00000000000E+00 -0.29878721961E+04  0.29878721961E+04  0.25500000920E-02 0. -1.
    10030    2    1    2    0    0  0.00000000000E+00  0.00000000000E+00 -0.16501617718E+04  0.43255826204E+04  0.39984535927E+04 0.  0.
        3    1    3    3  502    0  0.14559381093E+04 -0.78001737886E+03  0.39344926793E+03  0.16979355777E+04  0.10100000352E+00 0.  1.
       -3    1    3    3    0  502 -0.14559381093E+04  0.78001737886E+03 -0.20436110397E+04  0.26276470427E+04  0.10100000352E+00 0. -1.
</event>
<event>
 5   0  0.3399500E-08  0.3984022E+04  0.7818609E-02  0.8007778E-01
        1   -1    0    0  501    0  0.00000000000E+00  0.00000000000E+00  0.18613404919E+04  0.18613404919E+04  0.50400001928E-02 0.  1.
       -1   -1    0    0    0  501  0.00000000000E+00  0.00000000000E+00 -0.21318549872E+04  0.21318549872E+04  0.50400001928E-02 0. -1.
    10030    2    1    2    0    0  0.00000000000E+00  0.00000000000E+00 -0.27051449529E+03  0.39931954791E+04  0.39840220936E+04 0.  0.
        1    1    3    3  502    0 -0.64051074615E+03 -0.16748074682E+03 -0.20183605284E+04  0.21241664339E+04  0.50400001928E-02 0. -1.
       -1    1    3    3    0  502  0.64051074615E+03  0.16748074682E+03  0.17478460331E+04  0.18690290452E+04  0.50400001928E-02 0.  1.
</event>
<event>
 5   0  0.1095903E-07  0.3992863E+04  0.7818609E-02  0.8005988E-01
       -2   -1    0    0    0  501  0.00000000000E+00  0.00000000000E+00  0.19316776319E+04  0.19316776319E+04  0.25500000920E-02 0.  1.
        2   -1    0    0  501    0  0.00000000000E+00  0.00000000000E+00 -0.20633556486E+04  0.20633556486E+04  0.25500000920E-02 0. -1.
    10030    2    1    2    0    0  0.00000000000E+00  0.00000000000E+00 -0.13167801671E+03  0.39950332806E+04  0.39928626088E+04 0.  0.
        3    1    3    3  502    0 -0.99556775114E+03 -0.36132338772E+03 -0.17591030282E+04  0.20533273513E+04  0.10100000352E+00 0. -1.
       -3    1    3    3    0  502  0.99556775114E+03  0.36132338772E+03  0.16274250115E+04  0.19417059293E+04  0.10100000352E+00 0.  1.
</event>
<event>
 5   0  0.3399500E-08  0.4021476E+04  0.7818609E-02  0.8000228E-01
        1   -1    0    0  501    0  0.00000000000E+00  0.00000000000E+00  0.14813870373E+04  0.14813870373E+04  0.50400001928E-02 0. -1.
       -1   -1    0    0    0  501  0.00000000000E+00  0.00000000000E+00 -0.27292450261E+04  0.27292450261E+04  0.50400001928E-02 0.  1.
    10030    2    1    2    0    0  0.00000000000E+00  0.00000000000E+00 -0.12478579888E+04  0.42106320634E+04  0.40214764469E+04 0.  0.
        5    1    3    3  502    0  0.11074580223E+04 -0.16607341486E+04 -0.37058745284E+03  0.20302360291E+04  0.46999998093E+01 0.  1.
       -5    1    3    3    0  502 -0.11074580223E+04  0.16607341486E+04 -0.87727053596E+03  0.21803960344E+04  0.46999998093E+01 0. -1.
</event>
<event>
 5   0  0.3399500E-08  0.4018296E+04  0.7818609E-02  0.8000866E-01
        1   -1    0    0  501    0  0.00000000000E+00  0.00000000000E+00  0.28822100716E+04  0.28822100716E+04  0.50400001928E-02 0.  1.
       -1   -1    0    0    0  501  0.00000000000E+00  0.00000000000E+00 -0.14005489608E+04  0.14005489608E+04  0.50400001928E-02 0. -1.
    10030    2    1    2    0    0  0.00000000000E+00  0.00000000000E+00  0.14816611108E+04  0.42827590324E+04  0.40182963159E+04 0.  0.
        5    1    3    3  502    0 -0.63471596398E+03  0.75077588405E+03 -0.11266657066E+04  0.14953014705E+04  0.46999998093E+01 0. -1.
       -5    1    3    3    0  502  0.63471596398E+03 -0.75077588405E+03  0.26083268174E+04  0.27874575619E+04  0.46999998093E+01 0.  1.
</event>
<event>
 5   0  0.3399500E-08  0.3994617E+04  0.7818609E-02  0.8005633E-01
        1   -1    0    0  501    0  0.00000000000E+00  0.00000000000E+00  0.12223776460E+04  0.12223776460E+04  0.50400001928E-02 0.  1.
       -1   -1    0    0    0  501  0.00000000000E+00  0.00000000000E+00 -0.32635095401E+04  0.32635095401E+04  0.50400001928E-02 0. -1.
    10030    2    1    2    0    0  0.00000000000E+00  0.00000000000E+00 -0.20411318941E+04  0.44858871861E+04  0.39946169325E+04 0.  0.
        3    1    3    3  502    0 -0.11289699128E+03 -0.14131685883E+04 -0.26005236734E+04  0.29618431045E+04  0.10100000352E+00 0. -1.
       -3    1    3    3    0  502  0.11289699128E+03  0.14131685883E+04  0.55939177936E+03  0.15240440815E+04  0.10100000352E+00 0.  1.
</event>
<event>
 5   0  0.1101474E-07  0.3982183E+04  0.7818609E-02  0.8008151E-01
       -2   -1    0    0    0  501  0.00000000000E+00  0.00000000000E+00  0.26024333537E+04  0.26024333537E+04  0.25500000920E-02 0.  1.
        2   -1    0    0  501    0  0.00000000000E+00  0.00000000000E+00 -0.15233607914E+04  0.15233607914E+04  0.25500000920E-02 0. -1.
    10030    2    1    2    0    0  0.00000000000E+00  0.00000000000E+00  0.10790725622E+04  0.41257941451E+04  0.39821827850E+04 0.  0.
        5    1    3    3  502    0 -0.51301063382E+03 -0.92741926524E+03  0.22858907898E+04  0.25196438631E+04  0.46999998093E+01 0.  1.
       -5    1    3    3    0  502  0.51301063382E+03  0.92741926524E+03 -0.12068182276E+04  0.16061502820E+04  0.46999998093E+01 0. -1.
</event>
<event>
 5   0  0.1073271E-07  0.3991083E+04  0.7818609E-02  0.8006348E-01
       -2   -1    0    0    0  501  0.00000000000E+00  0.00000000000E+00  0.16238231378E+04  0.16238231378E+04  0.25500000920E-02 0.  1.
        2   -1    0    0  501    0  0.00000000000E+00  0.00000000000E+00 -0.24523520762E+04  0.24523520762E+04  0.25500000920E-02 0. -1.
    10030    2    1    2    0    0  0.00000000000E+00  0.00000000000E+00 -0.82852893833E+03  0.40761752140E+04  0.39910830828E+04 0.  0.
        1    1    3    3  502    0  0.19903300498E+04  0.39468570399E+02 -0.27269246121E+03  0.20093114874E+04  0.50400001928E-02 0.  1.
       -1    1    3    3    0  502 -0.19903300498E+04 -0.39468570399E+02 -0.55583647711E+03  0.20668637266E+04  0.50400001928E-02 0. -1.
</event>
<event>
 5   0  0.1073271E-07  0.3975934E+04  0.7818609E-02  0.8009419E-01
       -2   -1    0    0    0  501  0.00000000000E+00  0.00000000000E+00  0.14122462931E+04  0.14122462931E+04  0.25500000920E-02 0.  1.
        2   -1    0    0  501    0  0.00000000000E+00  0.00000000000E+00 -0.27983878136E+04  0.27983878136E+04  0.25500000920E-02 0. -1.
    10030    2    1    2    0    0  0.00000000000E+00  0.00000000000E+00 -0.13861415205E+04  0.42106341067E+04  0.39759340117E+04 0.  0.
        1    1    3    3  502    0  0.30774867358E+02  0.62881679520E+03  0.13038836663E+04  0.14479192897E+04  0.50400001928E-02 0.  1.
       -1    1    3    3    0  502 -0.30774867358E+02 -0.62881679520E+03 -0.26900251867E+04  0.27627148169E+04  0.50400001928E-02 0. -1.
</event>
<event>
 5   0  0.3399500E-08  0.3987829E+04  0.7818609E-02  0.8007006E-01
        1   -1    0    0  501    0  0.00000000000E+00  0.00000000000E+00  0.23992206596E+04  0.23992206596E+04  0.50400001928E-02 0.  1.
       -1   -1    0    0    0  501  0.00000000000E+00  0.00000000000E+00 -0.16570773710E+04  0.16570773710E+04  0.50400001928E-02 0. -1.
    10030    2    1    2    0    0  0.00000000000E+00  0.00000000000E+00  0.74214328862E+03  0.40562980306E+04  0.39878286137E+04 0.  0.
        2    1    3    3  502    0  0.10788942215E+04  0.62014792316E+03  0.19557350697E+04  0.23180802080E+04  0.25500000920E-02 0.  1.
       -2    1    3    3    0  502 -0.10788942215E+04 -0.62014792316E+03 -0.12135917811E+04  0.17382178226E+04  0.25500000920E-02 0. -1.
</event>
<event>
 5   0  0.3399500E-08  0.3981684E+04  0.7818609E-02  0.8008252E-01
        1   -1    0    0  501    0  0.00000000000E+00  0.00000000000E+00  0.21967212358E+04  0.21967212358E+04  0.50400001928E-02 0. -1.
       -1   -1    0    0    0  501  0.00000000000E+00  0.00000000000E+00 -0.18042581759E+04  0.18042581759E+04  0.50400001928E-02 0.  1.
    10030    2    1    2    0    0  0.00000000000E+00  0.00000000000E+00  0.39246305992E+03  0.40009794117E+04  0.39816841913E+04 0.  0.
        2    1    3    3  502    0 -0.13065815831E+04 -0.51676773739E+03  0.16134733606E+04  0.21395094328E+04  0.25500000920E-02 0. -1.
       -2    1    3    3    0  502  0.13065815831E+04  0.51676773739E+03 -0.12210103007E+04  0.18614699788E+04  0.25500000920E-02 0.  1.
</event>
<event>
 5   0  0.1087688E-07  0.3992599E+04  0.7818609E-02  0.8006041E-01
        2   -1    0    0  501    0  0.00000000000E+00  0.00000000000E+00  0.23681248645E+04  0.23681248646E+04  0.25500000920E-02 0.  1.
       -2   -1    0    0    0  501  0.00000000000E+00  0.00000000000E+00 -0.16828552391E+04  0.16828552391E+04  0.25500000920E-02 0. -1.
    10030    2    1    2    0    0  0.00000000000E+00  0.00000000000E+00  0.68526962546E+03  0.40509801036E+04  0.39925988204E+04 0.  0.
        2    1    3    3  502    0 -0.74441068512E+03 -0.17550984898E+04 -0.25821814919E+03  0.19238488999E+04  0.25500000920E-02 0.  1.
       -2    1    3    3    0  502  0.74441068512E+03  0.17550984898E+04  0.94348777465E+03  0.21271312037E+04  0.25500000920E-02 0. -1.
</event>
<event>
 5   0  0.3399500E-08  0.4125538E+04  0.7818609E-02  0.7979689E-01
       -1   -1    0    0    0  501  0.00000000000E+00  0.00000000000E+00  0.17472112702E+04  0.17472112702E+04  0.50400001928E-02 0. -1.
        1   -1    0    0  501    0  0.00000000000E+00  0.00000000000E+00 -0.24353190363E+04  0.24353190363E+04  0.50400001928E-02 0.  1.
    10030    2    1    2    0    0  0.00000000000E+00  0.00000000000E+00 -0.68810776614E+03  0.41825303065E+04  0.41255384458E+04 0.  0.
        5    1    3    3  502    0  0.63758808786E+03  0.99148864568E+03 -0.20601953779E+04  0.23736038822E+04  0.46999998093E+01 0.  1.
       -5    1    3    3    0  502 -0.63758808786E+03 -0.99148864568E+03  0.13720876118E+04  0.18089264244E+04  0.46999998093E+01 0. -1.
</event>
<event>
 5   0  0.3399500E-08  0.3865401E+04  0.7818609E-02  0.8032264E-01
        1   -1    0    0  501    0  0.00000000000E+00  0.00000000000E+00  0.16813876827E+04  0.16813876827E+04  0.50400001928E-02 0.  1.
       -1   -1    0    0    0  501  0.00000000000E+00  0.00000000000E+00 -0.22215765969E+04  0.22215765969E+04  0.50400001928E-02 0. -1.
    10030    2    1    2    0    0  0.00000000000E+00  0.00000000000E+00 -0.54018891423E+03  0.39029642796E+04  0.38654011570E+04 0.  0.
        4    1    3    3  502    0 -0.11230212759E+04 -0.12242646402E+04  0.72709027758E+03  0.18134670055E+04  0.12699999809E+01 0. -1.
       -4    1    3    3    0  502  0.11230212759E+04  0.12242646402E+04 -0.12672791918E+04  0.20894972741E+04  0.12699999809E+01 0.  1.
</event>
<event>
 5   0  0.3399500E-08  0.3975372E+04  0.7818609E-02  0.8009533E-01
       -1   -1    0    0    0  501  0.00000000000E+00  0.00000000000E+00  0.18692541371E+04  0.18692541371E+04  0.50400001928E-02 0. -1.
        1   -1    0    0  501    0  0.00000000000E+00  0.00000000000E+00 -0.21136217281E+04  0.21136217281E+04  0.50400001928E-02 0.  1.
    10030    2    1    2    0    0  0.00000000000E+00  0.00000000000E+00 -0.24436759105E+03  0.39828758652E+04  0.39753722641E+04 0.  0.
        3    1    3    3  502    0  0.30417048774E+03  0.19129521174E+04  0.32474188895E+03  0.19640170045E+04  0.10100000352E+00 0. -1.
       -3    1    3    3    0  502 -0.30417048774E+03 -0.19129521174E+04 -0.56910948000E+03  0.20188588607E+04  0.10100000352E+00 0.  1.
</event>
<event>
 5   0  0.3399500E-08  0.4009329E+04  0.7818609E-02  0.8002667E-01
        1   -1    0    0  501    0  0.00000000000E+00  0.00000000000E+00  0.17444993496E+04  0.17444993496E+04  0.50400001928E-02 0. -1.
       -1   -1    0    0    0  501  0.00000000000E+00  0.00000000000E+00 -0.23036293738E+04  0.23036293738E+04  0.50400001928E-02 0.  1.
    10030    2    1    2    0    0  0.00000000000E+00  0.00000000000E+00 -0.55913002415E+03  0.40481287234E+04  0.40093290931E+04 0.  0.
        5    1    3    3  502    0  0.13326467740E+04  0.10295492041E+04 -0.13776274680E+04  0.21757294221E+04  0.46999998093E+01 0.  1.
       -5    1    3    3    0  502 -0.13326467740E+04 -0.10295492041E+04  0.81849744381E+03  0.18723993013E+04  0.46999998093E+01 0. -1.
</event>
<event>
 5   0  0.1087688E-07  0.3924269E+04  0.7818609E-02  0.8020000E-01
       -2   -1    0    0    0  501  0.00000000000E+00  0.00000000000E+00  0.17927123288E+04  0.17927123288E+04  0.25500000920E-02 0.  1.
        2   -1    0    0  501    0  0.00000000000E+00  0.00000000000E+00 -0.21475684555E+04  0.21475684555E+04  0.25500000920E-02 0. -1.
    10030    2    1    2    0    0  0.00000000000E+00  0.00000000000E+00 -0.35485612669E+03  0.39402807843E+04  0.39242693318E+04 0.  0.
        2    1    3    3  502    0  0.18983738809E+04 -0.29256723491E+03 -0.57975416651E+03  0.20063733132E+04  0.25500000920E-02 0. -1.
       -2    1    3    3    0  502 -0.18983738809E+04  0.29256723491E+03  0.22489803982E+03  0.19339074711E+04  0.25500000920E-02 0.  1.
</event>
<event>
 5   0  0.1087688E-07  0.4010108E+04  0.7818609E-02  0.8002511E-01
        2   -1    0    0  501    0  0.00000000000E+00  0.00000000000E+00  0.18559737329E+04  0.18559737329E+04  0.25500000920E-02 0. -1.
       -2   -1    0    0    0  501  0.00000000000E+00  0.00000000000E+00 -0.21661091399E+04  0.21661091399E+04  0.25500000920E-02 0.  1.
    10030    2    1    2    0    0  0.00000000000E+00  0.00000000000E+00 -0.31013540706E+03  0.40220828728E+04  0.40101080615E+04 0.  0.
        2    1    3    3  502    0 -0.18285829557E+04  0.86159878138E+02  0.66536180120E+03  0.19477796274E+04  0.25500000920E-02 0. -1.
       -2    1    3    3    0  502  0.18285829557E+04 -0.86159878138E+02 -0.97549720826E+03  0.20743032454E+04  0.25500000920E-02 0.  1.
</event>
<event>
 5   0  0.3399500E-08  0.4009011E+04  0.7818609E-02  0.8002731E-01
        1   -1    0    0  501    0  0.00000000000E+00  0.00000000000E+00  0.23435481570E+04  0.23435481570E+04  0.50400001928E-02 0. -1.
       -1   -1    0    0    0  501  0.00000000000E+00  0.00000000000E+00 -0.17145123403E+04  0.17145123403E+04  0.50400001928E-02 0.  1.
    10030    2    1    2    0    0  0.00000000000E+00  0.00000000000E+00  0.62903581667E+03  0.40580604973E+04  0.40090109680E+04 0.  0.
        4    1    3    3  502    0  0.31999398520E+03  0.65464633890E+03 -0.15757022606E+04  0.17360291491E+04  0.12699999809E+01 0.  1.
       -4    1    3    3    0  502 -0.31999398520E+03 -0.65464633890E+03  0.22047380773E+04  0.23220313482E+04  0.12699999809E+01 0. -1.
</event>
<event>
 5   0  0.3399500E-08  0.4000056E+04  0.7818609E-02  0.8004535E-01
       -1   -1    0    0    0  501  0.00000000000E+00  0.00000000000E+00  0.20640893787E+04  0.20640893787E+04  0.50400001928E-02 0. -1.
        1   -1    0    0  501    0  0.00000000000E+00  0.00000000000E+00 -0.19379552539E+04  0.19379552539E+04  0.50400001928E-02 0.  1.
    10030    2    1    2    0    0  0.00000000000E+00  0.00000000000E+00  0.12613412483E+03  0.40020446326E+04  0.40000564275E+04 0.  0.
        3    1    3    3  502    0 -0.19291720345E+03 -0.14853493642E+04  0.13891061822E+04  0.20428156492E+04  0.10100000352E+00 0. -1.
       -3    1    3    3    0  502  0.19291720345E+03  0.14853493642E+04 -0.12629720574E+04  0.19592289833E+04  0.10100000352E+00 0.  1.
</event>
<event>
 5   0  0.3399500E-08  0.4012051E+04  0.7818609E-02  0.8002120E-01
        1   -1    0    0  501    0  0.00000000000E+00  0.00000000000E+00  0.16021003988E+04  0.16021003988E+04  0.50400001928E-02 0.  1.
       -1   -1    0    0    0  501  0.00000000000E+00  0.00000000000E+00 -0.25117893474E+04  0.25117893474E+04  0.50400001928E-02 0. -1.
    10030    2    1    2    0    0  0.00000000000E+00  0.00000000000E+00 -0.90968894862E+03  0.41138897463E+04  0.40120512037E+04 0.  0.
        1    1    3    3  502    0 -0.75579732235E+03  0.37249473936E+03 -0.23215366481E+04  0.24697194844E+04  0.50400001928E-02 0. -1.
       -1    1    3    3    0  502  0.75579732235E+03 -0.37249473936E+03  0.14118476995E+04  0.16441702618E+04  0.50400001928E-02 0.  1.
</event>
<event>
 5   0  0.3399500E-08  0.3950136E+04  0.7818609E-02  0.8014682E-01
       -1   -1    0    0    0  501  0.00000000000E+00  0.00000000000E+00  0.26157273880E+04  0.26157273880E+04  0.50400001928E-02 0. -1.
        1   -1    0    0  501    0  0.00000000000E+00  0.00000000000E+00 -0.14913226545E+04  0.14913226545E+04  0.50400001928E-02 0.  1.
    10030    2    1    2    0    0  0.00000000000E+00  0.00000000000E+00  0.11244047335E+04  0.41070500425E+04  0.39501359530E+04 0.  0.
        5    1    3    3  502    0 -0.16523535760E+04  0.20956514590E+03 -0.54141503337E+03  0.17513829446E+04  0.46999998093E+01 0.  1.
       -5    1    3    3    0  502  0.16523535760E+04 -0.20956514590E+03  0.16658197669E+04  0.23556670979E+04  0.46999998093E+01 0. -1.
</event>
<event>
 5   0  0.1095109E-07  0.4064185E+04  0.7818609E-02  0.7991722E-01
       -2   -1    0    0    0  501  0.00000000000E+00  0.00000000000E+00  0.23166102870E+04  0.23166102870E+04  0.25500000920E-02 0.  1.
        2   -1    0    0  501    0  0.00000000000E+00  0.00000000000E+00 -0.17825178197E+04  0.17825178197E+04  0.25500000920E-02 0. -1.
    10030    2    1    2    0    0  0.00000000000E+00  0.00000000000E+00  0.53409246735E+03  0.40991281067E+04  0.40641846011E+04 0.  0.
        4    1    3    3  502    0 -0.17577656536E+04  0.85152186856E+03  0.83273203777E+03  0.21232696120E+04  0.12699999809E+01 0.  1.
       -4    1    3    3    0  502  0.17577656536E+04 -0.85152186856E+03 -0.29863957042E+03  0.19758584948E+04  0.12699999809E+01 0. -1.
</event>
<event>
 5   0  0.1095903E-07  0.4041754E+04  0.7818609E-02  0.7996176E-01
        2   -1    0    0  501    0  0.00000000000E+00  0.00000000000E+00  0.23791107607E+04  0.23791107607E+04  0.25500000920E-02 0.  1.
       -2   -1    0    0    0  501  0.00000000000E+00  0.00000000000E+00 -0.17165844277E+04  0.17165844277E+04  0.25500000920E-02 0. -1.
    10030    2    1    2    0    0  0.00000000000E+00  0.00000000000E+00  0.66252633296E+03  0.40956951884E+04  0.40417543140E+04 0.  0.
        3    1    3    3  502    0  0.83344032132E+02  0.18284845481E+04 -0.53669732961E+03  0.19074448889E+04  0.10100000352E+00 0. -1.
       -3    1    3    3    0  502 -0.83344032132E+02 -0.18284845481E+04  0.11992236626E+04  0.21882502995E+04  0.10100000352E+00 0.  1.
</event>
<event>
 5   0  0.1073271E-07  0.3929628E+04  0.7818609E-02  0.8018895E-01
       -2   -1    0    0    0  501  0.00000000000E+00  0.00000000000E+00  0.17665096010E+04  0.17665096010E+04  0.25500000920E-02 0. -1.
        2   -1    0    0  501    0  0.00000000000E+00  0.00000000000E+00 -0.21853798372E+04  0.21853798372E+04  0.25500000920E-02 0.  1.
    10030    2    1    2    0    0  0.00000000000E+00  0.00000000000E+00 -0.41887023622E+03  0.39518894383E+04  0.39296282086E+04 0.  0.
        1    1    3    3  502    0  0.76348126916E+03 -0.18041824459E+04 -0.36034022553E+03  0.19919395133E+04  0.50400001928E-02 0. -1.
       -1    1    3    3    0  502 -0.76348126916E+03  0.18041824459E+04 -0.58530010685E+02  0.19599499250E+04  0.50400001928E-02 0.  1.
</event>
<event>
 5   0  0.1095903E-07  0.3972971E+04  0.7818609E-02  0.8010021E-01
        2   -1    0    0  501    0  0.00000000000E+00  0.00000000000E+00  0.20956801812E+04  0.20956801812E+04  0.25500000920E-02 0. -1.
       -2   -1    0    0    0  501  0.00000000000E+00  0.00000000000E+00 -0.18829804431E+04  0.18829804431E+04  0.25500000920E-02 0.  1.
    10030    2    1    2    0    0  0.00000000000E+00  0.00000000000E+00  0.21269973808E+03  0.39786606243E+04  0.39729710777E+04 0.  0.
        3    1    3    3  502    0 -0.11341745650E+04 -0.16220136077E+04 -0.63730619483E+02  0.19802377861E+04  0.10100000352E+00 0.  1.
       -3    1    3    3    0  502  0.11341745650E+04  0.16220136077E+04  0.27643035756E+03  0.19984228382E+04  0.10100000352E+00 0. -1.
</event>
<event>
 5   0  0.1101474E-07  0.4005924E+04  0.7818609E-02  0.8003352E-01
        2   -1    0    0  501    0  0.00000000000E+00  0.00000000000E+00  0.11701204242E+04  0.11701204242E+04  0.25500000920E-02 0. -1.
       -2   -1    0    0    0  501  0.00000000000E+00  0.00000000000E+00 -0.34285852533E+04  0.34285852533E+04  0.25500000920E-02 0.  1.
    10030    2    1    2    0    0  0.00000000000E+00  0.00000000000E+00 -0.22584648291E+04  0.45987056774E+04  0.40059244281E+04 0.  0.
        5    1    3    3  502    0 -0.10978914311E+04  0.16462583792E+04 -0.14854812368E+04  0.24743097705E+04  0.46999998093E+01 0.  1.
       -5    1    3    3    0  502  0.10978914311E+04 -0.16462583792E+04 -0.77298359229E+03  0.21243959069E+04  0.46999998093E+01 0. -1.
</event>
<event>
 5   0  0.3399500E-08  0.3833467E+04  0.7818609E-02  0.8039011E-01
       -1   -1    0    0    0  501  0.00000000000E+00  0.00000000000E+00  0.15148648342E+04  0.15148648343E+04  0.50400001928E-02 0.  1.
        1   -1    0    0  501    0  0.00000000000E+00  0.00000000000E+00 -0.24252118399E+04  0.24252118399E+04  0.50400001928E-02 0. -1.
    10030    2    1    2    0    0  0.00000000000E+00  0.00000000000E+00 -0.91034700569E+03  0.39400766742E+04  0.38334674288E+04 0.  0.
        2    1    3    3  502    0  0.18714563759E+03  0.73619867925E+03  0.13535551223E+04  0.15521351275E+04  0.25500000920E-02 0.  1.
       -2    1    3    3    0  502 -0.18714563759E+03 -0.73619867925E+03 -0.22639021280E+04  0.23879415466E+04  0.25500000920E-02 0. -1.
</event>
<event>
 5   0  0.3399500E-08  0.3980651E+04  0.7818609E-02  0.8008461E-01
        1   -1    0    0  501    0  0.00000000000E+00  0.00000000000E+00  0.13132289793E+04  0.13132289793E+04  0.50400001928E-02 0. -1.
       -1   -1    0    0    0  501  0.00000000000E+00  0.00000000000E+00 -0.30165305912E+04  0.30165305912E+04  0.50400001928E-02 0.  1.
    10030    2    1    2    0    0  0.00000000000E+00  0.00000000000E+00 -0.17033016119E+04  0.43297595704E+04  0.39806508961E+04 0.  0.
        3    1    3    3  502    0  0.90198224547E+03  0.14941690396E+04  0.18895733381E+03  0.17555107445E+04  0.10100000352E+00 0. -1.
       -3    1    3    3    0  502 -0.90198224547E+03 -0.14941690396E+04 -0.18922589457E+04  0.25742488259E+04  0.10100000352E+00 0.  1.
</event>
<event>
 5   0  0.1073271E-07  0.4001915E+04  0.7818609E-02  0.8004160E-01
       -2   -1    0    0    0  501  0.00000000000E+00  0.00000000000E+00  0.15227776135E+04  0.15227776135E+04  0.25500000920E-02 0.  1.
        2   -1    0    0  501    0  0.00000000000E+00  0.00000000000E+00 -0.26292948840E+04  0.26292948840E+04  0.25500000920E-02 0. -1.
    10030    2    1    2    0    0  0.00000000000E+00  0.00000000000E+00 -0.11065172705E+04  0.41520724976E+04  0.40019152359E+04 0.  0.
        1    1    3    3  502    0 -0.14102859361E+04  0.48617150318E+03 -0.19369256112E+04  0.24447801487E+04  0.50400001928E-02 0. -1.
       -1    1    3    3    0  502  0.14102859361E+04 -0.48617150318E+03  0.83040834071E+03  0.17072923489E+04  0.50400001928E-02 0.  1.
</event>
<event>
 5   0  0.3399500E-08  0.4072319E+04  0.7818609E-02  0.7990114E-01
        1   -1    0    0  501    0  0.00000000000E+00  0.00000000000E+00  0.14498980260E+04  0.14498980260E+04  0.50400001928E-02 0.  1.
       -1   -1    0    0    0  501  0.00000000000E+00  0.00000000000E+00 -0.28594738846E+04  0.28594738846E+04  0.50400001928E-02 0. -1.
    10030    2    1    2    0    0  0.00000000000E+00  0.00000000000E+00 -0.14095758586E+04  0.43093719106E+04  0.40723190154E+04 0.  0.
        5    1    3    3  502    0  0.11187399606E+04  0.97041653002E+03  0.77392150070E+03  0.16710068583E+04  0.46999998093E+01 0.  1.
       -5    1    3    3    0  502 -0.11187399606E+04 -0.97041653002E+03 -0.21834973593E+04  0.26383650523E+04  0.46999998093E+01 0. -1.
</event>
<event>
 5   0  0.3399500E-08  0.4018056E+04  0.7818609E-02  0.8000914E-01
       -1   -1    0    0    0  501  0.00000000000E+00  0.00000000000E+00  0.20347486541E+04  0.20347486541E+04  0.50400001928E-02 0.  1.
        1   -1    0    0  501    0  0.00000000000E+00  0.00000000000E+00 -0.19836320052E+04  0.19836320053E+04  0.50400001928E-02 0. -1.
    10030    2    1    2    0    0  0.00000000000E+00  0.00000000000E+00  0.51116648860E+02  0.40183806594E+04  0.40180555262E+04 0.  0.
        2    1    3    3  502    0  0.11674091934E+04  0.84571007913E+03  0.14250009627E+04  0.20269922315E+04  0.25500000920E-02 0.  1.
       -2    1    3    3    0  502 -0.11674091934E+04 -0.84571007913E+03 -0.13738843138E+04  0.19913884279E+04  0.25500000920E-02 0. -1.
</event>
<event>
 5   0  0.3399500E-08  0.4018150E+04  0.7818609E-02  0.8000895E-01
        1   -1    0    0  501    0  0.00000000000E+00  0.00000000000E+00  0.25912352611E+04  0.25912352611E+04  0.50400001928E-02 0. -1.
       -1   -1    0    0    0  501  0.00000000000E+00  0.00000000000E+00 -0.15577060853E+04  0.15577060853E+04  0.50400001928E-02 0.  1.
    10030    2    1    2    0    0  0.00000000000E+00  0.00000000000E+00  0.10335291758E+04  0.41489413464E+04  0.40181502882E+04 0.  0.
        4    1    3    3  502    0 -0.67476761847E+02  0.20078043519E+04  0.54097767915E+03  0.20805023170E+04  0.12699999809E+01 0.  1.
       -4    1    3    3    0  502  0.67476761847E+02 -0.20078043519E+04  0.49255149668E+03  0.20684390294E+04  0.12699999809E+01 0. -1.
</event>
<event>
 5   0  0.1095109E-07  0.3969868E+04  0.7818609E-02  0.8010653E-01
       -2   -1    0    0    0  501  0.00000000000E+00  0.00000000000E+00  0.16444736411E+04  0.16444736411E+04  0.25500000920E-02 0. -1.
        2   -1    0    0  501    0  0.00000000000E+00  0.00000000000E+00 -0.23958812323E+04  0.23958812323E+04  0.25500000920E-02 0.  1.
    10030    2    1    2    0    0  0.00000000000E+00  0.00000000000E+00 -0.75140759117E+03  0.40403548734E+04  0.39698682768E+04 0.  0.
        4    1    3    3  502    0  0.18417705314E+03  0.19660678063E+04 -0.58082157128E+03  0.20583243467E+04  0.12699999809E+01 0.  1.
       -4    1    3    3    0  502 -0.18417705314E+03 -0.19660678063E+04 -0.17058601988E+03  0.19820305267E+04  0.12699999809E+01 0. -1.
</event>
<event>
 5   0  0.3399500E-08  0.4004751E+04  0.7818609E-02  0.8003589E-01
       -1   -1    0    0    0  501  0.00000000000E+00  0.00000000000E+00  0.14641451520E+04  0.14641451520E+04  0.50400001928E-02 0.  1.
        1   -1    0    0  501    0  0.00000000000E+00  0.00000000000E+00 -0.27384632614E+04  0.27384632614E+04  0.50400001928E-02 0. -1.
    10030    2    1    2    0    0  0.00000000000E+00  0.00000000000E+00 -0.12743181095E+04  0.42026084134E+04  0.40047510325E+04 0.  0.
        5    1    3    3  502    0  0.71007102829E+03  0.14299280481E+04 -0.19054171522E+04  0.24858663886E+04  0.46999998093E+01 0. -1.
       -5    1    3    3    0  502 -0.71007102829E+03 -0.14299280481E+04  0.63109904274E+03  0.17167420248E+04  0.46999998093E+01 0.  1.
</event>
<event>
 5   0  0.3399500E-08  0.4027227E+04  0.7818609E-02  0.7999076E-01
        3   -1    0    0  501    0  0.00000000000E+00  0.00000000000E+00  0.20200527606E+04  0.20200527632E+04  0.10100000352E+00 0.  1.
       -3   -1    0    0    0  501  0.00000000000E+00  0.00000000000E+00 -0.20071952390E+04  0.20071952415E+04  0.10100000352E+00 0. -1.
    10030    2    1    2    0    0  0.00000000000E+00  0.00000000000E+00  0.12857521663E+02  0.40272480047E+04  0.40272274800E+04 0.  0.
        2    1    3    3  502    0 -0.18271976006E+03  0.63590560941E+03  0.19082475498E+04  0.20196958103E+04  0.25500000920E-02 0.  1.
       -2    1    3    3    0  502  0.18271976006E+03 -0.63590560941E+03 -0.18953900281E+04  0.20075521944E+04  0.25500000920E-02 0. -1.
</event>
<event>
 5   0  0.1101474E-07  0.3974809E+04  0.7818609E-02  0.8009648E-01
        2   -1    0    0  501    0  0.00000000000E+00  0.00000000000E+00  0.27755129156E+04  0.27755129156E+04  0.25500000920E-02 0.  1.
       -2   -1    0    0    0  501  0.00000000000E+00  0.00000000000E+00 -0.14230801140E+04  0.14230801140E+04  0.25500000920E-02 0. -1.
    10030    2    1    2    0    0  0.00000000000E+00  0.00000000000E+00  0.13524328016E+04  0.41985930296E+04  0.39748092967E+04 0.  0.
        5    1    3    3  502    0 -0.19565722880E+04 -0.26479158724E+03  0.91584869388E+03  0.21764858426E+04  0.46999998093E+01 0. -1.
       -5    1    3    3    0  502  0.19565722880E+04  0.26479158724E+03  0.43658410772E+03  0.20221071870E+04  0.46999998093E+01 0.  1.
</event>
<event>
 5   0  0.1073271E-07  0.4021752E+04  0.7818609E-02  0.8000173E-01
       -2   -1    0    0    0  501  0.00000000000E+00  0.00000000000E+00  0.23131077585E+04  0.23131077585E+04  0.25500000920E-02 0.  1.
        2   -1    0    0  501    0  0.00000000000E+00  0.00000000000E+00 -0.17481341081E+04  0.17481341081E+04  0.25500000920E-02 0. -1.
    10030    2    1    2    0    0  0.00000000000E+00  0.00000000000E+00  0.56497365042E+03  0.40612418666E+04  0.40217521397E+04 0.  0.
        1    1    3    3  502    0  0.17485461191E+04 -0.67915924845E+03  0.10141366083E+04  0.21324033098E+04  0.50400001928E-02 0.  1.
       -1    1    3    3    0  502 -0.17485461191E+04  0.67915924845E+03 -0.44916295786E+03  0.19288385568E+04  0.50400001928E-02 0. -1.
</event>
<event>
 5   0  0.3399500E-08  0.3949754E+04  0.7818609E-02  0.8014760E-01
        1   -1    0    0  501    0  0.00000000000E+00  0.00000000000E+00  0.23052424985E+04  0.23052424985E+04  0.50400001928E-02 0.  1.
       -1   -1    0    0    0  501  0.00000000000E+00  0.00000000000E+00 -0.16918565734E+04  0.16918565734E+04  0.50400001928E-02 0. -1.
    10030    2    1    2    0    0  0.00000000000E+00  0.00000000000E+00  0.61338592507E+03  0.39970990719E+04  0.39497542578E+04 0.  0.
        2    1    3    3  502    0  0.18362527411E+04  0.80468376301E+02  0.10377372370E+04  0.21107339628E+04  0.25500000920E-02 0.  1.
       -2    1    3    3    0  502 -0.18362527411E+04 -0.80468376301E+02 -0.42435131197E+03  0.18863651090E+04  0.25500000920E-02 0. -1.
</event>
<event>
 5   0  0.3399500E-08  0.4002616E+04  0.7818609E-02  0.8004019E-01
       -4   -1    0    0    0  501  0.00000000000E+00  0.00000000000E+00  0.19478507718E+04  0.19478511858E+04  0.12699999809E+01 0.  1.
        4   -1    0    0  501    0  0.00000000000E+00  0.00000000000E+00 -0.20562318217E+04  0.20562322139E+04  0.12699999809E+01 0. -1.
    10030    2    1    2    0    0  0.00000000000E+00  0.00000000000E+00 -0.10838104995E+03  0.40040833997E+04  0.40026163219E+04 0.  0.
        1    1    3    3  502    0  0.35010929812E+03 -0.55213375533E+03  0.18380117306E+04  0.19508242684E+04  0.50400001928E-02 0.  1.
       -1    1    3    3    0  502 -0.35010929812E+03  0.55213375533E+03 -0.19463927805E+04  0.20532591313E+04  0.50400001928E-02 0. -1.
</event>
<event>
 5   0  0.1073271E-07  0.3994824E+04  0.7818609E-02  0.8005592E-01
       -2   -1    0    0    0  501  0.00000000000E+00  0.00000000000E+00  0.15507547752E+04  0.15507547752E+04  0.25500000920E-02 0.  1.
        2   -1    0    0  501    0  0.00000000000E+00  0.00000000000E+00 -0.25727175246E+04  0.25727175246E+04  0.25500000920E-02 0. -1.
    10030    2    1    2    0    0  0.00000000000E+00  0.00000000000E+00 -0.10219627493E+04  0.41234722998E+04  0.39948236439E+04 0.  0.
        1    1    3    3  502    0  0.17680490335E+04 -0.63999588679E+03  0.18456002480E+03  0.18893529376E+04  0.50400001928E-02 0.  1.
       -1    1    3    3    0  502 -0.17680490335E+04  0.63999588679E+03 -0.12065227741E+04  0.22341193622E+04  0.50400001928E-02 0. -1.
</event>
<event>
 5   0  0.1073271E-07  0.3965822E+04  0.7818609E-02  0.8011477E-01
       -2   -1    0    0    0  501  0.00000000000E+00  0.00000000000E+00  0.16246161456E+04  0.16246161456E+04  0.25500000920E-02 0. -1.
        2   -1    0    0  501    0  0.00000000000E+00  0.00000000000E+00 -0.24202250813E+04  0.24202250813E+04  0.25500000920E-02 0.  1.
    10030    2    1    2    0    0  0.00000000000E+00  0.00000000000E+00 -0.79560893574E+03  0.40448412269E+04  0.39658223576E+04 0.  0.
        1    1    3    3  502    0 -0.49303163535E+03  0.54704195743E+03 -0.22755751452E+04  0.23917728442E+04  0.50400001928E-02 0.  1.
       -1    1    3    3    0  502  0.49303163535E+03 -0.54704195743E+03  0.14799662095E+04  0.16530683827E+04  0.50400001928E-02 0. -1.
</event>
<event>
 5   0  0.1095903E-07  0.3995459E+04  0.7818609E-02  0.8005463E-01
       -2   -1    0    0    0  501  0.00000000000E+00  0.00000000000E+00  0.19496904137E+04  0.19496904137E+04  0.25500000920E-02 0. -1.
        2   -1    0    0  501    0  0.00000000000E+00  0.00000000000E+00 -0.20469525673E+04  0.20469525673E+04  0.25500000920E-02 0.  1.
    10030    2    1    2    0    0  0.00000000000E+00  0.00000000000E+00 -0.97262153683E+02  0.39966429810E+04  0.39954593217E+04 0.  0.
        3    1    3    3  502    0  0.25973688699E+03  0.30247771668E+03  0.19094901027E+04  0.19506687269E+04  0.10100000352E+00 0. -1.
       -3    1    3    3    0  502 -0.25973688699E+03 -0.30247771668E+03 -0.20067522564E+04  0.20459742541E+04  0.10100000352E+00 0.  1.
</event>
<event>
 5   0  0.3399500E-08  0.4071340E+04  0.7818609E-02  0.7990308E-01
        1   -1    0    0  501    0  0.00000000000E+00  0.00000000000E+00  0.22034806680E+04  0.22034806680E+04  0.50400001928E-02 0. -1.
       -1   -1    0    0    0  501  0.00000000000E+00  0.00000000000E+00 -0.18806395409E+04  0.18806395410E+04  0.50400001928E-02 0.  1.
    10030    2    1    2    0    0  0.00000000000E+00  0.00000000000E+00  0.32284112709E+03  0.40841202090E+04  0.40713402570E+04 0.  0.
        4    1    3    3  502    0 -0.11050814588E+04  0.45495526858E+03  0.18145504026E+04  0.21727365472E+04  0.12699999809E+01 0. -1.
       -4    1    3    3    0  502  0.11050814588E+04 -0.45495526858E+03 -0.14917092755E+04  0.19113836618E+04  0.12699999809E+01 0.  1.
</event>
<event>
 5   0  0.3399500E-08  0.3823806E+04  0.7818609E-02  0.8041065E-01
       -1   -1    0    0    0  501  0.00000000000E+00  0.00000000000E+00  0.14235325766E+04  0.14235325766E+04  0.50400001928E-02 0. -1.
        1   -1    0    0  501    0  0.00000000000E+00  0.00000000000E+00 -0.25678182381E+04  0.25678182381E+04  0.50400001928E-02 0.  1.
    10030    2    1    2    0    0  0.00000000000E+00  0.00000000000E+00 -0.11442856615E+04  0.39913508148E+04  0.38238059118E+04 0.  0.
        4    1    3    3  502    0 -0.41592892896E+03 -0.16737217057E+04 -0.14335474722E+04  0.22426326471E+04  0.12699999809E+01 0.  1.
       -4    1    3    3    0  502  0.41592892896E+03  0.16737217057E+04  0.28926181069E+03  0.17487181677E+04  0.12699999809E+01 0. -1.
</event>
<event>
 5   0  0.3399500E-08  0.3897141E+04  0.7818609E-02  0.8025624E-01
        1   -1    0    0  501    0  0.00000000000E+00  0.00000000000E+00  0.13860992410E+04  0.13860992410E+04  0.50400001928E-02 0. -1.
       -1   -1    0    0    0  501  0.00000000000E+00  0.00000000000E+00 -0.27392889862E+04  0.27392889862E+04  0.50400001928E-02 0.  1.
    10030    2    1    2    0    0  0.00000000000E+00  0.00000000000E+00 -0.13531897452E+04  0.41253882272E+04  0.38971406875E+04 0.  0.
        3    1    3    3  502    0 -0.33155744388E+03 -0.14361305903E+04  0.67262253355E+03  0.16201303941E+04  0.10100000352E+00 0. -1.
       -3    1    3    3    0  502  0.33155744388E+03  0.14361305903E+04 -0.20258122787E+04  0.25052578330E+04  0.10100000352E+00 0.  1.
</event>
<event>
 5   0  0.1101474E-07  0.3886795E+04  0.7818609E-02  0.8027781E-01
       -2   -1    0    0    0  501  0.00000000000E+00  0.00000000000E+00  0.34195089339E+04  0.34195089339E+04  0.25500000920E-02 0. -1.
        2   -1    0    0  501    0  0.00000000000E+00  0.00000000000E+00 -0.11044843701E+04  0.11044843701E+04  0.25500000920E-02 0.  1.
    10030    2    1    2    0    0  0.00000000000E+00  0.00000000000E+00  0.23150245638E+04  0.45239933041E+04  0.38867951688E+04 0.  0.
        5    1    3    3  502    0 -0.61330287219E+03 -0.12771376919E+04 -0.39081169504E+03  0.14696860100E+04  0.46999998093E+01 0.  1.
       -5    1    3    3    0  502  0.61330287219E+03  0.12771376919E+04  0.27058362588E+04  0.30543072941E+04  0.46999998093E+01 0. -1.
</event>
<event>
 5   0  0.3399500E-08  0.4024154E+04  0.7818609E-02  0.7999691E-01
        1   -1    0    0  501    0  0.00000000000E+00  0.00000000000E+00  0.15495056998E+04  0.15495056998E+04  0.50400001928E-02 0.  1.
       -1   -1    0    0    0  501  0.00000000000E+00  0.00000000000E+00 -0.26127394724E+04  0.26127394724E+04  0.50400001928E-02 0. -1.
    10030    2    1    2    0    0  0.00000000000E+00  0.00000000000E+00 -0.10632337726E+04  0.41622451722E+04  0.40241544228E+04 0.  0.
        3    1    3    3  502    0  0.19426123274E+04  0.28920965294E+03 -0.98373203960E+03  0.21966141250E+04  0.10100000352E+00 0.  1.
       -3    1    3    3    0  502 -0.19426123274E+04 -0.28920965294E+03 -0.79501732991E+02  0.19656310472E+04  0.10100000352E+00 0. -1.
</event>
<event>
 5   0  0.1101474E-07  0.3996246E+04  0.7818609E-02  0.8005304E-01
       -2   -1    0    0    0  501  0.00000000000E+00  0.00000000000E+00  0.24089053700E+04  0.24089053700E+04  0.25500000920E-02 0. -1.
        2   -1    0    0  501    0  0.00000000000E+00  0.00000000000E+00 -0.16573898488E+04  0.16573898488E+04  0.25500000920E-02 0.  1.
    10030    2    1    2    0    0  0.00000000000E+00  0.00000000000E+00  0.75151552116E+03  0.40662952188E+04  0.39962458918E+04 0.  0.
        5    1    3    3  502    0  0.59967818108E+03 -0.18263698347E+04 -0.17898911784E+03  0.19306216326E+04  0.46999998093E+01 0.  1.
       -5    1    3    3    0  502 -0.59967818108E+03  0.18263698347E+04  0.93050463900E+03  0.21356735863E+04  0.46999998093E+01 0. -1.
</event>
<event>
 5   0  0.1073271E-07  0.4040424E+04  0.7818609E-02  0.7996441E-01
       -2   -1    0    0    0  501  0.00000000000E+00  0.00000000000E+00  0.28536932730E+04  0.28536932731E+04  0.25500000920E-02 0. -1.
        2   -1    0    0  501    0  0.00000000000E+00  0.00000000000E+00 -0.14301663282E+04  0.14301663282E+04  0.25500000920E-02 0.  1.
    10030    2    1    2    0    0  0.00000000000E+00  0.00000000000E+00  0.14235269448E+04  0.42838596013E+04  0.40404237551E+04 0.  0.
        1    1    3    3  502    0  0.47443170911E+03  0.10702457375E+04  0.24573951619E+04  0.27220033738E+04  0.50400001928E-02 0. -1.
       -1    1    3    3    0  502 -0.47443170911E+03 -0.10702457375E+04 -0.10338682170E+04  0.15618562275E+04  0.50400001928E-02 0.  1.
</event>
<event>
 5   0  0.1095109E-07  0.3983285E+04  0.7818609E-02  0.8007927E-01
        2   -1    0    0  501    0  0.00000000000E+00  0.00000000000E+00  0.16960027502E+04  0.16960027502E+04  0.25500000920E-02 0.  1.
       -2   -1    0    0    0  501  0.00000000000E+00  0.00000000000E+00 -0.23388173475E+04  0.23388173475E+04  0.25500000920E-02 0. -1.
    10030    2    1    2    0    0  0.00000000000E+00  0.00000000000E+00 -0.64281459729E+03  0.40348200978E+04  0.39832854046E+04 0.  0.
        4    1    3    3  502    0 -0.28755428392E+03 -0.55146348548E+03  0.15951179024E+04  0.17120754006E+04  0.12699999809E+01 0.  1.
       -4    1    3    3    0  502  0.28755428392E+03  0.55146348548E+03 -0.22379324997E+04  0.23227446971E+04  0.12699999809E+01 0. -1.
</event>
<event>
 5   0  0.1101474E-07  0.3994082E+04  0.7818609E-02  0.8005741E-01
       -2   -1    0    0    0  501  0.00000000000E+00  0.00000000000E+00  0.15892892167E+04  0.15892892167E+04  0.25500000920E-02 0.  1.
        2   -1    0    0  501    0  0.00000000000E+00  0.00000000000E+00 -0.25094070585E+04  0.25094070585E+04  0.25500000920E-02 0. -1.
    10030    2    1    2    0    0  0.00000000000E+00  0.00000000000E+00 -0.92011784182E+03  0.40986962752E+04  0.39940824119E+04 0.  0.
        5    1    3    3  502    0 -0.32240255353E+03 -0.15387573257E+04 -0.17237486869E+04  0.23330343203E+04  0.46999998093E+01 0. -1.
       -5    1    3    3    0  502  0.32240255353E+03  0.15387573257E+04  0.80363084509E+03  0.17656619549E+04  0.46999998093E+01 0.  1.
</event>
<event>
 5   0  0.3399500E-08  0.4036709E+04  0.7818609E-02  0.7997182E-01
       -1   -1    0    0    0  501  0.00000000000E+00  0.00000000000E+00  0.21843809402E+04  0.21843809402E+04  0.50400001928E-02 0.  1.
        1   -1    0    0  501    0  0.00000000000E+00  0.00000000000E+00 -0.18649467322E+04  0.18649467322E+04  0.50400001928E-02 0. -1.
    10030    2    1    2    0    0  0.00000000000E+00  0.00000000000E+00  0.31943420796E+03  0.40493276724E+04  0.40367086079E+04 0.  0.
        4    1    3    3  502    0 -0.19653656943E+04 -0.29928559689E+03 -0.18996738449E+03  0.19970787167E+04  0.12699999809E+01 0. -1.
       -4    1    3    3    0  502  0.19653656943E+04  0.29928559689E+03  0.50940159245E+03  0.20522489556E+04  0.12699999809E+01 0.  1.
</event>
<event>
 5   0  0.1073271E-07  0.3958741E+04  0.7818609E-02  0.8012922E-01
       -2   -1    0    0    0  501  0.00000000000E+00  0.00000000000E+00  0.20886741481E+04  0.20886741481E+04  0.25500000920E-02 0.  1.
        2   -1    0    0  501    0  0.00000000000E+00  0.00000000000E+00 -0.18757868969E+04  0.18757868969E+04  0.25500000920E-02 0. -1.
    10030    2    1    2    0    0  0.00000000000E+00  0.00000000000E+00  0.21288725127E+03  0.39644610450E+04  0.39587410114E+04 0.  0.
        1    1    3    3  502    0 -0.59408416991E+03 -0.13870225840E+04 -0.11764772536E+04  0.19133390650E+04  0.50400001928E-02 0. -1.
       -1    1    3    3    0  502  0.59408416991E+03  0.13870225840E+04  0.13893645049E+04  0.20511219800E+04  0.50400001928E-02 0.  1.
</event>
<event>
 5   0  0.3399500E-08  0.3987126E+04  0.7818609E-02  0.8007149E-01
        1   -1    0    0  501    0  0.00000000000E+00  0.00000000000E+00  0.26170788231E+04  0.26170788231E+04  0.50400001928E-02 0. -1.
       -1   -1    0    0    0  501  0.00000000000E+00  0.00000000000E+00 -0.15185988776E+04  0.15185988776E+04  0.50400001928E-02 0.  1.
    10030    2    1    2    0    0  0.00000000000E+00  0.00000000000E+00  0.10984799454E+04  0.41356777007E+04  0.39871257635E+04 0.  0.
        1    1    3    3  502    0 -0.79172958423E+02 -0.29346658624E+03 -0.14944218571E+04  0.15250205512E+04  0.50400001928E-02 0.  1.
       -1    1    3    3    0  502  0.79172958423E+02  0.29346658624E+03  0.25929018025E+04  0.26106571495E+04  0.50400001928E-02 0. -1.
</event>
<event>
 5   0  0.3399500E-08  0.3978228E+04  0.7818609E-02  0.8008953E-01
       -1   -1    0    0    0  501  0.00000000000E+00  0.00000000000E+00  0.16646537135E+04  0.16646537135E+04  0.50400001928E-02 0. -1.
        1   -1    0    0  501    0  0.00000000000E+00  0.00000000000E+00 -0.23768157221E+04  0.23768157221E+04  0.50400001928E-02 0.  1.
    10030    2    1    2    0    0  0.00000000000E+00  0.00000000000E+00 -0.71216200863E+03  0.40414694356E+04  0.39782283082E+04 0.  0.
        2    1    3    3  502    0  0.19456672431E+04  0.38163065335E+03 -0.51770805292E+03  0.20492156071E+04  0.25500000920E-02 0.  1.
       -2    1    3    3    0  502 -0.19456672431E+04 -0.38163065335E+03 -0.19445395572E+03  0.19922538285E+04  0.25500000920E-02 0. -1.
</event>
<event>
 5   0  0.3399500E-08  0.3783281E+04  0.7818609E-02  0.8049752E-01
       -1   -1    0    0    0  501  0.00000000000E+00  0.00000000000E+00  0.20224456585E+04  0.20224456585E+04  0.50400001928E-02 0.  1.
        1   -1    0    0  501    0  0.00000000000E+00  0.00000000000E+00 -0.17692958435E+04  0.17692958435E+04  0.50400001928E-02 0. -1.
    10030    2    1    2    0    0  0.00000000000E+00  0.00000000000E+00  0.25314981501E+03  0.37917415020E+04  0.37832814843E+04 0.  0.
        2    1    3    3  502    0 -0.10322287186E+04 -0.15596006608E+04  0.41085394022E+03  0.19148502053E+04  0.25500000920E-02 0.  1.
       -2    1    3    3    0  502  0.10322287186E+04  0.15596006608E+04 -0.15770412521E+03  0.18768912967E+04  0.25500000920E-02 0. -1.
</event>
<event>
 5   0  0.3399500E-08  0.3973051E+04  0.7818609E-02  0.8010005E-01
       -1   -1    0    0    0  501  0.00000000000E+00  0.00000000000E+00  0.17782621555E+04  0.17782621555E+04  0.50400001928E-02 0.  1.
        1   -1    0    0  501    0  0.00000000000E+00  0.00000000000E+00 -0.22191799699E+04  0.22191799699E+04  0.50400001928E-02 0. -1.
    10030    2    1    2    0    0  0.00000000000E+00  0.00000000000E+00 -0.44091781445E+03  0.39974421254E+04  0.39730510980E+04 0.  0.
        1    1    3    3  502    0  0.84621928683E+03  0.75306606884E+03  0.14214566089E+04  0.18176178026E+04  0.50400001928E-02 0.  1.
       -1    1    3    3    0  502 -0.84621928683E+03 -0.75306606884E+03 -0.18623744234E+04  0.21798243228E+04  0.50400001928E-02 0. -1.
</event>
<event>
 5   0  0.3399500E-08  0.3991103E+04  0.7818609E-02  0.8006344E-01
        1   -1    0    0  501    0  0.00000000000E+00  0.00000000000E+00  0.23966525622E+04  0.23966525622E+04  0.50400001928E-02 0.  1.
       -1   -1    0    0    0  501  0.00000000000E+00  0.00000000000E+00 -0.16615781730E+04  0.16615781730E+04  0.50400001928E-02 0. -1.
    10030    2    1    2    0    0  0.00000000000E+00  0.00000000000E+00  0.73507438921E+03  0.40582307353E+04  0.39911028981E+04 0.  0.
        4    1    3    3  502    0  0.71019841083E+03 -0.11858645624E+04  0.18310392879E+04  0.22942020464E+04  0.12699999809E+01 0.  1.
       -4    1    3    3    0  502 -0.71019841083E+03  0.11858645624E+04 -0.10959648987E+04  0.17640286889E+04  0.12699999809E+01 0. -1.
</event>
<event>
 5   0  0.1095109E-07  0.4010758E+04  0.7818609E-02  0.8002380E-01
       -2   -1    0    0    0  501  0.00000000000E+00  0.00000000000E+00  0.18737886218E+04  0.18737886218E+04  0.25500000920E-02 0. -1.
        2   -1    0    0  501    0  0.00000000000E+00  0.00000000000E+00 -0.21462104279E+04  0.21462104279E+04  0.25500000920E-02 0.  1.
    10030    2    1    2    0    0  0.00000000000E+00  0.00000000000E+00 -0.27242180609E+03  0.40199990497E+04  0.40107578734E+04 0.  0.
        4    1    3    3  502    0  0.15657666172E+04 -0.78152656360E+03 -0.11178213994E+04  0.20765199645E+04  0.12699999809E+01 0. -1.
       -4    1    3    3    0  502 -0.15657666172E+04  0.78152656360E+03  0.84539959327E+03  0.19434790852E+04  0.12699999809E+01 0.  1.
</event>
<event>
 5   0  0.1095109E-07  0.3954307E+04  0.7818609E-02  0.8013828E-01
       -2   -1    0    0    0  501  0.00000000000E+00  0.00000000000E+00  0.25911874838E+04  0.25911874838E+04  0.25500000920E-02 0.  1.
        2   -1    0    0  501    0  0.00000000000E+00  0.00000000000E+00 -0.15086273269E+04  0.15086273269E+04  0.25500000920E-02 0. -1.
    10030    2    1    2    0    0  0.00000000000E+00  0.00000000000E+00  0.10825601569E+04  0.40998148107E+04  0.39543071439E+04 0.  0.
        4    1    3    3  502    0  0.15856068355E+04 -0.88536380938E+03  0.13517853680E+04  0.22639221289E+04  0.12699999809E+01 0.  1.
       -4    1    3    3    0  502 -0.15856068355E+04  0.88536380938E+03 -0.26922521107E+03  0.18358926818E+04  0.12699999809E+01 0. -1.
</event>
<event>
 5   0  0.3399500E-08  0.4009467E+04  0.7818609E-02  0.8002639E-01
       -1   -1    0    0    0  501  0.00000000000E+00  0.00000000000E+00  0.31348505244E+04  0.31348505244E+04  0.50400001928E-02 0.  1.
        1   -1    0    0  501    0  0.00000000000E+00  0.00000000000E+00 -0.12820251040E+04  0.12820251040E+04  0.50400001928E-02 0. -1.
    10030    2    1    2    0    0  0.00000000000E+00  0.00000000000E+00  0.18528254204E+04  0.44168756284E+04  0.40094673310E+04 0.  0.
        5    1    3    3  502    0 -0.18025551459E+04  0.55091714957E+03  0.16785966280E+04  0.25239697877E+04  0.46999998093E+01 0.  1.
       -5    1    3    3    0  502  0.18025551459E+04 -0.55091714957E+03  0.17422879241E+03  0.18929058407E+04  0.46999998093E+01 0. -1.
</event>
<event>
 5   0  0.1087688E-07  0.3983879E+04  0.7818609E-02  0.8007807E-01
        2   -1    0    0  501    0  0.00000000000E+00  0.00000000000E+00  0.14652400408E+04  0.14652400408E+04  0.25500000920E-02 0. -1.
       -2   -1    0    0    0  501  0.00000000000E+00  0.00000000000E+00 -0.27079683777E+04  0.27079683777E+04  0.25500000920E-02 0.  1.
    10030    2    1    2    0    0  0.00000000000E+00  0.00000000000E+00 -0.12427283368E+04  0.41732084185E+04  0.39838793637E+04 0.  0.
        2    1    3    3  502    0  0.14818450093E+04 -0.13101331568E+04 -0.37456130263E+03  0.20131094579E+04  0.25500000920E-02 0. -1.
       -2    1    3    3    0  502 -0.14818450093E+04  0.13101331568E+04 -0.86816703422E+03  0.21600989606E+04  0.25500000920E-02 0.  1.
</event>
<event>
 5   0  0.3399500E-08  0.3989395E+04  0.7818609E-02  0.8006689E-01
       -3   -1    0    0    0  501  0.00000000000E+00  0.00000000000E+00  0.22401109330E+04  0.22401109353E+04  0.10100000352E+00 0. -1.
        3   -1    0    0  501    0  0.00000000000E+00  0.00000000000E+00 -0.17761702960E+04  0.17761702989E+04  0.10100000352E+00 0.  1.
    10030    2    1    2    0    0  0.00000000000E+00  0.00000000000E+00  0.46394063697E+03  0.40162812341E+04  0.39893951969E+04 0.  0.
        5    1    3    3  502    0  0.17449675181E+04  0.92168929170E+03  0.52439930680E+03  0.20419205451E+04  0.46999998093E+01 0. -1.
       -5    1    3    3    0  502 -0.17449675181E+04 -0.92168929170E+03 -0.60458669833E+02  0.19743606890E+04  0.46999998093E+01 0.  1.
</event>
<event>
 5   0  0.1073271E-07  0.4023488E+04  0.7818609E-02  0.7999825E-01
        2   -1    0    0  501    0  0.00000000000E+00  0.00000000000E+00  0.21756397880E+04  0.21756397880E+04  0.25500000920E-02 0. -1.
       -2   -1    0    0    0  501  0.00000000000E+00  0.00000000000E+00 -0.18601950600E+04  0.18601950600E+04  0.25500000920E-02 0.  1.
    10030    2    1    2    0    0  0.00000000000E+00  0.00000000000E+00  0.31544472799E+03  0.40358348479E+04  0.40234882308E+04 0.  0.
        1    1    3    3  502    0  0.67806931087E+03 -0.16428203785E+04 -0.78776100068E+03  0.19440175361E+04  0.50400001928E-02 0.  1.
       -1    1    3    3    0  502 -0.67806931087E+03  0.16428203785E+04  0.11032057287E+04  0.20918173118E+04  0.50400001928E-02 0. -1.
</event>
<event>
 5   0  0.1095109E-07  0.3996458E+04  0.7818609E-02  0.8005262E-01
        2   -1    0    0  501    0  0.00000000000E+00  0.00000000000E+00  0.25881148204E+04  0.25881148204E+04  0.25500000920E-02 0. -1.
       -2   -1    0    0    0  501  0.00000000000E+00  0.00000000000E+00 -0.15427903722E+04  0.15427903722E+04  0.25500000920E-02 0.  1.
    10030    2    1    2    0    0  0.00000000000E+00  0.00000000000E+00  0.10453244482E+04  0.41309051926E+04  0.39964577451E+04 0.  0.
        4    1    3    3  502    0 -0.14203780424E+04  0.10153137215E+04  0.15272541166E+04  0.23196643046E+04  0.12699999809E+01 0. -1.
       -4    1    3    3    0  502  0.14203780424E+04 -0.10153137215E+04 -0.48192966843E+03  0.18112408881E+04  0.12699999809E+01 0.  1.
</event>
<event>
 5   0  0.3399500E-08  0.3984198E+04  0.7818609E-02  0.8007742E-01
        1   -1    0    0  501    0  0.00000000000E+00  0.00000000000E+00  0.28431428954E+04  0.28431428954E+04  0.50400001928E-02 0.  1.
       -1   -1    0    0    0  501  0.00000000000E+00  0.00000000000E+00 -0.13958001384E+04  0.13958001384E+04  0.50400001928E-02 0. -1.
    10030    2    1    2    0    0  0.00000000000E+00  0.00000000000E+00  0.14473427570E+04  0.42389430338E+04  0.39841984121E+04 0.  0.
        5    1    3    3  502    0  0.11819411463E+04 -0.12807272880E+04  0.17503529105E+04  0.24700211863E+04  0.46999998093E+01 0.  1.
       -5    1    3    3    0  502 -0.11819411463E+04  0.12807272880E+04 -0.30301015343E+03  0.17689218475E+04  0.46999998093E+01 0. -1.
</event>
<event>
 5   0  0.1095109E-07  0.3995426E+04  0.7818609E-02  0.8005470E-01
        2   -1    0    0  501    0  0.00000000000E+00  0.00000000000E+00  0.21634414479E+04  0.21634414479E+04  0.25500000920E-02 0. -1.
       -2   -1    0    0    0  501  0.00000000000E+00  0.00000000000E+00 -0.18446801389E+04  0.18446801390E+04  0.25500000920E-02 0.  1.
    10030    2    1    2    0    0  0.00000000000E+00  0.00000000000E+00  0.31876130893E+03  0.40081215868E+04  0.39954261203E+04 0.  0.
        4    1    3    3  502    0 -0.99528947633E+03  0.42755871935E+03 -0.15244784809E+04  0.18701454093E+04  0.12699999809E+01 0.  1.
       -4    1    3    3    0  502  0.99528947633E+03 -0.42755871935E+03  0.18432397898E+04  0.21379761776E+04  0.12699999809E+01 0. -1.
</event>
<event>
 5   0  0.1101474E-07  0.4000330E+04  0.7818609E-02  0.8004480E-01
       -2   -1    0    0    0  501  0.00000000000E+00  0.00000000000E+00  0.13991817428E+04  0.13991817428E+04  0.25500000920E-02 0.  1.
        2   -1    0    0  501    0  0.00000000000E+00  0.00000000000E+00 -0.28592860067E+04  0.28592860067E+04  0.25500000920E-02 0. -1.
    10030    2    1    2    0    0  0.00000000000E+00  0.00000000000E+00 -0.14601042639E+04  0.42584677495E+04  0.40003303754E+04 0.  0.
        5    1    3    3  502    0 -0.11330788834E+03 -0.37786462101E+03  0.13573528248E+04  0.14135236576E+04  0.46999998093E+01 0.  1.
       -5    1    3    3    0  502  0.11330788834E+03  0.37786462101E+03 -0.28174570888E+04  0.28449440920E+04  0.46999998093E+01 0. -1.
</event>
<event>
 5   0  0.1073271E-07  0.3972670E+04  0.7818609E-02  0.8010083E-01
        2   -1    0    0  501    0  0.00000000000E+00  0.00000000000E+00  0.17224359405E+04  0.17224359405E+04  0.25500000920E-02 0. -1.
       -2   -1    0    0    0  501  0.00000000000E+00  0.00000000000E+00 -0.22906666785E+04  0.22906666785E+04  0.25500000920E-02 0.  1.
    10030    2    1    2    0    0  0.00000000000E+00  0.00000000000E+00 -0.56823073799E+03  0.40131026189E+04  0.39726699408E+04 0.  0.
        1    1    3    3  502    0 -0.10335807916E+02  0.11099907861E+04  0.13798715534E+04  0.17709409584E+04  0.50400001928E-02 0. -1.
       -1    1    3    3    0  502  0.10335807916E+02 -0.11099907861E+04 -0.19481022914E+04  0.22421616605E+04  0.50400001928E-02 0.  1.
</event>
<event>
 5   0  0.3399500E-08  0.3984639E+04  0.7818609E-02  0.8007653E-01
       -1   -1    0    0    0  501  0.00000000000E+00  0.00000000000E+00  0.13729244773E+04  0.13729244773E+04  0.50400001928E-02 0.  1.
        1   -1    0    0  501    0  0.00000000000E+00  0.00000000000E+00 -0.28911543778E+04  0.28911543778E+04  0.50400001928E-02 0. -1.
    10030    2    1    2    0    0  0.00000000000E+00  0.00000000000E+00 -0.15182299006E+04  0.42640788551E+04  0.39846388107E+04 0.  0.
        4    1    3    3  502    0 -0.17034249330E+04 -0.87255398239E+03 -0.13513984674E+04  0.23429226161E+04  0.12699999809E+01 0. -1.
       -4    1    3    3    0  502  0.17034249330E+04  0.87255398239E+03 -0.16683143321E+03  0.19211562390E+04  0.12699999809E+01 0.  1.
</event>
<event>
 5   0  0.1073271E-07  0.3979668E+04  0.7818609E-02  0.8008661E-01
        2   -1    0    0  501    0  0.00000000000E+00  0.00000000000E+00  0.15719384951E+04  0.15719384951E+04  0.25500000920E-02 0.  1.
       -2   -1    0    0    0  501  0.00000000000E+00  0.00000000000E+00 -0.25188259495E+04  0.25188259495E+04  0.25500000920E-02 0. -1.
    10030    2    1    2    0    0  0.00000000000E+00  0.00000000000E+00 -0.94688745434E+03  0.40907644446E+04  0.39796680628E+04 0.  0.
        1    1    3    3  502    0  0.16102969968E+04 -0.54414207154E+03  0.58998614537E+03  0.17992305755E+04  0.50400001928E-02 0.  1.
       -1    1    3    3    0  502 -0.16102969968E+04  0.54414207154E+03 -0.15368735997E+04  0.22915338691E+04  0.50400001928E-02 0. -1.
</event>
<event>
 5   0  0.3399500E-08  0.3933321E+04  0.7818609E-02  0.8018135E-01
       -1   -1    0    0    0  501  0.00000000000E+00  0.00000000000E+00  0.29475892530E+04  0.29475892531E+04  0.50400001928E-02 0. -1.
        1   -1    0    0  501    0  0.00000000000E+00  0.00000000000E+00 -0.13121752777E+04  0.13121752778E+04  0.50400001928E-02 0.  1.
    10030    2    1    2    0    0  0.00000000000E+00  0.00000000000E+00  0.16354139753E+04  0.42597645308E+04  0.39333211142E+04 0.  0.
        2    1    3    3  502    0 -0.51259072373E+03  0.16260779417E+04 -0.24388991346E+03  0.17223126930E+04  0.25500000920E-02 0.  1.
       -2    1    3    3    0  502  0.51259072373E+03 -0.16260779417E+04  0.18793038888E+04  0.25374518378E+04  0.25500000920E-02 0. -1.
</event>
<event>
 5   0  0.1095903E-07  0.3999755E+04  0.7818609E-02  0.8004596E-01
       -2   -1    0    0    0  501  0.00000000000E+00  0.00000000000E+00  0.15199578349E+04  0.15199578349E+04  0.25500000920E-02 0.  1.
        2   -1    0    0  501    0  0.00000000000E+00  0.00000000000E+00 -0.26313297729E+04  0.26313297729E+04  0.25500000920E-02 0. -1.
    10030    2    1    2    0    0  0.00000000000E+00  0.00000000000E+00 -0.11113719380E+04  0.41512876079E+04  0.39997551448E+04 0.  0.
        3    1    3    3  502    0  0.15436425830E+04  0.10122457299E+04  0.24290361465E+03  0.18618474744E+04  0.10100000352E+00 0.  1.
       -3    1    3    3    0  502 -0.15436425830E+04 -0.10122457299E+04 -0.13542755526E+04  0.22894401334E+04  0.10100000352E+00 0. -1.
</event>
<event>
 5   0  0.3399500E-08  0.4073893E+04  0.7818609E-02  0.7989804E-01
       -1   -1    0    0    0  501  0.00000000000E+00  0.00000000000E+00  0.18234353313E+04  0.18234353313E+04  0.50400001928E-02 0. -1.
        1   -1    0    0  501    0  0.00000000000E+00  0.00000000000E+00 -0.22754585648E+04  0.22754585648E+04  0.50400001928E-02 0.  1.
    10030    2    1    2    0    0  0.00000000000E+00  0.00000000000E+00 -0.45202323343E+03  0.40988938961E+04  0.40738932445E+04 0.  0.
        4    1    3    3  502    0  0.96859267186E+03  0.13889816215E+03  0.15714808340E+04  0.18512207021E+04  0.12699999809E+01 0. -1.
       -4    1    3    3    0  502 -0.96859267186E+03 -0.13889816215E+03 -0.20235040674E+04  0.22476731940E+04  0.12699999809E+01 0.  1.
</event>
<event>
 5   0  0.3399500E-08  0.4070503E+04  0.7818609E-02  0.7990473E-01
       -1   -1    0    0    0  501  0.00000000000E+00  0.00000000000E+00  0.19117357761E+04  0.19117357762E+04  0.50400001928E-02 0. -1.
        1   -1    0    0  501    0  0.00000000000E+00  0.00000000000E+00 -0.21667475731E+04  0.21667475731E+04  0.50400001928E-02 0.  1.
    10030    2    1    2    0    0  0.00000000000E+00  0.00000000000E+00 -0.25501179691E+03  0.40784833492E+04  0.40705030909E+04 0.  0.
        1    1    3    3  502    0  0.13962093094E+04  0.24123907650E+03  0.13364033679E+04  0.19477090875E+04  0.50400001928E-02 0. -1.
       -1    1    3    3    0  502 -0.13962093094E+04 -0.24123907650E+03 -0.15914151648E+04  0.21307742617E+04  0.50400001928E-02 0.  1.
</event>
<event>
 5   0  0.1073271E-07  0.3980513E+04  0.7818609E-02  0.8008489E-01
        2   -1    0    0  501    0  0.00000000000E+00  0.00000000000E+00  0.22348326547E+04  0.22348326547E+04  0.25500000920E-02 0. -1.
       -2   -1    0    0    0  501  0.00000000000E+00  0.00000000000E+00 -0.17724464235E+04  0.17724464235E+04  0.25500000920E-02 0.  1.
    10030    2    1    2    0    0  0.00000000000E+00  0.00000000000E+00  0.46238623113E+03  0.40072790782E+04  0.39805131056E+04 0.  0.
        1    1    3    3  502    0  0.19343477375E+04 -0.29985436291E+03  0.59348425985E+03  0.20454430755E+04  0.50400001928E-02 0. -1.
       -1    1    3    3    0  502 -0.19343477375E+04  0.29985436291E+03 -0.13109802871E+03  0.19618360027E+04  0.50400001928E-02 0.  1.
</event>
<event>
 5   0  0.1095109E-07  0.3983488E+04  0.7818609E-02  0.8007886E-01
       -2   -1    0    0    0  501  0.00000000000E+00  0.00000000000E+00  0.15948375460E+04  0.15948375460E+04  0.25500000920E-02 0. -1.
        2   -1    0    0  501    0  0.00000000000E+00  0.00000000000E+00 -0.24874288117E+04  0.24874288117E+04  0.25500000920E-02 0.  1.
    10030    2    1    2    0    0  0.00000000000E+00  0.00000000000E+00 -0.89259126576E+03  0.40822663577E+04  0.39834883516E+04 0.  0.
        4    1    3    3  502    0  0.18033290316E+04 -0.18284906785E+03 -0.12923669970E+04  0.22261274550E+04  0.12699999809E+01 0.  1.
       -4    1    3    3    0  502 -0.18033290316E+04  0.18284906785E+03  0.39977573124E+03  0.18561389027E+04  0.12699999809E+01 0. -1.
</event>
<event>
 5   0  0.1073271E-07  0.4003863E+04  0.7818609E-02  0.8003768E-01
        2   -1    0    0  501    0  0.00000000000E+00  0.00000000000E+00  0.20344436316E+04  0.20344436316E+04  0.25500000920E-02 0.  1.
       -2   -1    0    0    0  501  0.00000000000E+00  0.00000000000E+00 -0.19699384855E+04  0.19699384855E+04  0.25500000920E-02 0. -1.
    10030    2    1    2    0    0  0.00000000000E+00  0.00000000000E+00  0.64505146151E+02  0.40043821171E+04  0.40038625384E+04 0.  0.
        1    1    3    3  502    0  0.48956217072E+03 -0.13860813901E+04  0.13914123960E+04  0.20240852736E+04  0.50400001928E-02 0.  1.
       -1    1    3    3    0  502 -0.48956217072E+03  0.13860813901E+04 -0.13269072499E+04  0.19802968436E+04  0.50400001928E-02 0. -1.
</event>
<event>
 5   0  0.1095903E-07  0.4047062E+04  0.7818609E-02  0.7995119E-01
        2   -1    0    0  501    0  0.00000000000E+00  0.00000000000E+00  0.11974036283E+04  0.11974036283E+04  0.25500000920E-02 0. -1.
       -2   -1    0    0    0  501  0.00000000000E+00  0.00000000000E+00 -0.34196309320E+04  0.34196309320E+04  0.25500000920E-02 0.  1.
    10030    2    1    2    0    0  0.00000000000E+00  0.00000000000E+00 -0.22222273036E+04  0.46170345603E+04  0.40470623842E+04 0.  0.
        3    1    3    3  502    0 -0.14136524362E+04 -0.14005970427E+04 -0.69257577395E+03  0.21070705966E+04  0.10100000352E+00 0. -1.
       -3    1    3    3    0  502  0.14136524362E+04  0.14005970427E+04 -0.15296515297E+04  0.25099639636E+04  0.10100000352E+00 0.  1.
</event>
<event>
 5   0  0.3399500E-08  0.4001074E+04  0.7818609E-02  0.8004330E-01
       -1   -1    0    0    0  501  0.00000000000E+00  0.00000000000E+00  0.15538083535E+04  0.15538083535E+04  0.50400001928E-02 0. -1.
        1   -1    0    0  501    0  0.00000000000E+00  0.00000000000E+00 -0.25757028055E+04  0.25757028055E+04  0.50400001928E-02 0.  1.
    10030    2    1    2    0    0  0.00000000000E+00  0.00000000000E+00 -0.10218944520E+04  0.41295111590E+04  0.40010741235E+04 0.  0.
        1    1    3    3  502    0  0.18114451336E+04 -0.20561584333E+03 -0.13611232913E+04  0.22751413058E+04  0.50400001928E-02 0. -1.
       -1    1    3    3    0  502 -0.18114451336E+04  0.20561584333E+03  0.33922883938E+03  0.18543698532E+04  0.50400001928E-02 0.  1.
</event>
<event>
 5   0  0.3399500E-08  0.3807257E+04  0.7818609E-02  0.8044599E-01
        1   -1    0    0  501    0  0.00000000000E+00  0.00000000000E+00  0.15204721646E+04  0.15204721646E+04  0.50400001928E-02 0.  1.
       -1   -1    0    0    0  501  0.00000000000E+00  0.00000000000E+00 -0.23833392171E+04  0.23833392171E+04  0.50400001928E-02 0. -1.
    10030    2    1    2    0    0  0.00000000000E+00  0.00000000000E+00 -0.86286705257E+03  0.39038113817E+04  0.38072567228E+04 0.  0.
        1    1    3    3  502    0 -0.17390700575E+04  0.76850264600E+03 -0.33502804483E+03  0.19305969990E+04  0.50400001928E-02 0.  1.
       -1    1    3    3    0  502  0.17390700575E+04 -0.76850264600E+03 -0.52783900774E+03  0.19732143827E+04  0.50400001928E-02 0. -1.
</event>
<event>
 5   0  0.3399500E-08  0.4034096E+04  0.7818609E-02  0.7997703E-01
       -1   -1    0    0    0  501  0.00000000000E+00  0.00000000000E+00  0.19624004257E+04  0.19624004257E+04  0.50400001928E-02 0. -1.
        1   -1    0    0  501    0  0.00000000000E+00  0.00000000000E+00 -0.20732170556E+04  0.20732170556E+04  0.50400001928E-02 0.  1.
    10030    2    1    2    0    0  0.00000000000E+00  0.00000000000E+00 -0.11081662988E+03  0.40356174813E+04  0.40340957016E+04 0.  0.
        3    1    3    3  502    0 -0.43643713075E+03  0.10094908235E+04  0.16360674563E+04  0.19713614137E+04  0.10100000352E+00 0. -1.
       -3    1    3    3    0  502  0.43643713075E+03 -0.10094908235E+04 -0.17468840862E+04  0.20642560675E+04  0.10100000352E+00 0.  1.
</event>
<event>
 5   0  0.3399500E-08  0.3997756E+04  0.7818609E-02  0.8004999E-01
       -1   -1    0    0    0  501  0.00000000000E+00  0.00000000000E+00  0.15669815969E+04  0.15669815969E+04  0.50400001928E-02 0. -1.
        1   -1    0    0  501    0  0.00000000000E+00  0.00000000000E+00 -0.25498156698E+04  0.25498156698E+04  0.50400001928E-02 0.  1.
    10030    2    1    2    0    0  0.00000000000E+00  0.00000000000E+00 -0.98283407292E+03  0.41167972667E+04  0.39977564858E+04 0.  0.
        5    1    3    3  502    0 -0.70441754472E+03  0.18049140317E+04 -0.99755358649E+03  0.21792324307E+04  0.46999998093E+01 0.  1.
       -5    1    3    3    0  502  0.70441754472E+03 -0.18049140317E+04  0.14719513572E+02  0.19375648359E+04  0.46999998093E+01 0. -1.
</event>
<event>
 5   0  0.3399500E-08  0.4030289E+04  0.7818609E-02  0.7998464E-01
       -1   -1    0    0    0  501  0.00000000000E+00  0.00000000000E+00  0.18414183281E+04  0.18414183281E+04  0.50400001928E-02 0.  1.
        1   -1    0    0  501    0  0.00000000000E+00  0.00000000000E+00 -0.22052604220E+04  0.22052604220E+04  0.50400001928E-02 0. -1.
    10030    2    1    2    0    0  0.00000000000E+00  0.00000000000E+00 -0.36384209381E+03  0.40466787501E+04  0.40302888032E+04 0.  0.
        5    1    3    3  502    0 -0.15906094830E+04 -0.45161807565E+03 -0.13384679211E+04  0.21273259928E+04  0.46999998093E+01 0. -1.
       -5    1    3    3    0  502  0.15906094830E+04  0.45161807565E+03  0.97462582733E+03  0.19193527573E+04  0.46999998093E+01 0.  1.
</event>
<event>
 5   0  0.1095109E-07  0.4044537E+04  0.7818609E-02  0.7995622E-01
        2   -1    0    0  501    0  0.00000000000E+00  0.00000000000E+00  0.16462006318E+04  0.16462006318E+04  0.25500000920E-02 0. -1.
       -2   -1    0    0    0  501  0.00000000000E+00  0.00000000000E+00 -0.24842475722E+04  0.24842475722E+04  0.25500000920E-02 0.  1.
    10030    2    1    2    0    0  0.00000000000E+00  0.00000000000E+00 -0.83804694037E+03  0.41304482041E+04  0.40445370183E+04 0.  0.
        4    1    3    3  502    0 -0.82535882709E+03 -0.27071916896E+03  0.14459829789E+04  0.16868237757E+04  0.12699999809E+01 0. -1.
       -4    1    3    3    0  502  0.82535882709E+03  0.27071916896E+03 -0.22840299193E+04  0.24436244284E+04  0.12699999809E+01 0.  1.
</event>
<event>
 5   0  0.1073271E-07  0.3974629E+04  0.7818609E-02  0.8009684E-01
       -2   -1    0    0    0  501  0.00000000000E+00  0.00000000000E+00  0.19204941170E+04  0.19204941170E+04  0.25500000920E-02 0. -1.
        2   -1    0    0  501    0  0.00000000000E+00  0.00000000000E+00 -0.20564594961E+04  0.20564594961E+04  0.25500000920E-02 0.  1.
    10030    2    1    2    0    0  0.00000000000E+00  0.00000000000E+00 -0.13596537915E+03  0.39769536131E+04  0.39746287193E+04 0.  0.
        1    1    3    3  502    0  0.96036494919E+03  0.10264762394E+04  0.13376393878E+04  0.19404209434E+04  0.50400001928E-02 0. -1.
       -1    1    3    3    0  502 -0.96036494919E+03 -0.10264762394E+04 -0.14736047669E+04  0.20365326697E+04  0.50400001928E-02 0.  1.
</event>
<event>
 5   0  0.3399500E-08  0.4012824E+04  0.7818609E-02  0.8001965E-01
       -1   -1    0    0    0  501  0.00000000000E+00  0.00000000000E+00  0.28751396869E+04  0.28751396869E+04  0.50400001928E-02 0. -1.
        1   -1    0    0  501    0  0.00000000000E+00  0.00000000000E+00 -0.14001717672E+04  0.14001717672E+04  0.50400001928E-02 0.  1.
    10030    2    1    2    0    0  0.00000000000E+00  0.00000000000E+00  0.14749679198E+04  0.42753114541E+04  0.40128241508E+04 0.  0.
        4    1    3    3  502    0 -0.14164795010E+04  0.53304910242E+03 -0.66592396496E+03  0.16534847632E+04  0.12699999809E+01 0.  1.
       -4    1    3    3    0  502  0.14164795010E+04 -0.53304910242E+03  0.21408918847E+04  0.26218266909E+04  0.12699999809E+01 0. -1.
</event>
<event>
 5   0  0.1101474E-07  0.3677130E+04  0.7818609E-02  0.8073049E-01
       -2   -1    0    0    0  501  0.00000000000E+00  0.00000000000E+00  0.20928194818E+04  0.20928194818E+04  0.25500000920E-02 0. -1.
        2   -1    0    0  501    0  0.00000000000E+00  0.00000000000E+00 -0.16151992527E+04  0.16151992527E+04  0.25500000920E-02 0.  1.
    10030    2    1    2    0    0  0.00000000000E+00  0.00000000000E+00  0.47762022914E+03  0.37080187346E+04  0.36771295670E+04 0.  0.
        5    1    3    3  502    0 -0.97582081833E+03  0.15571074070E+04  0.29837087645E+03  0.18616812338E+04  0.46999998093E+01 0.  1.
       -5    1    3    3    0  502  0.97582081833E+03 -0.15571074070E+04  0.17924935269E+03  0.18463375008E+04  0.46999998093E+01 0. -1.
</event>
<event>
 5   0  0.3399500E-08  0.4040660E+04  0.7818609E-02  0.7996394E-01
       -1   -1    0    0    0  501  0.00000000000E+00  0.00000000000E+00  0.28258040126E+04  0.28258040126E+04  0.50400001928E-02 0. -1.
        1   -1    0    0  501    0  0.00000000000E+00  0.00000000000E+00 -0.14444501219E+04  0.14444501219E+04  0.50400001928E-02 0.  1.
    10030    2    1    2    0    0  0.00000000000E+00  0.00000000000E+00  0.13813538907E+04  0.42702541345E+04  0.40406598225E+04 0.  0.
        2    1    3    3  502    0  0.82023600015E+03  0.18436722873E+04  0.79539479631E+03  0.21690014940E+04  0.25500000920E-02 0.  1.
       -2    1    3    3    0  502 -0.82023600015E+03 -0.18436722873E+04  0.58595909440E+03  0.21012526405E+04  0.25500000920E-02 0. -1.
</event>
<event>
 5   0  0.1087688E-07  0.3986827E+04  0.7818609E-02  0.8007209E-01
       -2   -1    0    0    0  501  0.00000000000E+00  0.00000000000E+00  0.26259277376E+04  0.26259277376E+04  0.25500000920E-02 0. -1.
        2   -1    0    0  501    0  0.00000000000E+00  0.00000000000E+00 -0.15132545212E+04  0.15132545212E+04  0.25500000920E-02 0.  1.
    10030    2    1    2    0    0  0.00000000000E+00  0.00000000000E+00  0.11126732163E+04  0.41391822588E+04  0.39868268191E+04 0.  0.
        2    1    3    3  502    0 -0.10166012446E+04  0.27984539920E+03 -0.12000285865E+04  0.15974542705E+04  0.25500000920E-02 0.  1.
       -2    1    3    3    0  502  0.10166012446E+04 -0.27984539920E+03  0.23127018028E+04  0.25417279883E+04  0.25500000920E-02 0. -1.
</event>
<event>
 5   0  0.1095903E-07  0.3869039E+04  0.7818609E-02  0.8031500E-01
       -2   -1    0    0    0  501  0.00000000000E+00  0.00000000000E+00  0.22546494288E+04  0.22546494288E+04  0.25500000920E-02 0. -1.
        2   -1    0    0  501    0  0.00000000000E+00  0.00000000000E+00 -0.16598434054E+04  0.16598434054E+04  0.25500000920E-02 0.  1.
    10030    2    1    2    0    0  0.00000000000E+00  0.00000000000E+00  0.59480602342E+03  0.39144928342E+04  0.38690386330E+04 0.  0.
        3    1    3    3  502    0 -0.16931601809E+04 -0.63907308134E+03 -0.39411719830E+03  0.18521701266E+04  0.10100000352E+00 0.  1.
       -3    1    3    3    0  502  0.16931601809E+04  0.63907308134E+03  0.98892322171E+03  0.20623227076E+04  0.10100000352E+00 0. -1.
</event>
<event>
 5   0  0.1073271E-07  0.4013287E+04  0.7818609E-02  0.8001872E-01
       -2   -1    0    0    0  501  0.00000000000E+00  0.00000000000E+00  0.15400807172E+04  0.15400807172E+04  0.25500000920E-02 0.  1.
        2   -1    0    0  501    0  0.00000000000E+00  0.00000000000E+00 -0.26145499363E+04  0.26145499363E+04  0.25500000920E-02 0. -1.
    10030    2    1    2    0    0  0.00000000000E+00  0.00000000000E+00 -0.10744692191E+04  0.41546306535E+04  0.40132869028E+04 0.  0.
        1    1    3    3  502    0 -0.30887958721E+03  0.17236670652E+04 -0.15516346609E+04  0.23396591358E+04  0.50400001928E-02 0. -1.
       -1    1    3    3    0  502  0.30887958721E+03 -0.17236670652E+04  0.47716544178E+03  0.18149715177E+04  0.50400001928E-02 0.  1.
</event>
<event>
 5   0  0.1095109E-07  0.4007163E+04  0.7818609E-02  0.8003103E-01
        2   -1    0    0  501    0  0.00000000000E+00  0.00000000000E+00  0.20082065046E+04  0.20082065046E+04  0.25500000920E-02 0. -1.
       -2   -1    0    0    0  501  0.00000000000E+00  0.00000000000E+00 -0.19989675864E+04  0.19989675864E+04  0.25500000920E-02 0.  1.
    10030    2    1    2    0    0  0.00000000000E+00  0.00000000000E+00  0.92389182415E+01  0.40071740910E+04  0.40071634404E+04 0.  0.
        4    1    3    3  502    0 -0.19312670747E+03 -0.64217874485E+03 -0.18834127387E+04  0.19992340090E+04  0.12699999809E+01 0.  1.
       -4    1    3    3    0  502  0.19312670747E+03  0.64217874485E+03  0.18926516570E+04  0.20079400820E+04  0.12699999809E+01 0. -1.
</event>
<event>
 5   0  0.3399500E-08  0.3980125E+04  0.7818609E-02  0.8008568E-01
       -1   -1    0    0    0  501  0.00000000000E+00  0.00000000000E+00  0.31758585738E+04  0.31758585738E+04  0.50400001928E-02 0. -1.
        1   -1    0    0  501    0  0.00000000000E+00  0.00000000000E+00 -0.12470165309E+04  0.12470165309E+04  0.50400001928E-02 0.  1.
    10030    2    1    2    0    0  0.00000000000E+00  0.00000000000E+00  0.19288420428E+04  0.44228751047E+04  0.39801246922E+04 0.  0.
        5    1    3    3  502    0  0.39438378848E+03  0.69184962628E+03 -0.10622241110E+04  0.13276056003E+04  0.46999998093E+01 0.  1.
       -5    1    3    3    0  502 -0.39438378848E+03 -0.69184962628E+03  0.29910661539E+04  0.30952695044E+04  0.46999998093E+01 0. -1.
</event>
<event>
 5   0  0.3399500E-08  0.3999848E+04  0.7818609E-02  0.8004577E-01
       -1   -1    0    0    0  501  0.00000000000E+00  0.00000000000E+00  0.14070723849E+04  0.14070723849E+04  0.50400001928E-02 0.  1.
        1   -1    0    0  501    0  0.00000000000E+00  0.00000000000E+00 -0.28425657964E+04  0.28425657964E+04  0.50400001928E-02 0. -1.
    10030    2    1    2    0    0  0.00000000000E+00  0.00000000000E+00 -0.14354934116E+04  0.42496381813E+04  0.39998479143E+04 0.  0.
        4    1    3    3  502    0  0.10518762773E+04  0.16587478855E+04 -0.31765851238E+03  0.19896725344E+04  0.12699999809E+01 0.  1.
       -4    1    3    3    0  502 -0.10518762773E+04 -0.16587478855E+04 -0.11178348992E+04  0.22599656469E+04  0.12699999809E+01 0. -1.
</event>
<event>
 5   0  0.1095903E-07  0.3977977E+04  0.7818609E-02  0.8009004E-01
        2   -1    0    0  501    0  0.00000000000E+00  0.00000000000E+00  0.16317415407E+04  0.16317415407E+04  0.25500000920E-02 0. -1.
       -2   -1    0    0    0  501  0.00000000000E+00  0.00000000000E+00 -0.24244493479E+04  0.24244493479E+04  0.25500000920E-02 0.  1.
    10030    2    1    2    0    0  0.00000000000E+00  0.00000000000E+00 -0.79270780719E+03  0.40561908886E+04  0.39779767291E+04 0.  0.
        3    1    3    3  502    0  0.67608100474E+03 -0.17546377028E+03 -0.22952811104E+04  0.23992057947E+04  0.10100000352E+00 0.  1.
       -3    1    3    3    0  502 -0.67608100474E+03  0.17546377028E+03  0.15025733032E+04  0.16569850939E+04  0.10100000352E+00 0. -1.
</event>
<event>
 5   0  0.1087688E-07  0.4013708E+04  0.7818609E-02  0.8001787E-01
        2   -1    0    0  501    0  0.00000000000E+00  0.00000000000E+00  0.23688492722E+04  0.23688492722E+04  0.25500000920E-02 0.  1.
       -2   -1    0    0    0  501  0.00000000000E+00  0.00000000000E+00 -0.17001769254E+04  0.17001769254E+04  0.25500000920E-02 0. -1.
    10030    2    1    2    0    0  0.00000000000E+00  0.00000000000E+00  0.66867234681E+03  0.40690261975E+04  0.40137079476E+04 0.  0.
        2    1    3    3  502    0 -0.17248715376E+04 -0.50666937678E+03  0.12385749990E+04  0.21831087254E+04  0.25500000920E-02 0.  1.
       -2    1    3    3    0  502  0.17248715376E+04  0.50666937678E+03 -0.56990265217E+03  0.18859174721E+04  0.25500000920E-02 0. -1.
</event>
<event>
 5   0  0.1101474E-07  0.4025768E+04  0.7818609E-02  0.7999368E-01
        2   -1    0    0  501    0  0.00000000000E+00  0.00000000000E+00  0.28522114186E+04  0.28522114186E+04  0.25500000920E-02 0. -1.
       -2   -1    0    0    0  501  0.00000000000E+00  0.00000000000E+00 -0.14205477680E+04  0.14205477680E+04  0.25500000920E-02 0.  1.
    10030    2    1    2    0    0  0.00000000000E+00  0.00000000000E+00  0.14316636506E+04  0.42727591866E+04  0.40257682817E+04 0.  0.
        5    1    3    3  502    0  0.86271110326E+03 -0.21088359382E+03 -0.12013533526E+04  0.14939927395E+04  0.46999998093E+01 0.  1.
       -5    1    3    3    0  502 -0.86271110326E+03  0.21088359382E+03  0.26330170033E+04  0.27787664471E+04  0.46999998093E+01 0. -1.
</event>
<event>
 5   0  0.3399500E-08  0.3987152E+04  0.7818609E-02  0.8007144E-01
       -1   -1    0    0    0  501  0.00000000000E+00  0.00000000000E+00  0.24568442112E+04  0.24568442112E+04  0.50400001928E-02 0.  1.
        1   -1    0    0  501    0  0.00000000000E+00  0.00000000000E+00 -0.16176623856E+04  0.16176623856E+04  0.50400001928E-02 0. -1.
    10030    2    1    2    0    0  0.00000000000E+00  0.00000000000E+00  0.83918182553E+03  0.40745065968E+04  0.39871515987E+04 0.  0.
        4    1    3    3  502    0  0.15580900473E+04 -0.10391543569E+04  0.11178297047E+04  0.21810619511E+04  0.12699999809E+01 0.  1.
       -4    1    3    3    0  502 -0.15580900473E+04  0.10391543569E+04 -0.27864787920E+03  0.18934446457E+04  0.12699999809E+01 0. -1.
</event>
<event>
 5   0  0.3399500E-08  0.3846448E+04  0.7818609E-02  0.8036260E-01
       -1   -1    0    0    0  501  0.00000000000E+00  0.00000000000E+00  0.16120659387E+04  0.16120659387E+04  0.50400001928E-02 0. -1.
        1   -1    0    0  501    0  0.00000000000E+00  0.00000000000E+00 -0.22944408628E+04  0.22944408628E+04  0.50400001928E-02 0.  1.
    10030    2    1    2    0    0  0.00000000000E+00  0.00000000000E+00 -0.68237492405E+03  0.39065068015E+04  0.38464476928E+04 0.  0.
        3    1    3    3  502    0 -0.13308987946E+04  0.47026257920E+02 -0.17503999394E+04  0.21994097000E+04  0.10100000352E+00 0.  1.
       -3    1    3    3    0  502  0.13308987946E+04 -0.47026257920E+02  0.10680250153E+04  0.17070971015E+04  0.10100000352E+00 0. -1.
</event>
<event>
 5   0  0.1087688E-07  0.3996148E+04  0.7818609E-02  0.8005324E-01
        2   -1    0    0  501    0  0.00000000000E+00  0.00000000000E+00  0.16087691141E+04  0.16087691141E+04  0.25500000920E-02 0. -1.
       -2   -1    0    0    0  501  0.00000000000E+00  0.00000000000E+00 -0.24815862721E+04  0.24815862721E+04  0.25500000920E-02 0.  1.
    10030    2    1    2    0    0  0.00000000000E+00  0.00000000000E+00 -0.87281715795E+03  0.40903553862E+04  0.39961478194E+04 0.  0.
        2    1    3    3  502    0  0.20469141426E+03  0.48346902024E+03  0.15369037362E+04  0.16241040493E+04  0.25500000920E-02 0. -1.
       -2    1    3    3    0  502 -0.20469141426E+03 -0.48346902024E+03 -0.24097208942E+04  0.24662513369E+04  0.25500000920E-02 0.  1.
</event>
<event>
 5   0  0.3399500E-08  0.3993849E+04  0.7818609E-02  0.8005788E-01
        1   -1    0    0  501    0  0.00000000000E+00  0.00000000000E+00  0.23240038843E+04  0.23240038843E+04  0.50400001928E-02 0. -1.
       -1   -1    0    0    0  501  0.00000000000E+00  0.00000000000E+00 -0.17158785008E+04  0.17158785008E+04  0.50400001928E-02 0.  1.
    10030    2    1    2    0    0  0.00000000000E+00  0.00000000000E+00  0.60812538356E+03  0.40398823851E+04  0.39938494217E+04 0.  0.
        1    1    3    3  502    0  0.17689825759E+04  0.23311767887E+03  0.12110947548E+04  0.21564771529E+04  0.50400001928E-02 0. -1.
       -1    1    3    3    0  502 -0.17689825759E+04 -0.23311767887E+03 -0.60296937122E+03  0.18834052322E+04  0.50400001928E-02 0.  1.
</event>
<event>
 5   0  0.1095109E-07  0.4055946E+04  0.7818609E-02  0.7993355E-01
        2   -1    0    0  501    0  0.00000000000E+00  0.00000000000E+00  0.13437237059E+04  0.13437237059E+04  0.25500000920E-02 0.  1.
       -2   -1    0    0    0  501  0.00000000000E+00  0.00000000000E+00 -0.30606542202E+04  0.30606542202E+04  0.25500000920E-02 0. -1.
    10030    2    1    2    0    0  0.00000000000E+00  0.00000000000E+00 -0.17169305143E+04  0.44043779261E+04  0.40559455772E+04 0.  0.
        4    1    3    3  502    0 -0.76080244086E+03 -0.71225685873E+03  0.10306819425E+04  0.14657547770E+04  0.12699999809E+01 0.  1.
       -4    1    3    3    0  502  0.76080244086E+03  0.71225685873E+03 -0.27476124568E+04  0.29386231491E+04  0.12699999809E+01 0. -1.
</event>
<event>
 5   0  0.3399500E-08  0.3844826E+04  0.7818609E-02  0.8036603E-01
       -1   -1    0    0    0  501  0.00000000000E+00  0.00000000000E+00  0.10947430086E+04  0.10947430086E+04  0.50400001928E-02 0. -1.
        1   -1    0    0  501    0  0.00000000000E+00  0.00000000000E+00 -0.33758353412E+04  0.33758353412E+04  0.50400001928E-02 0.  1.
    10030    2    1    2    0    0  0.00000000000E+00  0.00000000000E+00 -0.22810923326E+04  0.44705783498E+04  0.38448262057E+04 0.  0.
        5    1    3    3  502    0  0.98927033080E+03 -0.14266797339E+04 -0.21004885350E+04  0.27250954160E+04  0.46999998093E+01 0. -1.
       -5    1    3    3    0  502 -0.98927033080E+03  0.14266797339E+04 -0.18060379757E+03  0.17454829338E+04  0.46999998093E+01 0.  1.
</event>
<event>
 5   0  0.1095903E-07  0.3980827E+04  0.7818609E-02  0.8008426E-01
        2   -1    0    0  501    0  0.00000000000E+00  0.00000000000E+00  0.32527486196E+04  0.32527486196E+04  0.25500000920E-02 0. -1.
       -2   -1    0    0    0  501  0.00000000000E+00  0.00000000000E+00 -0.12179687984E+04  0.12179687984E+04  0.25500000920E-02 0.  1.
    10030    2    1    2    0    0  0.00000000000E+00  0.00000000000E+00  0.20347798212E+04  0.44707174180E+04  0.39808272144E+04 0.  0.
        3    1    3    3  502    0  0.12394054417E+04  0.15261579329E+04  0.13661951475E+04  0.23941121687E+04  0.10100000352E+00 0.  1.
       -3    1    3    3    0  502 -0.12394054417E+04 -0.15261579329E+04  0.66858467373E+03  0.20766052493E+04  0.10100000352E+00 0. -1.
</event>
<event>
 5   0  0.1073271E-07  0.3955122E+04  0.7818609E-02  0.8013661E-01
        2   -1    0    0  501    0  0.00000000000E+00  0.00000000000E+00  0.29780909176E+04  0.29780909176E+04  0.25500000920E-02 0.  1.
       -2   -1    0    0    0  501  0.00000000000E+00  0.00000000000E+00 -0.13131729223E+04  0.13131729223E+04  0.25500000920E-02 0. -1.
    10030    2    1    2    0    0  0.00000000000E+00  0.00000000000E+00  0.16649179952E+04  0.42912638399E+04  0.39551224270E+04 0.  0.
        1    1    3    3  502    0  0.10458039489E+04  0.12856451230E+04  0.20031208033E+04  0.25998235006E+04  0.50400001928E-02 0.  1.
       -1    1    3    3    0  502 -0.10458039489E+04 -0.12856451230E+04 -0.33820280809E+03  0.16914403393E+04  0.50400001928E-02 0. -1.
</event>
<event>
 5   0  0.3399500E-08  0.3967601E+04  0.7818609E-02  0.8011114E-01
        1   -1    0    0  501    0  0.00000000000E+00  0.00000000000E+00  0.30128058091E+04  0.30128058091E+04  0.50400001928E-02 0. -1.
       -1   -1    0    0    0  501  0.00000000000E+00  0.00000000000E+00 -0.13062457442E+04  0.13062457442E+04  0.50400001928E-02 0.  1.
    10030    2    1    2    0    0  0.00000000000E+00  0.00000000000E+00  0.17065600649E+04  0.43190515532E+04  0.39676011725E+04 0.  0.
        3    1    3    3  502    0  0.13243734837E+04  0.14549071524E+04  0.57629081913E+03  0.20500807459E+04  0.10100000352E+00 0.  1.
       -3    1    3    3    0  502 -0.13243734837E+04 -0.14549071524E+04  0.11302692458E+04  0.22689708073E+04  0.10100000352E+00 0. -1.
</event>
<event>
 5   0  0.3399500E-08  0.4043346E+04  0.7818609E-02  0.7995859E-01
        1   -1    0    0  501    0  0.00000000000E+00  0.00000000000E+00  0.20373564168E+04  0.20373564168E+04  0.50400001928E-02 0. -1.
       -1   -1    0    0    0  501  0.00000000000E+00  0.00000000000E+00 -0.20061105885E+04  0.20061105885E+04  0.50400001928E-02 0.  1.
    10030    2    1    2    0    0  0.00000000000E+00  0.00000000000E+00  0.31245828296E+02  0.40434670053E+04  0.40433462776E+04 0.  0.
        4    1    3    3  502    0 -0.19735193807E+04  0.18027056877E+03 -0.38424455280E+03  0.20186435330E+04  0.12699999809E+01 0.  1.
       -4    1    3    3    0  502  0.19735193807E+04 -0.18027056877E+03  0.41549038110E+03  0.20248234723E+04  0.12699999809E+01 0. -1.
</event>
<event>
 5   0  0.3399500E-08  0.4049630E+04  0.7818609E-02  0.7994609E-01
        1   -1    0    0  501    0  0.00000000000E+00  0.00000000000E+00  0.29551893160E+04  0.29551893160E+04  0.50400001928E-02 0.  1.
       -1   -1    0    0    0  501  0.00000000000E+00  0.00000000000E+00 -0.13873480690E+04  0.13873480690E+04  0.50400001928E-02 0. -1.
    10030    2    1    2    0    0  0.00000000000E+00  0.00000000000E+00  0.15678412469E+04  0.43425373850E+04  0.40496302010E+04 0.  0.
        4    1    3    3  502    0  0.15995142948E+04  0.10293123810E+04  0.39485649858E+02  0.19024959097E+04  0.12699999809E+01 0. -1.
       -4    1    3    3    0  502 -0.15995142948E+04 -0.10293123810E+04  0.15283555971E+04  0.24400414753E+04  0.12699999809E+01 0.  1.
</event>
<event>
 5   0  0.3399500E-08  0.3979862E+04  0.7818609E-02  0.8008621E-01
        1   -1    0    0  501    0  0.00000000000E+00  0.00000000000E+00  0.20280339379E+04  0.20280339379E+04  0.50400001928E-02 0.  1.
       -1   -1    0    0    0  501  0.00000000000E+00  0.00000000000E+00 -0.19525437823E+04  0.19525437823E+04  0.50400001928E-02 0. -1.
    10030    2    1    2    0    0  0.00000000000E+00  0.00000000000E+00  0.75490155599E+02  0.39805777202E+04  0.39798618346E+04 0.  0.
        4    1    3    3  502    0 -0.87632426003E+03  0.17521134070E+04 -0.31157100960E+03  0.19836642122E+04  0.12699999809E+01 0. -1.
       -4    1    3    3    0  502  0.87632426003E+03 -0.17521134070E+04  0.38706116520E+03  0.19969135080E+04  0.12699999809E+01 0.  1.
</event>
<event>
 5   0  0.3399500E-08  0.3992543E+04  0.7818609E-02  0.8006053E-01
        1   -1    0    0  501    0  0.00000000000E+00  0.00000000000E+00  0.25066735465E+04  0.25066735465E+04  0.50400001928E-02 0.  1.
       -1   -1    0    0    0  501  0.00000000000E+00  0.00000000000E+00 -0.15897960177E+04  0.15897960177E+04  0.50400001928E-02 0. -1.
    10030    2    1    2    0    0  0.00000000000E+00  0.00000000000E+00  0.91687752877E+03  0.40964695642E+04  0.39925428598E+04 0.  0.
        3    1    3    3  502    0 -0.13470721479E+04 -0.17881564774E+03  0.19588728652E+04  0.23840640343E+04  0.10100000352E+00 0. -1.
       -3    1    3    3    0  502  0.13470721479E+04  0.17881564774E+03 -0.10419953364E+04  0.17124055299E+04  0.10100000352E+00 0.  1.
</event>
<event>
 5   0  0.1101474E-07  0.3817312E+04  0.7818609E-02  0.8042450E-01
        2   -1    0    0  501    0  0.00000000000E+00  0.00000000000E+00  0.16473501836E+04  0.16473501836E+04  0.25500000920E-02 0.  1.
       -2   -1    0    0    0  501  0.00000000000E+00  0.00000000000E+00 -0.22114104658E+04  0.22114104658E+04  0.25500000920E-02 0. -1.
    10030    2    1    2    0    0  0.00000000000E+00  0.00000000000E+00 -0.56406028224E+03  0.38587606494E+04  0.38173118484E+04 0.  0.
        5    1    3    3  502    0  0.17351536828E+04  0.58445620988E+03 -0.82695484700E+03  0.20090355330E+04  0.46999998093E+01 0. -1.
       -5    1    3    3    0  502 -0.17351536828E+04 -0.58445620988E+03  0.26289456475E+03  0.18497251164E+04  0.46999998093E+01 0.  1.
</event>
<event>
 5   0  0.1087688E-07  0.3977345E+04  0.7818609E-02  0.8009132E-01
       -2   -1    0    0    0  501  0.00000000000E+00  0.00000000000E+00  0.30009235262E+04  0.30009235262E+04  0.25500000920E-02 0.  1.
        2   -1    0    0  501    0  0.00000000000E+00  0.00000000000E+00 -0.13178671818E+04  0.13178671818E+04  0.25500000920E-02 0. -1.
    10030    2    1    2    0    0  0.00000000000E+00  0.00000000000E+00  0.16830563444E+04  0.43187907080E+04  0.39773451599E+04 0.  0.
        2    1    3    3  502    0  0.12424358526E+04  0.12159359040E+04 -0.20712836174E+03  0.17507281710E+04  0.25500000920E-02 0. -1.
       -2    1    3    3    0  502 -0.12424358526E+04 -0.12159359040E+04  0.18901847062E+04  0.25680625370E+04  0.25500000920E-02 0.  1.
</event>
<event>
 5   0  0.3399500E-08  0.3982492E+04  0.7818609E-02  0.8008088E-01
       -1   -1    0    0    0  501  0.00000000000E+00  0.00000000000E+00  0.18416013823E+04  0.18416013823E+04  0.50400001928E-02 0.  1.
        1   -1    0    0  501    0  0.00000000000E+00  0.00000000000E+00 -0.21530504926E+04  0.21530504927E+04  0.50400001928E-02 0. -1.
    10030    2    1    2    0    0  0.00000000000E+00  0.00000000000E+00 -0.31144911032E+03  0.39946518750E+04  0.39824920658E+04 0.  0.
        2    1    3    3  502    0  0.16382234495E+04 -0.13751440926E+03 -0.12827095182E+04  0.20851930346E+04  0.25500000920E-02 0. -1.
       -2    1    3    3    0  502 -0.16382234495E+04  0.13751440926E+03  0.97126040786E+03  0.19094588404E+04  0.25500000920E-02 0.  1.
</event>
<event>
 5   0  0.3399500E-08  0.3737217E+04  0.7818609E-02  0.8059764E-01
        1   -1    0    0  501    0  0.00000000000E+00  0.00000000000E+00  0.10849299769E+04  0.10849299769E+04  0.50400001928E-02 0.  1.
       -1   -1    0    0    0  501  0.00000000000E+00  0.00000000000E+00 -0.32183627017E+04  0.32183627017E+04  0.50400001928E-02 0. -1.
    10030    2    1    2    0    0  0.00000000000E+00  0.00000000000E+00 -0.21334327248E+04  0.43032926787E+04  0.37372172384E+04 0.  0.
        1    1    3    3  502    0 -0.12775874765E+04 -0.76090627078E+03 -0.23697050546E+04  0.27976258075E+04  0.50400001928E-02 0. -1.
       -1    1    3    3    0  502  0.12775874765E+04  0.76090627078E+03  0.23627232978E+03  0.15056668712E+04  0.50400001928E-02 0.  1.
</event>
<event>
 5   0  0.3399500E-08  0.3943698E+04  0.7818609E-02  0.8016002E-01
       -1   -1    0    0    0  501  0.00000000000E+00  0.00000000000E+00  0.18863821313E+04  0.18863821313E+04  0.50400001928E-02 0. -1.
        1   -1    0    0  501    0  0.00000000000E+00  0.00000000000E+00 -0.20611881190E+04  0.20611881190E+04  0.50400001928E-02 0.  1.
    10030    2    1    2    0    0  0.00000000000E+00  0.00000000000E+00 -0.17480598764E+03  0.39475702503E+04  0.39436979788E+04 0.  0.
        3    1    3    3  502    0 -0.68229728826E+03  0.40385564222E+03  0.17197947396E+04  0.18937589408E+04  0.10100000352E+00 0. -1.
       -3    1    3    3    0  502  0.68229728826E+03 -0.40385564222E+03 -0.18946007272E+04  0.20538113095E+04  0.10100000352E+00 0.  1.
</event>
<event>
 5   0  0.3399500E-08  0.4010029E+04  0.7818609E-02  0.8002526E-01
       -1   -1    0    0    0  501  0.00000000000E+00  0.00000000000E+00  0.18510949210E+04  0.18510949210E+04  0.50400001928E-02 0. -1.
        1   -1    0    0  501    0  0.00000000000E+00  0.00000000000E+00 -0.21717326256E+04  0.21717326256E+04  0.50400001928E-02 0.  1.
    10030    2    1    2    0    0  0.00000000000E+00  0.00000000000E+00 -0.32063770460E+03  0.40228275466E+04  0.40100290438E+04 0.  0.
        1    1    3    3  502    0 -0.84927218424E+03 -0.12159114019E+04 -0.15138394201E+04  0.21192955363E+04  0.50400001928E-02 0.  1.
       -1    1    3    3    0  502  0.84927218424E+03  0.12159114019E+04  0.11932017155E+04  0.19035320103E+04  0.50400001928E-02 0. -1.
</event>
<event>
 5   0  0.3399500E-08  0.4008020E+04  0.7818609E-02  0.8002931E-01
       -1   -1    0    0    0  501  0.00000000000E+00  0.00000000000E+00  0.17017488945E+04  0.17017488945E+04  0.50400001928E-02 0.  1.
        1   -1    0    0  501    0  0.00000000000E+00  0.00000000000E+00 -0.23599577682E+04  0.23599577682E+04  0.50400001928E-02 0. -1.
    10030    2    1    2    0    0  0.00000000000E+00  0.00000000000E+00 -0.65820887377E+03  0.40617066627E+04  0.40080197221E+04 0.  0.
        4    1    3    3  502    0 -0.13042575007E+04 -0.24562418995E+03 -0.18507616588E+04  0.22774413717E+04  0.12699999809E+01 0. -1.
       -4    1    3    3    0  502  0.13042575007E+04  0.24562418995E+03  0.11925527851E+04  0.17842652910E+04  0.12699999809E+01 0.  1.
</event>
<event>
 5   0  0.3399500E-08  0.4188065E+04  0.7818609E-02  0.7967646E-01
        1   -1    0    0  501    0  0.00000000000E+00  0.00000000000E+00  0.17354927634E+04  0.17354927634E+04  0.50400001928E-02 0.  1.
       -1   -1    0    0    0  501  0.00000000000E+00  0.00000000000E+00 -0.25266434818E+04  0.25266434818E+04  0.50400001928E-02 0. -1.
    10030    2    1    2    0    0  0.00000000000E+00  0.00000000000E+00 -0.79115071836E+03  0.42621362452E+04  0.41880646979E+04 0.  0.
        4    1    3    3  502    0  0.20848667917E+04 -0.17571810098E+03 -0.48325879958E+03  0.21473441900E+04  0.12699999809E+01 0. -1.
       -4    1    3    3    0  502 -0.20848667917E+04  0.17571810098E+03 -0.30789191877E+03  0.21147920552E+04  0.12699999809E+01 0.  1.
</event>
<event>
 5   0  0.3399500E-08  0.3929360E+04  0.7818609E-02  0.8018950E-01
        1   -1    0    0  501    0  0.00000000000E+00  0.00000000000E+00  0.16269737223E+04  0.16269737223E+04  0.50400001928E-02 0.  1.
       -1   -1    0    0    0  501  0.00000000000E+00  0.00000000000E+00 -0.23724833331E+04  0.23724833331E+04  0.50400001928E-02 0. -1.
    10030    2    1    2    0    0  0.00000000000E+00  0.00000000000E+00 -0.74550961083E+03  0.39994570554E+04  0.39293602734E+04 0.  0.
        3    1    3    3  502    0 -0.65689921623E+03 -0.17257196161E+04 -0.10558024835E+04  0.21270504621E+04  0.10100000352E+00 0. -1.
       -3    1    3    3    0  502  0.65689921623E+03  0.17257196161E+04  0.31029287264E+03  0.18724065934E+04  0.10100000352E+00 0.  1.
</event>
<event>
 5   0  0.1087688E-07  0.4034161E+04  0.7818609E-02  0.7997690E-01
       -2   -1    0    0    0  501  0.00000000000E+00  0.00000000000E+00  0.25135117660E+04  0.25135117660E+04  0.25500000920E-02 0. -1.
        2   -1    0    0  501    0  0.00000000000E+00  0.00000000000E+00 -0.16186968240E+04  0.16186968240E+04  0.25500000920E-02 0.  1.
    10030    2    1    2    0    0  0.00000000000E+00  0.00000000000E+00  0.89481494200E+03  0.41322085899E+04  0.40341608855E+04 0.  0.
        2    1    3    3  502    0  0.20164923379E+04 -0.33194235036E+02  0.48391506990E+03  0.20740098845E+04  0.25500000920E-02 0. -1.
       -2    1    3    3    0  502 -0.20164923379E+04  0.33194235036E+02  0.41089987211E+03  0.20581987054E+04  0.25500000920E-02 0.  1.
</event>
<event>
 5   0  0.1073271E-07  0.3993597E+04  0.7818609E-02  0.8005840E-01
        2   -1    0    0  501    0  0.00000000000E+00  0.00000000000E+00  0.23057975913E+04  0.23057975913E+04  0.25500000920E-02 0.  1.
       -2   -1    0    0    0  501  0.00000000000E+00  0.00000000000E+00 -0.17292079967E+04  0.17292079967E+04  0.25500000920E-02 0. -1.
    10030    2    1    2    0    0  0.00000000000E+00  0.00000000000E+00  0.57658959458E+03  0.40350055880E+04  0.39935966915E+04 0.  0.
        1    1    3    3  502    0 -0.73746369273E+03 -0.21333971644E+03 -0.15741405848E+04  0.17513666416E+04  0.50400001928E-02 0. -1.
       -1    1    3    3    0  502  0.73746369273E+03  0.21333971644E+03  0.21507301794E+04  0.22836389463E+04  0.50400001928E-02 0.  1.
</event>
<event>
 5   0  0.3399500E-08  0.3998427E+04  0.7818609E-02  0.8004864E-01
       -1   -1    0    0    0  501  0.00000000000E+00  0.00000000000E+00  0.20308209154E+04  0.20308209154E+04  0.50400001928E-02 0.  1.
        1   -1    0    0  501    0  0.00000000000E+00  0.00000000000E+00 -0.19680982335E+04  0.19680982335E+04  0.50400001928E-02 0. -1.
    10030    2    1    2    0    0  0.00000000000E+00  0.00000000000E+00  0.62722681926E+02  0.39989191489E+04  0.39984272188E+04 0.  0.
        3    1    3    3  502    0 -0.11303451053E+04 -0.47209850468E+03  0.16115234441E+04  0.20242442728E+04  0.10100000352E+00 0.  1.
       -3    1    3    3    0  502  0.11303451053E+04  0.47209850468E+03 -0.15488007621E+04  0.19746748760E+04  0.10100000352E+00 0. -1.
</event>
<event>
 5   0  0.1073271E-07  0.4000734E+04  0.7818609E-02  0.8004399E-01
       -2   -1    0    0    0  501  0.00000000000E+00  0.00000000000E+00  0.23443772826E+04  0.23443772826E+04  0.25500000920E-02 0. -1.
        2   -1    0    0  501    0  0.00000000000E+00  0.00000000000E+00 -0.17068362273E+04  0.17068362273E+04  0.25500000920E-02 0.  1.
    10030    2    1    2    0    0  0.00000000000E+00  0.00000000000E+00  0.63754105528E+03  0.40512135099E+04  0.40007339708E+04 0.  0.
        1    1    3    3  502    0 -0.16315087952E+04  0.84516100999E+03 -0.48199806960E+03  0.18995894874E+04  0.50400001928E-02 0.  1.
       -1    1    3    3    0  502  0.16315087952E+04 -0.84516100999E+03  0.11195391249E+04  0.21516240224E+04  0.50400001928E-02 0. -1.
</event>
<event>
 5   0  0.3399500E-08  0.4018257E+04  0.7818609E-02  0.8000874E-01
       -1   -1    0    0    0  501  0.00000000000E+00  0.00000000000E+00  0.16279461815E+04  0.16279461815E+04  0.50400001928E-02 0.  1.
        1   -1    0    0  501    0  0.00000000000E+00  0.00000000000E+00 -0.24795649085E+04  0.24795649085E+04  0.50400001928E-02 0. -1.
    10030    2    1    2    0    0  0.00000000000E+00  0.00000000000E+00 -0.85161872698E+03  0.41075110899E+04  0.40182574454E+04 0.  0.
        1    1    3    3  502    0 -0.39269968767E+03  0.70469555912E+03 -0.23067320895E+04  0.24437311244E+04  0.50400001928E-02 0. -1.
       -1    1    3    3    0  502  0.39269968767E+03 -0.70469555912E+03  0.14551133625E+04  0.16637799655E+04  0.50400001928E-02 0.  1.
</event>
<event>
 5   0  0.1101474E-07  0.4046713E+04  0.7818609E-02  0.7995189E-01
       -2   -1    0    0    0  501  0.00000000000E+00  0.00000000000E+00  0.17736600396E+04  0.17736600396E+04  0.25500000920E-02 0. -1.
        2   -1    0    0  501    0  0.00000000000E+00  0.00000000000E+00 -0.23082050493E+04  0.23082050493E+04  0.25500000920E-02 0.  1.
    10030    2    1    2    0    0  0.00000000000E+00  0.00000000000E+00 -0.53454500970E+03  0.40818650889E+04  0.40467127692E+04 0.  0.
        5    1    3    3  502    0  0.15595245506E+03  0.75628372846E+03 -0.21537222106E+04  0.22879745839E+04  0.46999998093E+01 0.  1.
       -5    1    3    3    0  502 -0.15595245506E+03 -0.75628372846E+03  0.16191772009E+04  0.17938905050E+04  0.46999998093E+01 0. -1.
</event>
<event>
 5   0  0.3399500E-08  0.3970098E+04  0.7818609E-02  0.8010606E-01
       -1   -1    0    0    0  501  0.00000000000E+00  0.00000000000E+00  0.17778015386E+04  0.17778015386E+04  0.50400001928E-02 0.  1.
        1   -1    0    0  501    0  0.00000000000E+00  0.00000000000E+00 -0.22164559446E+04  0.22164559446E+04  0.50400001928E-02 0. -1.
    10030    2    1    2    0    0  0.00000000000E+00  0.00000000000E+00 -0.43865440602E+03  0.39942574832E+04  0.39700976253E+04 0.  0.
        2    1    3    3  502    0  0.18621205078E+04  0.63725453421E+03 -0.47942055362E+03  0.20256925222E+04  0.25500000920E-02 0. -1.
       -2    1    3    3    0  502 -0.18621205078E+04 -0.63725453421E+03  0.40766147601E+02  0.19685649611E+04  0.25500000920E-02 0.  1.
</event>
<event>
 5   0  0.1095903E-07  0.4148583E+04  0.7818609E-02  0.7975225E-01
       -2   -1    0    0    0  501  0.00000000000E+00  0.00000000000E+00  0.18776608897E+04  0.18776608897E+04  0.25500000920E-02 0.  1.
        2   -1    0    0  501    0  0.00000000000E+00  0.00000000000E+00 -0.22915138541E+04  0.22915138541E+04  0.25500000920E-02 0. -1.
    10030    2    1    2    0    0  0.00000000000E+00  0.00000000000E+00 -0.41385296443E+03  0.41691747439E+04  0.41485833448E+04 0.  0.
        3    1    3    3  502    0 -0.19364351440E+04  0.25359433748E+03  0.49553851486E+03  0.20148572121E+04  0.10100000352E+00 0. -1.
       -3    1    3    3    0  502  0.19364351440E+04 -0.25359433748E+03 -0.90939147929E+03  0.21543175318E+04  0.10100000352E+00 0.  1.
</event>
<event>
 5   0  0.1087688E-07  0.3980029E+04  0.7818609E-02  0.8008587E-01
        2   -1    0    0  501    0  0.00000000000E+00  0.00000000000E+00  0.22546763893E+04  0.22546763893E+04  0.25500000920E-02 0. -1.
       -2   -1    0    0    0  501  0.00000000000E+00  0.00000000000E+00 -0.17564196224E+04  0.17564196224E+04  0.25500000920E-02 0.  1.
    10030    2    1    2    0    0  0.00000000000E+00  0.00000000000E+00  0.49825676687E+03  0.40110960117E+04  0.39800290714E+04 0.  0.
        2    1    3    3  502    0 -0.11623520199E+04  0.19116650095E+03 -0.13673087184E+04  0.18047548257E+04  0.25500000920E-02 0.  1.
       -2    1    3    3    0  502  0.11623520199E+04 -0.19116650095E+03  0.18655654853E+04  0.22063411860E+04  0.25500000920E-02 0. -1.
</event>
<event>
 5   0  0.3399500E-08  0.3500735E+04  0.7818609E-02  0.8113616E-01
       -1   -1    0    0    0  501  0.00000000000E+00  0.00000000000E+00  0.13880870128E+04  0.13880870129E+04  0.50400001928E-02 0.  1.
        1   -1    0    0  501    0  0.00000000000E+00  0.00000000000E+00 -0.22072001994E+04  0.22072001994E+04  0.50400001928E-02 0. -1.
    10030    2    1    2    0    0  0.00000000000E+00  0.00000000000E+00 -0.81911318653E+03  0.35952872122E+04  0.35007347409E+04 0.  0.
        2    1    3    3  502    0  0.13496954986E+04  0.46273636268E+03 -0.14508361997E+04  0.20348780205E+04  0.25500000920E-02 0. -1.
       -2    1    3    3    0  502 -0.13496954986E+04 -0.46273636268E+03  0.63172301313E+03  0.15604091917E+04  0.25500000920E-02 0.  1.
</event>
<event>
 5   0  0.1101474E-07  0.4008819E+04  0.7818609E-02  0.8002770E-01
        2   -1    0    0  501    0  0.00000000000E+00  0.00000000000E+00  0.15903449126E+04  0.15903449126E+04  0.25500000920E-02 0. -1.
       -2   -1    0    0    0  501  0.00000000000E+00  0.00000000000E+00 -0.25262800654E+04  0.25262800654E+04  0.25500000920E-02 0.  1.
    10030    2    1    2    0    0  0.00000000000E+00  0.00000000000E+00 -0.93593515278E+03  0.41166249780E+04  0.40088186039E+04 0.  0.
        5    1    3    3  502    0 -0.19454933559E+04 -0.47256884012E+03 -0.56736339550E+03  0.20809106226E+04  0.46999998093E+01 0. -1.
       -5    1    3    3    0  502  0.19454933559E+04  0.47256884012E+03 -0.36857175728E+03  0.20357143554E+04  0.46999998093E+01 0.  1.
</event>
<event>
 5   0  0.1101474E-07  0.3963040E+04  0.7818609E-02  0.8012044E-01
        2   -1    0    0  501    0  0.00000000000E+00  0.00000000000E+00  0.18339669862E+04  0.18339669862E+04  0.25500000920E-02 0. -1.
       -2   -1    0    0    0  501  0.00000000000E+00  0.00000000000E+00 -0.21409442052E+04  0.21409442052E+04  0.25500000920E-02 0.  1.
    10030    2    1    2    0    0  0.00000000000E+00  0.00000000000E+00 -0.30697721897E+03  0.39749111914E+04  0.39630397382E+04 0.  0.
        5    1    3    3  502    0  0.15049215675E+04  0.28184418125E+03  0.11081242351E+04  0.18900228774E+04  0.46999998093E+01 0. -1.
       -5    1    3    3    0  502 -0.15049215675E+04 -0.28184418125E+03 -0.14151014540E+04  0.20848883140E+04  0.46999998093E+01 0.  1.
</event>
<event>
 5   0  0.1095903E-07  0.3993469E+04  0.7818609E-02  0.8005865E-01
        2   -1    0    0  501    0  0.00000000000E+00  0.00000000000E+00  0.21428077546E+04  0.21428077546E+04  0.25500000920E-02 0.  1.
       -2   -1    0    0    0  501  0.00000000000E+00  0.00000000000E+00 -0.18606185262E+04  0.18606185262E+04  0.25500000920E-02 0. -1.
    10030    2    1    2    0    0  0.00000000000E+00  0.00000000000E+00  0.28218922837E+03  0.40034262808E+04  0.39934685707E+04 0.  0.
        3    1    3    3  502    0  0.74854681944E+03  0.14240890948E+04  0.13266658668E+04  0.20852804184E+04  0.10100000352E+00 0.  1.
       -3    1    3    3    0  502 -0.74854681944E+03 -0.14240890948E+04 -0.10444766385E+04  0.19181458624E+04  0.10100000352E+00 0. -1.
</event>
<event>
 5   0  0.1073271E-07  0.4020869E+04  0.7818609E-02  0.8000350E-01
       -2   -1    0    0    0  501  0.00000000000E+00  0.00000000000E+00  0.17987848247E+04  0.17987848247E+04  0.25500000920E-02 0. -1.
        2   -1    0    0  501    0  0.00000000000E+00  0.00000000000E+00 -0.22469873912E+04  0.22469873912E+04  0.25500000920E-02 0.  1.
    10030    2    1    2    0    0  0.00000000000E+00  0.00000000000E+00 -0.44820256657E+03  0.40457722159E+04  0.40208689710E+04 0.  0.
        1    1    3    3  502    0  0.18711169073E+04 -0.43967829608E+03 -0.81720206931E+03  0.20885915605E+04  0.50400001928E-02 0.  1.
       -1    1    3    3    0  502 -0.18711169073E+04  0.43967829608E+03  0.36899950274E+03  0.19571806554E+04  0.50400001928E-02 0. -1.
</event>
<event>
 5   0  0.3399500E-08  0.4005070E+04  0.7818609E-02  0.8003525E-01
        1   -1    0    0  501    0  0.00000000000E+00  0.00000000000E+00  0.25646647131E+04  0.25646647131E+04  0.50400001928E-02 0.  1.
       -1   -1    0    0    0  501  0.00000000000E+00  0.00000000000E+00 -0.15636143116E+04  0.15636143116E+04  0.50400001928E-02 0. -1.
    10030    2    1    2    0    0  0.00000000000E+00  0.00000000000E+00  0.10010504015E+04  0.41282790247E+04  0.40050700118E+04 0.  0.
        5    1    3    3  502    0  0.69043137541E+03 -0.11715207987E+04  0.20157709973E+04  0.24315656005E+04  0.46999998093E+01 0.  1.
       -5    1    3    3    0  502 -0.69043137541E+03  0.11715207987E+04 -0.10147205959E+04  0.16967134242E+04  0.46999998093E+01 0. -1.
</event>
<event>
 5   0  0.3399500E-08  0.3948295E+04  0.7818609E-02  0.8015059E-01
        1   -1    0    0  501    0  0.00000000000E+00  0.00000000000E+00  0.18614559846E+04  0.18614559846E+04  0.50400001928E-02 0. -1.
       -1   -1    0    0    0  501  0.00000000000E+00  0.00000000000E+00 -0.20936615730E+04  0.20936615730E+04  0.50400001928E-02 0.  1.
    10030    2    1    2    0    0  0.00000000000E+00  0.00000000000E+00 -0.23220558838E+03  0.39551175577E+04  0.39482952599E+04 0.  0.
        3    1    3    3  502    0 -0.97664622850E+03  0.49228524077E+03  0.15302321465E+04  0.18809021895E+04  0.10100000352E+00 0. -1.
       -3    1    3    3    0  502  0.97664622850E+03 -0.49228524077E+03 -0.17624377349E+04  0.20742153682E+04  0.10100000352E+00 0.  1.
</event>
<event>
 5   0  0.1087688E-07  0.4000230E+04  0.7818609E-02  0.8004500E-01
        2   -1    0    0  501    0  0.00000000000E+00  0.00000000000E+00  0.17244981088E+04  0.17244981088E+04  0.25500000920E-02 0.  1.
       -2   -1    0    0    0  501  0.00000000000E+00  0.00000000000E+00 -0.23197821309E+04  0.23197821309E+04  0.25500000920E-02 0. -1.
    10030    2    1    2    0    0  0.00000000000E+00  0.00000000000E+00 -0.59528402214E+03  0.40442802397E+04  0.40002299422E+04 0.  0.
        2    1    3    3  502    0 -0.90396311412E+02 -0.11543825228E+04 -0.19464563136E+04  0.22648317118E+04  0.25500000920E-02 0. -1.
       -2    1    3    3    0  502  0.90396311412E+02  0.11543825228E+04  0.13511722915E+04  0.17794485279E+04  0.25500000920E-02 0.  1.
</event>
<event>
 5   0  0.3399500E-08  0.4077601E+04  0.7818609E-02  0.7989072E-01
        1   -1    0    0  501    0  0.00000000000E+00  0.00000000000E+00  0.14330216372E+04  0.14330216372E+04  0.50400001928E-02 0. -1.
       -1   -1    0    0    0  501  0.00000000000E+00  0.00000000000E+00 -0.29006595582E+04  0.29006595582E+04  0.50400001928E-02 0.  1.
    10030    2    1    2    0    0  0.00000000000E+00  0.00000000000E+00 -0.14676379210E+04  0.43336811954E+04  0.40776012110E+04 0.  0.
        2    1    3    3  502    0 -0.78065714113E+03  0.13141621906E+04 -0.21677191813E+04  0.26524430784E+04  0.25500000920E-02 0.  1.
       -2    1    3    3    0  502  0.78065714113E+03 -0.13141621906E+04  0.70008126028E+03  0.16812381170E+04  0.25500000920E-02 0. -1.
</event>
<event>
 5   0  0.1073271E-07  0.4003596E+04  0.7818609E-02  0.8003822E-01
        2   -1    0    0  501    0  0.00000000000E+00  0.00000000000E+00  0.29104907750E+04  0.29104907750E+04  0.25500000920E-02 0. -1.
       -2   -1    0    0    0  501  0.00000000000E+00  0.00000000000E+00 -0.13768105157E+04  0.13768105157E+04  0.25500000920E-02 0.  1.
    10030    2    1    2    0    0  0.00000000000E+00  0.00000000000E+00  0.15336802594E+04  0.42873012907E+04  0.40035955364E+04 0.  0.
        1    1    3    3  502    0 -0.18164974038E+04 -0.73476212761E+03  0.12053137716E+04  0.23005041817E+04  0.50400001928E-02 0.  1.
       -1    1    3    3    0  502  0.18164974038E+04  0.73476212761E+03  0.32836648781E+03  0.19867971090E+04  0.50400001928E-02 0. -1.
</event>
<event>
 5   0  0.1101474E-07  0.4010000E+04  0.7818609E-02  0.8002532E-01
       -2   -1    0    0    0  501  0.00000000000E+00  0.00000000000E+00  0.26221325409E+04  0.26221325410E+04  0.25500000920E-02 0. -1.
        2   -1    0    0  501    0  0.00000000000E+00  0.00000000000E+00 -0.15331129383E+04  0.15331129383E+04  0.25500000920E-02 0.  1.
    10030    2    1    2    0    0  0.00000000000E+00  0.00000000000E+00  0.10890196027E+04  0.41552454792E+04  0.40100001618E+04 0.  0.
        5    1    3    3  502    0  0.14371864719E+04 -0.67116564285E+03 -0.72630206364E+03  0.17445644307E+04  0.46999998093E+01 0.  1.
       -5    1    3    3    0  502 -0.14371864719E+04  0.67116564285E+03  0.18153216663E+04  0.24106810485E+04  0.46999998093E+01 0. -1.
</event>
<event>
 5   0  0.3399500E-08  0.3878408E+04  0.7818609E-02  0.8029535E-01
        1   -1    0    0  501    0  0.00000000000E+00  0.00000000000E+00  0.18545942729E+04  0.18545942729E+04  0.50400001928E-02 0.  1.
       -1   -1    0    0    0  501  0.00000000000E+00  0.00000000000E+00 -0.20276735049E+04  0.20276735049E+04  0.50400001928E-02 0. -1.
    10030    2    1    2    0    0  0.00000000000E+00  0.00000000000E+00 -0.17307923196E+03  0.38822677778E+04  0.38784077504E+04 0.  0.
        5    1    3    3  502    0  0.16179801770E+04 -0.63625092867E+03  0.77327655544E+03  0.19028015710E+04  0.46999998093E+01 0.  1.
       -5    1    3    3    0  502 -0.16179801770E+04  0.63625092867E+03 -0.94635578741E+03  0.19794662068E+04  0.46999998093E+01 0. -1.
</event>
<event>
 5   0  0.3399500E-08  0.4001429E+04  0.7818609E-02  0.8004258E-01
       -1   -1    0    0    0  501  0.00000000000E+00  0.00000000000E+00  0.24995957557E+04  0.24995957557E+04  0.50400001928E-02 0.  1.
        1   -1    0    0  501    0  0.00000000000E+00  0.00000000000E+00 -0.16014020665E+04  0.16014020665E+04  0.50400001928E-02 0. -1.
    10030    2    1    2    0    0  0.00000000000E+00  0.00000000000E+00  0.89819368916E+03  0.41009978222E+04  0.40014286491E+04 0.  0.
        5    1    3    3  502    0  0.11509926224E+04 -0.13683018708E+04  0.13690983731E+04  0.22519961083E+04  0.46999998093E+01 0.  1.
       -5    1    3    3    0  502 -0.11509926224E+04  0.13683018708E+04 -0.47090468392E+03  0.18490017139E+04  0.46999998093E+01 0. -1.
</event>
<event>
 5   0  0.1073271E-07  0.3983804E+04  0.7818609E-02  0.8007822E-01
       -2   -1    0    0    0  501  0.00000000000E+00  0.00000000000E+00  0.18872453549E+04  0.18872453549E+04  0.25500000920E-02 0.  1.
        2   -1    0    0  501    0  0.00000000000E+00  0.00000000000E+00 -0.21023620894E+04  0.21023620894E+04  0.25500000920E-02 0. -1.
    10030    2    1    2    0    0  0.00000000000E+00  0.00000000000E+00 -0.21511673458E+03  0.39896074443E+04  0.39838037540E+04 0.  0.
        1    1    3    3  502    0  0.57146869354E+03  0.14765107040E+04  0.11029261352E+04  0.19295352773E+04  0.50400001928E-02 0.  1.
       -1    1    3    3    0  502 -0.57146869354E+03 -0.14765107040E+04 -0.13180428698E+04  0.20600721670E+04  0.50400001928E-02 0. -1.
</event>
<event>
 5   0  0.1095109E-07  0.4005631E+04  0.7818609E-02  0.8003412E-01
        2   -1    0    0  501    0  0.00000000000E+00  0.00000000000E+00  0.24188443181E+04  0.24188443181E+04  0.25500000920E-02 0. -1.
       -2   -1    0    0    0  501  0.00000000000E+00  0.00000000000E+00 -0.16583414557E+04  0.16583414557E+04  0.25500000920E-02 0.  1.
    10030    2    1    2    0    0  0.00000000000E+00  0.00000000000E+00  0.76050286246E+03  0.40771857738E+04  0.40056309404E+04 0.  0.
        4    1    3    3  502    0 -0.64060610985E+03 -0.17768169338E+04 -0.29784251288E+03  0.19121104517E+04  0.12699999809E+01 0.  1.
       -4    1    3    3    0  502  0.64060610985E+03  0.17768169338E+04  0.10583453753E+04  0.21650753221E+04  0.12699999809E+01 0. -1.
</event>
<event>
 5   0  0.3399500E-08  0.3952971E+04  0.7818609E-02  0.8014102E-01
       -1   -1    0    0    0  501  0.00000000000E+00  0.00000000000E+00  0.34647273211E+04  0.34647273211E+04  0.50400001928E-02 0. -1.
        1   -1    0    0  501    0  0.00000000000E+00  0.00000000000E+00 -0.11275041551E+04  0.11275041551E+04  0.50400001928E-02 0.  1.
    10030    2    1    2    0    0  0.00000000000E+00  0.00000000000E+00  0.23372231660E+04  0.45922314762E+04  0.39529707568E+04 0.  0.
        2    1    3    3  502    0 -0.14844250430E+03 -0.19517788662E+04  0.14868000606E+04  0.24580582458E+04  0.25500000920E-02 0. -1.
       -2    1    3    3    0  502  0.14844250430E+03  0.19517788662E+04  0.85042310543E+03  0.21341732305E+04  0.25500000920E-02 0.  1.
</event>
<event>
 5   0  0.3399500E-08  0.4027514E+04  0.7818609E-02  0.7999019E-01
       -1   -1    0    0    0  501  0.00000000000E+00  0.00000000000E+00  0.22999735591E+04  0.22999735591E+04  0.50400001928E-02 0.  1.
        1   -1    0    0  501    0  0.00000000000E+00  0.00000000000E+00 -0.17631579086E+04  0.17631579086E+04  0.50400001928E-02 0. -1.
    10030    2    1    2    0    0  0.00000000000E+00  0.00000000000E+00  0.53681565052E+03  0.40631314678E+04  0.40275136600E+04 0.  0.
        4    1    3    3  502    0 -0.13981505593E+04  0.14277791355E+04  0.51927685185E+03  0.20647102237E+04  0.12699999809E+01 0.  1.
       -4    1    3    3    0  502  0.13981505593E+04 -0.14277791355E+04  0.17538798672E+02  0.19984212440E+04  0.12699999809E+01 0. -1.
</event>
<event>
 5   0  0.1095903E-07  0.4011378E+04  0.7818609E-02  0.8002255E-01
        2   -1    0    0  501    0  0.00000000000E+00  0.00000000000E+00  0.26477709396E+04  0.26477709396E+04  0.25500000920E-02 0.  1.
       -2   -1    0    0    0  501  0.00000000000E+00  0.00000000000E+00 -0.15193114666E+04  0.15193114666E+04  0.25500000920E-02 0. -1.
    10030    2    1    2    0    0  0.00000000000E+00  0.00000000000E+00  0.11284594730E+04  0.41670824063E+04  0.40113781919E+04 0.  0.
        3    1    3    3  502    0 -0.18768451971E+03 -0.97694969112E+03 -0.12449602506E+04  0.15936066685E+04  0.10100000352E+00 0. -1.
       -3    1    3    3    0  502  0.18768451971E+03  0.97694969112E+03  0.23734197237E+04  0.25734757378E+04  0.10100000352E+00 0.  1.
</event>
<event>
 5   0  0.3399500E-08  0.4115677E+04  0.7818609E-02  0.7981609E-01
        1   -1    0    0  501    0  0.00000000000E+00  0.00000000000E+00  0.17662750846E+04  0.17662750846E+04  0.50400001928E-02 0. -1.
       -1   -1    0    0    0  501  0.00000000000E+00  0.00000000000E+00 -0.23975310623E+04  0.23975310623E+04  0.50400001928E-02 0.  1.
    10030    2    1    2    0    0  0.00000000000E+00  0.00000000000E+00 -0.63125597765E+03  0.41638061469E+04  0.41156770427E+04 0.  0.
        1    1    3    3  502    0 -0.50341265889E+03  0.13246187960E+04  0.11940216906E+04  0.18530318555E+04  0.50400001928E-02 0. -1.
       -1    1    3    3    0  502  0.50341265889E+03 -0.13246187960E+04 -0.18252776682E+04  0.23107742914E+04  0.50400001928E-02 0.  1.
</event>
<event>
 5   0  0.1101474E-07  0.4000834E+04  0.7818609E-02  0.8004378E-01
        2   -1    0    0  501    0  0.00000000000E+00  0.00000000000E+00  0.23330063136E+04  0.23330063136E+04  0.25500000920E-02 0.  1.
       -2   -1    0    0    0  501  0.00000000000E+00  0.00000000000E+00 -0.17152412821E+04  0.17152412821E+04  0.25500000920E-02 0. -1.
    10030    2    1    2    0    0  0.00000000000E+00  0.00000000000E+00  0.61776503147E+03  0.40482475957E+04  0.40008342833E+04 0.  0.
        5    1    3    3  502    0 -0.17759764171E+04 -0.74956153232E+03 -0.23197228357E+03  0.19415890284E+04  0.46999998093E+01 0. -1.
       -5    1    3    3    0  502  0.17759764171E+04  0.74956153232E+03  0.84973731504E+03  0.21066585673E+04  0.46999998093E+01 0.  1.
</event>
<event>
 5   0  0.3399500E-08  0.3981783E+04  0.7818609E-02  0.8008232E-01
       -1   -1    0    0    0  501  0.00000000000E+00  0.00000000000E+00  0.15387398360E+04  0.15387398360E+04  0.50400001928E-02 0.  1.
        1   -1    0    0  501    0  0.00000000000E+00  0.00000000000E+00 -0.25759058990E+04  0.25759058990E+04  0.50400001928E-02 0. -1.
    10030    2    1    2    0    0  0.00000000000E+00  0.00000000000E+00 -0.10371660630E+04  0.41146457350E+04  0.39817830280E+04 0.  0.
        2    1    3    3  502    0 -0.14022649347E+04 -0.22526751894E+03  0.92316171658E+03  0.16939067144E+04  0.25500000920E-02 0.  1.
       -2    1    3    3    0  502  0.14022649347E+04  0.22526751894E+03 -0.19603277796E+04  0.24207390206E+04  0.25500000920E-02 0. -1.
</event>
<event>
 5   0  0.1073271E-07  0.3899932E+04  0.7818609E-02  0.8025043E-01
       -2   -1    0    0    0  501  0.00000000000E+00  0.00000000000E+00  0.22459523659E+04  0.22459523659E+04  0.25500000920E-02 0.  1.
        2   -1    0    0  501    0  0.00000000000E+00  0.00000000000E+00 -0.16929868908E+04  0.16929868908E+04  0.25500000920E-02 0. -1.
    10030    2    1    2    0    0  0.00000000000E+00  0.00000000000E+00  0.55296547515E+03  0.39389392567E+04  0.38999322623E+04 0.  0.
        1    1    3    3  502    0 -0.36884023678E+03  0.27627802873E+03 -0.16371965493E+04  0.17008189823E+04  0.50400001928E-02 0. -1.
       -1    1    3    3    0  502  0.36884023678E+03 -0.27627802873E+03  0.21901620244E+04  0.22381202744E+04  0.50400001928E-02 0.  1.
</event>
<event>
 5   0  0.1087688E-07  0.4015245E+04  0.7818609E-02  0.8001478E-01
       -2   -1    0    0    0  501  0.00000000000E+00  0.00000000000E+00  0.30851449207E+04  0.30851449207E+04  0.25500000920E-02 0.  1.
        2   -1    0    0  501    0  0.00000000000E+00  0.00000000000E+00 -0.13064368950E+04  0.13064368950E+04  0.25500000920E-02 0. -1.
    10030    2    1    2    0    0  0.00000000000E+00  0.00000000000E+00  0.17787080256E+04  0.43915818157E+04  0.40152445260E+04 0.  0.
        2    1    3    3  502    0 -0.32002355824E+03  0.28739170567E+03 -0.12554496250E+04  0.13270881023E+04  0.25500000920E-02 0. -1.
       -2    1    3    3    0  502  0.32002355824E+03 -0.28739170567E+03  0.30341576507E+04  0.30644937134E+04  0.25500000920E-02 0.  1.
</event>
<event>
 5   0  0.3399500E-08  0.3960332E+04  0.7818609E-02  0.8012597E-01
       -1   -1    0    0    0  501  0.00000000000E+00  0.00000000000E+00  0.15411792461E+04  0.15411792461E+04  0.50400001928E-02 0.  1.
        1   -1    0    0  501    0  0.00000000000E+00  0.00000000000E+00 -0.25441927640E+04  0.25441927640E+04  0.50400001928E-02 0. -1.
    10030    2    1    2    0    0  0.00000000000E+00  0.00000000000E+00 -0.10030135179E+04  0.40853720101E+04  0.39603318477E+04 0.  0.
        4    1    3    3  502    0  0.21550374520E+03  0.15027609275E+04 -0.18129941957E+04  0.23646737272E+04  0.12699999809E+01 0. -1.
       -4    1    3    3    0  502 -0.21550374520E+03 -0.15027609275E+04  0.80998067779E+03  0.17206982829E+04  0.12699999809E+01 0.  1.
</event>
<event>
 5   0  0.1095109E-07  0.3618769E+04  0.7818609E-02  0.8086206E-01
        2   -1    0    0  501    0  0.00000000000E+00  0.00000000000E+00  0.28704210702E+04  0.28704210702E+04  0.25500000920E-02 0. -1.
       -2   -1    0    0    0  501  0.00000000000E+00  0.00000000000E+00 -0.11405548673E+04  0.11405548673E+04  0.25500000920E-02 0.  1.
    10030    2    1    2    0    0  0.00000000000E+00  0.00000000000E+00  0.17298662029E+04  0.40109759375E+04  0.36187692509E+04 0.  0.
        4    1    3    3  502    0  0.12134707103E+04 -0.74447146453E+03 -0.37284748663E+03  0.14716540991E+04  0.12699999809E+01 0.  1.
       -4    1    3    3    0  502 -0.12134707103E+04  0.74447146453E+03  0.21027136895E+04  0.25393218384E+04  0.12699999809E+01 0. -1.
</event>
<event>
 5   0  0.1101474E-07  0.4007509E+04  0.7818609E-02  0.8003034E-01
        2   -1    0    0  501    0  0.00000000000E+00  0.00000000000E+00  0.26776891890E+04  0.26776891890E+04  0.25500000920E-02 0.  1.
       -2   -1    0    0    0  501  0.00000000000E+00  0.00000000000E+00 -0.14994390213E+04  0.14994390213E+04  0.25500000920E-02 0. -1.
    10030    2    1    2    0    0  0.00000000000E+00  0.00000000000E+00  0.11782501677E+04  0.41771282102E+04  0.40075087807E+04 0.  0.
        5    1    3    3  502    0  0.14455571317E+04  0.13862695841E+04  0.65193144682E+03  0.21062800104E+04  0.46999998093E+01 0. -1.
       -5    1    3    3    0  502 -0.14455571317E+04 -0.13862695841E+04  0.52631872086E+03  0.20708481998E+04  0.46999998093E+01 0.  1.
</event>
<event>
 5   0  0.3399500E-08  0.3985469E+04  0.7818609E-02  0.8007484E-01
        1   -1    0    0  501    0  0.00000000000E+00  0.00000000000E+00  0.20694491545E+04  0.20694491545E+04  0.50400001928E-02 0.  1.
       -1   -1    0    0    0  501  0.00000000000E+00  0.00000000000E+00 -0.19188634716E+04  0.19188634716E+04  0.50400001928E-02 0. -1.
    10030    2    1    2    0    0  0.00000000000E+00  0.00000000000E+00  0.15058568289E+03  0.39883126261E+04  0.39854688000E+04 0.  0.
        1    1    3    3  502    0 -0.15089073423E+04  0.94810958745E+03 -0.81712666438E+03  0.19604614618E+04  0.50400001928E-02 0. -1.
       -1    1    3    3    0  502  0.15089073423E+04 -0.94810958745E+03  0.96771234726E+03  0.20278511643E+04  0.50400001928E-02 0.  1.
</event>
<event>
 5   0  0.1095109E-07  0.3986961E+04  0.7818609E-02  0.8007182E-01
        2   -1    0    0  501    0  0.00000000000E+00  0.00000000000E+00  0.27770325272E+04  0.27770325272E+04  0.25500000920E-02 0.  1.
       -2   -1    0    0    0  501  0.00000000000E+00  0.00000000000E+00 -0.14310112040E+04  0.14310112040E+04  0.25500000920E-02 0. -1.
    10030    2    1    2    0    0  0.00000000000E+00  0.00000000000E+00  0.13460213233E+04  0.42080437312E+04  0.39869610784E+04 0.  0.
        4    1    3    3  502    0 -0.13521412906E+04  0.80238213299E+02  0.22167283576E+04  0.25978087815E+04  0.12699999809E+01 0.  1.
       -4    1    3    3    0  502  0.13521412906E+04 -0.80238213299E+02 -0.87070703437E+03  0.16102349497E+04  0.12699999809E+01 0. -1.
</event>
<event>
 5   0  0.3399500E-08  0.3993813E+04  0.7818609E-02  0.8005796E-01
       -1   -1    0    0    0  501  0.00000000000E+00  0.00000000000E+00  0.15982202500E+04  0.15982202501E+04  0.50400001928E-02 0. -1.
        1   -1    0    0  501    0  0.00000000000E+00  0.00000000000E+00 -0.24950477516E+04  0.24950477517E+04  0.50400001928E-02 0.  1.
    10030    2    1    2    0    0  0.00000000000E+00  0.00000000000E+00 -0.89682750160E+03  0.40932680017E+04  0.39938131361E+04 0.  0.
        5    1    3    3  502    0 -0.16573816747E+04 -0.75642570546E+02 -0.15873831052E+04  0.22961800946E+04  0.46999998093E+01 0.  1.
       -5    1    3    3    0  502  0.16573816747E+04  0.75642570546E+02  0.69055560359E+03  0.17970879071E+04  0.46999998093E+01 0. -1.
</event>
<event>
 5   0  0.3399500E-08  0.4096690E+04  0.7818609E-02  0.7985320E-01
       -1   -1    0    0    0  501  0.00000000000E+00  0.00000000000E+00  0.27060032080E+04  0.27060032080E+04  0.50400001928E-02 0. -1.
        1   -1    0    0  501    0  0.00000000000E+00  0.00000000000E+00 -0.15505219927E+04  0.15505219927E+04  0.50400001928E-02 0.  1.
    10030    2    1    2    0    0  0.00000000000E+00  0.00000000000E+00  0.11554812152E+04  0.42565252007E+04  0.40966901207E+04 0.  0.
        2    1    3    3  502    0  0.35444773638E+03 -0.45643286064E+03  0.26195460608E+04  0.26825334516E+04  0.25500000920E-02 0. -1.
       -2    1    3    3    0  502 -0.35444773638E+03  0.45643286064E+03 -0.14640648456E+04  0.15739917491E+04  0.25500000920E-02 0.  1.
</event>
<event>
 5   0  0.3399500E-08  0.3957972E+04  0.7818609E-02  0.8013079E-01
        1   -1    0    0  501    0  0.00000000000E+00  0.00000000000E+00  0.14374074703E+04  0.14374074703E+04  0.50400001928E-02 0. -1.
       -1   -1    0    0    0  501  0.00000000000E+00  0.00000000000E+00 -0.27246172845E+04  0.27246172846E+04  0.50400001928E-02 0.  1.
    10030    2    1    2    0    0  0.00000000000E+00  0.00000000000E+00 -0.12872098143E+04  0.41620247548E+04  0.39579718233E+04 0.  0.
        2    1    3    3  502    0  0.16281946505E+04  0.11054742236E+04 -0.86240455413E+03  0.21486816176E+04  0.25500000920E-02 0.  1.
       -2    1    3    3    0  502 -0.16281946505E+04 -0.11054742236E+04 -0.42480526015E+03  0.20133431372E+04  0.25500000920E-02 0. -1.
</event>
<event>
 5   0  0.3399500E-08  0.3994483E+04  0.7818609E-02  0.8005660E-01
       -1   -1    0    0    0  501  0.00000000000E+00  0.00000000000E+00  0.14302911972E+04  0.14302911973E+04  0.50400001928E-02 0. -1.
        1   -1    0    0  501    0  0.00000000000E+00  0.00000000000E+00 -0.27889243291E+04  0.27889243291E+04  0.50400001928E-02 0.  1.
    10030    2    1    2    0    0  0.00000000000E+00  0.00000000000E+00 -0.13586331318E+04  0.42192155264E+04  0.39944831544E+04 0.  0.
        3    1    3    3  502    0  0.88999830840E+03 -0.99299074713E+03  0.89122845987E+03  0.16038752416E+04  0.10100000352E+00 0. -1.
       -3    1    3    3    0  502 -0.88999830840E+03  0.99299074713E+03 -0.22498615917E+04  0.26153402847E+04  0.10100000352E+00 0.  1.
</event>
<event>
 5   0  0.3399500E-08  0.4000307E+04  0.7818609E-02  0.8004485E-01
        3   -1    0    0  501    0  0.00000000000E+00  0.00000000000E+00  0.20136043107E+04  0.20136043132E+04  0.10100000352E+00 0. -1.
       -3   -1    0    0    0  501  0.00000000000E+00  0.00000000000E+00 -0.19867926504E+04  0.19867926529E+04  0.10100000352E+00 0.  1.
    10030    2    1    2    0    0  0.00000000000E+00  0.00000000000E+00  0.26811660301E+02  0.40003969662E+04  0.40003071159E+04 0.  0.
        4    1    3    3  502    0  0.20815829603E+03  0.16049727495E+04  0.11887386735E+04  0.20080758575E+04  0.12699999809E+01 0. -1.
       -4    1    3    3    0  502 -0.20815829603E+03 -0.16049727495E+04 -0.11619270132E+04  0.19923211086E+04  0.12699999809E+01 0.  1.
</event>
<event>
 5   0  0.3399500E-08  0.4024097E+04  0.7818609E-02  0.7999703E-01
       -1   -1    0    0    0  501  0.00000000000E+00  0.00000000000E+00  0.14574530987E+04  0.14574530987E+04  0.50400001928E-02 0.  1.
        1   -1    0    0  501    0  0.00000000000E+00  0.00000000000E+00 -0.27776808918E+04  0.27776808918E+04  0.50400001928E-02 0. -1.
    10030    2    1    2    0    0  0.00000000000E+00  0.00000000000E+00 -0.13202277932E+04  0.42351339905E+04  0.40240972269E+04 0.  0.
        2    1    3    3  502    0  0.25673011394E+03  0.19836396098E+03 -0.27499707495E+04  0.27690427472E+04  0.25500000920E-02 0. -1.
       -2    1    3    3    0  502 -0.25673011394E+03 -0.19836396098E+03  0.14297429564E+04  0.14660912433E+04  0.25500000920E-02 0.  1.
</event>
<event>
 5   0  0.1095109E-07  0.3998096E+04  0.7818609E-02  0.8004931E-01
       -2   -1    0    0    0  501  0.00000000000E+00  0.00000000000E+00  0.29060151130E+04  0.29060151130E+04  0.25500000920E-02 0.  1.
        2   -1    0    0  501    0  0.00000000000E+00  0.00000000000E+00 -0.13751451314E+04  0.13751451314E+04  0.25500000920E-02 0. -1.
    10030    2    1    2    0    0  0.00000000000E+00  0.00000000000E+00  0.15308699816E+04  0.42811602444E+04  0.39980958139E+04 0.  0.
        4    1    3    3  502    0  0.26175851430E+03  0.19758962427E+04  0.60125850616E+03  0.20818734077E+04  0.12699999809E+01 0. -1.
       -4    1    3    3    0  502 -0.26175851430E+03 -0.19758962427E+04  0.92961147542E+03  0.21992868366E+04  0.12699999809E+01 0.  1.
</event>
<event>
 5   0  0.1095109E-07  0.4013273E+04  0.7818609E-02  0.8001874E-01
        2   -1    0    0  501    0  0.00000000000E+00  0.00000000000E+00  0.18941960157E+04  0.18941960157E+04  0.25500000920E-02 0. -1.
       -2   -1    0    0    0  501  0.00000000000E+00  0.00000000000E+00 -0.21257516442E+04  0.21257516442E+04  0.25500000920E-02 0.  1.
    10030    2    1    2    0    0  0.00000000000E+00  0.00000000000E+00 -0.23155562848E+03  0.40199476600E+04  0.40132731255E+04 0.  0.
        4    1    3    3  502    0 -0.54292843583E+03 -0.58319565819E+03  0.17289419953E+04  0.19037149204E+04  0.12699999809E+01 0. -1.
       -4    1    3    3    0  502  0.54292843583E+03  0.58319565819E+03 -0.19604976238E+04  0.21162327396E+04  0.12699999809E+01 0.  1.
</event>
<event>
 5   0  0.1073271E-07  0.3970665E+04  0.7818609E-02  0.8010491E-01
       -2   -1    0    0    0  501  0.00000000000E+00  0.00000000000E+00  0.17280996146E+04  0.17280996146E+04  0.25500000920E-02 0.  1.
        2   -1    0    0  501    0  0.00000000000E+00  0.00000000000E+00 -0.22808553689E+04  0.22808553689E+04  0.25500000920E-02 0. -1.
    10030    2    1    2    0    0  0.00000000000E+00  0.00000000000E+00 -0.55275575436E+03  0.40089549835E+04  0.39706650747E+04 0.  0.
        1    1    3    3  502    0  0.77945678170E+03  0.87901866353E+03 -0.18922229758E+04  0.22272706336E+04  0.50400001928E-02 0. -1.
       -1    1    3    3    0  502 -0.77945678170E+03 -0.87901866353E+03  0.13394672214E+04  0.17816843499E+04  0.50400001928E-02 0.  1.
</event>
<event>
 5   0  0.3399500E-08  0.4016484E+04  0.7818609E-02  0.8001230E-01
        1   -1    0    0  501    0  0.00000000000E+00  0.00000000000E+00  0.19342989398E+04  0.19342989398E+04  0.50400001928E-02 0. -1.
       -1   -1    0    0    0  501  0.00000000000E+00  0.00000000000E+00 -0.20850112775E+04  0.20850112775E+04  0.50400001928E-02 0.  1.
    10030    2    1    2    0    0  0.00000000000E+00  0.00000000000E+00 -0.15071233766E+03  0.40193102173E+04  0.40164835882E+04 0.  0.
        4    1    3    3  502    0 -0.74663239306E+03 -0.12275252844E+04 -0.14794670130E+04  0.20623051447E+04  0.12699999809E+01 0.  1.
       -4    1    3    3    0  502  0.74663239306E+03  0.12275252844E+04  0.13287546754E+04  0.19570050726E+04  0.12699999809E+01 0. -1.
</event>
<event>
 5   0  0.3399500E-08  0.4105798E+04  0.7818609E-02  0.7983537E-01
       -1   -1    0    0    0  501  0.00000000000E+00  0.00000000000E+00  0.14908427272E+04  0.14908427272E+04  0.50400001928E-02 0. -1.
        1   -1    0    0  501    0  0.00000000000E+00  0.00000000000E+00 -0.28268534973E+04  0.28268534973E+04  0.50400001928E-02 0.  1.
    10030    2    1    2    0    0  0.00000000000E+00  0.00000000000E+00 -0.13360107702E+04  0.43176962245E+04  0.41057978408E+04 0.  0.
        4    1    3    3  502    0 -0.15815703551E+04  0.20333222076E+03  0.69165849578E+03  0.17381317176E+04  0.12699999809E+01 0. -1.
       -4    1    3    3    0  502  0.15815703551E+04 -0.20333222076E+03 -0.20276692660E+04  0.25795645069E+04  0.12699999809E+01 0.  1.
</event>
<event>
 5   0  0.1101474E-07  0.4000206E+04  0.7818609E-02  0.8004505E-01
       -2   -1    0    0    0  501  0.00000000000E+00  0.00000000000E+00  0.25795107770E+04  0.25795107770E+04  0.25500000920E-02 0. -1.
        2   -1    0    0  501    0  0.00000000000E+00  0.00000000000E+00 -0.15508410022E+04  0.15508410022E+04  0.25500000920E-02 0.  1.
    10030    2    1    2    0    0  0.00000000000E+00  0.00000000000E+00  0.10286697749E+04  0.41303517792E+04  0.40002055340E+04 0.  0.
        5    1    3    3  502    0  0.10567727692E+04  0.16289325423E+04  0.10097354814E+04  0.21885560869E+04  0.46999998093E+01 0. -1.
       -5    1    3    3    0  502 -0.10567727692E+04 -0.16289325423E+04  0.18934293426E+02  0.19417956923E+04  0.46999998093E+01 0.  1.
</event>
<event>
 5   0  0.3399500E-08  0.3996902E+04  0.7818609E-02  0.8005172E-01
        3   -1    0    0  501    0  0.00000000000E+00  0.00000000000E+00  0.24245594091E+04  0.24245594112E+04  0.10100000352E+00 0. -1.
       -3   -1    0    0    0  501  0.00000000000E+00  0.00000000000E+00 -0.16472296768E+04  0.16472296799E+04  0.10100000352E+00 0.  1.
    10030    2    1    2    0    0  0.00000000000E+00  0.00000000000E+00  0.77732973231E+03  0.40717890911E+04  0.39969019114E+04 0.  0.
        2    1    3    3  502    0 -0.10245991855E+04  0.42052282365E+03 -0.13059818629E+04  0.17123759991E+04  0.25500000920E-02 0.  1.
       -2    1    3    3    0  502  0.10245991855E+04 -0.42052282365E+03  0.20833115952E+04  0.23594130920E+04  0.25500000920E-02 0. -1.
</event>
<event>
 5   0  0.1087688E-07  0.3937052E+04  0.7818609E-02  0.8017367E-01
        2   -1    0    0  501    0  0.00000000000E+00  0.00000000000E+00  0.23131380293E+04  0.23131380293E+04  0.25500000920E-02 0.  1.
       -2   -1    0    0    0  501  0.00000000000E+00  0.00000000000E+00 -0.16752545452E+04  0.16752545452E+04  0.25500000920E-02 0. -1.
    10030    2    1    2    0    0  0.00000000000E+00  0.00000000000E+00  0.63788348415E+03  0.39883925745E+04  0.39370521954E+04 0.  0.
        2    1    3    3  502    0 -0.78142544191E+03  0.10322935329E+04 -0.11832434465E+04  0.17539443301E+04  0.25500000920E-02 0. -1.
       -2    1    3    3    0  502  0.78142544191E+03 -0.10322935329E+04  0.18211269307E+04  0.22344482444E+04  0.25500000920E-02 0.  1.
</event>
<event>
 5   0  0.3399500E-08  0.4001286E+04  0.7818609E-02  0.8004287E-01
       -1   -1    0    0    0  501  0.00000000000E+00  0.00000000000E+00  0.27942855026E+04  0.27942855027E+04  0.50400001928E-02 0. -1.
        1   -1    0    0  501    0  0.00000000000E+00  0.00000000000E+00 -0.14324135664E+04  0.14324135664E+04  0.50400001928E-02 0.  1.
    10030    2    1    2    0    0  0.00000000000E+00  0.00000000000E+00  0.13618719363E+04  0.42266990690E+04  0.40012860244E+04 0.  0.
        3    1    3    3  502    0 -0.21657098640E+03  0.13383065065E+04 -0.87320738423E+03  0.16125937007E+04  0.10100000352E+00 0.  1.
       -3    1    3    3    0  502  0.21657098640E+03 -0.13383065065E+04  0.22350793205E+04  0.26141053683E+04  0.10100000352E+00 0. -1.
</event>
<event>
 5   0  0.1095903E-07  0.4006115E+04  0.7818609E-02  0.8003314E-01
        2   -1    0    0  501    0  0.00000000000E+00  0.00000000000E+00  0.24338860792E+04  0.24338860792E+04  0.25500000920E-02 0. -1.
       -2   -1    0    0    0  501  0.00000000000E+00  0.00000000000E+00 -0.16484906833E+04  0.16484906833E+04  0.25500000920E-02 0.  1.
    10030    2    1    2    0    0  0.00000000000E+00  0.00000000000E+00  0.78539539586E+03  0.40823767625E+04  0.40061145894E+04 0.  0.
        3    1    3    3  502    0 -0.17702116189E+04 -0.84151084224E+03 -0.28016088653E+02  0.19602486028E+04  0.10100000352E+00 0.  1.
       -3    1    3    3    0  502  0.17702116189E+04  0.84151084224E+03  0.81341148451E+03  0.21221281598E+04  0.10100000352E+00 0. -1.
</event>
<event>
 5   0  0.1095109E-07  0.3950868E+04  0.7818609E-02  0.8014532E-01
       -2   -1    0    0    0  501  0.00000000000E+00  0.00000000000E+00  0.17259659441E+04  0.17259659441E+04  0.25500000920E-02 0.  1.
        2   -1    0    0  501    0  0.00000000000E+00  0.00000000000E+00 -0.22609594393E+04  0.22609594393E+04  0.25500000920E-02 0. -1.
    10030    2    1    2    0    0  0.00000000000E+00  0.00000000000E+00 -0.53499349525E+03  0.39869253834E+04  0.39508677494E+04 0.  0.
        4    1    3    3  502    0  0.80085169790E+03  0.17084421257E+04 -0.85781371125E+03  0.20726755451E+04  0.12699999809E+01 0. -1.
       -4    1    3    3    0  502 -0.80085169790E+03 -0.17084421257E+04  0.32282021600E+03  0.19142498384E+04  0.12699999809E+01 0.  1.
</event>
<event>
 5   0  0.1095109E-07  0.4053392E+04  0.7818609E-02  0.7993861E-01
        2   -1    0    0  501    0  0.00000000000E+00  0.00000000000E+00  0.24243960992E+04  0.24243960992E+04  0.25500000920E-02 0. -1.
       -2   -1    0    0    0  501  0.00000000000E+00  0.00000000000E+00 -0.16942353064E+04  0.16942353064E+04  0.25500000920E-02 0.  1.
    10030    2    1    2    0    0  0.00000000000E+00  0.00000000000E+00  0.73016079281E+03  0.41186314056E+04  0.40533923906E+04 0.  0.
        4    1    3    3  502    0 -0.11652442959E+04 -0.13539245924E+04  0.13378764165E+04  0.22317753000E+04  0.12699999809E+01 0. -1.
       -4    1    3    3    0  502  0.11652442959E+04  0.13539245924E+04 -0.60771562371E+03  0.18868561056E+04  0.12699999809E+01 0.  1.
</event>
<event>
 5   0  0.3399500E-08  0.4045297E+04  0.7818609E-02  0.7995471E-01
       -1   -1    0    0    0  501  0.00000000000E+00  0.00000000000E+00  0.25835937235E+04  0.25835937235E+04  0.50400001928E-02 0. -1.
        1   -1    0    0  501    0  0.00000000000E+00  0.00000000000E+00 -0.15834947422E+04  0.15834947422E+04  0.50400001928E-02 0.  1.
    10030    2    1    2    0    0  0.00000000000E+00  0.00000000000E+00  0.10000989813E+04  0.41670884657E+04  0.40452970606E+04 0.  0.
        2    1    3    3  502    0  0.12202752228E+04  0.84642637355E+03  0.19145621511E+04  0.24230265074E+04  0.25500000920E-02 0.  1.
       -2    1    3    3    0  502 -0.12202752228E+04 -0.84642637355E+03 -0.91446316982E+03  0.17440619583E+04  0.25500000920E-02 0. -1.
</event>
<event>
 5   0  0.1073271E-07  0.4032100E+04  0.7818609E-02  0.7998102E-01
       -2   -1    0    0    0  501  0.00000000000E+00  0.00000000000E+00  0.27717307091E+04  0.27717307091E+04  0.25500000920E-02 0.  1.
        2   -1    0    0  501    0  0.00000000000E+00  0.00000000000E+00 -0.14663969711E+04  0.14663969711E+04  0.25500000920E-02 0. -1.
    10030    2    1    2    0    0  0.00000000000E+00  0.00000000000E+00  0.13053337381E+04  0.42381276802E+04  0.40320999573E+04 0.  0.
        1    1    3    3  502    0  0.10879049088E+04 -0.91430597732E+03  0.21557592962E+04  0.25820129074E+04  0.50400001928E-02 0.  1.
       -1    1    3    3    0  502 -0.10879049088E+04  0.91430597732E+03 -0.85042555814E+03  0.16561147728E+04  0.50400001928E-02 0. -1.
</event>
<event>
 5   0  0.3399500E-08  0.4004725E+04  0.7818609E-02  0.8003594E-01
       -1   -1    0    0    0  501  0.00000000000E+00  0.00000000000E+00  0.17905052196E+04  0.17905052196E+04  0.50400001928E-02 0. -1.
        1   -1    0    0  501    0  0.00000000000E+00  0.00000000000E+00 -0.22392876219E+04  0.22392876219E+04  0.50400001928E-02 0.  1.
    10030    2    1    2    0    0  0.00000000000E+00  0.00000000000E+00 -0.44878240232E+03  0.40297928415E+04  0.40047252966E+04 0.  0.
        3    1    3    3  502    0  0.24843239326E+03 -0.19197289482E+04  0.29104382501E+03  0.19574944206E+04  0.10100000352E+00 0. -1.
       -3    1    3    3    0  502 -0.24843239326E+03  0.19197289482E+04 -0.73982622733E+03  0.20722984209E+04  0.10100000352E+00 0.  1.
</event>
<event>
 5   0  0.3399500E-08  0.3993041E+04  0.7818609E-02  0.8005952E-01
       -3   -1    0    0    0  501  0.00000000000E+00  0.00000000000E+00  0.15599085699E+04  0.15599085732E+04  0.10100000352E+00 0.  1.
        3   -1    0    0  501    0  0.00000000000E+00  0.00000000000E+00 -0.25553387805E+04  0.25553387825E+04  0.10100000352E+00 0. -1.
    10030    2    1    2    0    0  0.00000000000E+00  0.00000000000E+00 -0.99543021056E+03  0.41152473556E+04  0.39930413839E+04 0.  0.
        3    1    3    3  502    0 -0.17929046288E+04  0.19618971741E+03  0.38470010959E+03  0.18441777565E+04  0.10100000352E+00 0. -1.
       -3    1    3    3    0  502  0.17929046288E+04 -0.19618971741E+03 -0.13801303202E+04  0.22710695991E+04  0.10100000352E+00 0.  1.
</event>
<event>
 5   0  0.1073271E-07  0.4020065E+04  0.7818609E-02  0.8000511E-01
       -2   -1    0    0    0  501  0.00000000000E+00  0.00000000000E+00  0.17835821457E+04  0.17835821457E+04  0.25500000920E-02 0. -1.
        2   -1    0    0  501    0  0.00000000000E+00  0.00000000000E+00 -0.22652338372E+04  0.22652338373E+04  0.25500000920E-02 0.  1.
    10030    2    1    2    0    0  0.00000000000E+00  0.00000000000E+00 -0.48165169156E+03  0.40488159829E+04  0.40200649885E+04 0.  0.
        1    1    3    3  502    0  0.17112955263E+04 -0.90779818287E+03 -0.78094545008E+03  0.20886612255E+04  0.50400001928E-02 0.  1.
       -1    1    3    3    0  502 -0.17112955263E+04  0.90779818287E+03  0.29929375852E+03  0.19601547574E+04  0.50400001928E-02 0. -1.
</event>
<event>
 5   0  0.3399500E-08  0.3983667E+04  0.7818609E-02  0.8007850E-01
       -1   -1    0    0    0  501  0.00000000000E+00  0.00000000000E+00  0.22255812377E+04  0.22255812377E+04  0.50400001928E-02 0. -1.
        1   -1    0    0  501    0  0.00000000000E+00  0.00000000000E+00 -0.17826354905E+04  0.17826354905E+04  0.50400001928E-02 0.  1.
    10030    2    1    2    0    0  0.00000000000E+00  0.00000000000E+00  0.44294574725E+03  0.40082167282E+04  0.39836667036E+04 0.  0.
        5    1    3    3  502    0 -0.11304882349E+04  0.16274759790E+04  0.18496418958E+02  0.19816775517E+04  0.46999998093E+01 0. -1.
       -5    1    3    3    0  502  0.11304882349E+04 -0.16274759790E+04  0.42444932830E+03  0.20265391765E+04  0.46999998093E+01 0.  1.
</event>
<event>
 5   0  0.3399500E-08  0.4124127E+04  0.7818609E-02  0.7979964E-01
        1   -1    0    0  501    0  0.00000000000E+00  0.00000000000E+00  0.20605475824E+04  0.20605475824E+04  0.50400001928E-02 0.  1.
       -1   -1    0    0    0  501  0.00000000000E+00  0.00000000000E+00 -0.20635806175E+04  0.20635806175E+04  0.50400001928E-02 0. -1.
    10030    2    1    2    0    0  0.00000000000E+00  0.00000000000E+00 -0.30330350478E+01  0.41241281999E+04  0.41241270846E+04 0.  0.
        5    1    3    3  502    0  0.12072878829E+04  0.35460928459E+03 -0.16351607961E+04  0.20632655418E+04  0.46999998093E+01 0. -1.
       -5    1    3    3    0  502 -0.12072878829E+04 -0.35460928459E+03  0.16321277611E+04  0.20608626581E+04  0.46999998093E+01 0.  1.
</event>
<event>
 5   0  0.3399500E-08  0.4022550E+04  0.7818609E-02  0.8000013E-01
        1   -1    0    0  501    0  0.00000000000E+00  0.00000000000E+00  0.25123634760E+04  0.25123634760E+04  0.50400001928E-02 0. -1.
       -1   -1    0    0    0  501  0.00000000000E+00  0.00000000000E+00 -0.16101281402E+04  0.16101281403E+04  0.50400001928E-02 0.  1.
    10030    2    1    2    0    0  0.00000000000E+00  0.00000000000E+00  0.90223533574E+03  0.41224916163E+04  0.40225500028E+04 0.  0.
        1    1    3    3  502    0 -0.17781309858E+04  0.71000113549E+03 -0.18012027210E+03  0.19230950906E+04  0.50400001928E-02 0.  1.
       -1    1    3    3    0  502  0.17781309858E+04 -0.71000113549E+03  0.10823556078E+04  0.21993965256E+04  0.50400001928E-02 0. -1.
</event>
<event>
 5   0  0.1101474E-07  0.4031554E+04  0.7818609E-02  0.7998211E-01
        2   -1    0    0  501    0  0.00000000000E+00  0.00000000000E+00  0.11668350817E+04  0.11668350817E+04  0.25500000920E-02 0. -1.
       -2   -1    0    0    0  501  0.00000000000E+00  0.00000000000E+00 -0.34823749118E+04  0.34823749118E+04  0.25500000920E-02 0.  1.
    10030    2    1    2    0    0  0.00000000000E+00  0.00000000000E+00 -0.23155398301E+04  0.46492099936E+04  0.40315541494E+04 0.  0.
        5    1    3    3  502    0  0.11123952140E+04 -0.16232192767E+04 -0.16618554930E+04  0.25756649048E+04  0.46999998093E+01 0. -1.
       -5    1    3    3    0  502 -0.11123952140E+04  0.16232192767E+04 -0.65368433711E+03  0.20735450887E+04  0.46999998093E+01 0.  1.
</event>
<event>
 5   0  0.1073271E-07  0.3987903E+04  0.7818609E-02  0.8006991E-01
       -2   -1    0    0    0  501  0.00000000000E+00  0.00000000000E+00  0.18276091920E+04  0.18276091920E+04  0.25500000920E-02 0.  1.
        2   -1    0    0  501    0  0.00000000000E+00  0.00000000000E+00 -0.21754341392E+04  0.21754341392E+04  0.25500000920E-02 0. -1.
    10030    2    1    2    0    0  0.00000000000E+00  0.00000000000E+00 -0.34782494719E+03  0.40030433312E+04  0.39879034238E+04 0.  0.
        1    1    3    3  502    0 -0.73839498706E+03 -0.14385413432E+04  0.99722811870E+03  0.18997611097E+04  0.50400001928E-02 0. -1.
       -1    1    3    3    0  502  0.73839498706E+03  0.14385413432E+04 -0.13450530659E+04  0.21032822215E+04  0.50400001928E-02 0.  1.
</event>
<event>
 5   0  0.3399500E-08  0.3983411E+04  0.7818609E-02  0.8007902E-01
       -1   -1    0    0    0  501  0.00000000000E+00  0.00000000000E+00  0.26993982065E+04  0.26993982065E+04  0.50400001928E-02 0. -1.
        1   -1    0    0  501    0  0.00000000000E+00  0.00000000000E+00 -0.14695461345E+04  0.14695461345E+04  0.50400001928E-02 0.  1.
    10030    2    1    2    0    0  0.00000000000E+00  0.00000000000E+00  0.12298520720E+04  0.41689443411E+04  0.39834106994E+04 0.  0.
        2    1    3    3  502    0 -0.47036957397E+03  0.21458344772E+03 -0.13980944643E+04  0.14906246085E+04  0.25500000920E-02 0.  1.
       -2    1    3    3    0  502  0.47036957397E+03 -0.21458344772E+03  0.26279465363E+04  0.26783197326E+04  0.25500000920E-02 0. -1.
</event>
<event>
 5   0  0.3399500E-08  0.3994717E+04  0.7818609E-02  0.8005613E-01
        1   -1    0    0  501    0  0.00000000000E+00  0.00000000000E+00  0.19842238838E+04  0.19842238838E+04  0.50400001928E-02 0. -1.
       -1   -1    0    0    0  501  0.00000000000E+00  0.00000000000E+00 -0.20105800719E+04  0.20105800719E+04  0.50400001928E-02 0.  1.
    10030    2    1    2    0    0  0.00000000000E+00  0.00000000000E+00 -0.26356188127E+02  0.39948039558E+04  0.39947170108E+04 0.  0.
        5    1    3    3  502    0  0.74883570364E+03  0.10894054554E+04  0.14841386196E+04  0.19875232551E+04  0.46999998093E+01 0. -1.
       -5    1    3    3    0  502 -0.74883570364E+03 -0.10894054554E+04 -0.15104948077E+04  0.20072807007E+04  0.46999998093E+01 0.  1.
</event>
<event>
 5   0  0.1095903E-07  0.4001557E+04  0.7818609E-02  0.8004233E-01
        2   -1    0    0  501    0  0.00000000000E+00  0.00000000000E+00  0.21556828722E+04  0.21556828722E+04  0.25500000920E-02 0. -1.
       -2   -1    0    0    0  501  0.00000000000E+00  0.00000000000E+00 -0.18570051997E+04  0.18570051997E+04  0.25500000920E-02 0.  1.
    10030    2    1    2    0    0  0.00000000000E+00  0.00000000000E+00  0.29867767249E+03  0.40126880718E+04  0.40015568483E+04 0.  0.
        3    1    3    3  502    0  0.62527746184E+03 -0.17567006832E+04 -0.57803750996E+03  0.19522030037E+04  0.10100000352E+00 0.  1.
       -3    1    3    3    0  502 -0.62527746184E+03  0.17567006832E+04  0.87671518245E+03  0.20604850681E+04  0.10100000352E+00 0. -1.
</event>
<event>
 5   0  0.1073271E-07  0.3912772E+04  0.7818609E-02  0.8022378E-01
       -2   -1    0    0    0  501  0.00000000000E+00  0.00000000000E+00  0.15337267896E+04  0.15337267896E+04  0.25500000920E-02 0.  1.
        2   -1    0    0  501    0  0.00000000000E+00  0.00000000000E+00 -0.24955201261E+04  0.24955201261E+04  0.25500000920E-02 0. -1.
    10030    2    1    2    0    0  0.00000000000E+00  0.00000000000E+00 -0.96179333653E+03  0.40292469158E+04  0.39127719440E+04 0.  0.
        1    1    3    3  502    0 -0.76597582556E+03  0.11456873291E+04 -0.19108018424E+04  0.23559461162E+04  0.50400001928E-02 0. -1.
       -1    1    3    3    0  502  0.76597582556E+03 -0.11456873291E+04  0.94900850591E+03  0.16733007995E+04  0.50400001928E-02 0.  1.
</event>
<event>
 5   0  0.3399500E-08  0.4025714E+04  0.7818609E-02  0.7999379E-01
       -1   -1    0    0    0  501  0.00000000000E+00  0.00000000000E+00  0.18337570447E+04  0.18337570447E+04  0.50400001928E-02 0. -1.
        1   -1    0    0  501    0  0.00000000000E+00  0.00000000000E+00 -0.22094497826E+04  0.22094497826E+04  0.50400001928E-02 0.  1.
    10030    2    1    2    0    0  0.00000000000E+00  0.00000000000E+00 -0.37569273793E+03  0.40432068274E+04  0.40257143982E+04 0.  0.
        2    1    3    3  502    0  0.64828818528E+01 -0.97555205282E+03 -0.19561358171E+04  0.21859119768E+04  0.25500000920E-02 0.  1.
       -2    1    3    3    0  502 -0.64828818528E+01  0.97555205282E+03  0.15804430791E+04  0.18572948506E+04  0.25500000920E-02 0. -1.
</event>
<event>
 5   0  0.3399500E-08  0.3998330E+04  0.7818609E-02  0.8004883E-01
       -1   -1    0    0    0  501  0.00000000000E+00  0.00000000000E+00  0.24574059998E+04  0.24574059998E+04  0.50400001928E-02 0.  1.
        1   -1    0    0  501    0  0.00000000000E+00  0.00000000000E+00 -0.16263741270E+04  0.16263741270E+04  0.50400001928E-02 0. -1.
    10030    2    1    2    0    0  0.00000000000E+00  0.00000000000E+00  0.83103187283E+03  0.40837801268E+04  0.39983304204E+04 0.  0.
        5    1    3    3  502    0 -0.46395656621E+03 -0.18955296362E+04  0.85878539459E+03  0.21320935113E+04  0.46999998093E+01 0.  1.
       -5    1    3    3    0  502  0.46395656621E+03  0.18955296362E+04 -0.27753521764E+02  0.19516866155E+04  0.46999998093E+01 0. -1.
</event>
<event>
 5   0  0.3399500E-08  0.4006984E+04  0.7818609E-02  0.8003139E-01
        1   -1    0    0  501    0  0.00000000000E+00  0.00000000000E+00  0.28072793835E+04  0.28072793835E+04  0.50400001928E-02 0. -1.
       -1   -1    0    0    0  501  0.00000000000E+00  0.00000000000E+00 -0.14298470732E+04  0.14298470733E+04  0.50400001928E-02 0.  1.
    10030    2    1    2    0    0  0.00000000000E+00  0.00000000000E+00  0.13774323102E+04  0.42371264567E+04  0.40069840081E+04 0.  0.
        2    1    3    3  502    0  0.94255754786E+03 -0.14052759602E+04 -0.44563398832E+03  0.17498013907E+04  0.25500000920E-02 0.  1.
       -2    1    3    3    0  502 -0.94255754786E+03  0.14052759602E+04  0.18230662986E+04  0.24873250661E+04  0.25500000920E-02 0. -1.
</event>
<event>
 5   0  0.3399500E-08  0.4003398E+04  0.7818609E-02  0.8003861E-01
       -3   -1    0    0    0  501  0.00000000000E+00  0.00000000000E+00  0.14025979129E+04  0.14025979165E+04  0.10100000352E+00 0.  1.
        3   -1    0    0  501    0  0.00000000000E+00  0.00000000000E+00 -0.28566986254E+04  0.28566986272E+04  0.10100000352E+00 0. -1.
    10030    2    1    2    0    0  0.00000000000E+00  0.00000000000E+00 -0.14541007125E+04  0.42592965437E+04  0.40033983270E+04 0.  0.
        1    1    3    3  502    0 -0.17792859783E+04  0.37319459116E+03  0.16414829746E+03  0.18253978906E+04  0.50400001928E-02 0.  1.
       -1    1    3    3    0  502  0.17792859783E+04 -0.37319459116E+03 -0.16182490100E+04  0.24338986531E+04  0.50400001928E-02 0. -1.
</event>
<event>
 5   0  0.3399500E-08  0.3561748E+04  0.7818609E-02  0.8099310E-01
       -1   -1    0    0    0  501  0.00000000000E+00  0.00000000000E+00  0.20286472178E+04  0.20286472178E+04  0.50400001928E-02 0.  1.
        1   -1    0    0  501    0  0.00000000000E+00  0.00000000000E+00 -0.15633627237E+04  0.15633627238E+04  0.50400001928E-02 0. -1.
    10030    2    1    2    0    0  0.00000000000E+00  0.00000000000E+00  0.46528449405E+03  0.35920099416E+04  0.35617475710E+04 0.  0.
        2    1    3    3  502    0  0.66502429124E+03 -0.16112946090E+04 -0.13512562517E+03  0.17483668264E+04  0.25500000920E-02 0. -1.
       -2    1    3    3    0  502 -0.66502429124E+03  0.16112946090E+04  0.60041011922E+03  0.18436431152E+04  0.25500000920E-02 0.  1.
</event>
<event>
 5   0  0.1095903E-07  0.4021196E+04  0.7818609E-02  0.8000284E-01
       -2   -1    0    0    0  501  0.00000000000E+00  0.00000000000E+00  0.17763327402E+04  0.17763327402E+04  0.25500000920E-02 0.  1.
        2   -1    0    0  501    0  0.00000000000E+00  0.00000000000E+00 -0.22757579327E+04  0.22757579327E+04  0.25500000920E-02 0. -1.
    10030    2    1    2    0    0  0.00000000000E+00  0.00000000000E+00 -0.49942519257E+03  0.40520906729E+04  0.40211955061E+04 0.  0.
        3    1    3    3  502    0 -0.19992629339E+04 -0.12806226691E+03 -0.77959255426E+02  0.20048765245E+04  0.10100000352E+00 0.  1.
       -3    1    3    3    0  502  0.19992629339E+04  0.12806226691E+03 -0.42146593714E+03  0.20472141484E+04  0.10100000352E+00 0. -1.
</event>
<event>
 5   0  0.1087688E-07  0.4021615E+04  0.7818609E-02  0.8000200E-01
       -2   -1    0    0    0  501  0.00000000000E+00  0.00000000000E+00  0.17077783799E+04  0.17077783799E+04  0.25500000920E-02 0. -1.
        2   -1    0    0  501    0  0.00000000000E+00  0.00000000000E+00 -0.23676067877E+04  0.23676067877E+04  0.25500000920E-02 0.  1.
    10030    2    1    2    0    0  0.00000000000E+00  0.00000000000E+00 -0.65982840777E+03  0.40753851676E+04  0.40216154387E+04 0.  0.
        2    1    3    3  502    0  0.12600268394E+04 -0.15332607061E+04 -0.65795772978E+03  0.20908047262E+04  0.25500000920E-02 0. -1.
       -2    1    3    3    0  502 -0.12600268394E+04  0.15332607061E+04 -0.18706779822E+01  0.19845804414E+04  0.25500000920E-02 0.  1.
</event>
<event>
 5   0  0.1073271E-07  0.3933437E+04  0.7818609E-02  0.8018111E-01
        2   -1    0    0  501    0  0.00000000000E+00  0.00000000000E+00  0.23730004337E+04  0.23730004337E+04  0.25500000920E-02 0.  1.
       -2   -1    0    0    0  501  0.00000000000E+00  0.00000000000E+00 -0.16299958742E+04  0.16299958742E+04  0.25500000920E-02 0. -1.
    10030    2    1    2    0    0  0.00000000000E+00  0.00000000000E+00  0.74300455956E+03  0.40029963079E+04  0.39334366228E+04 0.  0.
        1    1    3    3  502    0  0.10882536970E+04 -0.13535759447E+04 -0.56759306148E+03  0.18271906936E+04  0.50400001928E-02 0. -1.
       -1    1    3    3    0  502 -0.10882536970E+04  0.13535759447E+04  0.13105976210E+04  0.21758056144E+04  0.50400001928E-02 0.  1.
</event>
<event>
 5   0  0.3399500E-08  0.3971767E+04  0.7818609E-02  0.8010266E-01
        1   -1    0    0  501    0  0.00000000000E+00  0.00000000000E+00  0.30697030901E+04  0.30697030901E+04  0.50400001928E-02 0.  1.
       -1   -1    0    0    0  501  0.00000000000E+00  0.00000000000E+00 -0.12847276710E+04  0.12847276710E+04  0.50400001928E-02 0. -1.
    10030    2    1    2    0    0  0.00000000000E+00  0.00000000000E+00  0.17849754191E+04  0.43544307611E+04  0.39717666102E+04 0.  0.
        2    1    3    3  502    0 -0.17219447844E+04 -0.92924099120E+02  0.19722654756E+04  0.26198396583E+04  0.25500000920E-02 0.  1.
       -2    1    3    3    0  502  0.17219447844E+04  0.92924099120E+02 -0.18729005648E+03  0.17345911028E+04  0.25500000920E-02 0. -1.
</event>
<event>
 5   0  0.1095109E-07  0.3990988E+04  0.7818609E-02  0.8006367E-01
        2   -1    0    0  501    0  0.00000000000E+00  0.00000000000E+00  0.16401421210E+04  0.16401421210E+04  0.25500000920E-02 0. -1.
       -2   -1    0    0    0  501  0.00000000000E+00  0.00000000000E+00 -0.24278359841E+04  0.24278359841E+04  0.25500000920E-02 0.  1.
    10030    2    1    2    0    0  0.00000000000E+00  0.00000000000E+00 -0.78769386306E+03  0.40679781051E+04  0.39909878779E+04 0.  0.
        4    1    3    3  502    0 -0.10978250937E+04  0.29217487289E+03  0.12783522103E+04  0.17101965031E+04  0.12699999809E+01 0. -1.
       -4    1    3    3    0  502  0.10978250937E+04 -0.29217487289E+03 -0.20660460733E+04  0.23577816020E+04  0.12699999809E+01 0.  1.
</event>
<event>
 5   0  0.3399500E-08  0.4019611E+04  0.7818609E-02  0.8000602E-01
       -1   -1    0    0    0  501  0.00000000000E+00  0.00000000000E+00  0.20600014350E+04  0.20600014350E+04  0.50400001928E-02 0. -1.
        1   -1    0    0  501    0  0.00000000000E+00  0.00000000000E+00 -0.19608323006E+04  0.19608323006E+04  0.50400001928E-02 0.  1.
    10030    2    1    2    0    0  0.00000000000E+00  0.00000000000E+00  0.99169134403E+02  0.40208337355E+04  0.40196106045E+04 0.  0.
        1    1    3    3  502    0  0.73981185611E+03  0.13929060592E+04 -0.11965105443E+04  0.19796833976E+04  0.50400001928E-02 0.  1.
       -1    1    3    3    0  502 -0.73981185611E+03 -0.13929060592E+04  0.12956796787E+04  0.20411503379E+04  0.50400001928E-02 0. -1.
</event>
<event>
 5   0  0.3399500E-08  0.4102079E+04  0.7818609E-02  0.7984265E-01
        1   -1    0    0  501    0  0.00000000000E+00  0.00000000000E+00  0.26993722221E+04  0.26993722221E+04  0.50400001928E-02 0.  1.
       -1   -1    0    0    0  501  0.00000000000E+00  0.00000000000E+00 -0.15584225477E+04  0.15584225477E+04  0.50400001928E-02 0. -1.
    10030    2    1    2    0    0  0.00000000000E+00  0.00000000000E+00  0.11409496744E+04  0.42577947697E+04  0.41020787586E+04 0.  0.
        4    1    3    3  502    0 -0.14552874943E+04  0.14452734438E+04  0.57998245999E+03  0.21314451167E+04  0.12699999809E+01 0. -1.
       -4    1    3    3    0  502  0.14552874943E+04 -0.14452734438E+04  0.56096721440E+03  0.21263496531E+04  0.12699999809E+01 0.  1.
</event>
<event>
 5   0  0.1095903E-07  0.3961454E+04  0.7818609E-02  0.8012368E-01
       -2   -1    0    0    0  501  0.00000000000E+00  0.00000000000E+00  0.25023129907E+04  0.25023129907E+04  0.25500000920E-02 0.  1.
        2   -1    0    0  501    0  0.00000000000E+00  0.00000000000E+00 -0.15678609689E+04  0.15678609689E+04  0.25500000920E-02 0. -1.
    10030    2    1    2    0    0  0.00000000000E+00  0.00000000000E+00  0.93445202176E+03  0.40701739596E+04  0.39614537080E+04 0.  0.
        3    1    3    3  502    0 -0.95651879241E+03 -0.82696932298E+03 -0.10992385822E+04  0.16754497701E+04  0.10100000352E+00 0. -1.
       -3    1    3    3    0  502  0.95651879241E+03  0.82696932298E+03  0.20336906039E+04  0.23947241896E+04  0.10100000352E+00 0.  1.
</event>
<event>
 5   0  0.3399500E-08  0.4006746E+04  0.7818609E-02  0.8003187E-01
       -1   -1    0    0    0  501  0.00000000000E+00  0.00000000000E+00  0.18908264618E+04  0.18908264618E+04  0.50400001928E-02 0. -1.
        1   -1    0    0  501    0  0.00000000000E+00  0.00000000000E+00 -0.21226189923E+04  0.21226189923E+04  0.50400001928E-02 0.  1.
    10030    2    1    2    0    0  0.00000000000E+00  0.00000000000E+00 -0.23179253052E+03  0.40134454541E+04  0.40067463903E+04 0.  0.
        5    1    3    3  502    0 -0.14701713632E+04  0.59265871704E+03 -0.13430297946E+04  0.20775945975E+04  0.46999998093E+01 0.  1.
       -5    1    3    3    0  502  0.14701713632E+04 -0.59265871704E+03  0.11112372641E+04  0.19358508567E+04  0.46999998093E+01 0. -1.
</event>
<event>
 5   0  0.1095903E-07  0.3998229E+04  0.7818609E-02  0.8004904E-01
       -2   -1    0    0    0  501  0.00000000000E+00  0.00000000000E+00  0.24464220802E+04  0.24464220802E+04  0.25500000920E-02 0.  1.
        2   -1    0    0  501    0  0.00000000000E+00  0.00000000000E+00 -0.16335935896E+04  0.16335935896E+04  0.25500000920E-02 0. -1.
    10030    2    1    2    0    0  0.00000000000E+00  0.00000000000E+00  0.81282849061E+03  0.40800156698E+04  0.39982293219E+04 0.  0.
        3    1    3    3  502    0 -0.44705822408E+03 -0.14165015788E+04  0.17717372329E+04  0.23120100802E+04  0.10100000352E+00 0. -1.
       -3    1    3    3    0  502  0.44705822408E+03  0.14165015788E+04 -0.95890874229E+03  0.17680055895E+04  0.10100000352E+00 0.  1.
</event>
<event>
 5   0  0.3399500E-08  0.4004067E+04  0.7818609E-02  0.8003727E-01
       -1   -1    0    0    0  501  0.00000000000E+00  0.00000000000E+00  0.20581907212E+04  0.20581907212E+04  0.50400001928E-02 0.  1.
        1   -1    0    0  501    0  0.00000000000E+00  0.00000000000E+00 -0.19474088226E+04  0.19474088226E+04  0.50400001928E-02 0. -1.
    10030    2    1    2    0    0  0.00000000000E+00  0.00000000000E+00  0.11078189857E+03  0.40055995438E+04  0.40040673166E+04 0.  0.
        1    1    3    3  502    0  0.48038533970E+03 -0.14397670820E+04 -0.12506504595E+04  0.19666789003E+04  0.50400001928E-02 0. -1.
       -1    1    3    3    0  502 -0.48038533970E+03  0.14397670820E+04  0.13614323581E+04  0.20389206435E+04  0.50400001928E-02 0.  1.
</event>
<event>
 5   0  0.3399500E-08  0.4007653E+04  0.7818609E-02  0.8003004E-01
        3   -1    0    0  501    0  0.00000000000E+00  0.00000000000E+00  0.12328233636E+04  0.12328233677E+04  0.10100000352E+00 0.  1.
       -3   -1    0    0    0  501  0.00000000000E+00  0.00000000000E+00 -0.32570119795E+04  0.32570119811E+04  0.10100000352E+00 0. -1.
    10030    2    1    2    0    0  0.00000000000E+00  0.00000000000E+00 -0.20241886159E+04  0.44898353488E+04  0.40076529174E+04 0.  0.
        3    1    3    3  502    0 -0.51493706995E+03  0.42331390962E+03 -0.31291542102E+04  0.31993688336E+04  0.10100000352E+00 0. -1.
       -3    1    3    3    0  502  0.51493706995E+03 -0.42331390962E+03  0.11049655943E+04  0.12904665152E+04  0.10100000352E+00 0.  1.
</event>
<event>
 5   0  0.1101474E-07  0.3950219E+04  0.7818609E-02  0.8014665E-01
        2   -1    0    0  501    0  0.00000000000E+00  0.00000000000E+00  0.24694298428E+04  0.24694298428E+04  0.25500000920E-02 0. -1.
       -2   -1    0    0    0  501  0.00000000000E+00  0.00000000000E+00 -0.15797402455E+04  0.15797402455E+04  0.25500000920E-02 0.  1.
    10030    2    1    2    0    0  0.00000000000E+00  0.00000000000E+00  0.88968959736E+03  0.40491700883E+04  0.39502190856E+04 0.  0.
        5    1    3    3  502    0 -0.59047976201E+03 -0.11629320754E+04 -0.10755348828E+04  0.16905249881E+04  0.46999998093E+01 0.  1.
       -5    1    3    3    0  502  0.59047976201E+03  0.11629320754E+04  0.19652244801E+04  0.23586451002E+04  0.46999998093E+01 0. -1.
</event>
<event>
 5   0  0.3399500E-08  0.3997063E+04  0.7818609E-02  0.8005139E-01
       -1   -1    0    0    0  501  0.00000000000E+00  0.00000000000E+00  0.19675958154E+04  0.19675958154E+04  0.50400001928E-02 0. -1.
        1   -1    0    0  501    0  0.00000000000E+00  0.00000000000E+00 -0.20299533920E+04  0.20299533920E+04  0.50400001928E-02 0.  1.
    10030    2    1    2    0    0  0.00000000000E+00  0.00000000000E+00 -0.62357576517E+02  0.39975492074E+04  0.39970628214E+04 0.  0.
        1    1    3    3  502    0  0.66246497379E+03 -0.12464567911E+04 -0.14461348270E+04  0.20208464344E+04  0.50400001928E-02 0.  1.
       -1    1    3    3    0  502 -0.66246497379E+03  0.12464567911E+04  0.13837772505E+04  0.19767027730E+04  0.50400001928E-02 0. -1.
</event>
<event>
 5   0  0.1101474E-07  0.4013918E+04  0.7818609E-02  0.8001745E-01
       -2   -1    0    0    0  501  0.00000000000E+00  0.00000000000E+00  0.22390739309E+04  0.22390739309E+04  0.25500000920E-02 0. -1.
        2   -1    0    0  501    0  0.00000000000E+00  0.00000000000E+00 -0.17989063797E+04  0.17989063797E+04  0.25500000920E-02 0.  1.
    10030    2    1    2    0    0  0.00000000000E+00  0.00000000000E+00  0.44016755129E+03  0.40379803106E+04  0.40139179757E+04 0.  0.
        5    1    3    3  502    0  0.92124932217E+03 -0.18800304187E+03  0.20037940788E+04  0.22134268132E+04  0.46999998093E+01 0. -1.
       -5    1    3    3    0  502 -0.92124932217E+03  0.18800304187E+03 -0.15636265275E+04  0.18245534974E+04  0.46999998093E+01 0.  1.
</event>
<event>
 5   0  0.3399500E-08  0.4021220E+04  0.7818609E-02  0.8000279E-01
        1   -1    0    0  501    0  0.00000000000E+00  0.00000000000E+00  0.27184646182E+04  0.27184646182E+04  0.50400001928E-02 0. -1.
       -1   -1    0    0    0  501  0.00000000000E+00  0.00000000000E+00 -0.14870719290E+04  0.14870719290E+04  0.50400001928E-02 0.  1.
    10030    2    1    2    0    0  0.00000000000E+00  0.00000000000E+00  0.12313926892E+04  0.42055365471E+04  0.40212199261E+04 0.  0.
        2    1    3    3  502    0  0.93926061479E+03  0.57286607037E+03  0.23757380853E+04  0.26181133450E+04  0.25500000920E-02 0. -1.
       -2    1    3    3    0  502 -0.93926061479E+03 -0.57286607037E+03 -0.11443453961E+04  0.15874232021E+04  0.25500000920E-02 0.  1.
</event>
<event>
 5   0  0.3399500E-08  0.3999217E+04  0.7818609E-02  0.8004705E-01
       -1   -1    0    0    0  501  0.00000000000E+00  0.00000000000E+00  0.16675565176E+04  0.16675565176E+04  0.50400001928E-02 0.  1.
        1   -1    0    0  501    0  0.00000000000E+00  0.00000000000E+00 -0.23977802863E+04  0.23977802863E+04  0.50400001928E-02 0. -1.
    10030    2    1    2    0    0  0.00000000000E+00  0.00000000000E+00 -0.73022376868E+03  0.40653368038E+04  0.39992169954E+04 0.  0.
        3    1    3    3  502    0  0.13610486942E+04 -0.14433646192E+04 -0.61960916872E+03  0.20783817032E+04  0.10100000352E+00 0.  1.
       -3    1    3    3    0  502 -0.13610486942E+04  0.14433646192E+04 -0.11061459996E+03  0.19869551006E+04  0.10100000352E+00 0. -1.
</event>
<event>
 5   0  0.3399500E-08  0.4113120E+04  0.7818609E-02  0.7982107E-01
        1   -1    0    0  501    0  0.00000000000E+00  0.00000000000E+00  0.19995987322E+04  0.19995987322E+04  0.50400001928E-02 0.  1.
       -1   -1    0    0    0  501  0.00000000000E+00  0.00000000000E+00 -0.21151440026E+04  0.21151440026E+04  0.50400001928E-02 0. -1.
    10030    2    1    2    0    0  0.00000000000E+00  0.00000000000E+00 -0.11554527040E+03  0.41147427347E+04  0.41131201129E+04 0.  0.
        5    1    3    3  502    0  0.69790791527E+03 -0.11623999447E+04  0.14891776178E+04  0.20139317657E+04  0.46999998093E+01 0.  1.
       -5    1    3    3    0  502 -0.69790791527E+03  0.11623999447E+04 -0.16047228882E+04  0.21008109690E+04  0.46999998093E+01 0. -1.
</event>
<event>
 5   0  0.1087688E-07  0.3994700E+04  0.7818609E-02  0.8005617E-01
       -2   -1    0    0    0  501  0.00000000000E+00  0.00000000000E+00  0.12794482484E+04  0.12794482484E+04  0.25500000920E-02 0.  1.
        2   -1    0    0  501    0  0.00000000000E+00  0.00000000000E+00 -0.31180679544E+04  0.31180679544E+04  0.25500000920E-02 0. -1.
    10030    2    1    2    0    0  0.00000000000E+00  0.00000000000E+00 -0.18386197060E+04  0.43975162027E+04  0.39946997797E+04 0.  0.
        2    1    3    3  502    0 -0.14776009311E+04  0.12625629270E+04 -0.14262177450E+04  0.24106983868E+04  0.25500000920E-02 0. -1.
       -2    1    3    3    0  502  0.14776009311E+04 -0.12625629270E+04 -0.41240196100E+03  0.19868178159E+04  0.25500000920E-02 0.  1.
</event>
<event>
 5   0  0.1073271E-07  0.3978242E+04  0.7818609E-02  0.8008950E-01
       -2   -1    0    0    0  501  0.00000000000E+00  0.00000000000E+00  0.27323016048E+04  0.27323016048E+04  0.25500000920E-02 0. -1.
        2   -1    0    0  501    0  0.00000000000E+00  0.00000000000E+00 -0.14480843387E+04  0.14480843387E+04  0.25500000920E-02 0.  1.
    10030    2    1    2    0    0  0.00000000000E+00  0.00000000000E+00  0.12842172661E+04  0.41803859434E+04  0.39782424071E+04 0.  0.
        1    1    3    3  502    0 -0.15862329847E+04 -0.10663945679E+04  0.12207911578E+04  0.22679646177E+04  0.50400001928E-02 0. -1.
       -1    1    3    3    0  502  0.15862329847E+04  0.10663945679E+04  0.63426108256E+02  0.19124213258E+04  0.50400001928E-02 0.  1.
</event>
<event>
 5   0  0.3399500E-08  0.3980388E+04  0.7818609E-02  0.8008515E-01
       -1   -1    0    0    0  501  0.00000000000E+00  0.00000000000E+00  0.27141783100E+04  0.27141783100E+04  0.50400001928E-02 0.  1.
        1   -1    0    0  501    0  0.00000000000E+00  0.00000000000E+00 -0.14593264258E+04  0.14593264259E+04  0.50400001928E-02 0. -1.
    10030    2    1    2    0    0  0.00000000000E+00  0.00000000000E+00  0.12548518842E+04  0.41735047359E+04  0.39803879873E+04 0.  0.
        1    1    3    3  502    0  0.14170119311E+04  0.86917974983E+03  0.17748102113E+04  0.24317375550E+04  0.50400001928E-02 0.  1.
       -1    1    3    3    0  502 -0.14170119311E+04 -0.86917974983E+03 -0.51995832713E+03  0.17417671809E+04  0.50400001928E-02 0. -1.
</event>
<event>
 5   0  0.3399500E-08  0.3996985E+04  0.7818609E-02  0.8005155E-01
        1   -1    0    0  501    0  0.00000000000E+00  0.00000000000E+00  0.22308249870E+04  0.22308249870E+04  0.50400001928E-02 0. -1.
       -1   -1    0    0    0  501  0.00000000000E+00  0.00000000000E+00 -0.17903569742E+04  0.17903569742E+04  0.50400001928E-02 0.  1.
    10030    2    1    2    0    0  0.00000000000E+00  0.00000000000E+00  0.44046801285E+03  0.40211819612E+04  0.39969854008E+04 0.  0.
        3    1    3    3  502    0 -0.36285533956E+03 -0.40989139471E+03 -0.17134572460E+04  0.17987803359E+04  0.10100000352E+00 0.  1.
       -3    1    3    3    0  502  0.36285533956E+03  0.40989139471E+03  0.21539252588E+04  0.22224016252E+04  0.10100000352E+00 0. -1.
</event>
<event>
 5   0  0.3399500E-08  0.3911838E+04  0.7818609E-02  0.8022572E-01
       -1   -1    0    0    0  501  0.00000000000E+00  0.00000000000E+00  0.17540512157E+04  0.17540512157E+04  0.50400001928E-02 0. -1.
        1   -1    0    0  501    0  0.00000000000E+00  0.00000000000E+00 -0.21810192984E+04  0.21810192984E+04  0.50400001928E-02 0.  1.
    10030    2    1    2    0    0  0.00000000000E+00  0.00000000000E+00 -0.42696808267E+03  0.39350705141E+04  0.39118382134E+04 0.  0.
        3    1    3    3  502    0 -0.22750105023E+02  0.12005361093E+04  0.13396463235E+04  0.17990155084E+04  0.10100000352E+00 0. -1.
       -3    1    3    3    0  502  0.22750105023E+02 -0.12005361093E+04 -0.17666144062E+04  0.21360550057E+04  0.10100000352E+00 0.  1.
</event>
<event>
 5   0  0.3399500E-08  0.3952805E+04  0.7818609E-02  0.8014135E-01
        1   -1    0    0  501    0  0.00000000000E+00  0.00000000000E+00  0.20240114018E+04  0.20240114018E+04  0.50400001928E-02 0. -1.
       -1   -1    0    0    0  501  0.00000000000E+00  0.00000000000E+00 -0.19299138401E+04  0.19299138401E+04  0.50400001928E-02 0.  1.
    10030    2    1    2    0    0  0.00000000000E+00  0.00000000000E+00  0.94097561642E+02  0.39539252419E+04  0.39528053920E+04 0.  0.
        4    1    3    3  502    0  0.13600929625E+04  0.80778967301E+02  0.14791624254E+04  0.20110448035E+04  0.12699999809E+01 0. -1.
       -4    1    3    3    0  502 -0.13600929625E+04 -0.80778967301E+02 -0.13850648637E+04  0.19428804384E+04  0.12699999809E+01 0.  1.
</event>
<event>
 5   0  0.1073271E-07  0.3966056E+04  0.7818609E-02  0.8011429E-01
       -2   -1    0    0    0  501  0.00000000000E+00  0.00000000000E+00  0.19302023284E+04  0.19302023284E+04  0.25500000920E-02 0. -1.
        2   -1    0    0  501    0  0.00000000000E+00  0.00000000000E+00 -0.20372995074E+04  0.20372995074E+04  0.25500000920E-02 0.  1.
    10030    2    1    2    0    0  0.00000000000E+00  0.00000000000E+00 -0.10709717905E+03  0.39675018358E+04  0.39660561029E+04 0.  0.
        1    1    3    3  502    0 -0.15581535353E+04  0.11634064445E+03 -0.12750680943E+04  0.20167241334E+04  0.50400001928E-02 0.  1.
       -1    1    3    3    0  502  0.15581535353E+04 -0.11634064445E+03  0.11679709152E+04  0.19507777024E+04  0.50400001928E-02 0. -1.
</event>
<event>
 5   0  0.1095903E-07  0.3995493E+04  0.7818609E-02  0.8005456E-01
       -2   -1    0    0    0  501  0.00000000000E+00  0.00000000000E+00  0.15098085840E+04  0.15098085840E+04  0.25500000920E-02 0. -1.
        2   -1    0    0  501    0  0.00000000000E+00  0.00000000000E+00 -0.26433757190E+04  0.26433757190E+04  0.25500000920E-02 0.  1.
    10030    2    1    2    0    0  0.00000000000E+00  0.00000000000E+00 -0.11335671350E+04  0.41531843029E+04  0.39954931366E+04 0.  0.
        3    1    3    3  502    0 -0.12326965274E+04 -0.69680970463E+02 -0.21993082408E+04  0.25221722610E+04  0.10100000352E+00 0.  1.
       -3    1    3    3    0  502  0.12326965274E+04  0.69680970463E+02  0.10657411057E+04  0.16310120419E+04  0.10100000352E+00 0. -1.
</event>
<event>
 5   0  0.3399500E-08  0.3998275E+04  0.7818609E-02  0.8004895E-01
       -1   -1    0    0    0  501  0.00000000000E+00  0.00000000000E+00  0.17696975566E+04  0.17696975566E+04  0.50400001928E-02 0.  1.
        1   -1    0    0  501    0  0.00000000000E+00  0.00000000000E+00 -0.22583240749E+04  0.22583240749E+04  0.50400001928E-02 0. -1.
    10030    2    1    2    0    0  0.00000000000E+00  0.00000000000E+00 -0.48862651829E+03  0.40280216315E+04  0.39982749267E+04 0.  0.
        3    1    3    3  502    0 -0.14591543280E+04  0.37018802851E+03  0.10809125685E+04  0.18532518772E+04  0.10100000352E+00 0.  1.
       -3    1    3    3    0  502  0.14591543280E+04 -0.37018802851E+03 -0.15695390868E+04  0.21747697543E+04  0.10100000352E+00 0. -1.
</event>
<event>
 5   0  0.1095109E-07  0.4012251E+04  0.7818609E-02  0.8002080E-01
       -2   -1    0    0    0  501  0.00000000000E+00  0.00000000000E+00  0.19062613712E+04  0.19062613712E+04  0.25500000920E-02 0.  1.
        2   -1    0    0  501    0  0.00000000000E+00  0.00000000000E+00 -0.21112207646E+04  0.21112207646E+04  0.25500000920E-02 0. -1.
    10030    2    1    2    0    0  0.00000000000E+00  0.00000000000E+00 -0.20495939347E+03  0.40174821358E+04  0.40122505354E+04 0.  0.
        4    1    3    3  502    0  0.91412324784E+03  0.17669936737E+03 -0.18817865958E+04  0.20995157498E+04  0.12699999809E+01 0. -1.
       -4    1    3    3    0  502 -0.91412324784E+03 -0.17669936737E+03  0.16768272023E+04  0.19179663860E+04  0.12699999809E+01 0.  1.
</event>
<event>
 5   0  0.3399500E-08  0.4000023E+04  0.7818609E-02  0.8004542E-01
       -1   -1    0    0    0  501  0.00000000000E+00  0.00000000000E+00  0.21974019948E+04  0.21974019948E+04  0.50400001928E-02 0. -1.
        1   -1    0    0  501    0  0.00000000000E+00  0.00000000000E+00 -0.18203521517E+04  0.18203521517E+04  0.50400001928E-02 0.  1.
    10030    2    1    2    0    0  0.00000000000E+00  0.00000000000E+00  0.37704984313E+03  0.40177541465E+04  0.40000227246E+04 0.  0.
        5    1    3    3  502    0 -0.87268883063E+03  0.13643560873E+04  0.13671702617E+04  0.21194881322E+04  0.46999998093E+01 0. -1.
       -5    1    3    3    0  502  0.87268883063E+03 -0.13643560873E+04 -0.99012041853E+03  0.18982660143E+04  0.46999998093E+01 0.  1.
</event>
<event>
 5   0  0.3399500E-08  0.3987374E+04  0.7818609E-02  0.8007098E-01
       -1   -1    0    0    0  501  0.00000000000E+00  0.00000000000E+00  0.24963794728E+04  0.24963794728E+04  0.50400001928E-02 0.  1.
        1   -1    0    0  501    0  0.00000000000E+00  0.00000000000E+00 -0.15922213479E+04  0.15922213479E+04  0.50400001928E-02 0. -1.
    10030    2    1    2    0    0  0.00000000000E+00  0.00000000000E+00  0.90415812484E+03  0.40886008207E+04  0.39873744189E+04 0.  0.
        5    1    3    3  502    0  0.48452214953E+02 -0.40420694704E+02 -0.15911915448E+04  0.15924490798E+04  0.46999998093E+01 0. -1.
       -5    1    3    3    0  502 -0.48452214953E+02  0.40420694704E+02  0.24953496696E+04  0.24961517409E+04  0.46999998093E+01 0.  1.
</event>
<event>
 5   0  0.1095903E-07  0.3992209E+04  0.7818609E-02  0.8006120E-01
        2   -1    0    0  501    0  0.00000000000E+00  0.00000000000E+00  0.17476622930E+04  0.17476622930E+04  0.25500000920E-02 0.  1.
       -2   -1    0    0    0  501  0.00000000000E+00  0.00000000000E+00 -0.22798647916E+04  0.22798647916E+04  0.25500000920E-02 0. -1.
    10030    2    1    2    0    0  0.00000000000E+00  0.00000000000E+00 -0.53220249862E+03  0.40275270846E+04  0.39922092778E+04 0.  0.
        3    1    3    3  502    0  0.55819800231E+03 -0.15918176746E+04 -0.13427657589E+04  0.21560353459E+04  0.10100000352E+00 0. -1.
       -3    1    3    3    0  502 -0.55819800231E+03  0.15918176746E+04  0.81056326031E+03  0.18714917387E+04  0.10100000352E+00 0.  1.
</event>
<event>
 5   0  0.3399500E-08  0.4011998E+04  0.7818609E-02  0.8002130E-01
       -1   -1    0    0    0  501  0.00000000000E+00  0.00000000000E+00  0.15610072416E+04  0.15610072416E+04  0.50400001928E-02 0. -1.
        1   -1    0    0  501    0  0.00000000000E+00  0.00000000000E+00 -0.25778438324E+04  0.25778438324E+04  0.50400001928E-02 0.  1.
    10030    2    1    2    0    0  0.00000000000E+00  0.00000000000E+00 -0.10168365908E+04  0.41388510741E+04  0.40119984498E+04 0.  0.
        4    1    3    3  502    0  0.83831078317E+03 -0.38038846948E+03  0.13302285506E+04  0.16177051544E+04  0.12699999809E+01 0. -1.
       -4    1    3    3    0  502 -0.83831078317E+03  0.38038846948E+03 -0.23470651415E+04  0.25211459196E+04  0.12699999809E+01 0.  1.
</event>
<event>
 5   0  0.3399500E-08  0.3949273E+04  0.7818609E-02  0.8014859E-01
        1   -1    0    0  501    0  0.00000000000E+00  0.00000000000E+00  0.11504002121E+04  0.11504002122E+04  0.50400001928E-02 0. -1.
       -1   -1    0    0    0  501  0.00000000000E+00  0.00000000000E+00 -0.33894192687E+04  0.33894192687E+04  0.50400001928E-02 0.  1.
    10030    2    1    2    0    0  0.00000000000E+00  0.00000000000E+00 -0.22390190565E+04  0.45398194809E+04  0.39492726651E+04 0.  0.
        5    1    3    3  502    0  0.46113285713E+03  0.80933031066E+03 -0.31209873764E+04  0.32570298368E+04  0.46999998093E+01 0.  1.
       -5    1    3    3    0  502 -0.46113285713E+03 -0.80933031066E+03  0.88196831989E+03  0.12827896441E+04  0.46999998093E+01 0. -1.
</event>
<event>
 5   0  0.1087688E-07  0.4013206E+04  0.7818609E-02  0.8001888E-01
       -2   -1    0    0    0  501  0.00000000000E+00  0.00000000000E+00  0.25066494738E+04  0.25066494738E+04  0.25500000920E-02 0.  1.
        2   -1    0    0  501    0  0.00000000000E+00  0.00000000000E+00 -0.16063100477E+04  0.16063100477E+04  0.25500000920E-02 0. -1.
    10030    2    1    2    0    0  0.00000000000E+00  0.00000000000E+00  0.90033942609E+03  0.41129595215E+04  0.40132063171E+04 0.  0.
        2    1    3    3  502    0 -0.19377757556E+04  0.49711105645E+03  0.61013251816E+03  0.20914961083E+04  0.25500000920E-02 0. -1.
       -2    1    3    3    0  502  0.19377757556E+04 -0.49711105645E+03  0.29020690793E+03  0.20214634132E+04  0.25500000920E-02 0.  1.
</event>
<event>
 5   0  0.3399500E-08  0.3998888E+04  0.7818609E-02  0.8004771E-01
       -1   -1    0    0    0  501  0.00000000000E+00  0.00000000000E+00  0.18993749326E+04  0.18993749326E+04  0.50400001928E-02 0. -1.
        1   -1    0    0  501    0  0.00000000000E+00  0.00000000000E+00 -0.21047850274E+04  0.21047850274E+04  0.50400001928E-02 0.  1.
    10030    2    1    2    0    0  0.00000000000E+00  0.00000000000E+00 -0.20541009476E+03  0.40041599600E+04  0.39988878051E+04 0.  0.
        1    1    3    3  502    0  0.19405082647E+04  0.41967222608E+03 -0.33982692173E+03  0.20142441361E+04  0.50400001928E-02 0.  1.
       -1    1    3    3    0  502 -0.19405082647E+04 -0.41967222608E+03  0.13441682697E+03  0.19899158239E+04  0.50400001928E-02 0. -1.
</event>
<event>
 5   0  0.1073271E-07  0.3992714E+04  0.7818609E-02  0.8006018E-01
       -2   -1    0    0    0  501  0.00000000000E+00  0.00000000000E+00  0.20886305365E+04  0.20886305365E+04  0.25500000920E-02 0.  1.
        2   -1    0    0  501    0  0.00000000000E+00  0.00000000000E+00 -0.19081600639E+04  0.19081600639E+04  0.25500000920E-02 0. -1.
    10030    2    1    2    0    0  0.00000000000E+00  0.00000000000E+00  0.18047047260E+03  0.39967906004E+04  0.39927140534E+04 0.  0.
        1    1    3    3  502    0 -0.14888679875E+04 -0.47049698042E+03  0.13354289434E+04  0.20546205868E+04  0.50400001928E-02 0.  1.
       -1    1    3    3    0  502  0.14888679875E+04  0.47049698042E+03 -0.11549584708E+04  0.19421700137E+04  0.50400001928E-02 0. -1.
</event>
<event>
 5   0  0.3399500E-08  0.4001253E+04  0.7818609E-02  0.8004294E-01
       -1   -1    0    0    0  501  0.00000000000E+00  0.00000000000E+00  0.24537014874E+04  0.24537014874E+04  0.50400001928E-02 0. -1.
        1   -1    0    0  501    0  0.00000000000E+00  0.00000000000E+00 -0.16312113949E+04  0.16312113949E+04  0.50400001928E-02 0.  1.
    10030    2    1    2    0    0  0.00000000000E+00  0.00000000000E+00  0.82249009250E+03  0.40849128823E+04  0.40012527168E+04 0.  0.
        2    1    3    3  502    0 -0.13157866060E+04  0.94199490513E+03  0.16122157940E+04  0.22842698090E+04  0.25500000920E-02 0. -1.
       -2    1    3    3    0  502  0.13157866060E+04 -0.94199490513E+03 -0.78972570149E+03  0.18006430733E+04  0.25500000920E-02 0.  1.
</event>
<event>
 5   0  0.3399500E-08  0.4002369E+04  0.7818609E-02  0.8004069E-01
       -1   -1    0    0    0  501  0.00000000000E+00  0.00000000000E+00  0.19031816623E+04  0.19031816623E+04  0.50400001928E-02 0. -1.
        1   -1    0    0  501    0  0.00000000000E+00  0.00000000000E+00 -0.21042342609E+04  0.21042342609E+04  0.50400001928E-02 0.  1.
    10030    2    1    2    0    0  0.00000000000E+00  0.00000000000E+00 -0.20105259864E+03  0.40074159232E+04  0.40023693275E+04 0.  0.
        4    1    3    3  502    0  0.45009696065E+03  0.14033281869E+04 -0.14560505895E+04  0.20717147985E+04  0.12699999809E+01 0.  1.
       -4    1    3    3    0  502 -0.45009696065E+03 -0.14033281869E+04  0.12549979908E+04  0.19357011247E+04  0.12699999809E+01 0. -1.
</event>
<event>
 5   0  0.1095903E-07  0.3992218E+04  0.7818609E-02  0.8006118E-01
        2   -1    0    0  501    0  0.00000000000E+00  0.00000000000E+00  0.14417892128E+04  0.14417892128E+04  0.25500000920E-02 0.  1.
       -2   -1    0    0    0  501  0.00000000000E+00  0.00000000000E+00 -0.27635456341E+04  0.27635456341E+04  0.25500000920E-02 0. -1.
    10030    2    1    2    0    0  0.00000000000E+00  0.00000000000E+00 -0.13217564213E+04  0.42053348469E+04  0.39922175714E+04 0.  0.
        3    1    3    3  502    0  0.42544344979E+03 -0.18784270891E+04 -0.12132366506E+04  0.22762762659E+04  0.10100000352E+00 0. -1.
       -3    1    3    3    0  502 -0.42544344979E+03  0.18784270891E+04 -0.10851977074E+03  0.19290585810E+04  0.10100000352E+00 0.  1.
</event>
<event>
 5   0  0.3399500E-08  0.4016282E+04  0.7818609E-02  0.8001270E-01
        1   -1    0    0  501    0  0.00000000000E+00  0.00000000000E+00  0.20867327245E+04  0.20867327245E+04  0.50400001928E-02 0.  1.
       -1   -1    0    0    0  501  0.00000000000E+00  0.00000000000E+00 -0.19325089079E+04  0.19325089079E+04  0.50400001928E-02 0. -1.
    10030    2    1    2    0    0  0.00000000000E+00  0.00000000000E+00  0.15422381662E+03  0.40192416324E+04  0.40162816527E+04 0.  0.
        3    1    3    3  502    0 -0.28184546204E+03 -0.12801310190E+04  0.15995671695E+04  0.20680395137E+04  0.10100000352E+00 0.  1.
       -3    1    3    3    0  502  0.28184546204E+03  0.12801310190E+04 -0.14453433528E+04  0.19512021187E+04  0.10100000352E+00 0. -1.
</event>
<event>
 5   0  0.1087688E-07  0.3969730E+04  0.7818609E-02  0.8010681E-01
       -2   -1    0    0    0  501  0.00000000000E+00  0.00000000000E+00  0.33931320464E+04  0.33931320464E+04  0.25500000920E-02 0. -1.
        2   -1    0    0  501    0  0.00000000000E+00  0.00000000000E+00 -0.11610775216E+04  0.11610775217E+04  0.25500000920E-02 0.  1.
    10030    2    1    2    0    0  0.00000000000E+00  0.00000000000E+00  0.22320545248E+04  0.45542095681E+04  0.39697301405E+04 0.  0.
        2    1    3    3  502    0  0.12040820929E+04 -0.47517324225E+03 -0.61020206679E+03  0.14310659869E+04  0.25500000920E-02 0.  1.
       -2    1    3    3    0  502 -0.12040820929E+04  0.47517324225E+03  0.28422565916E+04  0.31231435812E+04  0.25500000920E-02 0. -1.
</event>
<event>
 5   0  0.1095903E-07  0.3992546E+04  0.7818609E-02  0.8006052E-01
        2   -1    0    0  501    0  0.00000000000E+00  0.00000000000E+00  0.24847811239E+04  0.24847811239E+04  0.25500000920E-02 0.  1.
       -2   -1    0    0    0  501  0.00000000000E+00  0.00000000000E+00 -0.16038056104E+04  0.16038056104E+04  0.25500000920E-02 0. -1.
    10030    2    1    2    0    0  0.00000000000E+00  0.00000000000E+00  0.88097551354E+03  0.40885867343E+04  0.39925460084E+04 0.  0.
        3    1    3    3  502    0 -0.73672226067E+03 -0.11575988398E+04  0.19253008239E+04  0.23642288459E+04  0.10100000352E+00 0.  1.
       -3    1    3    3    0  502  0.73672226067E+03  0.11575988398E+04 -0.10443253104E+04  0.17243578884E+04  0.10100000352E+00 0. -1.
</event>
<event>
 5   0  0.1087688E-07  0.4005792E+04  0.7818609E-02  0.8003379E-01
       -2   -1    0    0    0  501  0.00000000000E+00  0.00000000000E+00  0.15038349336E+04  0.15038349336E+04  0.25500000920E-02 0.  1.
        2   -1    0    0  501    0  0.00000000000E+00  0.00000000000E+00 -0.26675747159E+04  0.26675747159E+04  0.25500000920E-02 0. -1.
    10030    2    1    2    0    0  0.00000000000E+00  0.00000000000E+00 -0.11637397823E+04  0.41714096495E+04  0.40057918298E+04 0.  0.
        2    1    3    3  502    0  0.15157238154E+04 -0.13090355731E+04 -0.55637864091E+03  0.20785932763E+04  0.25500000920E-02 0. -1.
       -2    1    3    3    0  502 -0.15157238154E+04  0.13090355731E+04 -0.60736114135E+03  0.20928163732E+04  0.25500000920E-02 0.  1.
</event>
<event>
 5   0  0.1087688E-07  0.4009271E+04  0.7818609E-02  0.8002679E-01
        2   -1    0    0  501    0  0.00000000000E+00  0.00000000000E+00  0.12538348268E+04  0.12538348268E+04  0.25500000920E-02 0. -1.
       -2   -1    0    0    0  501  0.00000000000E+00  0.00000000000E+00 -0.32050186498E+04  0.32050186498E+04  0.25500000920E-02 0.  1.
    10030    2    1    2    0    0  0.00000000000E+00  0.00000000000E+00 -0.19511838230E+04  0.44588534766E+04  0.40092712573E+04 0.  0.
        2    1    3    3  502    0  0.17886939694E+04  0.90471767764E+03 -0.10033688487E+04  0.22415818609E+04  0.25500000920E-02 0.  1.
       -2    1    3    3    0  502 -0.17886939694E+04 -0.90471767764E+03 -0.94781497436E+03  0.22172716158E+04  0.25500000920E-02 0. -1.
</event>
<event>
 5   0  0.3399500E-08  0.3998281E+04  0.7818609E-02  0.8004893E-01
        3   -1    0    0  501    0  0.00000000000E+00  0.00000000000E+00  0.14402037615E+04  0.14402037650E+04  0.10100000352E+00 0. -1.
       -3   -1    0    0    0  501  0.00000000000E+00  0.00000000000E+00 -0.27749983071E+04  0.27749983089E+04  0.10100000352E+00 0.  1.
    10030    2    1    2    0    0  0.00000000000E+00  0.00000000000E+00 -0.13347945456E+04  0.42152020740E+04  0.39982811364E+04 0.  0.
        4    1    3    3  502    0 -0.12593317164E+04  0.35278482598E+03  0.92664939411E+03  0.16028269457E+04  0.12699999809E+01 0. -1.
       -4    1    3    3    0  502  0.12593317164E+04 -0.35278482598E+03 -0.22614439397E+04  0.26123751282E+04  0.12699999809E+01 0.  1.
</event>
<event>
 5   0  0.3399500E-08  0.4029572E+04  0.7818609E-02  0.7998607E-01
       -1   -1    0    0    0  501  0.00000000000E+00  0.00000000000E+00  0.17359241629E+04  0.17359241629E+04  0.50400001928E-02 0.  1.
        1   -1    0    0  501    0  0.00000000000E+00  0.00000000000E+00 -0.23384447498E+04  0.23384447498E+04  0.50400001928E-02 0. -1.
    10030    2    1    2    0    0  0.00000000000E+00  0.00000000000E+00 -0.60252058684E+03  0.40743689127E+04  0.40295720591E+04 0.  0.
        1    1    3    3  502    0 -0.56097164834E+03  0.18490758911E+04 -0.87821035165E+03  0.21225042433E+04  0.50400001928E-02 0. -1.
       -1    1    3    3    0  502  0.56097164834E+03 -0.18490758911E+04  0.27568976481E+03  0.19518646694E+04  0.50400001928E-02 0.  1.
</event>
<event>
 5   0  0.1087688E-07  0.3979879E+04  0.7818609E-02  0.8008618E-01
        2   -1    0    0  501    0  0.00000000000E+00  0.00000000000E+00  0.24498303017E+04  0.24498303017E+04  0.25500000920E-02 0.  1.
       -2   -1    0    0    0  501  0.00000000000E+00  0.00000000000E+00 -0.16163806344E+04  0.16163806344E+04  0.25500000920E-02 0. -1.
    10030    2    1    2    0    0  0.00000000000E+00  0.00000000000E+00  0.83344966738E+03  0.40662109361E+04  0.39798785194E+04 0.  0.
        2    1    3    3  502    0  0.13066389762E+03 -0.87007819956E+03  0.22403092601E+04  0.24068848557E+04  0.25500000920E-02 0.  1.
       -2    1    3    3    0  502 -0.13066389762E+03  0.87007819956E+03 -0.14068595927E+04  0.16593260804E+04  0.25500000920E-02 0. -1.
</event>
<event>
 5   0  0.1087688E-07  0.3987779E+04  0.7818609E-02  0.8007016E-01
        2   -1    0    0  501    0  0.00000000000E+00  0.00000000000E+00  0.15579737530E+04  0.15579737530E+04  0.25500000920E-02 0. -1.
       -2   -1    0    0    0  501  0.00000000000E+00  0.00000000000E+00 -0.25517732981E+04  0.25517732981E+04  0.25500000920E-02 0.  1.
    10030    2    1    2    0    0  0.00000000000E+00  0.00000000000E+00 -0.99379954511E+03  0.41097470511E+04  0.39877792427E+04 0.  0.
        2    1    3    3  502    0 -0.13794512872E+04 -0.44879695533E+03  0.91289104920E+03  0.17139645937E+04  0.25500000920E-02 0. -1.
       -2    1    3    3    0  502  0.13794512872E+04  0.44879695533E+03 -0.19066905943E+04  0.23957824574E+04  0.25500000920E-02 0.  1.
</event>
<event>
 5   0  0.1095903E-07  0.3975824E+04  0.7818609E-02  0.8009441E-01
       -2   -1    0    0    0  501  0.00000000000E+00  0.00000000000E+00  0.16265554482E+04  0.16265554483E+04  0.25500000920E-02 0. -1.
        2   -1    0    0  501    0  0.00000000000E+00  0.00000000000E+00 -0.24295483023E+04  0.24295483023E+04  0.25500000920E-02 0.  1.
    10030    2    1    2    0    0  0.00000000000E+00  0.00000000000E+00 -0.80299285409E+03  0.40561037506E+04  0.39758244569E+04 0.  0.
        3    1    3    3  502    0  0.14540651770E+04  0.11421758487E+04  0.34326026817E+03  0.18806112917E+04  0.10100000352E+00 0.  1.
       -3    1    3    3    0  502 -0.14540651770E+04 -0.11421758487E+04 -0.11462531223E+04  0.21754924589E+04  0.10100000352E+00 0. -1.
</event>
<event>
 5   0  0.3399500E-08  0.4014447E+04  0.7818609E-02  0.8001638E-01
        1   -1    0    0  501    0  0.00000000000E+00  0.00000000000E+00  0.18094778680E+04  0.18094778681E+04  0.50400001928E-02 0.  1.
       -1   -1    0    0    0  501  0.00000000000E+00  0.00000000000E+00 -0.22265795954E+04  0.22265795954E+04  0.50400001928E-02 0. -1.
    10030    2    1    2    0    0  0.00000000000E+00  0.00000000000E+00 -0.41710172734E+03  0.40360574634E+04  0.40144471596E+04 0.  0.
        2    1    3    3  502    0 -0.41809621238E+03  0.19572326442E+04 -0.36228717114E+03  0.20339164340E+04  0.25500000920E-02 0. -1.
       -2    1    3    3    0  502  0.41809621238E+03 -0.19572326442E+04 -0.54814556198E+02  0.20021410294E+04  0.25500000920E-02 0.  1.
</event>
<event>
 5   0  0.3399500E-08  0.4013506E+04  0.7818609E-02  0.8001828E-01
       -1   -1    0    0    0  501  0.00000000000E+00  0.00000000000E+00  0.18824593981E+04  0.18824593981E+04  0.50400001928E-02 0. -1.
        1   -1    0    0  501    0  0.00000000000E+00  0.00000000000E+00 -0.21392530747E+04  0.21392530748E+04  0.50400001928E-02 0.  1.
    10030    2    1    2    0    0  0.00000000000E+00  0.00000000000E+00 -0.25679367663E+03  0.40217124729E+04  0.40135057272E+04 0.  0.
        1    1    3    3  502    0  0.12189470489E+04  0.89747322417E+03 -0.14485758975E+04  0.20951520773E+04  0.50400001928E-02 0.  1.
       -1    1    3    3    0  502 -0.12189470489E+04 -0.89747322417E+03  0.11917822209E+04  0.19265603956E+04  0.50400001928E-02 0. -1.
</event>
<event>
 5   0  0.1087688E-07  0.4003405E+04  0.7818609E-02  0.8003860E-01
       -2   -1    0    0    0  501  0.00000000000E+00  0.00000000000E+00  0.19094610441E+04  0.19094610441E+04  0.25500000920E-02 0.  1.
        2   -1    0    0  501    0  0.00000000000E+00  0.00000000000E+00 -0.20984001494E+04  0.20984001494E+04  0.25500000920E-02 0. -1.
    10030    2    1    2    0    0  0.00000000000E+00  0.00000000000E+00 -0.18893910538E+03  0.40078611935E+04  0.40034052207E+04 0.  0.
        2    1    3    3  502    0 -0.30035836805E+03  0.18877425502E+04 -0.68929100601E+03  0.20319717458E+04  0.25500000920E-02 0. -1.
       -2    1    3    3    0  502  0.30035836805E+03 -0.18877425502E+04  0.50035190063E+03  0.19758894477E+04  0.25500000920E-02 0.  1.
</event>
<event>
 5   0  0.1101474E-07  0.3877471E+04  0.7818609E-02  0.8029731E-01
       -2   -1    0    0    0  501  0.00000000000E+00  0.00000000000E+00  0.18029529362E+04  0.18029529362E+04  0.25500000920E-02 0.  1.
        2   -1    0    0  501    0  0.00000000000E+00  0.00000000000E+00 -0.20847444105E+04  0.20847444105E+04  0.25500000920E-02 0. -1.
    10030    2    1    2    0    0  0.00000000000E+00  0.00000000000E+00 -0.28179147432E+03  0.38876973467E+04  0.38774713699E+04 0.  0.
        5    1    3    3  502    0 -0.34048093902E+03 -0.10627872603E+04  0.14486021699E+04  0.18286372979E+04  0.46999998093E+01 0. -1.
       -5    1    3    3    0  502  0.34048093902E+03  0.10627872603E+04 -0.17303936442E+04  0.20590600488E+04  0.46999998093E+01 0.  1.
</event>
<event>
 5   0  0.3399500E-08  0.4014502E+04  0.7818609E-02  0.8001627E-01
       -1   -1    0    0    0  501  0.00000000000E+00  0.00000000000E+00  0.17647376784E+04  0.17647376785E+04  0.50400001928E-02 0. -1.
        1   -1    0    0  501    0  0.00000000000E+00  0.00000000000E+00 -0.22830904893E+04  0.22830904893E+04  0.50400001928E-02 0.  1.
    10030    2    1    2    0    0  0.00000000000E+00  0.00000000000E+00 -0.51835281086E+03  0.40478281678E+04  0.40145016178E+04 0.  0.
        2    1    3    3  502    0 -0.10994182537E+04  0.62128432829E+03 -0.18323662941E+04  0.22253720922E+04  0.25500000920E-02 0.  1.
       -2    1    3    3    0  502  0.10994182537E+04 -0.62128432829E+03  0.13140134833E+04  0.18224560755E+04  0.25500000920E-02 0. -1.
</event>
<event>
 5   0  0.3399500E-08  0.4010800E+04  0.7818609E-02  0.8002371E-01
       -1   -1    0    0    0  501  0.00000000000E+00  0.00000000000E+00  0.14191309291E+04  0.14191309291E+04  0.50400001928E-02 0.  1.
        1   -1    0    0  501    0  0.00000000000E+00  0.00000000000E+00 -0.28338671079E+04  0.28338671079E+04  0.50400001928E-02 0. -1.
    10030    2    1    2    0    0  0.00000000000E+00  0.00000000000E+00 -0.14147361788E+04  0.42529980370E+04  0.40107996518E+04 0.  0.
        5    1    3    3  502    0 -0.46762895512E+03  0.40911200052E+03  0.13144854236E+04  0.14539406754E+04  0.46999998093E+01 0.  1.
       -5    1    3    3    0  502  0.46762895512E+03 -0.40911200052E+03 -0.27292216024E+04  0.27990573616E+04  0.46999998093E+01 0. -1.
</event>
<event>
 5   0  0.1095109E-07  0.4023313E+04  0.7818609E-02  0.7999860E-01
       -2   -1    0    0    0  501  0.00000000000E+00  0.00000000000E+00  0.15708514008E+04  0.15708514008E+04  0.25500000920E-02 0. -1.
        2   -1    0    0  501    0  0.00000000000E+00  0.00000000000E+00 -0.25761582013E+04  0.25761582013E+04  0.25500000920E-02 0.  1.
    10030    2    1    2    0    0  0.00000000000E+00  0.00000000000E+00 -0.10053068005E+04  0.41470096022E+04  0.40233129231E+04 0.  0.
        4    1    3    3  502    0 -0.14901950251E+04  0.13504376202E+04 -0.55311915844E+03  0.20857385731E+04  0.12699999809E+01 0.  1.
       -4    1    3    3    0  502  0.14901950251E+04 -0.13504376202E+04 -0.45218764207E+03  0.20612710291E+04  0.12699999809E+01 0. -1.
</event>
<event>
 5   0  0.3399500E-08  0.3991475E+04  0.7818609E-02  0.8006269E-01
       -1   -1    0    0    0  501  0.00000000000E+00  0.00000000000E+00  0.11596344230E+04  0.11596344230E+04  0.50400001928E-02 0.  1.
        1   -1    0    0  501    0  0.00000000000E+00  0.00000000000E+00 -0.34346750348E+04  0.34346750348E+04  0.50400001928E-02 0. -1.
    10030    2    1    2    0    0  0.00000000000E+00  0.00000000000E+00 -0.22750406118E+04  0.45943094578E+04  0.39914746159E+04 0.  0.
        3    1    3    3  502    0 -0.11741520729E+04 -0.13278355968E+03  0.71370868042E+03  0.13804508882E+04  0.10100000352E+00 0.  1.
       -3    1    3    3    0  502  0.11741520729E+04  0.13278355968E+03 -0.29887492922E+04  0.32138585697E+04  0.10100000352E+00 0. -1.
</event>
<event>
 5   0  0.3399500E-08  0.3935701E+04  0.7818609E-02  0.8017645E-01
        1   -1    0    0  501    0  0.00000000000E+00  0.00000000000E+00  0.18866198357E+04  0.18866198357E+04  0.50400001928E-02 0.  1.
       -1   -1    0    0    0  501  0.00000000000E+00  0.00000000000E+00 -0.20525783378E+04  0.20525783378E+04  0.50400001928E-02 0. -1.
    10030    2    1    2    0    0  0.00000000000E+00  0.00000000000E+00 -0.16595850212E+03  0.39391981735E+04  0.39357007033E+04 0.  0.
        2    1    3    3  502    0 -0.22976250838E+03 -0.17550312333E+04 -0.94369086620E+03  0.20058608853E+04  0.25500000920E-02 0. -1.
       -2    1    3    3    0  502  0.22976250838E+03  0.17550312333E+04  0.77773236408E+03  0.19333372883E+04  0.25500000920E-02 0.  1.
</event>
<event>
 5   0  0.1087688E-07  0.3965170E+04  0.7818609E-02  0.8011610E-01
        2   -1    0    0  501    0  0.00000000000E+00  0.00000000000E+00  0.14245645697E+04  0.14245645697E+04  0.25500000920E-02 0.  1.
       -2   -1    0    0    0  501  0.00000000000E+00  0.00000000000E+00 -0.27591885849E+04  0.27591885849E+04  0.25500000920E-02 0. -1.
    10030    2    1    2    0    0  0.00000000000E+00  0.00000000000E+00 -0.13346240152E+04  0.41837531546E+04  0.39651695042E+04 0.  0.
        2    1    3    3  502    0 -0.79034945124E+03  0.98822716756E+03 -0.22776834544E+04  0.26055876704E+04  0.25500000920E-02 0. -1.
       -2    1    3    3    0  502  0.79034945124E+03 -0.98822716756E+03  0.94305943921E+03  0.15781654842E+04  0.25500000920E-02 0.  1.
</event>
<event>
 5   0  0.1095903E-07  0.3901557E+04  0.7818609E-02  0.8024705E-01
       -2   -1    0    0    0  501  0.00000000000E+00  0.00000000000E+00  0.18213806648E+04  0.18213806648E+04  0.25500000920E-02 0.  1.
        2   -1    0    0  501    0  0.00000000000E+00  0.00000000000E+00 -0.20893697320E+04  0.20893697320E+04  0.25500000920E-02 0. -1.
    10030    2    1    2    0    0  0.00000000000E+00  0.00000000000E+00 -0.26798906728E+03  0.39107503968E+04  0.39015574487E+04 0.  0.
        3    1    3    3  502    0 -0.17755289996E+04  0.41148480061E+03  0.56314018689E+03  0.19076031688E+04  0.10100000352E+00 0.  1.
       -3    1    3    3    0  502  0.17755289996E+04 -0.41148480061E+03 -0.83112925417E+03  0.20031472279E+04  0.10100000352E+00 0. -1.
</event>
<event>
 5   0  0.3399500E-08  0.4064621E+04  0.7818609E-02  0.7991636E-01
       -1   -1    0    0    0  501  0.00000000000E+00  0.00000000000E+00  0.19123290725E+04  0.19123290725E+04  0.50400001928E-02 0. -1.
        1   -1    0    0  501    0  0.00000000000E+00  0.00000000000E+00 -0.21598202116E+04  0.21598202116E+04  0.50400001928E-02 0.  1.
    10030    2    1    2    0    0  0.00000000000E+00  0.00000000000E+00 -0.24749113911E+03  0.40721492841E+04  0.40646214988E+04 0.  0.
        4    1    3    3  502    0 -0.86292776021E+03 -0.17442938745E+03  0.17113715495E+04  0.19245425752E+04  0.12699999809E+01 0. -1.
       -4    1    3    3    0  502  0.86292776021E+03  0.17442938745E+03 -0.19588626886E+04  0.21476067089E+04  0.12699999809E+01 0.  1.
</event>
<event>
 5   0  0.1095903E-07  0.3993457E+04  0.7818609E-02  0.8005868E-01
       -2   -1    0    0    0  501  0.00000000000E+00  0.00000000000E+00  0.20766042325E+04  0.20766042325E+04  0.25500000920E-02 0. -1.
        2   -1    0    0  501    0  0.00000000000E+00  0.00000000000E+00 -0.19199249642E+04  0.19199249642E+04  0.25500000920E-02 0.  1.
    10030    2    1    2    0    0  0.00000000000E+00  0.00000000000E+00  0.15667926837E+03  0.39965291967E+04  0.39934568017E+04 0.  0.
        3    1    3    3  502    0 -0.48687273122E+03  0.19317846589E+04  0.21293203214E+03  0.20035411364E+04  0.10100000352E+00 0.  1.
       -3    1    3    3    0  502  0.48687273122E+03 -0.19317846589E+04 -0.56252763775E+02  0.19929880603E+04  0.10100000352E+00 0. -1.
</event>
<event>
 5   0  0.3399500E-08  0.3992628E+04  0.7818609E-02  0.8006035E-01
       -1   -1    0    0    0  501  0.00000000000E+00  0.00000000000E+00  0.18493984004E+04  0.18493984004E+04  0.50400001928E-02 0. -1.
        1   -1    0    0  501    0  0.00000000000E+00  0.00000000000E+00 -0.21549007257E+04  0.21549007257E+04  0.50400001928E-02 0.  1.
    10030    2    1    2    0    0  0.00000000000E+00  0.00000000000E+00 -0.30550232527E+03  0.40042991261E+04  0.39926281846E+04 0.  0.
        3    1    3    3  502    0 -0.11497207177E+04  0.16319867907E+04 -0.15836493438E+03  0.20025778578E+04  0.10100000352E+00 0.  1.
       -3    1    3    3    0  502  0.11497207177E+04 -0.16319867907E+04 -0.14713739089E+03  0.20017212683E+04  0.10100000352E+00 0. -1.
</event>
<event>
 5   0  0.1087688E-07  0.4001392E+04  0.7818609E-02  0.8004266E-01
        2   -1    0    0  501    0  0.00000000000E+00  0.00000000000E+00  0.32059322085E+04  0.32059322085E+04  0.25500000920E-02 0.  1.
       -2   -1    0    0    0  501  0.00000000000E+00  0.00000000000E+00 -0.12485558114E+04  0.12485558114E+04  0.25500000920E-02 0. -1.
    10030    2    1    2    0    0  0.00000000000E+00  0.00000000000E+00  0.19573763971E+04  0.44544880199E+04  0.40013924026E+04 0.  0.
        2    1    3    3  502    0 -0.15786437827E+04 -0.23881313619E+03  0.23208803460E+04  0.28170256455E+04  0.25500000920E-02 0.  1.
       -2    1    3    3    0  502  0.15786437827E+04  0.23881313619E+03 -0.36350394891E+03  0.16374623744E+04  0.25500000920E-02 0. -1.
</event>
<event>
 5   0  0.1095903E-07  0.4013820E+04  0.7818609E-02  0.8001764E-01
       -2   -1    0    0    0  501  0.00000000000E+00  0.00000000000E+00  0.20243626687E+04  0.20243626687E+04  0.25500000920E-02 0. -1.
        2   -1    0    0  501    0  0.00000000000E+00  0.00000000000E+00 -0.19896078976E+04  0.19896078976E+04  0.25500000920E-02 0.  1.
    10030    2    1    2    0    0  0.00000000000E+00  0.00000000000E+00  0.34754771052E+02  0.40139705663E+04  0.40138201022E+04 0.  0.
        3    1    3    3  502    0  0.60023224616E+03 -0.14742239328E+04 -0.12049912196E+04  0.19964014634E+04  0.10100000352E+00 0.  1.
       -3    1    3    3    0  502 -0.60023224616E+03  0.14742239328E+04  0.12397459907E+04  0.20175691029E+04  0.10100000352E+00 0. -1.
</event>
<event>
 5   0  0.1073271E-07  0.3999930E+04  0.7818609E-02  0.8004561E-01
        2   -1    0    0  501    0  0.00000000000E+00  0.00000000000E+00  0.14968121906E+04  0.14968121906E+04  0.25500000920E-02 0.  1.
       -2   -1    0    0    0  501  0.00000000000E+00  0.00000000000E+00 -0.26722518820E+04  0.26722518820E+04  0.25500000920E-02 0. -1.
    10030    2    1    2    0    0  0.00000000000E+00  0.00000000000E+00 -0.11754396914E+04  0.41690640726E+04  0.39999295961E+04 0.  0.
        1    1    3    3  502    0  0.54025067318E+03  0.17867250925E+03  0.14106588269E+04  0.15211025545E+04  0.50400001928E-02 0.  1.
       -1    1    3    3    0  502 -0.54025067318E+03 -0.17867250925E+03 -0.25860985183E+04  0.26479615182E+04  0.50400001928E-02 0. -1.
</event>
<event>
 5   0  0.3399500E-08  0.3726562E+04  0.7818609E-02  0.8062101E-01
        1   -1    0    0  501    0  0.00000000000E+00  0.00000000000E+00  0.26754484116E+04  0.26754484116E+04  0.50400001928E-02 0.  1.
       -1   -1    0    0    0  501  0.00000000000E+00  0.00000000000E+00 -0.12976577823E+04  0.12976577823E+04  0.50400001928E-02 0. -1.
    10030    2    1    2    0    0  0.00000000000E+00  0.00000000000E+00  0.13777906294E+04  0.39731061939E+04  0.37265621972E+04 0.  0.
        1    1    3    3  502    0  0.37845308588E+03 -0.17753639587E+04  0.11370276803E+04  0.21419560849E+04  0.50400001928E-02 0.  1.
       -1    1    3    3    0  502 -0.37845308588E+03  0.17753639587E+04  0.24076294904E+03  0.18311501090E+04  0.50400001928E-02 0. -1.
</event>
<event>
 5   0  0.1095903E-07  0.4006021E+04  0.7818609E-02  0.8003333E-01
        2   -1    0    0  501    0  0.00000000000E+00  0.00000000000E+00  0.15324306593E+04  0.15324306593E+04  0.25500000920E-02 0. -1.
       -2   -1    0    0    0  501  0.00000000000E+00  0.00000000000E+00 -0.26180965412E+04  0.26180965412E+04  0.25500000920E-02 0.  1.
    10030    2    1    2    0    0  0.00000000000E+00  0.00000000000E+00 -0.10856658819E+04  0.41505272004E+04  0.40060211725E+04 0.  0.
        3    1    3    3  502    0 -0.18429656787E+04  0.93453289470E+02 -0.13499028583E+04  0.22863713057E+04  0.10100000352E+00 0.  1.
       -3    1    3    3    0  502  0.18429656787E+04 -0.93453289470E+02  0.26423697640E+03  0.18641558948E+04  0.10100000352E+00 0. -1.
</event>
<event>
 5   0  0.3399500E-08  0.4001013E+04  0.7818609E-02  0.8004342E-01
        1   -1    0    0  501    0  0.00000000000E+00  0.00000000000E+00  0.15755215166E+04  0.15755215166E+04  0.50400001928E-02 0.  1.
       -1   -1    0    0    0  501  0.00000000000E+00  0.00000000000E+00 -0.25401273403E+04  0.25401273403E+04  0.50400001928E-02 0. -1.
    10030    2    1    2    0    0  0.00000000000E+00  0.00000000000E+00 -0.96460582373E+03  0.41156488569E+04  0.40010125116E+04 0.  0.
        4    1    3    3  502    0 -0.54586330376E+03 -0.17185826238E+04 -0.13734566459E+04  0.22666887198E+04  0.12699999809E+01 0. -1.
       -4    1    3    3    0  502  0.54586330376E+03  0.17185826238E+04  0.40885082222E+03  0.18489601372E+04  0.12699999809E+01 0.  1.
</event>
<event>
 5   0  0.1101474E-07  0.3971128E+04  0.7818609E-02  0.8010396E-01
       -2   -1    0    0    0  501  0.00000000000E+00  0.00000000000E+00  0.16107594242E+04  0.16107594242E+04  0.25500000920E-02 0. -1.
        2   -1    0    0  501    0  0.00000000000E+00  0.00000000000E+00 -0.24475807788E+04  0.24475807788E+04  0.25500000920E-02 0.  1.
    10030    2    1    2    0    0  0.00000000000E+00  0.00000000000E+00 -0.83682135456E+03  0.40583402030E+04  0.39711277017E+04 0.  0.
        5    1    3    3  502    0  0.10503859699E+04  0.75681898698E+03 -0.19569148096E+04  0.23464064709E+04  0.46999998093E+01 0.  1.
       -5    1    3    3    0  502 -0.10503859699E+04 -0.75681898698E+03  0.11200934550E+04  0.17119337320E+04  0.46999998093E+01 0. -1.
</event>
<event>
 5   0  0.3399500E-08  0.3986581E+04  0.7818609E-02  0.8007259E-01
        1   -1    0    0  501    0  0.00000000000E+00  0.00000000000E+00  0.27107753288E+04  0.27107753288E+04  0.50400001928E-02 0. -1.
       -1   -1    0    0    0  501  0.00000000000E+00  0.00000000000E+00 -0.14657084611E+04  0.14657084611E+04  0.50400001928E-02 0.  1.
    10030    2    1    2    0    0  0.00000000000E+00  0.00000000000E+00  0.12450668677E+04  0.41764837900E+04  0.39865806580E+04 0.  0.
        4    1    3    3  502    0 -0.10737732900E+04 -0.17187052922E+03  0.23726419028E+04  0.26099731357E+04  0.12699999809E+01 0. -1.
       -4    1    3    3    0  502  0.10737732900E+04  0.17187052922E+03 -0.11275750351E+04  0.15665106543E+04  0.12699999809E+01 0.  1.
</event>
<event>
 5   0  0.3399500E-08  0.4011713E+04  0.7818609E-02  0.8002188E-01
       -1   -1    0    0    0  501  0.00000000000E+00  0.00000000000E+00  0.17235789563E+04  0.17235789563E+04  0.50400001928E-02 0. -1.
        1   -1    0    0  501    0  0.00000000000E+00  0.00000000000E+00 -0.23343632914E+04  0.23343632914E+04  0.50400001928E-02 0.  1.
    10030    2    1    2    0    0  0.00000000000E+00  0.00000000000E+00 -0.61078433511E+03  0.40579422477E+04  0.40117125747E+04 0.  0.
        5    1    3    3  502    0  0.10403957530E+04  0.20041890942E+03  0.14174219062E+04  0.17696604229E+04  0.46999998093E+01 0. -1.
       -5    1    3    3    0  502 -0.10403957530E+04 -0.20041890942E+03 -0.20282062414E+04  0.22882818248E+04  0.46999998093E+01 0.  1.
</event>
<event>
 5   0  0.1073271E-07  0.4158467E+04  0.7818609E-02  0.7973320E-01
       -2   -1    0    0    0  501  0.00000000000E+00  0.00000000000E+00  0.21990664733E+04  0.21990664733E+04  0.25500000920E-02 0.  1.
        2   -1    0    0  501    0  0.00000000000E+00  0.00000000000E+00 -0.19659308969E+04  0.19659308969E+04  0.25500000920E-02 0. -1.
    10030    2    1    2    0    0  0.00000000000E+00  0.00000000000E+00  0.23313557644E+03  0.41649973702E+04  0.41584673735E+04 0.  0.
        1    1    3    3  502    0  0.14392407661E+04  0.16395317896E+03  0.16105259914E+04  0.21661229412E+04  0.50400001928E-02 0.  1.
       -1    1    3    3    0  502 -0.14392407661E+04 -0.16395317896E+03 -0.13773904149E+04  0.19988744290E+04  0.50400001928E-02 0. -1.
</event>
<event>
 5   0  0.1095109E-07  0.4029903E+04  0.7818609E-02  0.7998541E-01
       -2   -1    0    0    0  501  0.00000000000E+00  0.00000000000E+00  0.38233317319E+04  0.38233317319E+04  0.25500000920E-02 0.  1.
        2   -1    0    0  501    0  0.00000000000E+00  0.00000000000E+00 -0.10619087030E+04  0.10619087030E+04  0.25500000920E-02 0. -1.
    10030    2    1    2    0    0  0.00000000000E+00  0.00000000000E+00  0.27614230289E+04  0.48852404349E+04  0.40299028478E+04 0.  0.
        4    1    3    3  502    0 -0.13953595102E+04 -0.10613827989E+04  0.17669503386E+03  0.17620398282E+04  0.12699999809E+01 0. -1.
       -4    1    3    3    0  502  0.13953595102E+04  0.10613827989E+04  0.25847279950E+04  0.31232006067E+04  0.12699999809E+01 0.  1.
</event>
<event>
 5   0  0.1095903E-07  0.3969349E+04  0.7818609E-02  0.8010759E-01
        2   -1    0    0  501    0  0.00000000000E+00  0.00000000000E+00  0.19735273034E+04  0.19735273034E+04  0.25500000920E-02 0. -1.
       -2   -1    0    0    0  501  0.00000000000E+00  0.00000000000E+00 -0.19958847170E+04  0.19958847170E+04  0.25500000920E-02 0.  1.
    10030    2    1    2    0    0  0.00000000000E+00  0.00000000000E+00 -0.22357413505E+02  0.39694120204E+04  0.39693490567E+04 0.  0.
        3    1    3    3  502    0  0.12828877895E+04  0.13582558003E+04  0.65836389464E+03  0.19809348620E+04  0.10100000352E+00 0.  1.
       -3    1    3    3    0  502 -0.12828877895E+04 -0.13582558003E+04 -0.68072130815E+03  0.19884771583E+04  0.10100000352E+00 0. -1.
</event>
<event>
 5   0  0.3399500E-08  0.4148824E+04  0.7818609E-02  0.7975179E-01
        1   -1    0    0  501    0  0.00000000000E+00  0.00000000000E+00  0.25104794927E+04  0.25104794927E+04  0.50400001928E-02 0. -1.
       -1   -1    0    0    0  501  0.00000000000E+00  0.00000000000E+00 -0.17140887389E+04  0.17140887390E+04  0.50400001928E-02 0.  1.
    10030    2    1    2    0    0  0.00000000000E+00  0.00000000000E+00  0.79639075372E+03  0.42245682316E+04  0.41488237503E+04 0.  0.
        4    1    3    3  502    0 -0.13360474540E+04  0.28987741655E+03 -0.11904587074E+04  0.18128003925E+04  0.12699999809E+01 0.  1.
       -4    1    3    3    0  502  0.13360474540E+04 -0.28987741655E+03  0.19868494611E+04  0.24117678392E+04  0.12699999809E+01 0. -1.
</event>
<event>
 5   0  0.3399500E-08  0.3989879E+04  0.7818609E-02  0.8006591E-01
        1   -1    0    0  501    0  0.00000000000E+00  0.00000000000E+00  0.18545991273E+04  0.18545991273E+04  0.50400001928E-02 0. -1.
       -1   -1    0    0    0  501  0.00000000000E+00  0.00000000000E+00 -0.21458991655E+04  0.21458991656E+04  0.50400001928E-02 0.  1.
    10030    2    1    2    0    0  0.00000000000E+00  0.00000000000E+00 -0.29130003826E+03  0.40004982928E+04  0.39898785544E+04 0.  0.
        2    1    3    3  502    0 -0.91052608902E+03 -0.74882884351E+03  0.14679750973E+04  0.18827515189E+04  0.25500000920E-02 0. -1.
       -2    1    3    3    0  502  0.91052608902E+03  0.74882884351E+03 -0.17592751356E+04  0.21177467739E+04  0.25500000920E-02 0.  1.
</event>
<event>
 5   0  0.1101474E-07  0.3996173E+04  0.7818609E-02  0.8005319E-01
       -2   -1    0    0    0  501  0.00000000000E+00  0.00000000000E+00  0.19351784089E+04  0.19351784089E+04  0.25500000920E-02 0. -1.
        2   -1    0    0  501    0  0.00000000000E+00  0.00000000000E+00 -0.20630391086E+04  0.20630391086E+04  0.25500000920E-02 0.  1.
    10030    2    1    2    0    0  0.00000000000E+00  0.00000000000E+00 -0.12786069967E+03  0.39982175175E+04  0.39961725387E+04 0.  0.
        5    1    3    3  502    0 -0.12807441496E+04  0.53738486721E+03 -0.15010631822E+04  0.20450674413E+04  0.46999998093E+01 0.  1.
       -5    1    3    3    0  502  0.12807441496E+04 -0.53738486721E+03  0.13732024825E+04  0.19531500762E+04  0.46999998093E+01 0. -1.
</event>
<event>
 5   0  0.3399500E-08  0.4032102E+04  0.7818609E-02  0.7998102E-01
        1   -1    0    0  501    0  0.00000000000E+00  0.00000000000E+00  0.21832060540E+04  0.21832060540E+04  0.50400001928E-02 0.  1.
       -1   -1    0    0    0  501  0.00000000000E+00  0.00000000000E+00 -0.18616939875E+04  0.18616939875E+04  0.50400001928E-02 0. -1.
    10030    2    1    2    0    0  0.00000000000E+00  0.00000000000E+00  0.32151206652E+03  0.40449000415E+04  0.40321019750E+04 0.  0.
        1    1    3    3  502    0 -0.14548894416E+04  0.40029120476E+02  0.15602309133E+04  0.21336883842E+04  0.50400001928E-02 0.  1.
       -1    1    3    3    0  502  0.14548894416E+04 -0.40029120476E+02 -0.12387188468E+04  0.19112116574E+04  0.50400001928E-02 0. -1.
</event>
<event>
 5   0  0.1095903E-07  0.3995623E+04  0.7818609E-02  0.8005430E-01
       -2   -1    0    0    0  501  0.00000000000E+00  0.00000000000E+00  0.33044912496E+04  0.33044912496E+04  0.25500000920E-02 0. -1.
        2   -1    0    0  501    0  0.00000000000E+00  0.00000000000E+00 -0.12078259832E+04  0.12078259832E+04  0.25500000920E-02 0.  1.
    10030    2    1    2    0    0  0.00000000000E+00  0.00000000000E+00  0.20966652664E+04  0.45123172328E+04  0.39956228013E+04 0.  0.
        3    1    3    3  502    0  0.11221262486E+04 -0.15740767407E+04  0.16178988574E+04  0.25208097164E+04  0.10100000352E+00 0. -1.
       -3    1    3    3    0  502 -0.11221262486E+04  0.15740767407E+04  0.47876640906E+03  0.19915075164E+04  0.10100000352E+00 0.  1.
</event>
<event>
 5   0  0.3399500E-08  0.3988367E+04  0.7818609E-02  0.8006897E-01
       -1   -1    0    0    0  501  0.00000000000E+00  0.00000000000E+00  0.20478114590E+04  0.20478114590E+04  0.50400001928E-02 0. -1.
        1   -1    0    0  501    0  0.00000000000E+00  0.00000000000E+00 -0.19419596718E+04  0.19419596718E+04  0.50400001928E-02 0.  1.
    10030    2    1    2    0    0  0.00000000000E+00  0.00000000000E+00  0.10585178722E+03  0.39897711308E+04  0.39883667178E+04 0.  0.
        2    1    3    3  502    0 -0.80253047815E+03 -0.63452063613E+03  0.17652808684E+04  0.20403156987E+04  0.25500000920E-02 0. -1.
       -2    1    3    3    0  502  0.80253047815E+03  0.63452063613E+03 -0.16594290812E+04  0.19494554321E+04  0.25500000920E-02 0.  1.
</event>
<event>
 5   0  0.3399500E-08  0.3978823E+04  0.7818609E-02  0.8008832E-01
       -1   -1    0    0    0  501  0.00000000000E+00  0.00000000000E+00  0.14060416190E+04  0.14060416190E+04  0.50400001928E-02 0.  1.
        1   -1    0    0  501    0  0.00000000000E+00  0.00000000000E+00 -0.28148234313E+04  0.28148234313E+04  0.50400001928E-02 0. -1.
    10030    2    1    2    0    0  0.00000000000E+00  0.00000000000E+00 -0.14087818123E+04  0.42208650504E+04  0.39788233912E+04 0.  0.
        4    1    3    3  502    0 -0.10150600246E+03  0.18626478052E+04 -0.14378220965E+04  0.23552270185E+04  0.12699999809E+01 0. -1.
       -4    1    3    3    0  502  0.10150600246E+03 -0.18626478052E+04  0.29040284204E+02  0.18656380318E+04  0.12699999809E+01 0.  1.
</event>
<event>
 5   0  0.1095109E-07  0.3993105E+04  0.7818609E-02  0.8005939E-01
       -2   -1    0    0    0  501  0.00000000000E+00  0.00000000000E+00  0.24363192187E+04  0.24363192187E+04  0.25500000920E-02 0. -1.
        2   -1    0    0  501    0  0.00000000000E+00  0.00000000000E+00 -0.16361658425E+04  0.16361658425E+04  0.25500000920E-02 0.  1.
    10030    2    1    2    0    0  0.00000000000E+00  0.00000000000E+00  0.80015337620E+03  0.40724850613E+04  0.39931052013E+04 0.  0.
        4    1    3    3  502    0 -0.17205740367E+04  0.10166857900E+03  0.14278342243E+04  0.22381741891E+04  0.12699999809E+01 0.  1.
       -4    1    3    3    0  502  0.17205740367E+04 -0.10166857900E+03 -0.62768084805E+03  0.18343108722E+04  0.12699999809E+01 0. -1.
</event>
<event>
 5   0  0.3399500E-08  0.3689749E+04  0.7818609E-02  0.8070237E-01
        1   -1    0    0  501    0  0.00000000000E+00  0.00000000000E+00  0.11444386553E+04  0.11444386553E+04  0.50400001928E-02 0.  1.
       -1   -1    0    0    0  501  0.00000000000E+00  0.00000000000E+00 -0.29740011240E+04  0.29740011240E+04  0.50400001928E-02 0. -1.
    10030    2    1    2    0    0  0.00000000000E+00  0.00000000000E+00 -0.18295624687E+04  0.41184397794E+04  0.36897489602E+04 0.  0.
        5    1    3    3  502    0  0.98344437691E+03  0.30371298821E+03 -0.26237229131E+04  0.28183946559E+04  0.46999998093E+01 0. -1.
       -5    1    3    3    0  502 -0.98344437691E+03 -0.30371298821E+03  0.79416044439E+03  0.13000451235E+04  0.46999998093E+01 0.  1.
</event>
<event>
 5   0  0.1087688E-07  0.3984541E+04  0.7818609E-02  0.8007672E-01
       -2   -1    0    0    0  501  0.00000000000E+00  0.00000000000E+00  0.30587730415E+04  0.30587730415E+04  0.25500000920E-02 0. -1.
        2   -1    0    0  501    0  0.00000000000E+00  0.00000000000E+00 -0.12976256315E+04  0.12976256315E+04  0.25500000920E-02 0.  1.
    10030    2    1    2    0    0  0.00000000000E+00  0.00000000000E+00  0.17611474100E+04  0.43563986731E+04  0.39845412784E+04 0.  0.
        2    1    3    3  502    0  0.73100042666E+03 -0.18532810062E+04  0.86809887210E+03  0.21731561756E+04  0.25500000920E-02 0. -1.
       -2    1    3    3    0  502 -0.73100042666E+03  0.18532810062E+04  0.89304853792E+03  0.21832424975E+04  0.25500000920E-02 0.  1.
</event>
<event>
 5   0  0.3399500E-08  0.3986646E+04  0.7818609E-02  0.8007246E-01
       -1   -1    0    0    0  501  0.00000000000E+00  0.00000000000E+00  0.32489805423E+04  0.32489805423E+04  0.50400001928E-02 0.  1.
        1   -1    0    0  501    0  0.00000000000E+00  0.00000000000E+00 -0.12229485684E+04  0.12229485684E+04  0.50400001928E-02 0. -1.
    10030    2    1    2    0    0  0.00000000000E+00  0.00000000000E+00  0.20260319739E+04  0.44719291108E+04  0.39866457596E+04 0.  0.
        4    1    3    3  502    0  0.18337513667E+04 -0.60763933133E+03  0.15642223600E+04  0.24856916214E+04  0.12699999809E+01 0.  1.
       -4    1    3    3    0  502 -0.18337513667E+04  0.60763933133E+03  0.46180961383E+03  0.19862374894E+04  0.12699999809E+01 0. -1.
</event>
<event>
 5   0  0.3399500E-08  0.4012285E+04  0.7818609E-02  0.8002073E-01
       -1   -1    0    0    0  501  0.00000000000E+00  0.00000000000E+00  0.15078095184E+04  0.15078095184E+04  0.50400001928E-02 0. -1.
        1   -1    0    0  501    0  0.00000000000E+00  0.00000000000E+00 -0.26691755486E+04  0.26691755486E+04  0.50400001928E-02 0.  1.
    10030    2    1    2    0    0  0.00000000000E+00  0.00000000000E+00 -0.11613660302E+04  0.41769850670E+04  0.40122852832E+04 0.  0.
        1    1    3    3  502    0 -0.24835144830E+02 -0.92772469520E+03  0.12708973718E+04  0.15736804073E+04  0.50400001928E-02 0. -1.
       -1    1    3    3    0  502  0.24835144830E+02  0.92772469520E+03 -0.24322634020E+04  0.26033046597E+04  0.50400001928E-02 0.  1.
</event>
<event>
 5   0  0.1087688E-07  0.3990472E+04  0.7818609E-02  0.8006471E-01
       -2   -1    0    0    0  501  0.00000000000E+00  0.00000000000E+00  0.20089650691E+04  0.20089650691E+04  0.25500000920E-02 0.  1.
        2   -1    0    0  501    0  0.00000000000E+00  0.00000000000E+00 -0.19816008712E+04  0.19816008712E+04  0.25500000920E-02 0. -1.
    10030    2    1    2    0    0  0.00000000000E+00  0.00000000000E+00  0.27364197926E+02  0.39905659403E+04  0.39904721180E+04 0.  0.
        2    1    3    3  502    0 -0.88086373307E+03 -0.52341809029E+03 -0.16983977321E+04  0.19835428581E+04  0.25500000920E-02 0. -1.
       -2    1    3    3    0  502  0.88086373307E+03  0.52341809029E+03  0.17257619300E+04  0.20070230822E+04  0.25500000920E-02 0.  1.
</event>
<event>
 5   0  0.1095109E-07  0.4003811E+04  0.7818609E-02  0.8003778E-01
       -2   -1    0    0    0  501  0.00000000000E+00  0.00000000000E+00  0.13686064208E+04  0.13686064208E+04  0.25500000920E-02 0. -1.
        2   -1    0    0  501    0  0.00000000000E+00  0.00000000000E+00 -0.29282535450E+04  0.29282535450E+04  0.25500000920E-02 0.  1.
    10030    2    1    2    0    0  0.00000000000E+00  0.00000000000E+00 -0.15596471242E+04  0.42968599659E+04  0.40038114859E+04 0.  0.
        4    1    3    3  502    0 -0.14722555377E+03  0.68075062778E+03  0.12343867686E+04  0.14173246235E+04  0.12699999809E+01 0. -1.
       -4    1    3    3    0  502  0.14722555377E+03 -0.68075062778E+03 -0.27940338928E+04  0.28795353424E+04  0.12699999809E+01 0.  1.
</event>
<event>
 5   0  0.3399500E-08  0.4016579E+04  0.7818609E-02  0.8001210E-01
       -1   -1    0    0    0  501  0.00000000000E+00  0.00000000000E+00  0.31966202314E+04  0.31966202314E+04  0.50400001928E-02 0. -1.
        1   -1    0    0  501    0  0.00000000000E+00  0.00000000000E+00 -0.12617162303E+04  0.12617162304E+04  0.50400001928E-02 0.  1.
    10030    2    1    2    0    0  0.00000000000E+00  0.00000000000E+00  0.19349040011E+04  0.44583364618E+04  0.40165794543E+04 0.  0.
        2    1    3    3  502    0  0.19343507768E+04  0.45913743643E+03  0.65211606467E+03  0.20923134266E+04  0.25500000920E-02 0.  1.
       -2    1    3    3    0  502 -0.19343507768E+04 -0.45913743643E+03  0.12827879364E+04  0.23660230352E+04  0.25500000920E-02 0. -1.
</event>
<event>
 5   0  0.3399500E-08  0.4009044E+04  0.7818609E-02  0.8002724E-01
        1   -1    0    0  501    0  0.00000000000E+00  0.00000000000E+00  0.19327560391E+04  0.19327560391E+04  0.50400001928E-02 0.  1.
       -1   -1    0    0    0  501  0.00000000000E+00  0.00000000000E+00 -0.20789531629E+04  0.20789531629E+04  0.50400001928E-02 0. -1.
    10030    2    1    2    0    0  0.00000000000E+00  0.00000000000E+00 -0.14619712385E+03  0.40117092020E+04  0.40090444151E+04 0.  0.
        3    1    3    3  502    0 -0.74978933324E+03 -0.84144456996E+03 -0.17318783831E+04  0.20663048547E+04  0.10100000352E+00 0. -1.
       -3    1    3    3    0  502  0.74978933324E+03  0.84144456996E+03  0.15856812592E+04  0.19454043473E+04  0.10100000352E+00 0.  1.
</event>
<event>
 5   0  0.3399500E-08  0.3973028E+04  0.7818609E-02  0.8010010E-01
        1   -1    0    0  501    0  0.00000000000E+00  0.00000000000E+00  0.26297833156E+04  0.26297833157E+04  0.50400001928E-02 0. -1.
       -1   -1    0    0    0  501  0.00000000000E+00  0.00000000000E+00 -0.15005943727E+04  0.15005943727E+04  0.50400001928E-02 0.  1.
    10030    2    1    2    0    0  0.00000000000E+00  0.00000000000E+00  0.11291889429E+04  0.41303776884E+04  0.39730280870E+04 0.  0.
        1    1    3    3  502    0 -0.10172336003E+04  0.14735394021E+04 -0.32980103702E+03  0.18206733071E+04  0.50400001928E-02 0.  1.
       -1    1    3    3    0  502  0.10172336003E+04 -0.14735394021E+04  0.14589899800E+04  0.23097043813E+04  0.50400001928E-02 0. -1.
</event>
<event>
 5   0  0.1095109E-07  0.3530487E+04  0.7818609E-02  0.8106603E-01
        2   -1    0    0  501    0  0.00000000000E+00  0.00000000000E+00  0.27447528788E+04  0.27447528788E+04  0.25500000920E-02 0. -1.
       -2   -1    0    0    0  501  0.00000000000E+00  0.00000000000E+00 -0.11352880106E+04  0.11352880106E+04  0.25500000920E-02 0.  1.
    10030    2    1    2    0    0  0.00000000000E+00  0.00000000000E+00  0.16094648682E+04  0.38800408894E+04  0.35304872385E+04 0.  0.
        4    1    3    3  502    0  0.56135610979E+03  0.11750716868E+03 -0.10300399805E+04  0.11789455420E+04  0.12699999809E+01 0.  1.
       -4    1    3    3    0  502 -0.56135610979E+03 -0.11750716868E+03  0.26395048487E+04  0.27010953474E+04  0.12699999809E+01 0. -1.
</event>
<event>
 5   0  0.3399500E-08  0.3914812E+04  0.7818609E-02  0.8021956E-01
       -1   -1    0    0    0  501  0.00000000000E+00  0.00000000000E+00  0.27797619551E+04  0.27797619551E+04  0.50400001928E-02 0. -1.
        1   -1    0    0  501    0  0.00000000000E+00  0.00000000000E+00 -0.13783330909E+04  0.13783330909E+04  0.50400001928E-02 0.  1.
    10030    2    1    2    0    0  0.00000000000E+00  0.00000000000E+00  0.14014288642E+04  0.41580950460E+04  0.39148118154E+04 0.  0.
        3    1    3    3  502    0  0.94052194836E+03 -0.16851816245E+04  0.10481821338E+04  0.21961567428E+04  0.10100000352E+00 0. -1.
       -3    1    3    3    0  502 -0.94052194836E+03  0.16851816245E+04  0.35324673034E+03  0.19619383032E+04  0.10100000352E+00 0.  1.
</event>
<event>
 5   0  0.3399500E-08  0.3995195E+04  0.7818609E-02  0.8005516E-01
        1   -1    0    0  501    0  0.00000000000E+00  0.00000000000E+00  0.23838927511E+04  0.23838927511E+04  0.50400001928E-02 0. -1.
       -1   -1    0    0    0  501  0.00000000000E+00  0.00000000000E+00 -0.16738994082E+04  0.16738994082E+04  0.50400001928E-02 0.  1.
    10030    2    1    2    0    0  0.00000000000E+00  0.00000000000E+00  0.70999334283E+03  0.40577921593E+04  0.39951954472E+04 0.  0.
        1    1    3    3  502    0  0.37522500372E+03  0.13251164717E+04 -0.11146258558E+04  0.17717557014E+04  0.50400001928E-02 0.  1.
       -1    1    3    3    0  502 -0.37522500372E+03 -0.13251164717E+04  0.18246191986E+04  0.22860364579E+04  0.50400001928E-02 0. -1.
</event>
<event>
 5   0  0.3399500E-08  0.3934706E+04  0.7818609E-02  0.8017849E-01
        1   -1    0    0  501    0  0.00000000000E+00  0.00000000000E+00  0.20584436322E+04  0.20584436322E+04  0.50400001928E-02 0.  1.
       -1   -1    0    0    0  501  0.00000000000E+00  0.00000000000E+00 -0.18802934839E+04  0.18802934839E+04  0.50400001928E-02 0. -1.
    10030    2    1    2    0    0  0.00000000000E+00  0.00000000000E+00  0.17815014832E+03  0.39387371161E+04  0.39347061637E+04 0.  0.
        1    1    3    3  502    0 -0.80885376832E+03 -0.15052700878E+04 -0.88680605418E+03  0.19252291899E+04  0.50400001928E-02 0. -1.
       -1    1    3    3    0  502  0.80885376832E+03  0.15052700878E+04  0.10649562025E+04  0.20135079262E+04  0.50400001928E-02 0.  1.
</event>
<event>
 5   0  0.1095109E-07  0.3987138E+04  0.7818609E-02  0.8007146E-01
        2   -1    0    0  501    0  0.00000000000E+00  0.00000000000E+00  0.25506189804E+04  0.25506189804E+04  0.25500000920E-02 0. -1.
       -2   -1    0    0    0  501  0.00000000000E+00  0.00000000000E+00 -0.15581772478E+04  0.15581772478E+04  0.25500000920E-02 0.  1.
    10030    2    1    2    0    0  0.00000000000E+00  0.00000000000E+00  0.99244173267E+03  0.41087962282E+04  0.39871375512E+04 0.  0.
        4    1    3    3  502    0 -0.14799176199E+04 -0.52143180405E+03  0.17634866330E+04  0.23604944409E+04  0.12699999809E+01 0. -1.
       -4    1    3    3    0  502  0.14799176199E+04  0.52143180405E+03 -0.77104490031E+03  0.17483017872E+04  0.12699999809E+01 0.  1.
</event>
<event>
 5   0  0.1095903E-07  0.3978647E+04  0.7818609E-02  0.8008868E-01
       -2   -1    0    0    0  501  0.00000000000E+00  0.00000000000E+00  0.13771589848E+04  0.13771589848E+04  0.25500000920E-02 0.  1.
        2   -1    0    0  501    0  0.00000000000E+00  0.00000000000E+00 -0.28736032672E+04  0.28736032672E+04  0.25500000920E-02 0. -1.
    10030    2    1    2    0    0  0.00000000000E+00  0.00000000000E+00 -0.14964442824E+04  0.42507622521E+04  0.39786472869E+04 0.  0.
        3    1    3    3  502    0  0.18386515536E+03 -0.19769934092E+04 -0.61693913109E+03  0.20791640717E+04  0.10100000352E+00 0. -1.
       -3    1    3    3    0  502 -0.18386515536E+03  0.19769934092E+04 -0.87950515131E+03  0.21715981804E+04  0.10100000352E+00 0.  1.
</event>
<event>
 5   0  0.1101474E-07  0.3996996E+04  0.7818609E-02  0.8005153E-01
       -2   -1    0    0    0  501  0.00000000000E+00  0.00000000000E+00  0.19206905046E+04  0.19206905046E+04  0.25500000920E-02 0. -1.
        2   -1    0    0  501    0  0.00000000000E+00  0.00000000000E+00 -0.20794574044E+04  0.20794574045E+04  0.25500000920E-02 0.  1.
    10030    2    1    2    0    0  0.00000000000E+00  0.00000000000E+00 -0.15876689984E+03  0.40001479091E+04  0.39969959177E+04 0.  0.
        5    1    3    3  502    0 -0.13325345192E+04  0.53402894243E+03  0.13120859003E+04  0.19448461780E+04  0.46999998093E+01 0. -1.
       -5    1    3    3    0  502  0.13325345192E+04 -0.53402894243E+03 -0.14708528001E+04  0.20553017311E+04  0.46999998093E+01 0.  1.
</event>
<event>
 5   0  0.1095903E-07  0.3934221E+04  0.7818609E-02  0.8017949E-01
       -2   -1    0    0    0  501  0.00000000000E+00  0.00000000000E+00  0.15991478406E+04  0.15991478406E+04  0.25500000920E-02 0.  1.
        2   -1    0    0  501    0  0.00000000000E+00  0.00000000000E+00 -0.24197411402E+04  0.24197411402E+04  0.25500000920E-02 0. -1.
    10030    2    1    2    0    0  0.00000000000E+00  0.00000000000E+00 -0.82059329964E+03  0.40188889808E+04  0.39342210508E+04 0.  0.
        3    1    3    3  502    0 -0.11505213120E+04  0.15377969353E+04 -0.84489959351E+03  0.20981835089E+04  0.10100000352E+00 0. -1.
       -3    1    3    3    0  502  0.11505213120E+04 -0.15377969353E+04  0.24306293864E+02  0.19207054719E+04  0.10100000352E+00 0.  1.
</event>
<event>
 5   0  0.3399500E-08  0.3996822E+04  0.7818609E-02  0.8005188E-01
       -1   -1    0    0    0  501  0.00000000000E+00  0.00000000000E+00  0.17849824996E+04  0.17849824996E+04  0.50400001928E-02 0.  1.
        1   -1    0    0  501    0  0.00000000000E+00  0.00000000000E+00 -0.22373590708E+04  0.22373590708E+04  0.50400001928E-02 0. -1.
    10030    2    1    2    0    0  0.00000000000E+00  0.00000000000E+00 -0.45237657115E+03  0.40223415704E+04  0.39968221310E+04 0.  0.
        5    1    3    3  502    0  0.73451363955E+01 -0.10556469400E+04  0.14814605085E+04  0.18191183967E+04  0.46999998093E+01 0.  1.
       -5    1    3    3    0  502 -0.73451363955E+01  0.10556469400E+04 -0.19338370796E+04  0.22032231738E+04  0.46999998093E+01 0. -1.
</event>
<event>
 5   0  0.1101474E-07  0.3986201E+04  0.7818609E-02  0.8007336E-01
       -2   -1    0    0    0  501  0.00000000000E+00  0.00000000000E+00  0.14721884486E+04  0.14721884486E+04  0.25500000920E-02 0. -1.
        2   -1    0    0  501    0  0.00000000000E+00  0.00000000000E+00 -0.26983293318E+04  0.26983293318E+04  0.25500000920E-02 0.  1.
    10030    2    1    2    0    0  0.00000000000E+00  0.00000000000E+00 -0.12261408833E+04  0.41705177804E+04  0.39862008342E+04 0.  0.
        5    1    3    3  502    0 -0.13872231327E+04 -0.14117992643E+04 -0.85812716338E+03  0.21573060750E+04  0.46999998093E+01 0.  1.
       -5    1    3    3    0  502  0.13872231327E+04  0.14117992643E+04 -0.36801371990E+03  0.20132117054E+04  0.46999998093E+01 0. -1.
</event>
<event>
 5   0  0.1087688E-07  0.4017495E+04  0.7818609E-02  0.8001027E-01
        2   -1    0    0  501    0  0.00000000000E+00  0.00000000000E+00  0.19076594030E+04  0.19076594030E+04  0.25500000920E-02 0.  1.
       -2   -1    0    0    0  501  0.00000000000E+00  0.00000000000E+00 -0.21151918471E+04  0.21151918471E+04  0.25500000920E-02 0. -1.
    10030    2    1    2    0    0  0.00000000000E+00  0.00000000000E+00 -0.20753244414E+03  0.40228512501E+04  0.40174945507E+04 0.  0.
        2    1    3    3  502    0 -0.75414281633E+03  0.18604294509E+04 -0.32001374249E+02  0.20077233916E+04  0.25500000920E-02 0. -1.
       -2    1    3    3    0  502  0.75414281633E+03 -0.18604294509E+04 -0.17553106989E+03  0.20151278584E+04  0.25500000920E-02 0.  1.
</event>
<event>
 5   0  0.1101474E-07  0.3992842E+04  0.7818609E-02  0.8005992E-01
       -2   -1    0    0    0  501  0.00000000000E+00  0.00000000000E+00  0.13738299509E+04  0.13738299509E+04  0.25500000920E-02 0. -1.
        2   -1    0    0  501    0  0.00000000000E+00  0.00000000000E+00 -0.29011572537E+04  0.29011572537E+04  0.25500000920E-02 0.  1.
    10030    2    1    2    0    0  0.00000000000E+00  0.00000000000E+00 -0.15273273027E+04  0.42749872046E+04  0.39928419590E+04 0.  0.
        5    1    3    3  502    0 -0.19509899910E+04 -0.41087847044E+03 -0.87332991520E+03  0.21766741357E+04  0.46999998093E+01 0. -1.
       -5    1    3    3    0  502  0.19509899910E+04  0.41087847044E+03 -0.65399738754E+03  0.20983130689E+04  0.46999998093E+01 0.  1.
</event>
<event>
 5   0  0.3399500E-08  0.4110961E+04  0.7818609E-02  0.7982529E-01
        1   -1    0    0  501    0  0.00000000000E+00  0.00000000000E+00  0.17559898614E+04  0.17559898614E+04  0.50400001928E-02 0.  1.
       -1   -1    0    0    0  501  0.00000000000E+00  0.00000000000E+00 -0.24060503193E+04  0.24060503193E+04  0.50400001928E-02 0. -1.
    10030    2    1    2    0    0  0.00000000000E+00  0.00000000000E+00 -0.65006045792E+03  0.41620401807E+04  0.41109609420E+04 0.  0.
        1    1    3    3  502    0 -0.14818873914E+04 -0.16653760444E+03  0.11072114175E+04  0.18573212263E+04  0.50400001928E-02 0.  1.
       -1    1    3    3    0  502  0.14818873914E+04  0.16653760444E+03 -0.17572718754E+04  0.23047189544E+04  0.50400001928E-02 0. -1.
</event>
<event>
 5   0  0.1087688E-07  0.3663629E+04  0.7818609E-02  0.8076070E-01
        2   -1    0    0  501    0  0.00000000000E+00  0.00000000000E+00  0.22272647984E+04  0.22272647984E+04  0.25500000920E-02 0.  1.
       -2   -1    0    0    0  501  0.00000000000E+00  0.00000000000E+00 -0.15065765208E+04  0.15065765208E+04  0.25500000920E-02 0. -1.
    10030    2    1    2    0    0  0.00000000000E+00  0.00000000000E+00  0.72068827755E+03  0.37338413192E+04  0.36636292667E+04 0.  0.
        2    1    3    3  502    0  0.65238834848E+02 -0.15593045523E+04  0.13378170855E+04  0.20555878348E+04  0.25500000920E-02 0.  1.
       -2    1    3    3    0  502 -0.65238834848E+02  0.15593045523E+04 -0.61712880793E+03  0.16782534844E+04  0.25500000920E-02 0. -1.
</event>
<event>
 5   0  0.3399500E-08  0.4022507E+04  0.7818609E-02  0.8000022E-01
        1   -1    0    0  501    0  0.00000000000E+00  0.00000000000E+00  0.20508407913E+04  0.20508407913E+04  0.50400001928E-02 0. -1.
       -1   -1    0    0    0  501  0.00000000000E+00  0.00000000000E+00 -0.19724302414E+04  0.19724302414E+04  0.50400001928E-02 0.  1.
    10030    2    1    2    0    0  0.00000000000E+00  0.00000000000E+00  0.78410549927E+02  0.40232710328E+04  0.40225068786E+04 0.  0.
        5    1    3    3  502    0 -0.14387369549E+04 -0.11293726201E+04  0.87582802435E+03  0.20279406694E+04  0.46999998093E+01 0. -1.
       -5    1    3    3    0  502  0.14387369549E+04  0.11293726201E+04 -0.79741747442E+03  0.19953303634E+04  0.46999998093E+01 0.  1.
</event>
<event>
 5   0  0.3399500E-08  0.4008785E+04  0.7818609E-02  0.8002777E-01
        1   -1    0    0  501    0  0.00000000000E+00  0.00000000000E+00  0.21979200270E+04  0.21979200270E+04  0.50400001928E-02 0.  1.
       -1   -1    0    0    0  501  0.00000000000E+00  0.00000000000E+00 -0.18279052310E+04  0.18279052310E+04  0.50400001928E-02 0. -1.
    10030    2    1    2    0    0  0.00000000000E+00  0.00000000000E+00  0.37001479601E+03  0.40258252580E+04  0.40087851101E+04 0.  0.
        5    1    3    3  502    0 -0.91162663868E+03  0.10686447678E+04  0.16209463722E+04  0.21448902069E+04  0.46999998093E+01 0.  1.
       -5    1    3    3    0  502  0.91162663868E+03 -0.10686447678E+04 -0.12509315762E+04  0.18809350511E+04  0.46999998093E+01 0. -1.
</event>
<event>
 5   0  0.1095109E-07  0.3994599E+04  0.7818609E-02  0.8005637E-01
       -2   -1    0    0    0  501  0.00000000000E+00  0.00000000000E+00  0.17306219562E+04  0.17306219562E+04  0.25500000920E-02 0. -1.
        2   -1    0    0  501    0  0.00000000000E+00  0.00000000000E+00 -0.23050705829E+04  0.23050705829E+04  0.25500000920E-02 0.  1.
    10030    2    1    2    0    0  0.00000000000E+00  0.00000000000E+00 -0.57444862670E+03  0.40356925391E+04  0.39945992347E+04 0.  0.
        4    1    3    3  502    0  0.43046738892E+03 -0.11762113690E+04 -0.18590016143E+04  0.22415762250E+04  0.12699999809E+01 0.  1.
       -4    1    3    3    0  502 -0.43046738892E+03  0.11762113690E+04  0.12845529876E+04  0.17941163141E+04  0.12699999809E+01 0. -1.
</event>
<event>
 5   0  0.3399500E-08  0.3838986E+04  0.7818609E-02  0.8037840E-01
        1   -1    0    0  501    0  0.00000000000E+00  0.00000000000E+00  0.27254512969E+04  0.27254512969E+04  0.50400001928E-02 0. -1.
       -1   -1    0    0    0  501  0.00000000000E+00  0.00000000000E+00 -0.13518692945E+04  0.13518692945E+04  0.50400001928E-02 0.  1.
    10030    2    1    2    0    0  0.00000000000E+00  0.00000000000E+00  0.13735820024E+04  0.40773205914E+04  0.38389862839E+04 0.  0.
        5    1    3    3  502    0 -0.15289215067E+04  0.30834637745E+03  0.18750679835E+04  0.24389711960E+04  0.46999998093E+01 0. -1.
       -5    1    3    3    0  502  0.15289215067E+04 -0.30834637745E+03 -0.50148598115E+03  0.16383493954E+04  0.46999998093E+01 0.  1.
</event>
<event>
 5   0  0.3399500E-08  0.4010322E+04  0.7818609E-02  0.8002468E-01
        1   -1    0    0  501    0  0.00000000000E+00  0.00000000000E+00  0.13575164610E+04  0.13575164610E+04  0.50400001928E-02 0.  1.
       -1   -1    0    0    0  501  0.00000000000E+00  0.00000000000E+00 -0.29617840529E+04  0.29617840529E+04  0.50400001928E-02 0. -1.
    10030    2    1    2    0    0  0.00000000000E+00  0.00000000000E+00 -0.16042675918E+04  0.43193005139E+04  0.40103219850E+04 0.  0.
        1    1    3    3  502    0 -0.23126167593E+03  0.37684762697E+02  0.13427208079E+04  0.13630118385E+04  0.50400001928E-02 0.  1.
       -1    1    3    3    0  502  0.23126167593E+03 -0.37684762697E+02 -0.29469883997E+04  0.29562886754E+04  0.50400001928E-02 0. -1.
</event>
<event>
 5   0  0.3399500E-08  0.3997800E+04  0.7818609E-02  0.8004991E-01
       -1   -1    0    0    0  501  0.00000000000E+00  0.00000000000E+00  0.15370316958E+04  0.15370316958E+04  0.50400001928E-02 0.  1.
        1   -1    0    0  501    0  0.00000000000E+00  0.00000000000E+00 -0.25995567949E+04  0.25995567949E+04  0.50400001928E-02 0. -1.
    10030    2    1    2    0    0  0.00000000000E+00  0.00000000000E+00 -0.10625250991E+04  0.41365884908E+04  0.39977999895E+04 0.  0.
        5    1    3    3  502    0 -0.12177417010E+04 -0.15728531715E+04 -0.32740205345E+03  0.20159305901E+04  0.46999998093E+01 0.  1.
       -5    1    3    3    0  502  0.12177417010E+04  0.15728531715E+04 -0.73512304565E+03  0.21206579007E+04  0.46999998093E+01 0. -1.
</event>
<event>
 5   0  0.1101474E-07  0.4000605E+04  0.7818609E-02  0.8004425E-01
        2   -1    0    0  501    0  0.00000000000E+00  0.00000000000E+00  0.25721646893E+04  0.25721646893E+04  0.25500000920E-02 0. -1.
       -2   -1    0    0    0  501  0.00000000000E+00  0.00000000000E+00 -0.15555804751E+04  0.15555804751E+04  0.25500000920E-02 0.  1.
    10030    2    1    2    0    0  0.00000000000E+00  0.00000000000E+00  0.10165842142E+04  0.41277451644E+04  0.40006045391E+04 0.  0.
        5    1    3    3  502    0  0.10849558519E+04  0.14838562975E+04 -0.30559123029E+03  0.18634287757E+04  0.46999998093E+01 0.  1.
       -5    1    3    3    0  502 -0.10849558519E+04 -0.14838562975E+04  0.13221754445E+04  0.22643163887E+04  0.46999998093E+01 0. -1.
</event>
<event>
 5   0  0.3399500E-08  0.3986856E+04  0.7818609E-02  0.8007203E-01
        1   -1    0    0  501    0  0.00000000000E+00  0.00000000000E+00  0.27864328159E+04  0.27864328159E+04  0.50400001928E-02 0.  1.
       -1   -1    0    0    0  501  0.00000000000E+00  0.00000000000E+00 -0.14261080848E+04  0.14261080848E+04  0.50400001928E-02 0. -1.
    10030    2    1    2    0    0  0.00000000000E+00  0.00000000000E+00  0.13603247311E+04  0.42125409007E+04  0.39868555863E+04 0.  0.
        1    1    3    3  502    0  0.64598800215E+03 -0.10973944767E+04  0.23006616039E+04  0.26295663049E+04  0.50400001928E-02 0.  1.
       -1    1    3    3    0  502 -0.64598800215E+03  0.10973944767E+04 -0.94033687275E+03  0.15829745957E+04  0.50400001928E-02 0. -1.
</event>
<event>
 5   0  0.1101474E-07  0.3983967E+04  0.7818609E-02  0.8007789E-01
       -2   -1    0    0    0  501  0.00000000000E+00  0.00000000000E+00  0.17693810822E+04  0.17693810822E+04  0.25500000920E-02 0. -1.
        2   -1    0    0  501    0  0.00000000000E+00  0.00000000000E+00 -0.22425908212E+04  0.22425908212E+04  0.25500000920E-02 0.  1.
    10030    2    1    2    0    0  0.00000000000E+00  0.00000000000E+00 -0.47320973898E+03  0.40119719034E+04  0.39839667539E+04 0.  0.
        5    1    3    3  502    0  0.12024489534E+04  0.69843279976E+03 -0.16729140952E+04  0.21753977846E+04  0.46999998093E+01 0.  1.
       -5    1    3    3    0  502 -0.12024489534E+04 -0.69843279976E+03  0.11997043562E+04  0.18365741188E+04  0.46999998093E+01 0. -1.
</event>
<event>
 5   0  0.3399500E-08  0.3980344E+04  0.7818609E-02  0.8008524E-01
       -1   -1    0    0    0  501  0.00000000000E+00  0.00000000000E+00  0.14575491928E+04  0.14575491929E+04  0.50400001928E-02 0. -1.
        1   -1    0    0  501    0  0.00000000000E+00  0.00000000000E+00 -0.27174274580E+04  0.27174274580E+04  0.50400001928E-02 0.  1.
    10030    2    1    2    0    0  0.00000000000E+00  0.00000000000E+00 -0.12598782652E+04  0.41749766509E+04  0.39803438033E+04 0.  0.
        5    1    3    3  502    0 -0.22015184200E+03  0.20192544827E+03  0.14338926508E+04  0.14646880024E+04  0.46999998093E+01 0. -1.
       -5    1    3    3    0  502  0.22015184200E+03 -0.20192544827E+03 -0.26937709160E+04  0.27102886485E+04  0.46999998093E+01 0.  1.
</event>
<event>
 5   0  0.1095109E-07  0.4005108E+04  0.7818609E-02  0.8003517E-01
       -2   -1    0    0    0  501  0.00000000000E+00  0.00000000000E+00  0.17827580953E+04  0.17827580953E+04  0.25500000920E-02 0. -1.
        2   -1    0    0  501    0  0.00000000000E+00  0.00000000000E+00 -0.22494483983E+04  0.22494483983E+04  0.25500000920E-02 0.  1.
    10030    2    1    2    0    0  0.00000000000E+00  0.00000000000E+00 -0.46669030302E+03  0.40322064935E+04  0.40051079096E+04 0.  0.
        4    1    3    3  502    0  0.51289303226E+03 -0.10919678917E+04  0.13758334246E+04  0.18298558315E+04  0.12699999809E+01 0. -1.
       -4    1    3    3    0  502 -0.51289303226E+03  0.10919678917E+04 -0.18425237276E+04  0.22023506621E+04  0.12699999809E+01 0.  1.
</event>
<event>
 5   0  0.3399500E-08  0.4011880E+04  0.7818609E-02  0.8002154E-01
        1   -1    0    0  501    0  0.00000000000E+00  0.00000000000E+00  0.14713497392E+04  0.14713497392E+04  0.50400001928E-02 0.  1.
       -1   -1    0    0    0  501  0.00000000000E+00  0.00000000000E+00 -0.27347647633E+04  0.27347647633E+04  0.50400001928E-02 0. -1.
    10030    2    1    2    0    0  0.00000000000E+00  0.00000000000E+00 -0.12634150241E+04  0.42061145025E+04  0.40118800687E+04 0.  0.
        4    1    3    3  502    0  0.15873478383E+04  0.11413871936E+04 -0.11021595499E+04  0.22443696602E+04  0.12699999809E+01 0. -1.
       -4    1    3    3    0  502 -0.15873478383E+04 -0.11413871936E+04 -0.16125547422E+03  0.19617448423E+04  0.12699999809E+01 0.  1.
</event>
<event>
 5   0  0.3399500E-08  0.3739319E+04  0.7818609E-02  0.8059304E-01
        1   -1    0    0  501    0  0.00000000000E+00  0.00000000000E+00  0.17107570467E+04  0.17107570467E+04  0.50400001928E-02 0.  1.
       -1   -1    0    0    0  501  0.00000000000E+00  0.00000000000E+00 -0.20433213203E+04  0.20433213203E+04  0.50400001928E-02 0. -1.
    10030    2    1    2    0    0  0.00000000000E+00  0.00000000000E+00 -0.33256427358E+03  0.37540783670E+04  0.37393188404E+04 0.  0.
        2    1    3    3  502    0 -0.28260380963E+03 -0.11886211262E+04  0.12545571020E+04  0.17511706419E+04  0.25500000920E-02 0.  1.
       -2    1    3    3    0  502  0.28260380963E+03  0.11886211262E+04 -0.15871213756E+04  0.20029077252E+04  0.25500000920E-02 0. -1.
</event>
<event>
 5   0  0.3399500E-08  0.3716029E+04  0.7818609E-02  0.8064419E-01
       -1   -1    0    0    0  501  0.00000000000E+00  0.00000000000E+00  0.16492416090E+04  0.16492416090E+04  0.50400001928E-02 0. -1.
        1   -1    0    0  501    0  0.00000000000E+00  0.00000000000E+00 -0.20932151749E+04  0.20932151749E+04  0.50400001928E-02 0.  1.
    10030    2    1    2    0    0  0.00000000000E+00  0.00000000000E+00 -0.44397356593E+03  0.37424567839E+04  0.37160288282E+04 0.  0.
        3    1    3    3  502    0 -0.10987000581E+04  0.32651713129E+03  0.12507614776E+04  0.16965139371E+04  0.10100000352E+00 0. -1.
       -3    1    3    3    0  502  0.10987000581E+04 -0.32651713129E+03 -0.16947350435E+04  0.20459428469E+04  0.10100000352E+00 0.  1.
</event>
<event>
 5   0  0.1095903E-07  0.4013629E+04  0.7818609E-02  0.8001803E-01
        2   -1    0    0  501    0  0.00000000000E+00  0.00000000000E+00  0.13639986484E+04  0.13639986484E+04  0.25500000920E-02 0. -1.
       -2   -1    0    0    0  501  0.00000000000E+00  0.00000000000E+00 -0.29525717180E+04  0.29525717180E+04  0.25500000920E-02 0.  1.
    10030    2    1    2    0    0  0.00000000000E+00  0.00000000000E+00 -0.15885730696E+04  0.43165703664E+04  0.40136286987E+04 0.  0.
        3    1    3    3  502    0 -0.17656560746E+04  0.89569996234E+03 -0.11468794605E+04  0.22880455204E+04  0.10100000352E+00 0.  1.
       -3    1    3    3    0  502  0.17656560746E+04 -0.89569996234E+03 -0.44169360903E+03  0.20285248460E+04  0.10100000352E+00 0. -1.
</event>
<event>
 5   0  0.3399500E-08  0.4077427E+04  0.7818609E-02  0.7989107E-01
       -1   -1    0    0    0  501  0.00000000000E+00  0.00000000000E+00  0.13598520895E+04  0.13598520895E+04  0.50400001928E-02 0. -1.
        1   -1    0    0  501    0  0.00000000000E+00  0.00000000000E+00 -0.30564748500E+04  0.30564748500E+04  0.50400001928E-02 0.  1.
    10030    2    1    2    0    0  0.00000000000E+00  0.00000000000E+00 -0.16966227606E+04  0.44163269395E+04  0.40774274788E+04 0.  0.
        2    1    3    3  502    0 -0.15294525847E+03 -0.12643841691E+04 -0.25725742660E+04  0.28705744953E+04  0.25500000920E-02 0.  1.
       -2    1    3    3    0  502  0.15294525847E+03  0.12643841691E+04  0.87595150537E+03  0.15457524442E+04  0.25500000920E-02 0. -1.
</event>
<event>
 5   0  0.3399500E-08  0.3970943E+04  0.7818609E-02  0.8010434E-01
        1   -1    0    0  501    0  0.00000000000E+00  0.00000000000E+00  0.27363407069E+04  0.27363407069E+04  0.50400001928E-02 0.  1.
       -1   -1    0    0    0  501  0.00000000000E+00  0.00000000000E+00 -0.14406453479E+04  0.14406453479E+04  0.50400001928E-02 0. -1.
    10030    2    1    2    0    0  0.00000000000E+00  0.00000000000E+00  0.12956953590E+04  0.41769860547E+04  0.39709427140E+04 0.  0.
        4    1    3    3  502    0 -0.13151623308E+04  0.15758052191E+03 -0.90795489003E+03  0.16058851990E+04  0.12699999809E+01 0. -1.
       -4    1    3    3    0  502  0.13151623308E+04 -0.15758052191E+03  0.22036502490E+04  0.25711008557E+04  0.12699999809E+01 0.  1.
</event>
<event>
 5   0  0.1101474E-07  0.4021062E+04  0.7818609E-02  0.8000311E-01
       -2   -1    0    0    0  501  0.00000000000E+00  0.00000000000E+00  0.16679915120E+04  0.16679915120E+04  0.25500000920E-02 0. -1.
        2   -1    0    0  501    0  0.00000000000E+00  0.00000000000E+00 -0.24234145508E+04  0.24234145508E+04  0.25500000920E-02 0.  1.
    10030    2    1    2    0    0  0.00000000000E+00  0.00000000000E+00 -0.75542303881E+03  0.40914060628E+04  0.40210619994E+04 0.  0.
        5    1    3    3  502    0 -0.33756426789E+02 -0.19086419001E+04  0.26432585201E+03  0.19271594758E+04  0.46999998093E+01 0.  1.
       -5    1    3    3    0  502  0.33756426789E+02  0.19086419001E+04 -0.10197488908E+04  0.21642465870E+04  0.46999998093E+01 0. -1.
</event>
<event>
 5   0  0.1095109E-07  0.4022419E+04  0.7818609E-02  0.8000039E-01
       -2   -1    0    0    0  501  0.00000000000E+00  0.00000000000E+00  0.24039138642E+04  0.24039138642E+04  0.25500000920E-02 0. -1.
        2   -1    0    0  501    0  0.00000000000E+00  0.00000000000E+00 -0.16826578014E+04  0.16826578014E+04  0.25500000920E-02 0.  1.
    10030    2    1    2    0    0  0.00000000000E+00  0.00000000000E+00  0.72125606280E+03  0.40865716656E+04  0.40224193802E+04 0.  0.
        4    1    3    3  502    0  0.24703479672E+03  0.18387148803E+04  0.11495854169E+04  0.21825322095E+04  0.12699999809E+01 0. -1.
       -4    1    3    3    0  502 -0.24703479672E+03 -0.18387148803E+04 -0.42832935412E+03  0.19040394561E+04  0.12699999809E+01 0.  1.
</event>
<event>
 5   0  0.3399500E-08  0.3834495E+04  0.7818609E-02  0.8038793E-01
        1   -1    0    0  501    0  0.00000000000E+00  0.00000000000E+00  0.17310565139E+04  0.17310565139E+04  0.50400001928E-02 0. -1.
       -1   -1    0    0    0  501  0.00000000000E+00  0.00000000000E+00 -0.21234647683E+04  0.21234647683E+04  0.50400001928E-02 0.  1.
    10030    2    1    2    0    0  0.00000000000E+00  0.00000000000E+00 -0.39240825438E+03  0.38545212822E+04  0.38344947616E+04 0.  0.
        2    1    3    3  502    0 -0.14030456017E+04 -0.42981038089E+03  0.10441623489E+04  0.18009855454E+04  0.25500000920E-02 0. -1.
       -2    1    3    3    0  502  0.14030456017E+04  0.42981038089E+03 -0.14365706033E+04  0.20535357368E+04  0.25500000920E-02 0.  1.
</event>
<event>
 5   0  0.3399500E-08  0.4028942E+04  0.7818609E-02  0.7998733E-01
       -1   -1    0    0    0  501  0.00000000000E+00  0.00000000000E+00  0.16920756945E+04  0.16920756945E+04  0.50400001928E-02 0.  1.
        1   -1    0    0  501    0  0.00000000000E+00  0.00000000000E+00 -0.23982926090E+04  0.23982926090E+04  0.50400001928E-02 0. -1.
    10030    2    1    2    0    0  0.00000000000E+00  0.00000000000E+00 -0.70621691448E+03  0.40903683035E+04  0.40289416139E+04 0.  0.
        3    1    3    3  502    0 -0.10027480642E+04  0.91102333946E+03 -0.18666856632E+04  0.23065087428E+04  0.10100000352E+00 0. -1.
       -3    1    3    3    0  502  0.10027480642E+04 -0.91102333946E+03  0.11604687487E+04  0.17838595607E+04  0.10100000352E+00 0.  1.
</event>
<event>
 5   0  0.3399500E-08  0.4009183E+04  0.7818609E-02  0.8002697E-01
       -1   -1    0    0    0  501  0.00000000000E+00  0.00000000000E+00  0.13177978185E+04  0.13177978185E+04  0.50400001928E-02 0.  1.
        1   -1    0    0  501    0  0.00000000000E+00  0.00000000000E+00 -0.30493195744E+04  0.30493195744E+04  0.50400001928E-02 0. -1.
    10030    2    1    2    0    0  0.00000000000E+00  0.00000000000E+00 -0.17315217559E+04  0.43671173929E+04  0.40091828011E+04 0.  0.
        5    1    3    3  502    0 -0.72257909817E+03  0.59583560408E+03 -0.27963437968E+04  0.29490170125E+04  0.46999998093E+01 0. -1.
       -5    1    3    3    0  502  0.72257909817E+03 -0.59583560408E+03  0.10648220409E+04  0.14181003804E+04  0.46999998093E+01 0.  1.
</event>
<event>
 5   0  0.1087688E-07  0.3991601E+04  0.7818609E-02  0.8006243E-01
       -2   -1    0    0    0  501  0.00000000000E+00  0.00000000000E+00  0.17893933766E+04  0.17893933766E+04  0.25500000920E-02 0. -1.
        2   -1    0    0  501    0  0.00000000000E+00  0.00000000000E+00 -0.22260165073E+04  0.22260165073E+04  0.25500000920E-02 0.  1.
    10030    2    1    2    0    0  0.00000000000E+00  0.00000000000E+00 -0.43662313066E+03  0.40154098839E+04  0.39916007788E+04 0.  0.
        2    1    3    3  502    0 -0.42522636879E+03  0.14718078956E+04 -0.15050751323E+04  0.21476235937E+04  0.25500000920E-02 0.  1.
       -2    1    3    3    0  502  0.42522636879E+03 -0.14718078956E+04  0.10684520016E+04  0.18677862902E+04  0.25500000920E-02 0. -1.
</event>
<event>
 5   0  0.3399500E-08  0.3990096E+04  0.7818609E-02  0.8006547E-01
        1   -1    0    0  501    0  0.00000000000E+00  0.00000000000E+00  0.21486488790E+04  0.21486488790E+04  0.50400001928E-02 0. -1.
       -1   -1    0    0    0  501  0.00000000000E+00  0.00000000000E+00 -0.18524279216E+04  0.18524279216E+04  0.50400001928E-02 0.  1.
    10030    2    1    2    0    0  0.00000000000E+00  0.00000000000E+00  0.29622095736E+03  0.40010768006E+04  0.39900963283E+04 0.  0.
        1    1    3    3  502    0  0.10998042714E+04 -0.14045162256E+04 -0.74764615152E+03  0.19342207814E+04  0.50400001928E-02 0.  1.
       -1    1    3    3    0  502 -0.10998042714E+04  0.14045162256E+04  0.10438671089E+04  0.20668560192E+04  0.50400001928E-02 0. -1.
</event>
<event>
 5   0  0.1101474E-07  0.4002931E+04  0.7818609E-02  0.8003955E-01
       -2   -1    0    0    0  501  0.00000000000E+00  0.00000000000E+00  0.18470723346E+04  0.18470723346E+04  0.25500000920E-02 0.  1.
        2   -1    0    0  501    0  0.00000000000E+00  0.00000000000E+00 -0.21687644718E+04  0.21687644718E+04  0.25500000920E-02 0. -1.
    10030    2    1    2    0    0  0.00000000000E+00  0.00000000000E+00 -0.32169213722E+03  0.40158368064E+04  0.40029313540E+04 0.  0.
        5    1    3    3  502    0 -0.17351016132E+04  0.85813108437E+03 -0.67128521744E+03  0.20488075799E+04  0.46999998093E+01 0. -1.
       -5    1    3    3    0  502  0.17351016132E+04 -0.85813108437E+03  0.34959308022E+03  0.19670292265E+04  0.46999998093E+01 0.  1.
</event>
<event>
 5   0  0.3399500E-08  0.4026182E+04  0.7818609E-02  0.7999286E-01
       -1   -1    0    0    0  501  0.00000000000E+00  0.00000000000E+00  0.14023812221E+04  0.14023812221E+04  0.50400001928E-02 0.  1.
        1   -1    0    0  501    0  0.00000000000E+00  0.00000000000E+00 -0.28897533955E+04  0.28897533955E+04  0.50400001928E-02 0. -1.
    10030    2    1    2    0    0  0.00000000000E+00  0.00000000000E+00 -0.14873721734E+04  0.42921346176E+04  0.40261822603E+04 0.  0.
        3    1    3    3  502    0 -0.15216368585E+04 -0.10894525665E+04 -0.15344740196E+04  0.24201025083E+04  0.10100000352E+00 0. -1.
       -3    1    3    3    0  502  0.15216368585E+04  0.10894525665E+04  0.47101846230E+02  0.18720321092E+04  0.10100000352E+00 0.  1.
</event>
<event>
 5   0  0.1087688E-07  0.4007097E+04  0.7818609E-02  0.8003116E-01
        2   -1    0    0  501    0  0.00000000000E+00  0.00000000000E+00  0.11337246870E+04  0.11337246870E+04  0.25500000920E-02 0. -1.
       -2   -1    0    0    0  501  0.00000000000E+00  0.00000000000E+00 -0.35407239564E+04  0.35407239564E+04  0.25500000920E-02 0.  1.
    10030    2    1    2    0    0  0.00000000000E+00  0.00000000000E+00 -0.24069992694E+04  0.46744486434E+04  0.40070967841E+04 0.  0.
        2    1    3    3  502    0  0.17832809395E+04 -0.88969491671E+03 -0.96284611789E+03  0.22133053564E+04  0.25500000920E-02 0. -1.
       -2    1    3    3    0  502 -0.17832809395E+04  0.88969491671E+03 -0.14441531515E+04  0.24611432870E+04  0.25500000920E-02 0.  1.
</event>
<event>
 5   0  0.1101474E-07  0.4057159E+04  0.7818609E-02  0.7993114E-01
       -2   -1    0    0    0  501  0.00000000000E+00  0.00000000000E+00  0.13754807396E+04  0.13754807396E+04  0.25500000920E-02 0.  1.
        2   -1    0    0  501    0  0.00000000000E+00  0.00000000000E+00 -0.29917798581E+04  0.29917798581E+04  0.25500000920E-02 0. -1.
    10030    2    1    2    0    0  0.00000000000E+00  0.00000000000E+00 -0.16162991184E+04  0.43672605977E+04  0.40571593866E+04 0.  0.
        5    1    3    3  502    0 -0.16955707649E+04  0.37249970722E+03 -0.19378388928E+04  0.26017221056E+04  0.46999998093E+01 0. -1.
       -5    1    3    3    0  502  0.16955707649E+04 -0.37249970722E+03  0.32153977437E+03  0.17655384921E+04  0.46999998093E+01 0.  1.
</event>
<event>
 5   0  0.3399500E-08  0.4019530E+04  0.7818609E-02  0.8000618E-01
       -1   -1    0    0    0  501  0.00000000000E+00  0.00000000000E+00  0.32231909933E+04  0.32231909933E+04  0.50400001928E-02 0. -1.
        1   -1    0    0  501    0  0.00000000000E+00  0.00000000000E+00 -0.12531539880E+04  0.12531539880E+04  0.50400001928E-02 0.  1.
    10030    2    1    2    0    0  0.00000000000E+00  0.00000000000E+00  0.19700370053E+04  0.44763449814E+04  0.40195296479E+04 0.  0.
        3    1    3    3  502    0  0.12055406561E+04  0.29649049766E+03 -0.77508235125E+03  0.14635530568E+04  0.10100000352E+00 0.  1.
       -3    1    3    3    0  502 -0.12055406561E+04 -0.29649049766E+03  0.27451193565E+04  0.30127919245E+04  0.10100000352E+00 0. -1.
</event>
<event>
 5   0  0.3399500E-08  0.4043432E+04  0.7818609E-02  0.7995842E-01
        1   -1    0    0  501    0  0.00000000000E+00  0.00000000000E+00  0.19303027119E+04  0.19303027119E+04  0.50400001928E-02 0. -1.
       -1   -1    0    0    0  501  0.00000000000E+00  0.00000000000E+00 -0.21174584877E+04  0.21174584877E+04  0.50400001928E-02 0.  1.
    10030    2    1    2    0    0  0.00000000000E+00  0.00000000000E+00 -0.18715577578E+03  0.40477611997E+04  0.40434321368E+04 0.  0.
        4    1    3    3  502    0  0.62496731832E+02  0.19193481468E+04  0.53918357179E+03  0.19946236956E+04  0.12699999809E+01 0. -1.
       -4    1    3    3    0  502 -0.62496731832E+02 -0.19193481468E+04 -0.72633934756E+03  0.20531375041E+04  0.12699999809E+01 0.  1.
</event>
<event>
 5   0  0.1095903E-07  0.4116367E+04  0.7818609E-02  0.7981474E-01
        2   -1    0    0  501    0  0.00000000000E+00  0.00000000000E+00  0.33516777439E+04  0.33516777439E+04  0.25500000920E-02 0. -1.
       -2   -1    0    0    0  501  0.00000000000E+00  0.00000000000E+00 -0.12638804686E+04  0.12638804686E+04  0.25500000920E-02 0.  1.
    10030    2    1    2    0    0  0.00000000000E+00  0.00000000000E+00  0.20877972753E+04  0.46155582125E+04  0.41163673488E+04 0.  0.
        3    1    3    3  502    0  0.12489047396E+04  0.96204772371E+03  0.25275470663E+04  0.29788912457E+04  0.10100000352E+00 0. -1.
       -3    1    3    3    0  502 -0.12489047396E+04 -0.96204772371E+03 -0.43974979100E+03  0.16366669668E+04  0.10100000352E+00 0.  1.
</event>
<event>
 5   0  0.3399500E-08  0.4274450E+04  0.7818609E-02  0.7951360E-01
        1   -1    0    0  501    0  0.00000000000E+00  0.00000000000E+00  0.23220310692E+04  0.23220310692E+04  0.50400001928E-02 0.  1.
       -1   -1    0    0    0  501  0.00000000000E+00  0.00000000000E+00 -0.19671268459E+04  0.19671268459E+04  0.50400001928E-02 0. -1.
    10030    2    1    2    0    0  0.00000000000E+00  0.00000000000E+00  0.35490422325E+03  0.42891579151E+04  0.42744495100E+04 0.  0.
        5    1    3    3  502    0  0.64032030854E+03  0.17123980235E+04  0.12882347796E+04  0.22364901130E+04  0.46999998093E+01 0.  1.
       -5    1    3    3    0  502 -0.64032030854E+03 -0.17123980235E+04 -0.93333055633E+03  0.20526678021E+04  0.46999998093E+01 0. -1.
</event>
<event>
 5   0  0.1073271E-07  0.3997696E+04  0.7818609E-02  0.8005012E-01
        2   -1    0    0  501    0  0.00000000000E+00  0.00000000000E+00  0.16436448599E+04  0.16436448599E+04  0.25500000920E-02 0.  1.
       -2   -1    0    0    0  501  0.00000000000E+00  0.00000000000E+00 -0.24308125175E+04  0.24308125175E+04  0.25500000920E-02 0. -1.
    10030    2    1    2    0    0  0.00000000000E+00  0.00000000000E+00 -0.78716765757E+03  0.40744573774E+04  0.39976955861E+04 0.  0.
        1    1    3    3  502    0 -0.13848449335E+04 -0.18125023558E+03 -0.18509868795E+04  0.23187926957E+04  0.50400001928E-02 0. -1.
       -1    1    3    3    0  502  0.13848449335E+04  0.18125023558E+03  0.10638192219E+04  0.17556646817E+04  0.50400001928E-02 0.  1.
</event>
<event>
 5   0  0.3399500E-08  0.3795780E+04  0.7818609E-02  0.8047061E-01
        1   -1    0    0  501    0  0.00000000000E+00  0.00000000000E+00  0.21778733849E+04  0.21778733849E+04  0.50400001928E-02 0. -1.
       -1   -1    0    0    0  501  0.00000000000E+00  0.00000000000E+00 -0.16539005740E+04  0.16539005740E+04  0.50400001928E-02 0.  1.
    10030    2    1    2    0    0  0.00000000000E+00  0.00000000000E+00  0.52397281092E+03  0.38317739590E+04  0.37957797837E+04 0.  0.
        1    1    3    3  502    0 -0.17126276165E+04 -0.42498628589E+03 -0.44340968781E+03  0.18194281649E+04  0.50400001928E-02 0.  1.
       -1    1    3    3    0  502  0.17126276165E+04  0.42498628589E+03  0.96738249873E+03  0.20123457941E+04  0.50400001928E-02 0. -1.
</event>
<event>
 5   0  0.1087688E-07  0.3955658E+04  0.7818609E-02  0.8013552E-01
        2   -1    0    0  501    0  0.00000000000E+00  0.00000000000E+00  0.27674874443E+04  0.27674874443E+04  0.25500000920E-02 0.  1.
       -2   -1    0    0    0  501  0.00000000000E+00  0.00000000000E+00 -0.14134870046E+04  0.14134870046E+04  0.25500000920E-02 0. -1.
    10030    2    1    2    0    0  0.00000000000E+00  0.00000000000E+00  0.13540004397E+04  0.41809744489E+04  0.39556579923E+04 0.  0.
        2    1    3    3  502    0  0.72419807690E+03 -0.13911585995E+04 -0.59663611816E+03  0.16780225747E+04  0.25500000920E-02 0. -1.
       -2    1    3    3    0  502 -0.72419807690E+03  0.13911585995E+04  0.19506365579E+04  0.25029518742E+04  0.25500000920E-02 0.  1.
</event>
<event>
 5   0  0.3399500E-08  0.3853949E+04  0.7818609E-02  0.8034676E-01
       -1   -1    0    0    0  501  0.00000000000E+00  0.00000000000E+00  0.16939474063E+04  0.16939474063E+04  0.50400001928E-02 0.  1.
        1   -1    0    0  501    0  0.00000000000E+00  0.00000000000E+00 -0.21920583470E+04  0.21920583470E+04  0.50400001928E-02 0. -1.
    10030    2    1    2    0    0  0.00000000000E+00  0.00000000000E+00 -0.49811094072E+03  0.38860057533E+04  0.38539494295E+04 0.  0.
        3    1    3    3  502    0  0.25478955718E+03  0.18059445900E+04 -0.87622423750E+03  0.20233938087E+04  0.10100000352E+00 0. -1.
       -3    1    3    3    0  502 -0.25478955718E+03 -0.18059445900E+04  0.37811329678E+03  0.18626119446E+04  0.10100000352E+00 0.  1.
</event>
<event>
 5   0  0.1095109E-07  0.3994179E+04  0.7818609E-02  0.8005722E-01
       -2   -1    0    0    0  501  0.00000000000E+00  0.00000000000E+00  0.22515158047E+04  0.22515158047E+04  0.25500000920E-02 0.  1.
        2   -1    0    0  501    0  0.00000000000E+00  0.00000000000E+00 -0.17714138776E+04  0.17714138776E+04  0.25500000920E-02 0. -1.
    10030    2    1    2    0    0  0.00000000000E+00  0.00000000000E+00  0.48010192715E+03  0.40229296823E+04  0.39941789355E+04 0.  0.
        4    1    3    3  502    0  0.12260558468E+04  0.12019810460E+04 -0.78728788073E+03  0.18888608192E+04  0.12699999809E+01 0. -1.
       -4    1    3    3    0  502 -0.12260558468E+04 -0.12019810460E+04  0.12673898079E+04  0.21340688631E+04  0.12699999809E+01 0.  1.
</event>
<event>
 5   0  0.1073271E-07  0.3996001E+04  0.7818609E-02  0.8005354E-01
        2   -1    0    0  501    0  0.00000000000E+00  0.00000000000E+00  0.14233109253E+04  0.14233109253E+04  0.25500000920E-02 0.  1.
       -2   -1    0    0    0  501  0.00000000000E+00  0.00000000000E+00 -0.28047319212E+04  0.28047319212E+04  0.25500000920E-02 0. -1.
    10030    2    1    2    0    0  0.00000000000E+00  0.00000000000E+00 -0.13814209959E+04  0.42280428465E+04  0.39960007938E+04 0.  0.
        1    1    3    3  502    0  0.78961849194E+03 -0.14654487751E+04 -0.18598490311E+04  0.24960119980E+04  0.50400001928E-02 0. -1.
       -1    1    3    3    0  502 -0.78961849194E+03  0.14654487751E+04  0.47842803526E+03  0.17320308485E+04  0.50400001928E-02 0.  1.
</event>
<event>
 5   0  0.3399500E-08  0.4049585E+04  0.7818609E-02  0.7994618E-01
       -1   -1    0    0    0  501  0.00000000000E+00  0.00000000000E+00  0.22805093615E+04  0.22805093615E+04  0.50400001928E-02 0.  1.
        1   -1    0    0  501    0  0.00000000000E+00  0.00000000000E+00 -0.17977492636E+04  0.17977492636E+04  0.50400001928E-02 0. -1.
    10030    2    1    2    0    0  0.00000000000E+00  0.00000000000E+00  0.48276009793E+03  0.40782586251E+04  0.40495846825E+04 0.  0.
        3    1    3    3  502    0 -0.19892785431E+04  0.37717060165E+03  0.25874248617E+03  0.20411845750E+04  0.10100000352E+00 0.  1.
       -3    1    3    3    0  502  0.19892785431E+04 -0.37717060165E+03  0.22401761176E+03  0.20370740501E+04  0.10100000352E+00 0. -1.
</event>
<event>
 5   0  0.3399500E-08  0.3974342E+04  0.7818609E-02  0.8009743E-01
       -1   -1    0    0    0  501  0.00000000000E+00  0.00000000000E+00  0.18919096487E+04  0.18919096487E+04  0.50400001928E-02 0. -1.
        1   -1    0    0  501    0  0.00000000000E+00  0.00000000000E+00 -0.20872294170E+04  0.20872294170E+04  0.50400001928E-02 0.  1.
    10030    2    1    2    0    0  0.00000000000E+00  0.00000000000E+00 -0.19531976828E+03  0.39791390657E+04  0.39743424478E+04 0.  0.
        5    1    3    3  502    0  0.16399551757E+04  0.10946603021E+04  0.14980886776E+03  0.19774222973E+04  0.46999998093E+01 0. -1.
       -5    1    3    3    0  502 -0.16399551757E+04 -0.10946603021E+04 -0.34512863604E+03  0.20017167683E+04  0.46999998093E+01 0.  1.
</event>
<event>
 5   0  0.3399500E-08  0.3992999E+04  0.7818609E-02  0.8005960E-01
        1   -1    0    0  501    0  0.00000000000E+00  0.00000000000E+00  0.13393300397E+04  0.13393300397E+04  0.50400001928E-02 0.  1.
       -1   -1    0    0    0  501  0.00000000000E+00  0.00000000000E+00 -0.29761217762E+04  0.29761217762E+04  0.50400001928E-02 0. -1.
    10030    2    1    2    0    0  0.00000000000E+00  0.00000000000E+00 -0.16367917365E+04  0.43154518159E+04  0.39929985207E+04 0.  0.
        3    1    3    3  502    0  0.19400682522E+03  0.93797562471E+03 -0.27115906876E+04  0.28757887593E+04  0.10100000352E+00 0. -1.
       -3    1    3    3    0  502 -0.19400682522E+03 -0.93797562471E+03  0.10747989511E+04  0.14396630565E+04  0.10100000352E+00 0.  1.
</event>
<event>
 5   0  0.1087688E-07  0.3995714E+04  0.7818609E-02  0.8005412E-01
        2   -1    0    0  501    0  0.00000000000E+00  0.00000000000E+00  0.16170451876E+04  0.16170451876E+04  0.25500000920E-02 0. -1.
       -2   -1    0    0    0  501  0.00000000000E+00  0.00000000000E+00 -0.24683490063E+04  0.24683490063E+04  0.25500000920E-02 0.  1.
    10030    2    1    2    0    0  0.00000000000E+00  0.00000000000E+00 -0.85130381868E+03  0.40853941939E+04  0.39957136444E+04 0.  0.
        2    1    3    3  502    0  0.18501422846E+04  0.56165188515E+03 -0.93988397901E+03  0.21498514385E+04  0.25500000920E-02 0. -1.
       -2    1    3    3    0  502 -0.18501422846E+04 -0.56165188515E+03  0.88580160336E+02  0.19355427555E+04  0.25500000920E-02 0.  1.
</event>
<event>
 5   0  0.3399500E-08  0.3996577E+04  0.7818609E-02  0.8005237E-01
        1   -1    0    0  501    0  0.00000000000E+00  0.00000000000E+00  0.13989782748E+04  0.13989782748E+04  0.50400001928E-02 0. -1.
       -1   -1    0    0    0  501  0.00000000000E+00  0.00000000000E+00 -0.28543382813E+04  0.28543382813E+04  0.50400001928E-02 0.  1.
    10030    2    1    2    0    0  0.00000000000E+00  0.00000000000E+00 -0.14553600065E+04  0.42533165561E+04  0.39965771578E+04 0.  0.
        3    1    3    3  502    0  0.25454013990E+01  0.66386387572E+03 -0.27335491855E+04  0.28130078003E+04  0.10100000352E+00 0.  1.
       -3    1    3    3    0  502 -0.25454013990E+01 -0.66386387572E+03  0.12781891790E+04  0.14403087558E+04  0.10100000352E+00 0. -1.
</event>
<event>
 5   0  0.1073271E-07  0.3998136E+04  0.7818609E-02  0.8004923E-01
        2   -1    0    0  501    0  0.00000000000E+00  0.00000000000E+00  0.19420520008E+04  0.19420520008E+04  0.25500000920E-02 0. -1.
       -2   -1    0    0    0  501  0.00000000000E+00  0.00000000000E+00 -0.20577577247E+04  0.20577577247E+04  0.25500000920E-02 0.  1.
    10030    2    1    2    0    0  0.00000000000E+00  0.00000000000E+00 -0.11570572388E+03  0.39998097255E+04  0.39981358188E+04 0.  0.
        1    1    3    3  502    0  0.18798682483E+04 -0.61262675718E+03 -0.35302949216E+03  0.20084436753E+04  0.50400001928E-02 0.  1.
       -1    1    3    3    0  502 -0.18798682483E+04  0.61262675718E+03  0.23732376829E+03  0.19913660501E+04  0.50400001928E-02 0. -1.
</event>
<event>
 5   0  0.1095109E-07  0.3989459E+04  0.7818609E-02  0.8006676E-01
       -2   -1    0    0    0  501  0.00000000000E+00  0.00000000000E+00  0.15994729331E+04  0.15994729331E+04  0.25500000920E-02 0.  1.
        2   -1    0    0  501    0  0.00000000000E+00  0.00000000000E+00 -0.24876607232E+04  0.24876607232E+04  0.25500000920E-02 0. -1.
    10030    2    1    2    0    0  0.00000000000E+00  0.00000000000E+00 -0.88818779011E+03  0.40871336562E+04  0.39894591079E+04 0.  0.
        4    1    3    3  502    0  0.11464858648E+04  0.16245603567E+04 -0.28108130578E+03  0.20081420528E+04  0.12699999809E+01 0.  1.
       -4    1    3    3    0  502 -0.11464858648E+04 -0.16245603567E+04 -0.60710648433E+03  0.20789916034E+04  0.12699999809E+01 0. -1.
</event>
<event>
 5   0  0.3399500E-08  0.3954705E+04  0.7818609E-02  0.8013747E-01
        1   -1    0    0  501    0  0.00000000000E+00  0.00000000000E+00  0.27950708336E+04  0.27950708336E+04  0.50400001928E-02 0.  1.
       -1   -1    0    0    0  501  0.00000000000E+00  0.00000000000E+00 -0.13988635971E+04  0.13988635971E+04  0.50400001928E-02 0. -1.
    10030    2    1    2    0    0  0.00000000000E+00  0.00000000000E+00  0.13962072365E+04  0.41939344308E+04  0.39547049653E+04 0.  0.
        5    1    3    3  502    0  0.18691219477E+04 -0.61498025609E+03  0.90505777234E+03  0.21658645461E+04  0.46999998093E+01 0.  1.
       -5    1    3    3    0  502 -0.18691219477E+04  0.61498025609E+03  0.49114946418E+03  0.20280698847E+04  0.46999998093E+01 0. -1.
</event>
<event>
 5   0  0.1095903E-07  0.4044466E+04  0.7818609E-02  0.7995636E-01
        2   -1    0    0  501    0  0.00000000000E+00  0.00000000000E+00  0.26095178237E+04  0.26095178237E+04  0.25500000920E-02 0.  1.
       -2   -1    0    0    0  501  0.00000000000E+00  0.00000000000E+00 -0.15671195459E+04  0.15671195459E+04  0.25500000920E-02 0. -1.
    10030    2    1    2    0    0  0.00000000000E+00  0.00000000000E+00  0.10423982778E+04  0.41766373695E+04  0.40444660398E+04 0.  0.
        3    1    3    3  502    0 -0.26691535135E+03  0.15816417485E+04 -0.75054560153E+03  0.17709187264E+04  0.10100000352E+00 0. -1.
       -3    1    3    3    0  502  0.26691535135E+03 -0.15816417485E+04  0.17929438793E+04  0.24057186431E+04  0.10100000352E+00 0.  1.
</event>
<event>
 5   0  0.1095903E-07  0.3971027E+04  0.7818609E-02  0.8010417E-01
        2   -1    0    0  501    0  0.00000000000E+00  0.00000000000E+00  0.17122500042E+04  0.17122500042E+04  0.25500000920E-02 0.  1.
       -2   -1    0    0    0  501  0.00000000000E+00  0.00000000000E+00 -0.23023881883E+04  0.23023881883E+04  0.25500000920E-02 0. -1.
    10030    2    1    2    0    0  0.00000000000E+00  0.00000000000E+00 -0.59013818415E+03  0.40146381925E+04  0.39710271644E+04 0.  0.
        3    1    3    3  502    0 -0.35176051635E+03  0.19179361343E+04 -0.67341116911E+03  0.20629340971E+04  0.10100000352E+00 0.  1.
       -3    1    3    3    0  502  0.35176051635E+03 -0.19179361343E+04  0.83272984961E+02  0.19517040955E+04  0.10100000352E+00 0. -1.
</event>
<event>
 5   0  0.3399500E-08  0.4009429E+04  0.7818609E-02  0.8002647E-01
       -1   -1    0    0    0  501  0.00000000000E+00  0.00000000000E+00  0.16440010481E+04  0.16440010482E+04  0.50400001928E-02 0. -1.
        1   -1    0    0  501    0  0.00000000000E+00  0.00000000000E+00 -0.24445729858E+04  0.24445729858E+04  0.50400001928E-02 0.  1.
    10030    2    1    2    0    0  0.00000000000E+00  0.00000000000E+00 -0.80057193769E+03  0.40885740340E+04  0.40094291619E+04 0.  0.
        2    1    3    3  502    0  0.43003287784E+03 -0.69539730327E+03 -0.22668204720E+04  0.24097677767E+04  0.25500000920E-02 0.  1.
       -2    1    3    3    0  502 -0.43003287784E+03  0.69539730327E+03  0.14662485343E+04  0.16788062573E+04  0.25500000920E-02 0. -1.
</event>
<event>
 5   0  0.3399500E-08  0.4004177E+04  0.7818609E-02  0.8003704E-01
        1   -1    0    0  501    0  0.00000000000E+00  0.00000000000E+00  0.27220415760E+04  0.27220415760E+04  0.50400001928E-02 0.  1.
       -1   -1    0    0    0  501  0.00000000000E+00  0.00000000000E+00 -0.14725561065E+04  0.14725561065E+04  0.50400001928E-02 0. -1.
    10030    2    1    2    0    0  0.00000000000E+00  0.00000000000E+00  0.12494854695E+04  0.41945976826E+04  0.40041772913E+04 0.  0.
        5    1    3    3  502    0  0.12908042702E+04 -0.74837707577E+02 -0.97653081654E+03  0.16203119676E+04  0.46999998093E+01 0. -1.
       -5    1    3    3    0  502 -0.12908042702E+04  0.74837707577E+02  0.22260162861E+04  0.25742857150E+04  0.46999998093E+01 0.  1.
</event>
<event>
 5   0  0.3399500E-08  0.4005716E+04  0.7818609E-02  0.8003394E-01
       -1   -1    0    0    0  501  0.00000000000E+00  0.00000000000E+00  0.26830323280E+04  0.26830323280E+04  0.50400001928E-02 0. -1.
        1   -1    0    0  501    0  0.00000000000E+00  0.00000000000E+00 -0.14951146185E+04  0.14951146185E+04  0.50400001928E-02 0.  1.
    10030    2    1    2    0    0  0.00000000000E+00  0.00000000000E+00  0.11879177095E+04  0.41781469465E+04  0.40057163432E+04 0.  0.
        1    1    3    3  502    0  0.42781040270E+03  0.15644221904E+04  0.18197055266E+04  0.24375739443E+04  0.50400001928E-02 0. -1.
       -1    1    3    3    0  502 -0.42781040270E+03 -0.15644221904E+04 -0.63178781705E+03  0.17405730023E+04  0.50400001928E-02 0.  1.
</event>
<event>
 5   0  0.1101474E-07  0.3982355E+04  0.7818609E-02  0.8008116E-01
       -2   -1    0    0    0  501  0.00000000000E+00  0.00000000000E+00  0.18344912577E+04  0.18344912577E+04  0.25500000920E-02 0.  1.
        2   -1    0    0  501    0  0.00000000000E+00  0.00000000000E+00 -0.21612466139E+04  0.21612466139E+04  0.25500000920E-02 0. -1.
    10030    2    1    2    0    0  0.00000000000E+00  0.00000000000E+00 -0.32675535619E+03  0.39957378716E+04  0.39823550917E+04 0.  0.
        5    1    3    3  502    0 -0.11111703727E+04  0.14659319437E+04  0.60148969113E+03  0.19353211617E+04  0.46999998093E+01 0.  1.
       -5    1    3    3    0  502  0.11111703727E+04 -0.14659319437E+04 -0.92824504731E+03  0.20604167099E+04  0.46999998093E+01 0. -1.
</event>
<event>
 5   0  0.1095903E-07  0.4007184E+04  0.7818609E-02  0.8003099E-01
        2   -1    0    0  501    0  0.00000000000E+00  0.00000000000E+00  0.14772125885E+04  0.14772125885E+04  0.25500000920E-02 0. -1.
       -2   -1    0    0    0  501  0.00000000000E+00  0.00000000000E+00 -0.27175377974E+04  0.27175377974E+04  0.25500000920E-02 0.  1.
    10030    2    1    2    0    0  0.00000000000E+00  0.00000000000E+00 -0.12403252089E+04  0.41947503859E+04  0.40071840706E+04 0.  0.
        3    1    3    3  502    0  0.87059977736E+03  0.12040218538E+04 -0.20272402972E+04  0.25134271085E+04  0.10100000352E+00 0.  1.
       -3    1    3    3    0  502 -0.87059977736E+03 -0.12040218538E+04  0.78691508829E+03  0.16813232774E+04  0.10100000352E+00 0. -1.
</event>
<event>
 5   0  0.1095109E-07  0.3998488E+04  0.7818609E-02  0.8004852E-01
        2   -1    0    0  501    0  0.00000000000E+00  0.00000000000E+00  0.23454707708E+04  0.23454707708E+04  0.25500000920E-02 0.  1.
       -2   -1    0    0    0  501  0.00000000000E+00  0.00000000000E+00 -0.17041255040E+04  0.17041255040E+04  0.25500000920E-02 0. -1.
    10030    2    1    2    0    0  0.00000000000E+00  0.00000000000E+00  0.64134526683E+03  0.40495962747E+04  0.39984879939E+04 0.  0.
        4    1    3    3  502    0 -0.68247348218E+03  0.17742719597E+04 -0.30624174077E+03  0.19255120507E+04  0.12699999809E+01 0.  1.
       -4    1    3    3    0  502  0.68247348218E+03 -0.17742719597E+04  0.94758700760E+03  0.21240842240E+04  0.12699999809E+01 0. -1.
</event>
<event>
 5   0  0.1095903E-07  0.4012329E+04  0.7818609E-02  0.8002064E-01
       -2   -1    0    0    0  501  0.00000000000E+00  0.00000000000E+00  0.20711145991E+04  0.20711145991E+04  0.25500000920E-02 0.  1.
        2   -1    0    0  501    0  0.00000000000E+00  0.00000000000E+00 -0.19432513130E+04  0.19432513130E+04  0.25500000920E-02 0. -1.
    10030    2    1    2    0    0  0.00000000000E+00  0.00000000000E+00  0.12786328609E+03  0.40143659120E+04  0.40123290812E+04 0.  0.
        3    1    3    3  502    0  0.39794829923E+03 -0.59528373407E+02  0.20303274601E+04  0.20698154705E+04  0.10100000352E+00 0.  1.
       -3    1    3    3    0  502 -0.39794829923E+03  0.59528373407E+02 -0.19024641741E+04  0.19445504416E+04  0.10100000352E+00 0. -1.
</event>
<event>
 5   0  0.3399500E-08  0.3998457E+04  0.7818609E-02  0.8004858E-01
        1   -1    0    0  501    0  0.00000000000E+00  0.00000000000E+00  0.23529143184E+04  0.23529143184E+04  0.50400001928E-02 0.  1.
       -1   -1    0    0    0  501  0.00000000000E+00  0.00000000000E+00 -0.16987084136E+04  0.16987084136E+04  0.50400001928E-02 0. -1.
    10030    2    1    2    0    0  0.00000000000E+00  0.00000000000E+00  0.65420590476E+03  0.40516227320E+04  0.39984573771E+04 0.  0.
        5    1    3    3  502    0 -0.14422915765E+03  0.12853420688E+03 -0.16892221176E+04  0.17002401433E+04  0.46999998093E+01 0. -1.
       -5    1    3    3    0  502  0.14422915765E+03 -0.12853420688E+03  0.23434280224E+04  0.23513825887E+04  0.46999998093E+01 0.  1.
</event>
<event>
 5   0  0.3399500E-08  0.3995791E+04  0.7818609E-02  0.8005396E-01
       -1   -1    0    0    0  501  0.00000000000E+00  0.00000000000E+00  0.11959498141E+04  0.11959498141E+04  0.50400001928E-02 0.  1.
        1   -1    0    0  501    0  0.00000000000E+00  0.00000000000E+00 -0.33375870760E+04  0.33375870760E+04  0.50400001928E-02 0. -1.
    10030    2    1    2    0    0  0.00000000000E+00  0.00000000000E+00 -0.21416372619E+04  0.45335368900E+04  0.39957911071E+04 0.  0.
        4    1    3    3  502    0  0.14563740094E+04  0.12387068030E+04 -0.17286442371E+04  0.25775244539E+04  0.12699999809E+01 0. -1.
       -4    1    3    3    0  502 -0.14563740094E+04 -0.12387068030E+04 -0.41299302479E+03  0.19560124362E+04  0.12699999809E+01 0.  1.
</event>
<event>
 5   0  0.3399500E-08  0.3986229E+04  0.7818609E-02  0.8007330E-01
        1   -1    0    0  501    0  0.00000000000E+00  0.00000000000E+00  0.28996296362E+04  0.28996296362E+04  0.50400001928E-02 0. -1.
       -1   -1    0    0    0  501  0.00000000000E+00  0.00000000000E+00 -0.13700046811E+04  0.13700046811E+04  0.50400001928E-02 0.  1.
    10030    2    1    2    0    0  0.00000000000E+00  0.00000000000E+00  0.15296249552E+04  0.42696343173E+04  0.39862293838E+04 0.  0.
        5    1    3    3  502    0 -0.19588776016E+03  0.70277835693E+03 -0.12218366226E+04  0.14230868757E+04  0.46999998093E+01 0.  1.
       -5    1    3    3    0  502  0.19588776016E+03 -0.70277835693E+03  0.27514615777E+04  0.28465474416E+04  0.46999998093E+01 0. -1.
</event>
<event>
 5   0  0.3399500E-08  0.3892393E+04  0.7818609E-02  0.8026613E-01
        1   -1    0    0  501    0  0.00000000000E+00  0.00000000000E+00  0.28544308718E+04  0.28544308718E+04  0.50400001928E-02 0.  1.
       -1   -1    0    0    0  501  0.00000000000E+00  0.00000000000E+00 -0.13269477618E+04  0.13269477618E+04  0.50400001928E-02 0. -1.
    10030    2    1    2    0    0  0.00000000000E+00  0.00000000000E+00  0.15274831100E+04  0.41813786336E+04  0.38923929177E+04 0.  0.
        4    1    3    3  502    0  0.14798765372E+04  0.10484054691E+04  0.52840665688E+01  0.18136201717E+04  0.12699999809E+01 0. -1.
       -4    1    3    3    0  502 -0.14798765372E+04 -0.10484054691E+04  0.15221990435E+04  0.23677584619E+04  0.12699999809E+01 0.  1.
</event>
<event>
 5   0  0.1095903E-07  0.3772836E+04  0.7818609E-02  0.8052009E-01
        2   -1    0    0  501    0  0.00000000000E+00  0.00000000000E+00  0.14663663404E+04  0.14663663404E+04  0.25500000920E-02 0.  1.
       -2   -1    0    0    0  501  0.00000000000E+00  0.00000000000E+00 -0.24267966802E+04  0.24267966802E+04  0.25500000920E-02 0. -1.
    10030    2    1    2    0    0  0.00000000000E+00  0.00000000000E+00 -0.96043033985E+03  0.38931630206E+04  0.37728360509E+04 0.  0.
        3    1    3    3  502    0 -0.16565434770E+04  0.63477432706E+03  0.18172484620E+03  0.17832831148E+04  0.10100000352E+00 0. -1.
       -3    1    3    3    0  502  0.16565434770E+04 -0.63477432706E+03 -0.11421551860E+04  0.21098799058E+04  0.10100000352E+00 0.  1.
</event>
<event>
 5   0  0.3399500E-08  0.4002300E+04  0.7818609E-02  0.8004083E-01
       -1   -1    0    0    0  501  0.00000000000E+00  0.00000000000E+00  0.17887383840E+04  0.17887383840E+04  0.50400001928E-02 0. -1.
        1   -1    0    0  501    0  0.00000000000E+00  0.00000000000E+00 -0.22387856857E+04  0.22387856857E+04  0.50400001928E-02 0.  1.
    10030    2    1    2    0    0  0.00000000000E+00  0.00000000000E+00 -0.45004730173E+03  0.40275240697E+04  0.40023002834E+04 0.  0.
        3    1    3    3  502    0  0.45847930133E+03 -0.68278903277E+03  0.16108087733E+04  0.18086207583E+04  0.10100000352E+00 0. -1.
       -3    1    3    3    0  502 -0.45847930133E+03  0.68278903277E+03 -0.20608560751E+04  0.22189033114E+04  0.10100000352E+00 0.  1.
</event>
<event>
 5   0  0.1101474E-07  0.4013973E+04  0.7818609E-02  0.8001734E-01
       -2   -1    0    0    0  501  0.00000000000E+00  0.00000000000E+00  0.20912118121E+04  0.20912118121E+04  0.25500000920E-02 0. -1.
        2   -1    0    0  501    0  0.00000000000E+00  0.00000000000E+00 -0.19261536328E+04  0.19261536328E+04  0.25500000920E-02 0.  1.
    10030    2    1    2    0    0  0.00000000000E+00  0.00000000000E+00  0.16505817928E+03  0.40173654449E+04  0.40139732081E+04 0.  0.
        5    1    3    3  502    0 -0.81961360209E+03 -0.14892540888E+04 -0.98529756934E+03  0.19648098096E+04  0.46999998093E+01 0.  1.
       -5    1    3    3    0  502  0.81961360209E+03  0.14892540888E+04  0.11503557486E+04  0.20525556353E+04  0.46999998093E+01 0. -1.
</event>
<event>
 5   0  0.1095903E-07  0.3984622E+04  0.7818609E-02  0.8007656E-01
        2   -1    0    0  501    0  0.00000000000E+00  0.00000000000E+00  0.18818193835E+04  0.18818193835E+04  0.25500000920E-02 0.  1.
       -2   -1    0    0    0  501  0.00000000000E+00  0.00000000000E+00 -0.21092898152E+04  0.21092898152E+04  0.25500000920E-02 0. -1.
    10030    2    1    2    0    0  0.00000000000E+00  0.00000000000E+00 -0.22747043166E+03  0.39911091987E+04  0.39846216682E+04 0.  0.
        3    1    3    3  502    0 -0.36097598422E+03  0.89357768617E+03  0.16328118225E+04  0.18960113925E+04  0.10100000352E+00 0.  1.
       -3    1    3    3    0  502  0.36097598422E+03 -0.89357768617E+03 -0.18602822542E+04  0.20950978063E+04  0.10100000352E+00 0. -1.
</event>
<event>
 5   0  0.3399500E-08  0.4012366E+04  0.7818609E-02  0.8002057E-01
        1   -1    0    0  501    0  0.00000000000E+00  0.00000000000E+00  0.29031667883E+04  0.29031667883E+04  0.50400001928E-02 0. -1.
       -1   -1    0    0    0  501  0.00000000000E+00  0.00000000000E+00 -0.13863379457E+04  0.13863379457E+04  0.50400001928E-02 0.  1.
    10030    2    1    2    0    0  0.00000000000E+00  0.00000000000E+00  0.15168288427E+04  0.42895047340E+04  0.40123660258E+04 0.  0.
        3    1    3    3  502    0 -0.74062443830E+03 -0.65356702967E+03  0.26251901492E+04  0.28048703626E+04  0.10100000352E+00 0. -1.
       -3    1    3    3    0  502  0.74062443830E+03  0.65356702967E+03 -0.11083613065E+04  0.14846343715E+04  0.10100000352E+00 0.  1.
</event>
<event>
 5   0  0.1095109E-07  0.3868762E+04  0.7818609E-02  0.8031558E-01
       -2   -1    0    0    0  501  0.00000000000E+00  0.00000000000E+00  0.16285784065E+04  0.16285784065E+04  0.25500000920E-02 0. -1.
        2   -1    0    0  501    0  0.00000000000E+00  0.00000000000E+00 -0.22976044782E+04  0.22976044782E+04  0.25500000920E-02 0.  1.
    10030    2    1    2    0    0  0.00000000000E+00  0.00000000000E+00 -0.66902607167E+03  0.39261828846E+04  0.38687615795E+04 0.  0.
        4    1    3    3  502    0  0.14659132284E+03  0.33401058689E+03 -0.22623863082E+04  0.22916032616E+04  0.12699999809E+01 0.  1.
       -4    1    3    3    0  502 -0.14659132284E+03 -0.33401058689E+03  0.15933602365E+04  0.16345796231E+04  0.12699999809E+01 0. -1.
</event>
<event>
 5   0  0.3399500E-08  0.3983043E+04  0.7818609E-02  0.8007976E-01
       -4   -1    0    0    0  501  0.00000000000E+00  0.00000000000E+00  0.24044159291E+04  0.24044162645E+04  0.12699999809E+01 0. -1.
        4   -1    0    0  501    0  0.00000000000E+00  0.00000000000E+00 -0.16495300470E+04  0.16495305359E+04  0.12699999809E+01 0.  1.
    10030    2    1    2    0    0  0.00000000000E+00  0.00000000000E+00  0.75488588204E+03  0.40539468004E+04  0.39830430534E+04 0.  0.
        4    1    3    3  502    0 -0.10253262363E+04 -0.15683671803E+04 -0.30916717819E+03  0.18991196540E+04  0.12699999809E+01 0.  1.
       -4    1    3    3    0  502  0.10253262363E+04  0.15683671803E+04  0.10640530602E+04  0.21548271464E+04  0.12699999809E+01 0. -1.
</event>
<event>
 5   0  0.3399500E-08  0.4006165E+04  0.7818609E-02  0.8003304E-01
       -1   -1    0    0    0  501  0.00000000000E+00  0.00000000000E+00  0.16883273465E+04  0.16883273465E+04  0.50400001928E-02 0. -1.
        1   -1    0    0  501    0  0.00000000000E+00  0.00000000000E+00 -0.23765174591E+04  0.23765174591E+04  0.50400001928E-02 0.  1.
    10030    2    1    2    0    0  0.00000000000E+00  0.00000000000E+00 -0.68819011264E+03  0.40648448057E+04  0.40061649570E+04 0.  0.
        2    1    3    3  502    0  0.18137214251E+04 -0.52755217408E+03 -0.10205253290E+04  0.21469440261E+04  0.25500000920E-02 0.  1.
       -2    1    3    3    0  502 -0.18137214251E+04  0.52755217408E+03  0.33233521637E+03  0.19179007795E+04  0.25500000920E-02 0. -1.
</event>
<event>
 5   0  0.3399500E-08  0.3591341E+04  0.7818609E-02  0.8092478E-01
       -1   -1    0    0    0  501  0.00000000000E+00  0.00000000000E+00  0.17196156398E+04  0.17196156398E+04  0.50400001928E-02 0. -1.
        1   -1    0    0  501    0  0.00000000000E+00  0.00000000000E+00 -0.18750890484E+04  0.18750890484E+04  0.50400001928E-02 0.  1.
    10030    2    1    2    0    0  0.00000000000E+00  0.00000000000E+00 -0.15547340864E+03  0.35947046882E+04  0.35913409494E+04 0.  0.
        4    1    3    3  502    0 -0.14591468758E+04 -0.83657214545E+03  0.55171499264E+03  0.17701281326E+04  0.12699999809E+01 0. -1.
       -4    1    3    3    0  502  0.14591468758E+04  0.83657214545E+03 -0.70718840129E+03  0.18245765557E+04  0.12699999809E+01 0.  1.
</event>
<event>
 5   0  0.3399500E-08  0.3980320E+04  0.7818609E-02  0.8008528E-01
       -1   -1    0    0    0  501  0.00000000000E+00  0.00000000000E+00  0.19515371660E+04  0.19515371660E+04  0.50400001928E-02 0. -1.
        1   -1    0    0  501    0  0.00000000000E+00  0.00000000000E+00 -0.20295475730E+04  0.20295475730E+04  0.50400001928E-02 0.  1.
    10030    2    1    2    0    0  0.00000000000E+00  0.00000000000E+00 -0.78010407039E+02  0.39810847390E+04  0.39803203483E+04 0.  0.
        3    1    3    3  502    0  0.15793469372E+04  0.12109340042E+04 -0.45299125675E+02  0.19906657006E+04  0.10100000352E+00 0. -1.
       -3    1    3    3    0  502 -0.15793469372E+04 -0.12109340042E+04 -0.32711281364E+02  0.19904190384E+04  0.10100000352E+00 0.  1.
</event>
<event>
 5   0  0.3399500E-08  0.3995949E+04  0.7818609E-02  0.8005364E-01
        1   -1    0    0  501    0  0.00000000000E+00  0.00000000000E+00  0.19993499081E+04  0.19993499082E+04  0.50400001928E-02 0.  1.
       -1   -1    0    0    0  501  0.00000000000E+00  0.00000000000E+00 -0.19965999558E+04  0.19965999559E+04  0.50400001928E-02 0. -1.
    10030    2    1    2    0    0  0.00000000000E+00  0.00000000000E+00  0.27499523014E+01  0.39959498640E+04  0.39959489178E+04 0.  0.
        5    1    3    3  502    0 -0.16801883629E+04  0.63762269050E+03 -0.87171412533E+03  0.19973740853E+04  0.46999998093E+01 0. -1.
       -5    1    3    3    0  502  0.16801883629E+04 -0.63762269050E+03  0.87446407763E+03  0.19985757787E+04  0.46999998093E+01 0.  1.
</event>
<event>
 5   0  0.1073271E-07  0.3970647E+04  0.7818609E-02  0.8010494E-01
       -2   -1    0    0    0  501  0.00000000000E+00  0.00000000000E+00  0.14376909241E+04  0.14376909241E+04  0.25500000920E-02 0. -1.
        2   -1    0    0  501    0  0.00000000000E+00  0.00000000000E+00 -0.27415555949E+04  0.27415555949E+04  0.25500000920E-02 0.  1.
    10030    2    1    2    0    0  0.00000000000E+00  0.00000000000E+00 -0.13038646708E+04  0.41792465191E+04  0.39706470993E+04 0.  0.
        1    1    3    3  502    0  0.15693605539E+04 -0.44558958624E+03 -0.18427713241E+04  0.24611478582E+04  0.50400001928E-02 0. -1.
       -1    1    3    3    0  502 -0.15693605539E+04  0.44558958624E+03  0.53890665324E+03  0.17180986608E+04  0.50400001928E-02 0.  1.
</event>
<event>
 5   0  0.3399500E-08  0.3994210E+04  0.7818609E-02  0.8005716E-01
        1   -1    0    0  501    0  0.00000000000E+00  0.00000000000E+00  0.18501919635E+04  0.18501919635E+04  0.50400001928E-02 0. -1.
       -1   -1    0    0    0  501  0.00000000000E+00  0.00000000000E+00 -0.21556834779E+04  0.21556834779E+04  0.50400001928E-02 0.  1.
    10030    2    1    2    0    0  0.00000000000E+00  0.00000000000E+00 -0.30549151440E+03  0.40058754414E+04  0.39942099327E+04 0.  0.
        1    1    3    3  502    0 -0.51544802552E+03 -0.50902353943E+02 -0.20871481046E+04  0.21504569112E+04  0.50400001928E-02 0.  1.
       -1    1    3    3    0  502  0.51544802552E+03  0.50902353943E+02  0.17816565902E+04  0.18554185301E+04  0.50400001928E-02 0. -1.
</event>
<event>
 5   0  0.1073271E-07  0.3922257E+04  0.7818609E-02  0.8020416E-01
        2   -1    0    0  501    0  0.00000000000E+00  0.00000000000E+00  0.11557030101E+04  0.11557030101E+04  0.25500000920E-02 0. -1.
       -2   -1    0    0    0  501  0.00000000000E+00  0.00000000000E+00 -0.33278665935E+04  0.33278665935E+04  0.25500000920E-02 0.  1.
    10030    2    1    2    0    0  0.00000000000E+00  0.00000000000E+00 -0.21721635834E+04  0.44835696035E+04  0.39222572273E+04 0.  0.
        1    1    3    3  502    0 -0.56905886689E+02 -0.15552800151E+01  0.11547583361E+04  0.11561606781E+04  0.50400001928E-02 0. -1.
       -1    1    3    3    0  502  0.56905886689E+02  0.15552800151E+01 -0.33269219195E+04  0.33274089254E+04  0.50400001928E-02 0.  1.
</event>
<event>
 5   0  0.3399500E-08  0.3948498E+04  0.7818609E-02  0.8015018E-01
       -1   -1    0    0    0  501  0.00000000000E+00  0.00000000000E+00  0.20467765287E+04  0.20467765287E+04  0.50400001928E-02 0.  1.
        1   -1    0    0  501    0  0.00000000000E+00  0.00000000000E+00 -0.19042910679E+04  0.19042910679E+04  0.50400001928E-02 0. -1.
    10030    2    1    2    0    0  0.00000000000E+00  0.00000000000E+00  0.14248546087E+03  0.39510675966E+04  0.39484975683E+04 0.  0.
        3    1    3    3  502    0  0.90110523741E+03 -0.14907291653E+04 -0.85855212283E+03  0.19420030513E+04  0.10100000352E+00 0. -1.
       -3    1    3    3    0  502 -0.90110523741E+03  0.14907291653E+04  0.10010375837E+04  0.20090645454E+04  0.10100000352E+00 0.  1.
</event>
<event>
 5   0  0.3399500E-08  0.3991547E+04  0.7818609E-02  0.8006254E-01
       -1   -1    0    0    0  501  0.00000000000E+00  0.00000000000E+00  0.15451821726E+04  0.15451821726E+04  0.50400001928E-02 0. -1.
        1   -1    0    0  501    0  0.00000000000E+00  0.00000000000E+00 -0.25777626296E+04  0.25777626296E+04  0.50400001928E-02 0.  1.
    10030    2    1    2    0    0  0.00000000000E+00  0.00000000000E+00 -0.10325804571E+04  0.41229448022E+04  0.39915474996E+04 0.  0.
        2    1    3    3  502    0 -0.10249615113E+04 -0.15400275666E+04 -0.12898643165E+04  0.22552119547E+04  0.25500000920E-02 0.  1.
       -2    1    3    3    0  502  0.10249615113E+04  0.15400275666E+04  0.25728385943E+03  0.18677328475E+04  0.25500000920E-02 0. -1.
</event>
<event>
 5   0  0.3399500E-08  0.4003375E+04  0.7818609E-02  0.8003866E-01
       -3   -1    0    0    0  501  0.00000000000E+00  0.00000000000E+00  0.23057246316E+04  0.23057246339E+04  0.10100000352E+00 0. -1.
        3   -1    0    0  501    0  0.00000000000E+00  0.00000000000E+00 -0.17377411425E+04  0.17377411454E+04  0.10100000352E+00 0.  1.
    10030    2    1    2    0    0  0.00000000000E+00  0.00000000000E+00  0.56798348915E+03  0.40434657793E+04  0.40033748593E+04 0.  0.
        3    1    3    3  502    0  0.15175635471E+04 -0.96451587812E+03 -0.60428268772E+03  0.18969574522E+04  0.10100000352E+00 0.  1.
       -3    1    3    3    0  502 -0.15175635471E+04  0.96451587812E+03  0.11722661769E+04  0.21465083271E+04  0.10100000352E+00 0. -1.
</event>
<event>
 5   0  0.1101474E-07  0.3992254E+04  0.7818609E-02  0.8006111E-01
       -2   -1    0    0    0  501  0.00000000000E+00  0.00000000000E+00  0.14862626916E+04  0.14862626916E+04  0.25500000920E-02 0. -1.
        2   -1    0    0  501    0  0.00000000000E+00  0.00000000000E+00 -0.26809003186E+04  0.26809003187E+04  0.25500000920E-02 0.  1.
    10030    2    1    2    0    0  0.00000000000E+00  0.00000000000E+00 -0.11946376270E+04  0.41671630103E+04  0.39922535609E+04 0.  0.
        5    1    3    3  502    0 -0.25491276639E+03  0.16285302338E+04  0.57779716169E+03  0.17467005728E+04  0.46999998093E+01 0. -1.
       -5    1    3    3    0  502  0.25491276639E+03 -0.16285302338E+04 -0.17724347887E+04  0.24204624375E+04  0.46999998093E+01 0.  1.
</event>
<event>
 5   0  0.1101474E-07  0.4019027E+04  0.7818609E-02  0.8000719E-01
       -2   -1    0    0    0  501  0.00000000000E+00  0.00000000000E+00  0.21318990373E+04  0.21318990373E+04  0.25500000920E-02 0. -1.
        2   -1    0    0  501    0  0.00000000000E+00  0.00000000000E+00 -0.18941534336E+04  0.18941534336E+04  0.25500000920E-02 0.  1.
    10030    2    1    2    0    0  0.00000000000E+00  0.00000000000E+00  0.23774560369E+03  0.40260524710E+04  0.40190266890E+04 0.  0.
        5    1    3    3  502    0  0.10121751101E+04  0.13696977956E+04  0.11872977822E+04  0.20761186427E+04  0.46999998093E+01 0.  1.
       -5    1    3    3    0  502 -0.10121751101E+04 -0.13696977956E+04 -0.94955217853E+03  0.19499338283E+04  0.46999998093E+01 0. -1.
</event>
<event>
 5   0  0.1101474E-07  0.4010339E+04  0.7818609E-02  0.8002464E-01
       -2   -1    0    0    0  501  0.00000000000E+00  0.00000000000E+00  0.24519062132E+04  0.24519062132E+04  0.25500000920E-02 0. -1.
        2   -1    0    0  501    0  0.00000000000E+00  0.00000000000E+00 -0.16398280654E+04  0.16398280654E+04  0.25500000920E-02 0.  1.
    10030    2    1    2    0    0  0.00000000000E+00  0.00000000000E+00  0.81207814779E+03  0.40917342785E+04  0.40103389492E+04 0.  0.
        5    1    3    3  502    0 -0.12873665232E+04  0.12556245308E+04 -0.49896841137E+03  0.18662521515E+04  0.46999998093E+01 0.  1.
       -5    1    3    3    0  502  0.12873665232E+04 -0.12556245308E+04  0.13110465592E+04  0.22254821270E+04  0.46999998093E+01 0. -1.
</event>
<event>
 5   0  0.3399500E-08  0.4005735E+04  0.7818609E-02  0.8003391E-01
        1   -1    0    0  501    0  0.00000000000E+00  0.00000000000E+00  0.16459367225E+04  0.16459367225E+04  0.50400001928E-02 0. -1.
       -1   -1    0    0    0  501  0.00000000000E+00  0.00000000000E+00 -0.24372003467E+04  0.24372003467E+04  0.50400001928E-02 0.  1.
    10030    2    1    2    0    0  0.00000000000E+00  0.00000000000E+00 -0.79126362419E+03  0.40831370693E+04  0.40057346647E+04 0.  0.
        4    1    3    3  502    0  0.17366202323E+04 -0.79808074853E+03 -0.10061145213E+04  0.21598728562E+04  0.12699999809E+01 0.  1.
       -4    1    3    3    0  502 -0.17366202323E+04  0.79808074853E+03  0.21485089711E+03  0.19232642130E+04  0.12699999809E+01 0. -1.
</event>
<event>
 5   0  0.1087688E-07  0.4001462E+04  0.7818609E-02  0.8004252E-01
       -2   -1    0    0    0  501  0.00000000000E+00  0.00000000000E+00  0.26432475843E+04  0.26432475843E+04  0.25500000920E-02 0.  1.
        2   -1    0    0  501    0  0.00000000000E+00  0.00000000000E+00 -0.15143966133E+04  0.15143966133E+04  0.25500000920E-02 0. -1.
    10030    2    1    2    0    0  0.00000000000E+00  0.00000000000E+00  0.11288509710E+04  0.41576441977E+04  0.40014623277E+04 0.  0.
        2    1    3    3  502    0 -0.13057980480E+04 -0.95897922885E+03 -0.65535266161E+03  0.17476374952E+04  0.25500000920E-02 0. -1.
       -2    1    3    3    0  502  0.13057980480E+04  0.95897922885E+03  0.17842036326E+04  0.24100067025E+04  0.25500000920E-02 0.  1.
</event>
<event>
 5   0  0.1095903E-07  0.3994072E+04  0.7818609E-02  0.8005743E-01
       -2   -1    0    0    0  501  0.00000000000E+00  0.00000000000E+00  0.16870071770E+04  0.16870071770E+04  0.25500000920E-02 0.  1.
        2   -1    0    0  501    0  0.00000000000E+00  0.00000000000E+00 -0.23640404709E+04  0.23640404709E+04  0.25500000920E-02 0. -1.
    10030    2    1    2    0    0  0.00000000000E+00  0.00000000000E+00 -0.67703329388E+03  0.40510476480E+04  0.39940722283E+04 0.  0.
        3    1    3    3  502    0  0.45403948906E+03 -0.76165011504E+03 -0.21534248900E+04  0.23288412403E+04  0.10100000352E+00 0. -1.
       -3    1    3    3    0  502 -0.45403948906E+03  0.76165011504E+03  0.14763915961E+04  0.17222064077E+04  0.10100000352E+00 0.  1.
</event>
<event>
 5   0  0.3399500E-08  0.3979032E+04  0.7818609E-02  0.8008790E-01
        1   -1    0    0  501    0  0.00000000000E+00  0.00000000000E+00  0.15497081873E+04  0.15497081873E+04  0.50400001928E-02 0.  1.
       -1   -1    0    0    0  501  0.00000000000E+00  0.00000000000E+00 -0.25541413073E+04  0.25541413073E+04  0.50400001928E-02 0. -1.
    10030    2    1    2    0    0  0.00000000000E+00  0.00000000000E+00 -0.10044331200E+04  0.41038494946E+04  0.39790318900E+04 0.  0.
        3    1    3    3  502    0  0.13559654956E+04 -0.14476949009E+04 -0.66102972636E+03  0.20907948872E+04  0.10100000352E+00 0. -1.
       -3    1    3    3    0  502 -0.13559654956E+04  0.14476949009E+04 -0.34340339364E+03  0.20130546073E+04  0.10100000352E+00 0.  1.
</event>
<event>
 5   0  0.1095903E-07  0.3873021E+04  0.7818609E-02  0.8030664E-01
       -2   -1    0    0    0  501  0.00000000000E+00  0.00000000000E+00  0.14904040001E+04  0.14904040001E+04  0.25500000920E-02 0.  1.
        2   -1    0    0  501    0  0.00000000000E+00  0.00000000000E+00 -0.25161447478E+04  0.25161447478E+04  0.25500000920E-02 0. -1.
    10030    2    1    2    0    0  0.00000000000E+00  0.00000000000E+00 -0.10257407477E+04  0.40065487480E+04  0.38730206284E+04 0.  0.
        3    1    3    3  502    0  0.74841730768E+02  0.38017359295E+03  0.14498940992E+04  0.15007751846E+04  0.10100000352E+00 0.  1.
       -3    1    3    3    0  502 -0.74841730768E+02 -0.38017359295E+03 -0.24756348469E+04  0.25057735634E+04  0.10100000352E+00 0. -1.
</event>
<event>
 5   0  0.3399500E-08  0.3997917E+04  0.7818609E-02  0.8004967E-01
       -1   -1    0    0    0  501  0.00000000000E+00  0.00000000000E+00  0.18412576987E+04  0.18412576987E+04  0.50400001928E-02 0. -1.
        1   -1    0    0  501    0  0.00000000000E+00  0.00000000000E+00 -0.21701656093E+04  0.21701656093E+04  0.50400001928E-02 0.  1.
    10030    2    1    2    0    0  0.00000000000E+00  0.00000000000E+00 -0.32890791065E+03  0.40114233080E+04  0.39979165252E+04 0.  0.
        1    1    3    3  502    0 -0.77177592906E+03  0.26807997388E+02 -0.20144502119E+04  0.21573980647E+04  0.50400001928E-02 0.  1.
       -1    1    3    3    0  502  0.77177592906E+03 -0.26807997388E+02  0.16855423012E+04  0.18540252433E+04  0.50400001928E-02 0. -1.
</event>
<event>
 5   0  0.1101474E-07  0.4001577E+04  0.7818609E-02  0.8004229E-01
        2   -1    0    0  501    0  0.00000000000E+00  0.00000000000E+00  0.20809949398E+04  0.20809949398E+04  0.25500000920E-02 0.  1.
       -2   -1    0    0    0  501  0.00000000000E+00  0.00000000000E+00 -0.19236730349E+04  0.19236730349E+04  0.25500000920E-02 0. -1.
    10030    2    1    2    0    0  0.00000000000E+00  0.00000000000E+00  0.15732190486E+03  0.40046679747E+04  0.40015766150E+04 0.  0.
        5    1    3    3  502    0  0.14065564726E+04  0.13536144590E+04  0.51770084141E+03  0.20195815075E+04  0.46999998093E+01 0.  1.
       -5    1    3    3    0  502 -0.14065564726E+04 -0.13536144590E+04 -0.36037893655E+03  0.19850864672E+04  0.46999998093E+01 0. -1.
</event>
<event>
 5   0  0.3399500E-08  0.3935833E+04  0.7818609E-02  0.8017618E-01
       -1   -1    0    0    0  501  0.00000000000E+00  0.00000000000E+00  0.29514092700E+04  0.29514092700E+04  0.50400001928E-02 0. -1.
        1   -1    0    0  501    0  0.00000000000E+00  0.00000000000E+00 -0.13121510962E+04  0.13121510962E+04  0.50400001928E-02 0.  1.
    10030    2    1    2    0    0  0.00000000000E+00  0.00000000000E+00  0.16392581738E+04  0.42635603663E+04  0.39358327755E+04 0.  0.
        3    1    3    3  502    0  0.13746669898E+04 -0.50170307584E+03 -0.60571389918E+03  0.15837628127E+04  0.10100000352E+00 0.  1.
       -3    1    3    3    0  502 -0.13746669898E+04  0.50170307584E+03  0.22449720730E+04  0.26797975535E+04  0.10100000352E+00 0. -1.
</event>
<event>
 5   0  0.1087688E-07  0.4102659E+04  0.7818609E-02  0.7984151E-01
        2   -1    0    0  501    0  0.00000000000E+00  0.00000000000E+00  0.22600882574E+04  0.22600882574E+04  0.25500000920E-02 0. -1.
       -2   -1    0    0    0  501  0.00000000000E+00  0.00000000000E+00 -0.18618530803E+04  0.18618530803E+04  0.25500000920E-02 0.  1.
    10030    2    1    2    0    0  0.00000000000E+00  0.00000000000E+00  0.39823517709E+03  0.41219413377E+04  0.41026587885E+04 0.  0.
        2    1    3    3  502    0 -0.38611548212E+03  0.51161054651E+03 -0.17586614307E+04  0.18718227867E+04  0.25500000920E-02 0.  1.
       -2    1    3    3    0  502  0.38611548212E+03 -0.51161054651E+03  0.21568966078E+04  0.22501185510E+04  0.25500000920E-02 0. -1.
</event>
<event>
 5   0  0.3399500E-08  0.3917403E+04  0.7818609E-02  0.8021419E-01
        1   -1    0    0  501    0  0.00000000000E+00  0.00000000000E+00  0.13741502396E+04  0.13741502396E+04  0.50400001928E-02 0. -1.
       -1   -1    0    0    0  501  0.00000000000E+00  0.00000000000E+00 -0.27919156069E+04  0.27919156069E+04  0.50400001928E-02 0.  1.
    10030    2    1    2    0    0  0.00000000000E+00  0.00000000000E+00 -0.14177653673E+04  0.41660658465E+04  0.39174029663E+04 0.  0.
        5    1    3    3  502    0  0.18972521210E+03 -0.73419451239E+02  0.13628784671E+04  0.13779861676E+04  0.46999998093E+01 0. -1.
       -5    1    3    3    0  502 -0.18972521210E+03  0.73419451239E+02 -0.27806438344E+04  0.27880796789E+04  0.46999998093E+01 0.  1.
</event>
<event>
 5   0  0.3399500E-08  0.4119296E+04  0.7818609E-02  0.7980904E-01
       -1   -1    0    0    0  501  0.00000000000E+00  0.00000000000E+00  0.23509423909E+04  0.23509423909E+04  0.50400001928E-02 0. -1.
        1   -1    0    0  501    0  0.00000000000E+00  0.00000000000E+00 -0.18044462440E+04  0.18044462440E+04  0.50400001928E-02 0.  1.
    10030    2    1    2    0    0  0.00000000000E+00  0.00000000000E+00  0.54649614683E+03  0.41553886349E+04  0.41192956520E+04 0.  0.
        2    1    3    3  502    0  0.77059590349E+03 -0.69071308387E+03  0.20696507294E+04  0.23139483038E+04  0.25500000920E-02 0. -1.
       -2    1    3    3    0  502 -0.77059590349E+03  0.69071308387E+03 -0.15231545826E+04  0.18414403311E+04  0.25500000920E-02 0.  1.
</event>
<event>
 5   0  0.3399500E-08  0.4007702E+04  0.7818609E-02  0.8002995E-01
       -3   -1    0    0    0  501  0.00000000000E+00  0.00000000000E+00  0.17366586700E+04  0.17366586729E+04  0.10100000352E+00 0. -1.
        3   -1    0    0  501    0  0.00000000000E+00  0.00000000000E+00 -0.23121521704E+04  0.23121521726E+04  0.10100000352E+00 0.  1.
    10030    2    1    2    0    0  0.00000000000E+00  0.00000000000E+00 -0.57549350044E+03  0.40488108455E+04  0.40077021463E+04 0.  0.
        5    1    3    3  502    0 -0.58268832959E+02  0.12511612463E+04 -0.18679512626E+04  0.22490139463E+04  0.46999998093E+01 0.  1.
       -5    1    3    3    0  502  0.58268832959E+02 -0.12511612463E+04  0.12924577622E+04  0.17997968992E+04  0.46999998093E+01 0. -1.
</event>
<event>
 5   0  0.1101474E-07  0.3998943E+04  0.7818609E-02  0.8004760E-01
        2   -1    0    0  501    0  0.00000000000E+00  0.00000000000E+00  0.21057039517E+04  0.21057039517E+04  0.25500000920E-02 0. -1.
       -2   -1    0    0    0  501  0.00000000000E+00  0.00000000000E+00 -0.18985981637E+04  0.18985981637E+04  0.25500000920E-02 0.  1.
    10030    2    1    2    0    0  0.00000000000E+00  0.00000000000E+00  0.20710578804E+03  0.40043021154E+04  0.39989426883E+04 0.  0.
        5    1    3    3  502    0  0.13760520272E+04 -0.10182345749E+04 -0.93105143497E+03  0.19486404737E+04  0.46999998093E+01 0.  1.
       -5    1    3    3    0  502 -0.13760520272E+04  0.10182345749E+04  0.11381572230E+04  0.20556616417E+04  0.46999998093E+01 0. -1.
</event>
<event>
 5   0  0.3399500E-08  0.3987429E+04  0.7818609E-02  0.8007087E-01
       -3   -1    0    0    0  501  0.00000000000E+00  0.00000000000E+00  0.16102825058E+04  0.16102825089E+04  0.10100000352E+00 0.  1.
        3   -1    0    0  501    0  0.00000000000E+00  0.00000000000E+00 -0.24684473129E+04  0.24684473149E+04  0.10100000352E+00 0. -1.
    10030    2    1    2    0    0  0.00000000000E+00  0.00000000000E+00 -0.85816480710E+03  0.40787298239E+04  0.39874290138E+04 0.  0.
        3    1    3    3  502    0 -0.16757640376E+04 -0.80555750841E+02 -0.15308823425E+04  0.22711836332E+04  0.10100000352E+00 0. -1.
       -3    1    3    3    0  502  0.16757640376E+04  0.80555750841E+02  0.67271753542E+03  0.18075461907E+04  0.10100000352E+00 0.  1.
</event>
<event>
 5   0  0.1073271E-07  0.4016273E+04  0.7818609E-02  0.8001272E-01
        2   -1    0    0  501    0  0.00000000000E+00  0.00000000000E+00  0.29864223962E+04  0.29864223962E+04  0.25500000920E-02 0.  1.
       -2   -1    0    0    0  501  0.00000000000E+00  0.00000000000E+00 -0.13503156703E+04  0.13503156703E+04  0.25500000920E-02 0. -1.
    10030    2    1    2    0    0  0.00000000000E+00  0.00000000000E+00  0.16361067259E+04  0.43367380665E+04  0.40162733770E+04 0.  0.
        1    1    3    3  502    0 -0.18972539729E+04  0.65708247684E+03  0.85672951112E+03  0.21829602549E+04  0.50400001928E-02 0.  1.
       -1    1    3    3    0  502  0.18972539729E+04 -0.65708247684E+03  0.77937721481E+03  0.21537778117E+04  0.50400001928E-02 0. -1.
</event>
<event>
 5   0  0.1101474E-07  0.3998858E+04  0.7818609E-02  0.8004777E-01
       -2   -1    0    0    0  501  0.00000000000E+00  0.00000000000E+00  0.17210241127E+04  0.17210241127E+04  0.25500000920E-02 0.  1.
        2   -1    0    0  501    0  0.00000000000E+00  0.00000000000E+00 -0.23228708273E+04  0.23228708273E+04  0.25500000920E-02 0. -1.
    10030    2    1    2    0    0  0.00000000000E+00  0.00000000000E+00 -0.60184671467E+03  0.40438949400E+04  0.39988581892E+04 0.  0.
        5    1    3    3  502    0  0.27282687644E+03  0.29032958400E+01 -0.23039510137E+04  0.23200550203E+04  0.46999998093E+01 0. -1.
       -5    1    3    3    0  502 -0.27282687644E+03 -0.29032958400E+01  0.17021042991E+04  0.17238399196E+04  0.46999998093E+01 0.  1.
</event>
<event>
 5   0  0.1101474E-07  0.4001600E+04  0.7818609E-02  0.8004224E-01
       -2   -1    0    0    0  501  0.00000000000E+00  0.00000000000E+00  0.19767351077E+04  0.19767351077E+04  0.25500000920E-02 0. -1.
        2   -1    0    0  501    0  0.00000000000E+00  0.00000000000E+00 -0.20251576471E+04  0.20251576471E+04  0.25500000920E-02 0.  1.
    10030    2    1    2    0    0  0.00000000000E+00  0.00000000000E+00 -0.48422539355E+02  0.40018927548E+04  0.40015997899E+04 0.  0.
        5    1    3    3  502    0 -0.44636354041E+03  0.14321666111E+04 -0.13482555227E+04  0.20169671928E+04  0.46999998093E+01 0.  1.
       -5    1    3    3    0  502  0.44636354041E+03 -0.14321666111E+04  0.12998329834E+04  0.19849255620E+04  0.46999998093E+01 0. -1.
</event>
<event>
 5   0  0.3399500E-08  0.3976425E+04  0.7818609E-02  0.8009319E-01
        1   -1    0    0  501    0  0.00000000000E+00  0.00000000000E+00  0.29157012315E+04  0.29157012315E+04  0.50400001928E-02 0.  1.
       -1   -1    0    0    0  501  0.00000000000E+00  0.00000000000E+00 -0.13557590820E+04  0.13557590820E+04  0.50400001928E-02 0. -1.
    10030    2    1    2    0    0  0.00000000000E+00  0.00000000000E+00  0.15599421495E+04  0.42714603135E+04  0.39764247384E+04 0.  0.
        5    1    3    3  502    0  0.13255954552E+04 -0.37138592556E+03 -0.76098031236E+03  0.15729729630E+04  0.46999998093E+01 0. -1.
       -5    1    3    3    0  502 -0.13255954552E+04  0.37138592556E+03  0.23209224619E+04  0.26984873505E+04  0.46999998093E+01 0.  1.
</event>
<event>
 5   0  0.3399500E-08  0.4073520E+04  0.7818609E-02  0.7989877E-01
        3   -1    0    0  501    0  0.00000000000E+00  0.00000000000E+00  0.14762350830E+04  0.14762350865E+04  0.10100000352E+00 0.  1.
       -3   -1    0    0    0  501  0.00000000000E+00  0.00000000000E+00 -0.28101161699E+04  0.28101161717E+04  0.10100000352E+00 0. -1.
    10030    2    1    2    0    0  0.00000000000E+00  0.00000000000E+00 -0.13338810868E+04  0.42863512582E+04  0.40735203884E+04 0.  0.
        5    1    3    3  502    0 -0.37567542640E+02 -0.53709399261E+03  0.13999928462E+04  0.14999611117E+04  0.46999998093E+01 0.  1.
       -5    1    3    3    0  502  0.37567542640E+02  0.53709399261E+03 -0.27338739330E+04  0.27863901465E+04  0.46999998093E+01 0. -1.
</event>
<event>
 5   0  0.1101474E-07  0.3990564E+04  0.7818609E-02  0.8006453E-01
        2   -1    0    0  501    0  0.00000000000E+00  0.00000000000E+00  0.30144740035E+04  0.30144740035E+04  0.25500000920E-02 0.  1.
       -2   -1    0    0    0  501  0.00000000000E+00  0.00000000000E+00 -0.13206780389E+04  0.13206780389E+04  0.25500000920E-02 0. -1.
    10030    2    1    2    0    0  0.00000000000E+00  0.00000000000E+00  0.16937959646E+04  0.43351520424E+04  0.39905636771E+04 0.  0.
        5    1    3    3  502    0  0.14483735352E+04 -0.13212864415E+04  0.12497917469E+04  0.23249914535E+04  0.46999998093E+01 0.  1.
       -5    1    3    3    0  502 -0.14483735352E+04  0.13212864415E+04  0.44400421772E+03  0.20101605889E+04  0.46999998093E+01 0. -1.
</event>
<event>
 5   0  0.3399500E-08  0.4001963E+04  0.7818609E-02  0.8004151E-01
       -1   -1    0    0    0  501  0.00000000000E+00  0.00000000000E+00  0.19267587869E+04  0.19267587869E+04  0.50400001928E-02 0. -1.
        1   -1    0    0  501    0  0.00000000000E+00  0.00000000000E+00 -0.20780636534E+04  0.20780636534E+04  0.50400001928E-02 0.  1.
    10030    2    1    2    0    0  0.00000000000E+00  0.00000000000E+00 -0.15130486652E+03  0.40048224403E+04  0.40019632202E+04 0.  0.
        4    1    3    3  502    0 -0.34590442952E+03 -0.89764486636E+03  0.16801693377E+04  0.19360751010E+04  0.12699999809E+01 0. -1.
       -4    1    3    3    0  502  0.34590442952E+03  0.89764486636E+03 -0.18314742042E+04  0.20687473393E+04  0.12699999809E+01 0.  1.
</event>
<event>
 5   0  0.1073271E-07  0.3991691E+04  0.7818609E-02  0.8006225E-01
        2   -1    0    0  501    0  0.00000000000E+00  0.00000000000E+00  0.21987886204E+04  0.21987886204E+04  0.25500000920E-02 0.  1.
       -2   -1    0    0    0  501  0.00000000000E+00  0.00000000000E+00 -0.18116331140E+04  0.18116331141E+04  0.25500000920E-02 0. -1.
    10030    2    1    2    0    0  0.00000000000E+00  0.00000000000E+00  0.38715550633E+03  0.40104217344E+04  0.39916905068E+04 0.  0.
        1    1    3    3  502    0 -0.15310292407E+04 -0.72015078662E+03  0.12571911428E+04  0.21078892905E+04  0.50400001928E-02 0.  1.
       -1    1    3    3    0  502  0.15310292407E+04  0.72015078662E+03 -0.87003563647E+03  0.19025324439E+04  0.50400001928E-02 0. -1.
</event>
<event>
 5   0  0.3399500E-08  0.4005081E+04  0.7818609E-02  0.8003522E-01
        1   -1    0    0  501    0  0.00000000000E+00  0.00000000000E+00  0.16300686429E+04  0.16300686429E+04  0.50400001928E-02 0. -1.
       -1   -1    0    0    0  501  0.00000000000E+00  0.00000000000E+00 -0.24601220591E+04  0.24601220591E+04  0.50400001928E-02 0.  1.
    10030    2    1    2    0    0  0.00000000000E+00  0.00000000000E+00 -0.83005341625E+03  0.40901907021E+04  0.40050806865E+04 0.  0.
        5    1    3    3  502    0  0.28794332202E+03 -0.10673743897E+04  0.12901700129E+04  0.16990468494E+04  0.46999998093E+01 0. -1.
       -5    1    3    3    0  502 -0.28794332202E+03  0.10673743897E+04 -0.21202234291E+04  0.23911438526E+04  0.46999998093E+01 0.  1.
</event>
<event>
 5   0  0.3399500E-08  0.3998346E+04  0.7818609E-02  0.8004880E-01
       -1   -1    0    0    0  501  0.00000000000E+00  0.00000000000E+00  0.26321735065E+04  0.26321735065E+04  0.50400001928E-02 0. -1.
        1   -1    0    0  501    0  0.00000000000E+00  0.00000000000E+00 -0.15184004968E+04  0.15184004968E+04  0.50400001928E-02 0.  1.
    10030    2    1    2    0    0  0.00000000000E+00  0.00000000000E+00  0.11137730097E+04  0.41505740034E+04  0.39983464383E+04 0.  0.
        1    1    3    3  502    0 -0.56776905721E+03 -0.18331948498E+04 -0.24553256655E+02  0.19192623380E+04  0.50400001928E-02 0.  1.
       -1    1    3    3    0  502  0.56776905721E+03  0.18331948498E+04  0.11383262663E+04  0.22313116654E+04  0.50400001928E-02 0. -1.
</event>
<event>
 5   0  0.3399500E-08  0.4030330E+04  0.7818609E-02  0.7998456E-01
       -1   -1    0    0    0  501  0.00000000000E+00  0.00000000000E+00  0.28472439489E+04  0.28472439489E+04  0.50400001928E-02 0.  1.
        1   -1    0    0  501    0  0.00000000000E+00  0.00000000000E+00 -0.14262532534E+04  0.14262532534E+04  0.50400001928E-02 0. -1.
    10030    2    1    2    0    0  0.00000000000E+00  0.00000000000E+00  0.14209906954E+04  0.42734972023E+04  0.40303304805E+04 0.  0.
        3    1    3    3  502    0  0.64969842937E+03  0.14578885846E+04 -0.59390696536E+03  0.17030186928E+04  0.10100000352E+00 0. -1.
       -3    1    3    3    0  502 -0.64969842937E+03 -0.14578885846E+04  0.20148976608E+04  0.25704785095E+04  0.10100000352E+00 0.  1.
</event>
<event>
 5   0  0.3399500E-08  0.3960946E+04  0.7818609E-02  0.8012472E-01
       -1   -1    0    0    0  501  0.00000000000E+00  0.00000000000E+00  0.31090898947E+04  0.31090898947E+04  0.50400001928E-02 0. -1.
        1   -1    0    0  501    0  0.00000000000E+00  0.00000000000E+00 -0.12615500814E+04  0.12615500814E+04  0.50400001928E-02 0.  1.
    10030    2    1    2    0    0  0.00000000000E+00  0.00000000000E+00  0.18475398133E+04  0.43706399761E+04  0.39609456496E+04 0.  0.
        4    1    3    3  502    0 -0.87129737140E+03 -0.11828407233E+04 -0.54176242929E+03  0.15658158987E+04  0.12699999809E+01 0.  1.
       -4    1    3    3    0  502  0.87129737140E+03  0.11828407233E+04  0.23893022426E+04  0.28048240774E+04  0.12699999809E+01 0. -1.
</event>
<event>
 5   0  0.1095109E-07  0.3997117E+04  0.7818609E-02  0.8005128E-01
       -2   -1    0    0    0  501  0.00000000000E+00  0.00000000000E+00  0.16616167714E+04  0.16616167714E+04  0.25500000920E-02 0.  1.
        2   -1    0    0  501    0  0.00000000000E+00  0.00000000000E+00 -0.24038252155E+04  0.24038252155E+04  0.25500000920E-02 0. -1.
    10030    2    1    2    0    0  0.00000000000E+00  0.00000000000E+00 -0.74220844402E+03  0.40654419869E+04  0.39971171079E+04 0.  0.
        4    1    3    3  502    0 -0.98550498496E+03 -0.90584748915E+03 -0.18805392042E+04  0.23082913725E+04  0.12699999809E+01 0. -1.
       -4    1    3    3    0  502  0.98550498496E+03  0.90584748915E+03  0.11383307602E+04  0.17571506144E+04  0.12699999809E+01 0.  1.
</event>
<event>
 5   0  0.1073271E-07  0.3993054E+04  0.7818609E-02  0.8005949E-01
        2   -1    0    0  501    0  0.00000000000E+00  0.00000000000E+00  0.15686031584E+04  0.15686031584E+04  0.25500000920E-02 0.  1.
       -2   -1    0    0    0  501  0.00000000000E+00  0.00000000000E+00 -0.25411910003E+04  0.25411910003E+04  0.25500000920E-02 0. -1.
    10030    2    1    2    0    0  0.00000000000E+00  0.00000000000E+00 -0.97258784190E+03  0.41097941586E+04  0.39930540838E+04 0.  0.
        1    1    3    3  502    0 -0.11366414336E+04 -0.30405833779E+03  0.11738461759E+04  0.16620228837E+04  0.50400001928E-02 0.  1.
       -1    1    3    3    0  502  0.11366414336E+04  0.30405833779E+03 -0.21464340178E+04  0.24477712749E+04  0.50400001928E-02 0. -1.
</event>
<event>
 5   0  0.3399500E-08  0.4010920E+04  0.7818609E-02  0.8002347E-01
        1   -1    0    0  501    0  0.00000000000E+00  0.00000000000E+00  0.28862430926E+04  0.28862430926E+04  0.50400001928E-02 0. -1.
       -1   -1    0    0    0  501  0.00000000000E+00  0.00000000000E+00 -0.13934621318E+04  0.13934621318E+04  0.50400001928E-02 0.  1.
    10030    2    1    2    0    0  0.00000000000E+00  0.00000000000E+00  0.14927809609E+04  0.42797052244E+04  0.40109203197E+04 0.  0.
        1    1    3    3  502    0 -0.10359950870E+04  0.62172956495E+03 -0.96150983795E+03  0.15441290881E+04  0.50400001928E-02 0.  1.
       -1    1    3    3    0  502  0.10359950870E+04 -0.62172956495E+03  0.24542907988E+04  0.27355761363E+04  0.50400001928E-02 0. -1.
</event>
<event>
 5   0  0.1101474E-07  0.3977596E+04  0.7818609E-02  0.8009081E-01
        2   -1    0    0  501    0  0.00000000000E+00  0.00000000000E+00  0.19926101640E+04  0.19926101640E+04  0.25500000920E-02 0. -1.
       -2   -1    0    0    0  501  0.00000000000E+00  0.00000000000E+00 -0.19849929869E+04  0.19849929869E+04  0.25500000920E-02 0.  1.
    10030    2    1    2    0    0  0.00000000000E+00  0.00000000000E+00  0.76171770991E+01  0.39776031509E+04  0.39775958574E+04 0.  0.
        5    1    3    3  502    0 -0.68800361375E+03  0.27048728104E+03 -0.18424837151E+04  0.19852658945E+04  0.46999998093E+01 0.  1.
       -5    1    3    3    0  502  0.68800361375E+03 -0.27048728104E+03  0.18501008922E+04  0.19923372563E+04  0.46999998093E+01 0. -1.
</event>
<event>
 5   0  0.1095903E-07  0.3944677E+04  0.7818609E-02  0.8015801E-01
        2   -1    0    0  501    0  0.00000000000E+00  0.00000000000E+00  0.14972072968E+04  0.14972072968E+04  0.25500000920E-02 0.  1.
       -2   -1    0    0    0  501  0.00000000000E+00  0.00000000000E+00 -0.25982500890E+04  0.25982500890E+04  0.25500000920E-02 0. -1.
    10030    2    1    2    0    0  0.00000000000E+00  0.00000000000E+00 -0.11010427922E+04  0.40954573859E+04  0.39446769157E+04 0.  0.
        3    1    3    3  502    0 -0.10574631117E+03 -0.12697638602E+04 -0.21136039144E+04  0.24679554413E+04  0.10100000352E+00 0. -1.
       -3    1    3    3    0  502  0.10574631117E+03  0.12697638602E+04  0.10125611223E+04  0.16275019445E+04  0.10100000352E+00 0.  1.
</event>
<event>
 5   0  0.1095109E-07  0.3981070E+04  0.7818609E-02  0.8008376E-01
       -2   -1    0    0    0  501  0.00000000000E+00  0.00000000000E+00  0.20476074017E+04  0.20476074017E+04  0.25500000920E-02 0. -1.
        2   -1    0    0  501    0  0.00000000000E+00  0.00000000000E+00 -0.19350537116E+04  0.19350537116E+04  0.25500000920E-02 0.  1.
    10030    2    1    2    0    0  0.00000000000E+00  0.00000000000E+00  0.11255369014E+03  0.39826611133E+04  0.39810703599E+04 0.  0.
        4    1    3    3  502    0 -0.13743402352E+04 -0.14355741874E+04 -0.55769516779E+02  0.19881640228E+04  0.12699999809E+01 0. -1.
       -4    1    3    3    0  502  0.13743402352E+04  0.14355741874E+04  0.16832320692E+03  0.19944970906E+04  0.12699999809E+01 0.  1.
</event>
<event>
 5   0  0.1087688E-07  0.3969448E+04  0.7818609E-02  0.8010738E-01
        2   -1    0    0  501    0  0.00000000000E+00  0.00000000000E+00  0.22800902538E+04  0.22800902538E+04  0.25500000920E-02 0. -1.
       -2   -1    0    0    0  501  0.00000000000E+00  0.00000000000E+00 -0.17276195824E+04  0.17276195824E+04  0.25500000920E-02 0.  1.
    10030    2    1    2    0    0  0.00000000000E+00  0.00000000000E+00  0.55247067144E+03  0.40077098361E+04  0.39694476049E+04 0.  0.
        2    1    3    3  502    0 -0.13926473212E+04  0.91697995837E+03  0.13630919935E+04  0.21536802428E+04  0.25500000920E-02 0. -1.
       -2    1    3    3    0  502  0.13926473212E+04 -0.91697995837E+03 -0.81062132203E+03  0.18540295934E+04  0.25500000920E-02 0.  1.
</event>
<event>
 5   0  0.1087688E-07  0.3997773E+04  0.7818609E-02  0.8004996E-01
       -2   -1    0    0    0  501  0.00000000000E+00  0.00000000000E+00  0.19017183696E+04  0.19017183696E+04  0.25500000920E-02 0.  1.
        2   -1    0    0  501    0  0.00000000000E+00  0.00000000000E+00 -0.21010198175E+04  0.21010198175E+04  0.25500000920E-02 0. -1.
    10030    2    1    2    0    0  0.00000000000E+00  0.00000000000E+00 -0.19930144791E+03  0.40027381871E+04  0.39977733712E+04 0.  0.
        2    1    3    3  502    0 -0.29624863149E+03  0.60408262752E+03  0.17849378566E+04  0.19075330205E+04  0.25500000920E-02 0.  1.
       -2    1    3    3    0  502  0.29624863149E+03 -0.60408262752E+03 -0.19842393045E+04  0.20952051666E+04  0.25500000920E-02 0. -1.
</event>
<event>
 5   0  0.1087688E-07  0.3996912E+04  0.7818609E-02  0.8005170E-01
        2   -1    0    0  501    0  0.00000000000E+00  0.00000000000E+00  0.23997357760E+04  0.23997357760E+04  0.25500000920E-02 0.  1.
       -2   -1    0    0    0  501  0.00000000000E+00  0.00000000000E+00 -0.16642773399E+04  0.16642773399E+04  0.25500000920E-02 0. -1.
    10030    2    1    2    0    0  0.00000000000E+00  0.00000000000E+00  0.73545843611E+03  0.40640131159E+04  0.39969117447E+04 0.  0.
        2    1    3    3  502    0  0.18724016092E+04 -0.66280941419E+03  0.59193453922E+03  0.20725806629E+04  0.25500000920E-02 0.  1.
       -2    1    3    3    0  502 -0.18724016092E+04  0.66280941419E+03  0.14352389690E+03  0.19914324529E+04  0.25500000920E-02 0. -1.
</event>
<event>
 5   0  0.1095903E-07  0.3979585E+04  0.7818609E-02  0.8008678E-01
       -2   -1    0    0    0  501  0.00000000000E+00  0.00000000000E+00  0.16306674718E+04  0.16306674718E+04  0.25500000920E-02 0. -1.
        2   -1    0    0  501    0  0.00000000000E+00  0.00000000000E+00 -0.24280079159E+04  0.24280079159E+04  0.25500000920E-02 0.  1.
    10030    2    1    2    0    0  0.00000000000E+00  0.00000000000E+00 -0.79734044411E+03  0.40586753878E+04  0.39795846667E+04 0.  0.
        3    1    3    3  502    0  0.18105637758E+04  0.78661558682E+03 -0.14397056772E+03  0.19793010893E+04  0.10100000352E+00 0. -1.
       -3    1    3    3    0  502 -0.18105637758E+04 -0.78661558682E+03 -0.65336987639E+03  0.20793742985E+04  0.10100000352E+00 0.  1.
</event>
<event>
 5   0  0.1095109E-07  0.3988661E+04  0.7818609E-02  0.8006838E-01
       -2   -1    0    0    0  501  0.00000000000E+00  0.00000000000E+00  0.22882638271E+04  0.22882638271E+04  0.25500000920E-02 0.  1.
        2   -1    0    0  501    0  0.00000000000E+00  0.00000000000E+00 -0.17381539079E+04  0.17381539079E+04  0.25500000920E-02 0. -1.
    10030    2    1    2    0    0  0.00000000000E+00  0.00000000000E+00  0.55010991917E+03  0.40264177350E+04  0.39886612859E+04 0.  0.
        4    1    3    3  502    0  0.38721138477E+03 -0.37180739518E+03 -0.16638502512E+04  0.17483056560E+04  0.12699999809E+01 0. -1.
       -4    1    3    3    0  502 -0.38721138477E+03  0.37180739518E+03  0.22139601703E+04  0.22781120790E+04  0.12699999809E+01 0.  1.
</event>
<event>
 5   0  0.1073271E-07  0.4002732E+04  0.7818609E-02  0.8003996E-01
        2   -1    0    0  501    0  0.00000000000E+00  0.00000000000E+00  0.26188854668E+04  0.26188854668E+04  0.25500000920E-02 0. -1.
       -2   -1    0    0    0  501  0.00000000000E+00  0.00000000000E+00 -0.15294541069E+04  0.15294541069E+04  0.25500000920E-02 0.  1.
    10030    2    1    2    0    0  0.00000000000E+00  0.00000000000E+00  0.10894313600E+04  0.41483395737E+04  0.40027316336E+04 0.  0.
        1    1    3    3  502    0  0.11215144684E+04  0.38326367756E+03  0.22160740591E+04  0.25130996767E+04  0.50400001928E-02 0. -1.
       -1    1    3    3    0  502 -0.11215144684E+04 -0.38326367756E+03 -0.11266426991E+04  0.16352398970E+04  0.50400001928E-02 0.  1.
</event>
<event>
 5   0  0.3399500E-08  0.4031198E+04  0.7818609E-02  0.7998282E-01
       -1   -1    0    0    0  501  0.00000000000E+00  0.00000000000E+00  0.19428694195E+04  0.19428694195E+04  0.50400001928E-02 0. -1.
        1   -1    0    0  501    0  0.00000000000E+00  0.00000000000E+00 -0.20910513898E+04  0.20910513898E+04  0.50400001928E-02 0.  1.
    10030    2    1    2    0    0  0.00000000000E+00  0.00000000000E+00 -0.14818197032E+03  0.40339208093E+04  0.40311982337E+04 0.  0.
        1    1    3    3  502    0 -0.19133876120E+04  0.44098440497E+03 -0.52950317590E+03  0.20336895074E+04  0.50400001928E-02 0.  1.
       -1    1    3    3    0  502  0.19133876120E+04 -0.44098440497E+03  0.38132120558E+03  0.20002313019E+04  0.50400001928E-02 0. -1.
</event>
<event>
 5   0  0.3399500E-08  0.3849234E+04  0.7818609E-02  0.8035671E-01
       -1   -1    0    0    0  501  0.00000000000E+00  0.00000000000E+00  0.15961563569E+04  0.15961563569E+04  0.50400001928E-02 0. -1.
        1   -1    0    0  501    0  0.00000000000E+00  0.00000000000E+00 -0.23206687728E+04  0.23206687728E+04  0.50400001928E-02 0.  1.
    10030    2    1    2    0    0  0.00000000000E+00  0.00000000000E+00 -0.72451241583E+03  0.39168251297E+04  0.38492338012E+04 0.  0.
        3    1    3    3  502    0 -0.14993409457E+04 -0.12006794592E+04 -0.48476873957E+03  0.19810742481E+04  0.10100000352E+00 0. -1.
       -3    1    3    3    0  502  0.14993409457E+04  0.12006794592E+04 -0.23974367626E+03  0.19357508817E+04  0.10100000352E+00 0.  1.
</event>
<event>
 5   0  0.3399500E-08  0.4001299E+04  0.7818609E-02  0.8004285E-01
        1   -1    0    0  501    0  0.00000000000E+00  0.00000000000E+00  0.12761912752E+04  0.12761912752E+04  0.50400001928E-02 0. -1.
       -1   -1    0    0    0  501  0.00000000000E+00  0.00000000000E+00 -0.31363617983E+04  0.31363617983E+04  0.50400001928E-02 0.  1.
    10030    2    1    2    0    0  0.00000000000E+00  0.00000000000E+00 -0.18601705230E+04  0.44125530735E+04  0.40012985707E+04 0.  0.
        1    1    3    3  502    0 -0.12624153921E+04 -0.15159401871E+04 -0.12972138607E+04  0.23610444879E+04  0.50400001928E-02 0.  1.
       -1    1    3    3    0  502  0.12624153921E+04  0.15159401871E+04 -0.56295666229E+03  0.20515085856E+04  0.50400001928E-02 0. -1.
</event>
<event>
 5   0  0.1095109E-07  0.3989613E+04  0.7818609E-02  0.8006645E-01
        2   -1    0    0  501    0  0.00000000000E+00  0.00000000000E+00  0.23196564269E+04  0.23196564269E+04  0.25500000920E-02 0.  1.
       -2   -1    0    0    0  501  0.00000000000E+00  0.00000000000E+00 -0.17154491633E+04  0.17154491633E+04  0.25500000920E-02 0. -1.
    10030    2    1    2    0    0  0.00000000000E+00  0.00000000000E+00  0.60420726363E+03  0.40351055903E+04  0.39896128518E+04 0.  0.
        4    1    3    3  502    0  0.10944036455E+04 -0.16677914381E+04  0.30022670590E+03  0.20172717486E+04  0.12699999809E+01 0.  1.
       -4    1    3    3    0  502 -0.10944036455E+04  0.16677914381E+04  0.30398055773E+03  0.20178338416E+04  0.12699999809E+01 0. -1.
</event>
<event>
 5   0  0.1087688E-07  0.3975799E+04  0.7818609E-02  0.8009447E-01
       -2   -1    0    0    0  501  0.00000000000E+00  0.00000000000E+00  0.31752662259E+04  0.31752662259E+04  0.25500000920E-02 0.  1.
        2   -1    0    0  501    0  0.00000000000E+00  0.00000000000E+00 -0.12445393828E+04  0.12445393828E+04  0.25500000920E-02 0. -1.
    10030    2    1    2    0    0  0.00000000000E+00  0.00000000000E+00  0.19307268431E+04  0.44198056088E+04  0.39757987219E+04 0.  0.
        2    1    3    3  502    0  0.77071355229E+03 -0.15132689718E+04 -0.18336114632E+03  0.17080994323E+04  0.25500000920E-02 0. -1.
       -2    1    3    3    0  502 -0.77071355229E+03  0.15132689718E+04  0.21140879894E+04  0.27117061765E+04  0.25500000920E-02 0.  1.
</event>
<event>
 5   0  0.1087688E-07  0.3986246E+04  0.7818609E-02  0.8007327E-01
        2   -1    0    0  501    0  0.00000000000E+00  0.00000000000E+00  0.26987880957E+04  0.26987880957E+04  0.25500000920E-02 0.  1.
       -2   -1    0    0    0  501  0.00000000000E+00  0.00000000000E+00 -0.14719713800E+04  0.14719713800E+04  0.25500000920E-02 0. -1.
    10030    2    1    2    0    0  0.00000000000E+00  0.00000000000E+00  0.12268167158E+04  0.41707594757E+04  0.39862457714E+04 0.  0.
        2    1    3    3  502    0  0.65806536822E+03  0.37347513412E+03  0.25426688018E+04  0.26528660615E+04  0.25500000920E-02 0.  1.
       -2    1    3    3    0  502 -0.65806536822E+03 -0.37347513412E+03 -0.13158520860E+04  0.15178934142E+04  0.25500000920E-02 0. -1.
</event>
<event>
 5   0  0.1073271E-07  0.3967962E+04  0.7818609E-02  0.8011041E-01
        2   -1    0    0  501    0  0.00000000000E+00  0.00000000000E+00  0.16614245443E+04  0.16614245443E+04  0.25500000920E-02 0. -1.
       -2   -1    0    0    0  501  0.00000000000E+00  0.00000000000E+00 -0.23691595103E+04  0.23691595103E+04  0.25500000920E-02 0.  1.
    10030    2    1    2    0    0  0.00000000000E+00  0.00000000000E+00 -0.70773496596E+03  0.40305840546E+04  0.39679615723E+04 0.  0.
        1    1    3    3  502    0  0.96123614369E+03 -0.43733258057E+03 -0.20599413792E+04  0.23148635372E+04  0.50400001928E-02 0.  1.
       -1    1    3    3    0  502 -0.96123614369E+03  0.43733258057E+03  0.13522064132E+04  0.17157205174E+04  0.50400001928E-02 0. -1.
</event>
<event>
 5   0  0.1101474E-07  0.3911984E+04  0.7818609E-02  0.8022541E-01
        2   -1    0    0  501    0  0.00000000000E+00  0.00000000000E+00  0.15956782763E+04  0.15956782763E+04  0.25500000920E-02 0. -1.
       -2   -1    0    0    0  501  0.00000000000E+00  0.00000000000E+00 -0.23976670504E+04  0.23976670504E+04  0.25500000920E-02 0.  1.
    10030    2    1    2    0    0  0.00000000000E+00  0.00000000000E+00 -0.80198877413E+03  0.39933453267E+04  0.39119842669E+04 0.  0.
        5    1    3    3  502    0  0.30567314578E+03  0.30384851786E+03  0.15465968240E+04  0.16055353687E+04  0.46999998093E+01 0. -1.
       -5    1    3    3    0  502 -0.30567314578E+03 -0.30384851786E+03 -0.23485855982E+04  0.23878099581E+04  0.46999998093E+01 0.  1.
</event>
<event>
 5   0  0.3399500E-08  0.3987584E+04  0.7818609E-02  0.8007056E-01
       -1   -1    0    0    0  501  0.00000000000E+00  0.00000000000E+00  0.22903702845E+04  0.22903702845E+04  0.50400001928E-02 0. -1.
        1   -1    0    0  501    0  0.00000000000E+00  0.00000000000E+00 -0.17356171233E+04  0.17356171233E+04  0.50400001928E-02 0.  1.
    10030    2    1    2    0    0  0.00000000000E+00  0.00000000000E+00  0.55475316125E+03  0.40259874078E+04  0.39875836716E+04 0.  0.
        2    1    3    3  502    0  0.18367209581E+04  0.24123298227E+03  0.10216797247E+04  0.21155535185E+04  0.25500000920E-02 0. -1.
       -2    1    3    3    0  502 -0.18367209581E+04 -0.24123298227E+03 -0.46692656349E+03  0.19104338893E+04  0.25500000920E-02 0.  1.
</event>
<event>
 5   0  0.3399500E-08  0.4005819E+04  0.7818609E-02  0.8003374E-01
        1   -1    0    0  501    0  0.00000000000E+00  0.00000000000E+00  0.23204324898E+04  0.23204324898E+04  0.50400001928E-02 0. -1.
       -1   -1    0    0    0  501  0.00000000000E+00  0.00000000000E+00 -0.17288355531E+04  0.17288355531E+04  0.50400001928E-02 0.  1.
    10030    2    1    2    0    0  0.00000000000E+00  0.00000000000E+00  0.59159693674E+03  0.40492680429E+04  0.40058188611E+04 0.  0.
        3    1    3    3  502    0  0.16376289079E+04 -0.11465356919E+04  0.17087139836E+03  0.20063822112E+04  0.10100000352E+00 0.  1.
       -3    1    3    3    0  502 -0.16376289079E+04  0.11465356919E+04  0.42072553837E+03  0.20428858317E+04  0.10100000352E+00 0. -1.
</event>
<event>
 5   0  0.3399500E-08  0.3997157E+04  0.7818609E-02  0.8005120E-01
       -1   -1    0    0    0  501  0.00000000000E+00  0.00000000000E+00  0.32900478994E+04  0.32900478994E+04  0.50400001928E-02 0. -1.
        1   -1    0    0  501    0  0.00000000000E+00  0.00000000000E+00 -0.12140600697E+04  0.12140600697E+04  0.50400001928E-02 0.  1.
    10030    2    1    2    0    0  0.00000000000E+00  0.00000000000E+00  0.20759878296E+04  0.45041079691E+04  0.39971568807E+04 0.  0.
        1    1    3    3  502    0  0.60120436601E+03 -0.58025108355E+03  0.30837926791E+04  0.31949828321E+04  0.50400001928E-02 0. -1.
       -1    1    3    3    0  502 -0.60120436601E+03  0.58025108355E+03 -0.10078048495E+04  0.13091251370E+04  0.50400001928E-02 0.  1.
</event>
<event>
 5   0  0.3399500E-08  0.3993042E+04  0.7818609E-02  0.8005952E-01
        1   -1    0    0  501    0  0.00000000000E+00  0.00000000000E+00  0.14466869827E+04  0.14466869827E+04  0.50400001928E-02 0. -1.
       -1   -1    0    0    0  501  0.00000000000E+00  0.00000000000E+00 -0.27553276940E+04  0.27553276940E+04  0.50400001928E-02 0.  1.
    10030    2    1    2    0    0  0.00000000000E+00  0.00000000000E+00 -0.13086407113E+04  0.42020146768E+04  0.39930423029E+04 0.  0.
        2    1    3    3  502    0 -0.39718328519E+02 -0.74886791427E+03  0.12928435953E+04  0.14945986954E+04  0.25500000920E-02 0. -1.
       -2    1    3    3    0  502  0.39718328519E+02  0.74886791427E+03 -0.26014843065E+04  0.27074159813E+04  0.25500000920E-02 0.  1.
</event>
<event>
 5   0  0.1095903E-07  0.4023965E+04  0.7818609E-02  0.7999729E-01
       -2   -1    0    0    0  501  0.00000000000E+00  0.00000000000E+00  0.27182428928E+04  0.27182428928E+04  0.25500000920E-02 0. -1.
        2   -1    0    0  501    0  0.00000000000E+00  0.00000000000E+00 -0.14892241787E+04  0.14892241787E+04  0.25500000920E-02 0.  1.
    10030    2    1    2    0    0  0.00000000000E+00  0.00000000000E+00  0.12290187141E+04  0.42074670715E+04  0.40239647312E+04 0.  0.
        3    1    3    3  502    0  0.10777377945E+04 -0.59266148658E+03 -0.10503663138E+04  0.16174163950E+04  0.10100000352E+00 0.  1.
       -3    1    3    3    0  502 -0.10777377945E+04  0.59266148658E+03  0.22793850279E+04  0.25900506765E+04  0.10100000352E+00 0. -1.
</event>
<event>
 5   0  0.3399500E-08  0.3984858E+04  0.7818609E-02  0.8007608E-01
        1   -1    0    0  501    0  0.00000000000E+00  0.00000000000E+00  0.21063962655E+04  0.21063962655E+04  0.50400001928E-02 0. -1.
       -1   -1    0    0    0  501  0.00000000000E+00  0.00000000000E+00 -0.18846281957E+04  0.18846281957E+04  0.50400001928E-02 0.  1.
    10030    2    1    2    0    0  0.00000000000E+00  0.00000000000E+00  0.22176806981E+03  0.39910244612E+04  0.39848582376E+04 0.  0.
        2    1    3    3  502    0 -0.14819096215E+04 -0.35245355452E+03  0.13971977633E+04  0.20669884432E+04  0.25500000920E-02 0. -1.
       -2    1    3    3    0  502  0.14819096215E+04  0.35245355452E+03 -0.11754296935E+04  0.19240360181E+04  0.25500000920E-02 0.  1.
</event>
<event>
 5   0  0.1101474E-07  0.3986247E+04  0.7818609E-02  0.8007327E-01
        2   -1    0    0  501    0  0.00000000000E+00  0.00000000000E+00  0.21919585750E+04  0.21919585750E+04  0.25500000920E-02 0.  1.
       -2   -1    0    0    0  501  0.00000000000E+00  0.00000000000E+00 -0.18123252093E+04  0.18123252093E+04  0.25500000920E-02 0. -1.
    10030    2    1    2    0    0  0.00000000000E+00  0.00000000000E+00  0.37963336564E+03  0.40042837843E+04  0.39862472494E+04 0.  0.
        5    1    3    3  502    0 -0.42872868847E+03  0.43693134050E+03 -0.17155530845E+04  0.18214998656E+04  0.46999998093E+01 0. -1.
       -5    1    3    3    0  502  0.42872868847E+03 -0.43693134050E+03  0.20951864502E+04  0.21827839187E+04  0.46999998093E+01 0.  1.
</event>
<event>
 5   0  0.1073271E-07  0.3990374E+04  0.7818609E-02  0.8006491E-01
       -2   -1    0    0    0  501  0.00000000000E+00  0.00000000000E+00  0.19191730738E+04  0.19191730738E+04  0.25500000920E-02 0. -1.
        2   -1    0    0  501    0  0.00000000000E+00  0.00000000000E+00 -0.20742115276E+04  0.20742115276E+04  0.25500000920E-02 0.  1.
    10030    2    1    2    0    0  0.00000000000E+00  0.00000000000E+00 -0.15503845380E+03  0.39933846015E+04  0.39903738738E+04 0.  0.
        1    1    3    3  502    0 -0.56643764493E+03  0.11481016026E+04 -0.16089620397E+04  0.20561487642E+04  0.50400001928E-02 0.  1.
       -1    1    3    3    0  502  0.56643764493E+03 -0.11481016026E+04  0.14539235859E+04  0.19372358372E+04  0.50400001928E-02 0. -1.
</event>
<event>
 5   0  0.3399500E-08  0.3997267E+04  0.7818609E-02  0.8005098E-01
       -1   -1    0    0    0  501  0.00000000000E+00  0.00000000000E+00  0.13631105536E+04  0.13631105536E+04  0.50400001928E-02 0. -1.
        1   -1    0    0  501    0  0.00000000000E+00  0.00000000000E+00 -0.29304569016E+04  0.29304569016E+04  0.50400001928E-02 0.  1.
    10030    2    1    2    0    0  0.00000000000E+00  0.00000000000E+00 -0.15673463479E+04  0.42935674552E+04  0.39972674314E+04 0.  0.
        5    1    3    3  502    0 -0.79088197143E+03 -0.24924349795E+03  0.11696112492E+04  0.14337465530E+04  0.46999998093E+01 0. -1.
       -5    1    3    3    0  502  0.79088197143E+03  0.24924349795E+03 -0.27369575971E+04  0.28598209022E+04  0.46999998093E+01 0.  1.
</event>
<event>
 5   0  0.3399500E-08  0.4036946E+04  0.7818609E-02  0.7997135E-01
       -1   -1    0    0    0  501  0.00000000000E+00  0.00000000000E+00  0.29099581301E+04  0.29099581301E+04  0.50400001928E-02 0.  1.
        1   -1    0    0  501    0  0.00000000000E+00  0.00000000000E+00 -0.14001003847E+04  0.14001003847E+04  0.50400001928E-02 0. -1.
    10030    2    1    2    0    0  0.00000000000E+00  0.00000000000E+00  0.15098577455E+04  0.43100585149E+04  0.40369461218E+04 0.  0.
        3    1    3    3  502    0  0.16128437362E+04  0.12133859381E+04  0.78242244662E+03  0.21646605386E+04  0.10100000352E+00 0. -1.
       -3    1    3    3    0  502 -0.16128437362E+04 -0.12133859381E+04  0.72743529883E+03  0.21453979762E+04  0.10100000352E+00 0.  1.
</event>
<event>
 5   0  0.3399500E-08  0.3979964E+04  0.7818609E-02  0.8008601E-01
        1   -1    0    0  501    0  0.00000000000E+00  0.00000000000E+00  0.16301892989E+04  0.16301892989E+04  0.50400001928E-02 0. -1.
       -1   -1    0    0    0  501  0.00000000000E+00  0.00000000000E+00 -0.24291836536E+04  0.24291836536E+04  0.50400001928E-02 0.  1.
    10030    2    1    2    0    0  0.00000000000E+00  0.00000000000E+00 -0.79899435464E+03  0.40593729525E+04  0.39799644206E+04 0.  0.
        1    1    3    3  502    0 -0.28513539783E+03 -0.18542405505E+04 -0.10764557278E+04  0.21629302226E+04  0.50400001928E-02 0.  1.
       -1    1    3    3    0  502  0.28513539783E+03  0.18542405505E+04  0.27746137315E+03  0.18964427299E+04  0.50400001928E-02 0. -1.
</event>
<event>
 5   0  0.3399500E-08  0.3520593E+04  0.7818609E-02  0.8108927E-01
        3   -1    0    0  501    0  0.00000000000E+00  0.00000000000E+00  0.18537598231E+04  0.18537598259E+04  0.10100000352E+00 0.  1.
       -3   -1    0    0    0  501  0.00000000000E+00  0.00000000000E+00 -0.16715454862E+04  0.16715454892E+04  0.10100000352E+00 0. -1.
    10030    2    1    2    0    0  0.00000000000E+00  0.00000000000E+00  0.18221433698E+03  0.35253053151E+04  0.35205930609E+04 0.  0.
        4    1    3    3  502    0  0.17409347159E+04 -0.24662728265E+03  0.17466681245E+03  0.17669716495E+04  0.12699999809E+01 0.  1.
       -4    1    3    3    0  502 -0.17409347159E+04  0.24662728265E+03  0.75475245247E+01  0.17583336657E+04  0.12699999809E+01 0. -1.
</event>
<event>
 5   0  0.1087688E-07  0.3933268E+04  0.7818609E-02  0.8018145E-01
        2   -1    0    0  501    0  0.00000000000E+00  0.00000000000E+00  0.15510650042E+04  0.15510650042E+04  0.25500000920E-02 0.  1.
       -2   -1    0    0    0  501  0.00000000000E+00  0.00000000000E+00 -0.24935444219E+04  0.24935444219E+04  0.25500000920E-02 0. -1.
    10030    2    1    2    0    0  0.00000000000E+00  0.00000000000E+00 -0.94247941776E+03  0.40446094261E+04  0.39332681013E+04 0.  0.
        2    1    3    3  502    0 -0.27497163130E+03  0.15697830380E+04  0.71369073016E+03  0.17461908952E+04  0.25500000920E-02 0.  1.
       -2    1    3    3    0  502  0.27497163130E+03 -0.15697830380E+04 -0.16561701479E+04  0.22984185309E+04  0.25500000920E-02 0. -1.
</event>
<event>
 5   0  0.3399500E-08  0.3817762E+04  0.7818609E-02  0.8042354E-01
        1   -1    0    0  501    0  0.00000000000E+00  0.00000000000E+00  0.22758816454E+04  0.22758816454E+04  0.50400001928E-02 0. -1.
       -1   -1    0    0    0  501  0.00000000000E+00  0.00000000000E+00 -0.16010616701E+04  0.16010616701E+04  0.50400001928E-02 0.  1.
    10030    2    1    2    0    0  0.00000000000E+00  0.00000000000E+00  0.67481997534E+03  0.38769433155E+04  0.38177621026E+04 0.  0.
        2    1    3    3  502    0 -0.68295605483E+03 -0.14222211487E+04 -0.75381004915E+03  0.17485341172E+04  0.25500000920E-02 0.  1.
       -2    1    3    3    0  502  0.68295605483E+03  0.14222211487E+04  0.14286300245E+04  0.21284091983E+04  0.25500000920E-02 0. -1.
</event>
<event>
 5   0  0.1101474E-07  0.4020812E+04  0.7818609E-02  0.8000361E-01
       -2   -1    0    0    0  501  0.00000000000E+00  0.00000000000E+00  0.16977324005E+04  0.16977324005E+04  0.25500000920E-02 0.  1.
        2   -1    0    0  501    0  0.00000000000E+00  0.00000000000E+00 -0.23806655153E+04  0.23806655153E+04  0.25500000920E-02 0. -1.
    10030    2    1    2    0    0  0.00000000000E+00  0.00000000000E+00 -0.68293311481E+03  0.40783979158E+04  0.40208123458E+04 0.  0.
        5    1    3    3  502    0 -0.14250829294E+04  0.13473977387E+04 -0.78980241185E+03  0.21142733886E+04  0.46999998093E+01 0.  1.
       -5    1    3    3    0  502  0.14250829294E+04 -0.13473977387E+04  0.10686929704E+03  0.19641245272E+04  0.46999998093E+01 0. -1.
</event>
<event>
 5   0  0.3399500E-08  0.4066190E+04  0.7818609E-02  0.7991325E-01
       -1   -1    0    0    0  501  0.00000000000E+00  0.00000000000E+00  0.24796005377E+04  0.24796005377E+04  0.50400001928E-02 0.  1.
        1   -1    0    0  501    0  0.00000000000E+00  0.00000000000E+00 -0.16669924515E+04  0.16669924515E+04  0.50400001928E-02 0. -1.
    10030    2    1    2    0    0  0.00000000000E+00  0.00000000000E+00  0.81260808622E+03  0.41465929892E+04  0.40661900492E+04 0.  0.
        3    1    3    3  502    0  0.15234677482E+04  0.11813878939E+04 -0.25209703064E+03  0.19442695952E+04  0.10100000352E+00 0. -1.
       -3    1    3    3    0  502 -0.15234677482E+04 -0.11813878939E+04  0.10647051169E+04  0.22023233940E+04  0.10100000352E+00 0.  1.
</event>
<event>
 5   0  0.1095903E-07  0.4002134E+04  0.7818609E-02  0.8004116E-01
        2   -1    0    0  501    0  0.00000000000E+00  0.00000000000E+00  0.21380560562E+04  0.21380560562E+04  0.25500000920E-02 0.  1.
       -2   -1    0    0    0  501  0.00000000000E+00  0.00000000000E+00 -0.18728551888E+04  0.18728551888E+04  0.25500000920E-02 0. -1.
    10030    2    1    2    0    0  0.00000000000E+00  0.00000000000E+00  0.26520086734E+03  0.40109112450E+04  0.40021341201E+04 0.  0.
        3    1    3    3  502    0 -0.11755136343E+04  0.84803236298E+03 -0.12500186501E+04  0.19140370500E+04  0.10100000352E+00 0. -1.
       -3    1    3    3    0  502  0.11755136343E+04 -0.84803236298E+03  0.15152195174E+04  0.20968741949E+04  0.10100000352E+00 0.  1.
</event>
<event>
 5   0  0.1101474E-07  0.3952141E+04  0.7818609E-02  0.8014271E-01
        2   -1    0    0  501    0  0.00000000000E+00  0.00000000000E+00  0.22251882917E+04  0.22251882917E+04  0.25500000920E-02 0.  1.
       -2   -1    0    0    0  501  0.00000000000E+00  0.00000000000E+00 -0.17548422494E+04  0.17548422494E+04  0.25500000920E-02 0. -1.
    10030    2    1    2    0    0  0.00000000000E+00  0.00000000000E+00  0.47034604232E+03  0.39800305411E+04  0.39521409019E+04 0.  0.
        5    1    3    3  502    0  0.62378073618E+03  0.17520617479E+04 -0.43737929043E+03  0.19105353985E+04  0.46999998093E+01 0. -1.
       -5    1    3    3    0  502 -0.62378073618E+03 -0.17520617479E+04  0.90772533275E+03  0.20694951425E+04  0.46999998093E+01 0.  1.
</event>
<event>
 5   0  0.1101474E-07  0.4013943E+04  0.7818609E-02  0.8001740E-01
       -2   -1    0    0    0  501  0.00000000000E+00  0.00000000000E+00  0.15387750039E+04  0.15387750039E+04  0.25500000920E-02 0.  1.
        2   -1    0    0  501    0  0.00000000000E+00  0.00000000000E+00 -0.26176242963E+04  0.26176242963E+04  0.25500000920E-02 0. -1.
    10030    2    1    2    0    0  0.00000000000E+00  0.00000000000E+00 -0.10788492924E+04  0.41563993001E+04  0.40139431170E+04 0.  0.
        5    1    3    3  502    0 -0.19348766369E+04  0.50574450299E+03 -0.71389061561E+03  0.21234846369E+04  0.46999998093E+01 0.  1.
       -5    1    3    3    0  502  0.19348766369E+04 -0.50574450299E+03 -0.36495867680E+03  0.20329146632E+04  0.46999998093E+01 0. -1.
</event>
<event>
 5   0  0.1095903E-07  0.4008981E+04  0.7818609E-02  0.8002737E-01
       -2   -1    0    0    0  501  0.00000000000E+00  0.00000000000E+00  0.32215669561E+04  0.32215669561E+04  0.25500000920E-02 0.  1.
        2   -1    0    0  501    0  0.00000000000E+00  0.00000000000E+00 -0.12472137960E+04  0.12472137960E+04  0.25500000920E-02 0. -1.
    10030    2    1    2    0    0  0.00000000000E+00  0.00000000000E+00  0.19743531601E+04  0.44687807522E+04  0.40089812933E+04 0.  0.
        3    1    3    3  502    0 -0.15273075292E+03  0.18341482015E+04  0.18723268351E+04  0.26254588353E+04  0.10100000352E+00 0.  1.
       -3    1    3    3    0  502  0.15273075292E+03 -0.18341482015E+04  0.10202632494E+03  0.18433219169E+04  0.10100000352E+00 0. -1.
</event>
<event>
 5   0  0.3399500E-08  0.4004826E+04  0.7818609E-02  0.8003574E-01
       -1   -1    0    0    0  501  0.00000000000E+00  0.00000000000E+00  0.17593794545E+04  0.17593794546E+04  0.50400001928E-02 0. -1.
        1   -1    0    0  501    0  0.00000000000E+00  0.00000000000E+00 -0.22790185854E+04  0.22790185854E+04  0.50400001928E-02 0.  1.
    10030    2    1    2    0    0  0.00000000000E+00  0.00000000000E+00 -0.51963913082E+03  0.40383980399E+04  0.40048263261E+04 0.  0.
        1    1    3    3  502    0 -0.11811563318E+03 -0.13951793215E+04 -0.17033158948E+04  0.22049402893E+04  0.50400001928E-02 0.  1.
       -1    1    3    3    0  502  0.11811563318E+03  0.13951793215E+04  0.11836767639E+04  0.18334577506E+04  0.50400001928E-02 0. -1.
</event>
<event>
 5   0  0.3399500E-08  0.4009286E+04  0.7818609E-02  0.8002676E-01
        1   -1    0    0  501    0  0.00000000000E+00  0.00000000000E+00  0.17816760348E+04  0.17816760348E+04  0.50400001928E-02 0. -1.
       -1   -1    0    0    0  501  0.00000000000E+00  0.00000000000E+00 -0.22555132050E+04  0.22555132050E+04  0.50400001928E-02 0.  1.
    10030    2    1    2    0    0  0.00000000000E+00  0.00000000000E+00 -0.47383717018E+03  0.40371892398E+04  0.40092861328E+04 0.  0.
        4    1    3    3  502    0  0.10975971789E+04  0.36755281385E+03 -0.18850065286E+04  0.22120275459E+04  0.12699999809E+01 0.  1.
       -4    1    3    3    0  502 -0.10975971789E+04 -0.36755281385E+03  0.14111693584E+04  0.18251616939E+04  0.12699999809E+01 0. -1.
</event>
<event>
 5   0  0.3399500E-08  0.4003657E+04  0.7818609E-02  0.8003809E-01
       -3   -1    0    0    0  501  0.00000000000E+00  0.00000000000E+00  0.27511674560E+04  0.27511674579E+04  0.10100000352E+00 0. -1.
        3   -1    0    0  501    0  0.00000000000E+00  0.00000000000E+00 -0.14565877396E+04  0.14565877431E+04  0.10100000352E+00 0.  1.
    10030    2    1    2    0    0  0.00000000000E+00  0.00000000000E+00  0.12945797165E+04  0.42077552009E+04  0.40036567271E+04 0.  0.
        4    1    3    3  502    0  0.79680822470E+03  0.96083704577E+02  0.25746757323E+04  0.26968671018E+04  0.12699999809E+01 0. -1.
       -4    1    3    3    0  502 -0.79680822470E+03 -0.96083704577E+02 -0.12800960159E+04  0.15108880991E+04  0.12699999809E+01 0.  1.
</event>
<event>
 5   0  0.1087688E-07  0.3938168E+04  0.7818609E-02  0.8017138E-01
        2   -1    0    0  501    0  0.00000000000E+00  0.00000000000E+00  0.24067213174E+04  0.24067213174E+04  0.25500000920E-02 0. -1.
       -2   -1    0    0    0  501  0.00000000000E+00  0.00000000000E+00 -0.16110264361E+04  0.16110264361E+04  0.25500000920E-02 0.  1.
    10030    2    1    2    0    0  0.00000000000E+00  0.00000000000E+00  0.79569488134E+03  0.40177477535E+04  0.39381679328E+04 0.  0.
        2    1    3    3  502    0  0.15336510019E+04 -0.46852745961E+03 -0.76790998393E+03  0.17780014396E+04  0.25500000920E-02 0.  1.
       -2    1    3    3    0  502 -0.15336510019E+04  0.46852745961E+03  0.15636048653E+04  0.22397463139E+04  0.25500000920E-02 0. -1.
</event>
<event>
 5   0  0.3399500E-08  0.3890451E+04  0.7818609E-02  0.8027018E-01
        1   -1    0    0  501    0  0.00000000000E+00  0.00000000000E+00  0.19398384135E+04  0.19398384135E+04  0.50400001928E-02 0.  1.
       -1   -1    0    0    0  501  0.00000000000E+00  0.00000000000E+00 -0.19506279631E+04  0.19506279631E+04  0.50400001928E-02 0. -1.
    10030    2    1    2    0    0  0.00000000000E+00  0.00000000000E+00 -0.10789549577E+02  0.38904663766E+04  0.38904514150E+04 0.  0.
        3    1    3    3  502    0 -0.16375792066E+04 -0.10312335858E+04  0.19156962535E+03  0.19446869409E+04  0.10100000352E+00 0. -1.
       -3    1    3    3    0  502  0.16375792066E+04  0.10312335858E+04 -0.20235917493E+03  0.19457794357E+04  0.10100000352E+00 0.  1.
</event>
<event>
 5   0  0.3399500E-08  0.4009096E+04  0.7818609E-02  0.8002714E-01
       -1   -1    0    0    0  501  0.00000000000E+00  0.00000000000E+00  0.29522947747E+04  0.29522947748E+04  0.50400001928E-02 0. -1.
        1   -1    0    0  501    0  0.00000000000E+00  0.00000000000E+00 -0.13610472378E+04  0.13610472378E+04  0.50400001928E-02 0.  1.
    10030    2    1    2    0    0  0.00000000000E+00  0.00000000000E+00  0.15912475370E+04  0.43133420125E+04  0.40090959820E+04 0.  0.
        4    1    3    3  502    0  0.16790564892E+04  0.10946538990E+04  0.82435590276E+03  0.21672706614E+04  0.12699999809E+01 0.  1.
       -4    1    3    3    0  502 -0.16790564892E+04 -0.10946538990E+04  0.76689163424E+03  0.21460713511E+04  0.12699999809E+01 0. -1.
</event>
<event>
 5   0  0.1095109E-07  0.3990003E+04  0.7818609E-02  0.8006566E-01
        2   -1    0    0  501    0  0.00000000000E+00  0.00000000000E+00  0.14753262171E+04  0.14753262171E+04  0.25500000920E-02 0. -1.
       -2   -1    0    0    0  501  0.00000000000E+00  0.00000000000E+00 -0.26977296647E+04  0.26977296647E+04  0.25500000920E-02 0.  1.
    10030    2    1    2    0    0  0.00000000000E+00  0.00000000000E+00 -0.12224034477E+04  0.41730558818E+04  0.39900031583E+04 0.  0.
        4    1    3    3  502    0 -0.32443632836E+03 -0.19683717480E+04 -0.59359433495E+03  0.20813702499E+04  0.12699999809E+01 0. -1.
       -4    1    3    3    0  502  0.32443632836E+03  0.19683717480E+04 -0.62880911271E+03  0.20916856319E+04  0.12699999809E+01 0.  1.
</event>
<event>
 5   0  0.3399500E-08  0.4011857E+04  0.7818609E-02  0.8002159E-01
       -1   -1    0    0    0  501  0.00000000000E+00  0.00000000000E+00  0.34857643197E+04  0.34857643197E+04  0.50400001928E-02 0.  1.
        1   -1    0    0  501    0  0.00000000000E+00  0.00000000000E+00 -0.11543378503E+04  0.11543378503E+04  0.50400001928E-02 0. -1.
    10030    2    1    2    0    0  0.00000000000E+00  0.00000000000E+00  0.23314264694E+04  0.46401021699E+04  0.40118572713E+04 0.  0.
        4    1    3    3  502    0  0.93394315512E+03 -0.61945225080E+03 -0.75847533687E+03  0.13532395788E+04  0.12699999809E+01 0. -1.
       -4    1    3    3    0  502 -0.93394315512E+03  0.61945225080E+03  0.30899018063E+04  0.32868625912E+04  0.12699999809E+01 0.  1.
</event>
<event>
 5   0  0.3399500E-08  0.3998707E+04  0.7818609E-02  0.8004808E-01
       -1   -1    0    0    0  501  0.00000000000E+00  0.00000000000E+00  0.18854595345E+04  0.18854595345E+04  0.50400001928E-02 0. -1.
        1   -1    0    0  501    0  0.00000000000E+00  0.00000000000E+00 -0.21201268930E+04  0.21201268930E+04  0.50400001928E-02 0.  1.
    10030    2    1    2    0    0  0.00000000000E+00  0.00000000000E+00 -0.23466735854E+03  0.40055864276E+04  0.39987065233E+04 0.  0.
        4    1    3    3  502    0  0.15320152519E+03  0.10479547921E+03 -0.21114769997E+04  0.21196201389E+04  0.12699999809E+01 0.  1.
       -4    1    3    3    0  502 -0.15320152519E+03 -0.10479547921E+03  0.18768096412E+04  0.18859662887E+04  0.12699999809E+01 0. -1.
</event>
<event>
 5   0  0.3399500E-08  0.4012665E+04  0.7818609E-02  0.8001997E-01
       -1   -1    0    0    0  501  0.00000000000E+00  0.00000000000E+00  0.28164506105E+04  0.28164506105E+04  0.50400001928E-02 0.  1.
        1   -1    0    0  501    0  0.00000000000E+00  0.00000000000E+00 -0.14292348887E+04  0.14292348887E+04  0.50400001928E-02 0. -1.
    10030    2    1    2    0    0  0.00000000000E+00  0.00000000000E+00  0.13872157218E+04  0.42456854991E+04  0.40126646881E+04 0.  0.
        3    1    3    3  502    0  0.78558744223E+03  0.89412238284E+03 -0.10153548885E+04  0.15644641334E+04  0.10100000352E+00 0. -1.
       -3    1    3    3    0  502 -0.78558744223E+03 -0.89412238284E+03  0.24025706102E+04  0.26812213658E+04  0.10100000352E+00 0.  1.
</event>
<event>
 5   0  0.1073271E-07  0.3961015E+04  0.7818609E-02  0.8012458E-01
        2   -1    0    0  501    0  0.00000000000E+00  0.00000000000E+00  0.17055412139E+04  0.17055412139E+04  0.25500000920E-02 0. -1.
       -2   -1    0    0    0  501  0.00000000000E+00  0.00000000000E+00 -0.22998031824E+04  0.22998031824E+04  0.25500000920E-02 0.  1.
    10030    2    1    2    0    0  0.00000000000E+00  0.00000000000E+00 -0.59426196845E+03  0.40053443963E+04  0.39610145728E+04 0.  0.
        1    1    3    3  502    0 -0.14800921743E+04 -0.78896653649E+03 -0.13621360673E+04  0.21606840829E+04  0.50400001928E-02 0.  1.
       -1    1    3    3    0  502  0.14800921743E+04  0.78896653649E+03  0.76787409889E+03  0.18446603134E+04  0.50400001928E-02 0. -1.
</event>
<event>
 5   0  0.3399500E-08  0.3994155E+04  0.7818609E-02  0.8005727E-01
        1   -1    0    0  501    0  0.00000000000E+00  0.00000000000E+00  0.26154324944E+04  0.26154324944E+04  0.50400001928E-02 0. -1.
       -1   -1    0    0    0  501  0.00000000000E+00  0.00000000000E+00 -0.15249170357E+04  0.15249170357E+04  0.50400001928E-02 0.  1.
    10030    2    1    2    0    0  0.00000000000E+00  0.00000000000E+00  0.10905154587E+04  0.41403495301E+04  0.39941545120E+04 0.  0.
        3    1    3    3  502    0  0.23980591322E+03 -0.52854339225E+03 -0.14355621054E+04  0.15484519890E+04  0.10100000352E+00 0.  1.
       -3    1    3    3    0  502 -0.23980591322E+03  0.52854339225E+03  0.25260775641E+04  0.25918975411E+04  0.10100000352E+00 0. -1.
</event>
<event>
 5   0  0.1087688E-07  0.3917938E+04  0.7818609E-02  0.8021309E-01
        2   -1    0    0  501    0  0.00000000000E+00  0.00000000000E+00  0.13148046243E+04  0.13148046243E+04  0.25500000920E-02 0. -1.
       -2   -1    0    0    0  501  0.00000000000E+00  0.00000000000E+00 -0.29187301829E+04  0.29187301829E+04  0.25500000920E-02 0.  1.
    10030    2    1    2    0    0  0.00000000000E+00  0.00000000000E+00 -0.16039255586E+04  0.42335348072E+04  0.39179382035E+04 0.  0.
        2    1    3    3  502    0  0.82659423369E+03  0.41141460869E+03  0.10649353729E+04  0.14094705942E+04  0.25500000920E-02 0. -1.
       -2    1    3    3    0  502 -0.82659423369E+03 -0.41141460869E+03 -0.26688609315E+04  0.28240642130E+04  0.25500000920E-02 0.  1.
</event>
<event>
 5   0  0.1095903E-07  0.3990033E+04  0.7818609E-02  0.8006560E-01
       -2   -1    0    0    0  501  0.00000000000E+00  0.00000000000E+00  0.13446684611E+04  0.13446684611E+04  0.25500000920E-02 0. -1.
        2   -1    0    0  501    0  0.00000000000E+00  0.00000000000E+00 -0.29599052623E+04  0.29599052623E+04  0.25500000920E-02 0.  1.
    10030    2    1    2    0    0  0.00000000000E+00  0.00000000000E+00 -0.16152368012E+04  0.43045737234E+04  0.39900332099E+04 0.  0.
        3    1    3    3  502    0 -0.13853708264E+04 -0.12280126628E+04 -0.16097525620E+04  0.24532775521E+04  0.10100000352E+00 0.  1.
       -3    1    3    3    0  502  0.13853708264E+04  0.12280126628E+04 -0.54842392370E+01  0.18512961713E+04  0.10100000352E+00 0. -1.
</event>
<event>
 5   0  0.3399500E-08  0.4142738E+04  0.7818609E-02  0.7976355E-01
        1   -1    0    0  501    0  0.00000000000E+00  0.00000000000E+00  0.26069706534E+04  0.26069706534E+04  0.50400001928E-02 0. -1.
       -1   -1    0    0    0  501  0.00000000000E+00  0.00000000000E+00 -0.16458068262E+04  0.16458068262E+04  0.50400001928E-02 0.  1.
    10030    2    1    2    0    0  0.00000000000E+00  0.00000000000E+00  0.96116382725E+03  0.42527774796E+04  0.41427382718E+04 0.  0.
        5    1    3    3  502    0 -0.15942238494E+04 -0.12986840148E+04  0.22410951899E+03  0.20684238005E+04  0.46999998093E+01 0. -1.
       -5    1    3    3    0  502  0.15942238494E+04  0.12986840148E+04  0.73705430827E+03  0.21843536791E+04  0.46999998093E+01 0.  1.
</event>
<event>
 5   0  0.1095109E-07  0.4001070E+04  0.7818609E-02  0.8004331E-01
       -2   -1    0    0    0  501  0.00000000000E+00  0.00000000000E+00  0.21165090946E+04  0.21165090946E+04  0.25500000920E-02 0.  1.
        2   -1    0    0  501    0  0.00000000000E+00  0.00000000000E+00 -0.18909155767E+04  0.18909155767E+04  0.25500000920E-02 0. -1.
    10030    2    1    2    0    0  0.00000000000E+00  0.00000000000E+00  0.22559351792E+03  0.40074246712E+04  0.40010698645E+04 0.  0.
        4    1    3    3  502    0  0.47331855280E+03 -0.18286259131E+04 -0.54721512485E+03  0.19665577002E+04  0.12699999809E+01 0. -1.
       -4    1    3    3    0  502 -0.47331855280E+03  0.18286259131E+04  0.77280864277E+03  0.20408669711E+04  0.12699999809E+01 0.  1.
</event>
<event>
 5   0  0.1095109E-07  0.4019560E+04  0.7818609E-02  0.8000612E-01
       -2   -1    0    0    0  501  0.00000000000E+00  0.00000000000E+00  0.17017722324E+04  0.17017722324E+04  0.25500000920E-02 0.  1.
        2   -1    0    0  501    0  0.00000000000E+00  0.00000000000E+00 -0.23735353409E+04  0.23735353409E+04  0.25500000920E-02 0. -1.
    10030    2    1    2    0    0  0.00000000000E+00  0.00000000000E+00 -0.67176310846E+03  0.40753075733E+04  0.40195604415E+04 0.  0.
        4    1    3    3  502    0  0.10292264386E+04 -0.67310106478E+03 -0.19475323309E+04  0.23033141119E+04  0.12699999809E+01 0. -1.
       -4    1    3    3    0  502 -0.10292264386E+04  0.67310106478E+03  0.12757692224E+04  0.17719934614E+04  0.12699999809E+01 0.  1.
</event>
<event>
 5   0  0.1087688E-07  0.3990802E+04  0.7818609E-02  0.8006405E-01
       -2   -1    0    0    0  501  0.00000000000E+00  0.00000000000E+00  0.18749329888E+04  0.18749329888E+04  0.25500000920E-02 0. -1.
        2   -1    0    0  501    0  0.00000000000E+00  0.00000000000E+00 -0.21236089896E+04  0.21236089896E+04  0.25500000920E-02 0.  1.
    10030    2    1    2    0    0  0.00000000000E+00  0.00000000000E+00 -0.24867600083E+03  0.39985419783E+04  0.39908016988E+04 0.  0.
        2    1    3    3  502    0  0.15649163667E+03 -0.50643425789E+03  0.18031028573E+04  0.18794002245E+04  0.25500000920E-02 0. -1.
       -2    1    3    3    0  502 -0.15649163667E+03  0.50643425789E+03 -0.20517788582E+04  0.21191417538E+04  0.25500000920E-02 0.  1.
</event>
<event>
 5   0  0.3399500E-08  0.3994227E+04  0.7818609E-02  0.8005712E-01
        1   -1    0    0  501    0  0.00000000000E+00  0.00000000000E+00  0.17345808842E+04  0.17345808842E+04  0.50400001928E-02 0.  1.
       -1   -1    0    0    0  501  0.00000000000E+00  0.00000000000E+00 -0.22993805551E+04  0.22993805551E+04  0.50400001928E-02 0. -1.
    10030    2    1    2    0    0  0.00000000000E+00  0.00000000000E+00 -0.56479967089E+03  0.40339614394E+04  0.39942266117E+04 0.  0.
        5    1    3    3  502    0 -0.18055315990E+04  0.64841222026E+03 -0.84294985733E+03  0.20954639855E+04  0.46999998093E+01 0.  1.
       -5    1    3    3    0  502  0.18055315990E+04 -0.64841222026E+03  0.27815018645E+03  0.19384974539E+04  0.46999998093E+01 0. -1.
</event>
<event>
 5   0  0.1095903E-07  0.3974116E+04  0.7818609E-02  0.8009789E-01
       -2   -1    0    0    0  501  0.00000000000E+00  0.00000000000E+00  0.14559007837E+04  0.14559007837E+04  0.25500000920E-02 0.  1.
        2   -1    0    0  501    0  0.00000000000E+00  0.00000000000E+00 -0.27119981121E+04  0.27119981121E+04  0.25500000920E-02 0. -1.
    10030    2    1    2    0    0  0.00000000000E+00  0.00000000000E+00 -0.12560973284E+04  0.41678988958E+04  0.39741163429E+04 0.  0.
        3    1    3    3  502    0 -0.26960509675E+03 -0.35293823480E+03 -0.26592767365E+04  0.26961092480E+04  0.10100000352E+00 0. -1.
       -3    1    3    3    0  502  0.26960509675E+03  0.35293823480E+03  0.14031794081E+04  0.14717896478E+04  0.10100000352E+00 0.  1.
</event>
<event>
 5   0  0.3399500E-08  0.3991588E+04  0.7818609E-02  0.8006246E-01
       -1   -1    0    0    0  501  0.00000000000E+00  0.00000000000E+00  0.25491535856E+04  0.25491535856E+04  0.50400001928E-02 0. -1.
        1   -1    0    0  501    0  0.00000000000E+00  0.00000000000E+00 -0.15625552046E+04  0.15625552046E+04  0.50400001928E-02 0.  1.
    10030    2    1    2    0    0  0.00000000000E+00  0.00000000000E+00  0.98659838101E+03  0.41117087903E+04  0.39915877556E+04 0.  0.
        5    1    3    3  502    0 -0.18020733721E+04  0.75512485333E+03  0.91234490486E+03  0.21564037882E+04  0.46999998093E+01 0. -1.
       -5    1    3    3    0  502  0.18020733721E+04 -0.75512485333E+03  0.74253476148E+02  0.19553050021E+04  0.46999998093E+01 0.  1.
</event>
<event>
 5   0  0.1095109E-07  0.4185782E+04  0.7818609E-02  0.7968082E-01
       -2   -1    0    0    0  501  0.00000000000E+00  0.00000000000E+00  0.15654773371E+04  0.15654773371E+04  0.25500000920E-02 0. -1.
        2   -1    0    0  501    0  0.00000000000E+00  0.00000000000E+00 -0.27979919121E+04  0.27979919121E+04  0.25500000920E-02 0.  1.
    10030    2    1    2    0    0  0.00000000000E+00  0.00000000000E+00 -0.12325145750E+04  0.43634692492E+04  0.41857820907E+04 0.  0.
        4    1    3    3  502    0 -0.11289973502E+04 -0.12169729410E+04  0.71242025449E+03  0.18064336101E+04  0.12699999809E+01 0.  1.
       -4    1    3    3    0  502  0.11289973502E+04  0.12169729410E+04 -0.19449348295E+04  0.25570356391E+04  0.12699999809E+01 0. -1.
</event>
<event>
 5   0  0.3399500E-08  0.3983252E+04  0.7818609E-02  0.8007934E-01
        1   -1    0    0  501    0  0.00000000000E+00  0.00000000000E+00  0.27588896869E+04  0.27588896869E+04  0.50400001928E-02 0. -1.
       -1   -1    0    0    0  501  0.00000000000E+00  0.00000000000E+00 -0.14377431734E+04  0.14377431734E+04  0.50400001928E-02 0.  1.
    10030    2    1    2    0    0  0.00000000000E+00  0.00000000000E+00  0.13211465135E+04  0.41966328604E+04  0.39832523463E+04 0.  0.
        4    1    3    3  502    0 -0.19173397026E+04 -0.16461590676E+03  0.11997481837E+03  0.19281300532E+04  0.12699999809E+01 0.  1.
       -4    1    3    3    0  502  0.19173397026E+04  0.16461590676E+03  0.12011716951E+04  0.22685028072E+04  0.12699999809E+01 0. -1.
</event>
<event>
 5   0  0.3399500E-08  0.4055486E+04  0.7818609E-02  0.7993446E-01
       -1   -1    0    0    0  501  0.00000000000E+00  0.00000000000E+00  0.15547618902E+04  0.15547618902E+04  0.50400001928E-02 0.  1.
        1   -1    0    0  501    0  0.00000000000E+00  0.00000000000E+00 -0.26446123669E+04  0.26446123669E+04  0.50400001928E-02 0. -1.
    10030    2    1    2    0    0  0.00000000000E+00  0.00000000000E+00 -0.10898504767E+04  0.41993742571E+04  0.40554864183E+04 0.  0.
        3    1    3    3  502    0  0.42211649690E+03 -0.19137266938E+04 -0.10841809246E+04  0.22396384714E+04  0.10100000352E+00 0.  1.
       -3    1    3    3    0  502 -0.42211649690E+03  0.19137266938E+04 -0.56695521513E+01  0.19597357856E+04  0.10100000352E+00 0. -1.
</event>
<event>
 5   0  0.1087688E-07  0.4005852E+04  0.7818609E-02  0.8003367E-01
        2   -1    0    0  501    0  0.00000000000E+00  0.00000000000E+00  0.18399360145E+04  0.18399360145E+04  0.25500000920E-02 0.  1.
       -2   -1    0    0    0  501  0.00000000000E+00  0.00000000000E+00 -0.21803546342E+04  0.21803546342E+04  0.25500000920E-02 0. -1.
    10030    2    1    2    0    0  0.00000000000E+00  0.00000000000E+00 -0.34041861965E+03  0.40202906487E+04  0.40058522269E+04 0.  0.
        2    1    3    3  502    0  0.81276221595E+03  0.82185455682E+03 -0.18118574340E+04  0.21491520871E+04  0.25500000920E-02 0. -1.
       -2    1    3    3    0  502 -0.81276221595E+03 -0.82185455682E+03  0.14714388144E+04  0.18711385616E+04  0.25500000920E-02 0.  1.
</event>
<event>
 5   0  0.3399500E-08  0.4023581E+04  0.7818609E-02  0.7999806E-01
       -1   -1    0    0    0  501  0.00000000000E+00  0.00000000000E+00  0.20464581779E+04  0.20464581779E+04  0.50400001928E-02 0.  1.
        1   -1    0    0  501    0  0.00000000000E+00  0.00000000000E+00 -0.19777105363E+04  0.19777105363E+04  0.50400001928E-02 0. -1.
    10030    2    1    2    0    0  0.00000000000E+00  0.00000000000E+00  0.68747641596E+02  0.40241687143E+04  0.40235814398E+04 0.  0.
        3    1    3    3  502    0 -0.63462829854E+03 -0.30821950638E+03  0.19186736366E+04  0.20442751467E+04  0.10100000352E+00 0.  1.
       -3    1    3    3    0  502  0.63462829854E+03  0.30821950638E+03 -0.18499259950E+04  0.19798935675E+04  0.10100000352E+00 0. -1.
</event>
<event>
 5   0  0.1095109E-07  0.4028947E+04  0.7818609E-02  0.7998732E-01
       -2   -1    0    0    0  501  0.00000000000E+00  0.00000000000E+00  0.18675130802E+04  0.18675130802E+04  0.25500000920E-02 0.  1.
        2   -1    0    0  501    0  0.00000000000E+00  0.00000000000E+00 -0.21729990721E+04  0.21729990721E+04  0.25500000920E-02 0. -1.
    10030    2    1    2    0    0  0.00000000000E+00  0.00000000000E+00 -0.30548599193E+03  0.40405121523E+04  0.40289473516E+04 0.  0.
        4    1    3    3  502    0  0.94970403564E+03 -0.16833368206E+04 -0.72230097790E+03  0.20633179402E+04  0.12699999809E+01 0. -1.
       -4    1    3    3    0  502 -0.94970403564E+03  0.16833368206E+04  0.41681498597E+03  0.19771942121E+04  0.12699999809E+01 0.  1.
</event>
<event>
 5   0  0.1073271E-07  0.3968948E+04  0.7818609E-02  0.8010840E-01
        2   -1    0    0  501    0  0.00000000000E+00  0.00000000000E+00  0.21704049439E+04  0.21704049439E+04  0.25500000920E-02 0.  1.
       -2   -1    0    0    0  501  0.00000000000E+00  0.00000000000E+00 -0.18144707966E+04  0.18144707966E+04  0.25500000920E-02 0. -1.
    10030    2    1    2    0    0  0.00000000000E+00  0.00000000000E+00  0.35593414735E+03  0.39848757405E+04  0.39689476628E+04 0.  0.
        1    1    3    3  502    0 -0.14521713978E+03  0.18434489055E+04  0.90109671708E+03  0.20570287257E+04  0.50400001928E-02 0. -1.
       -1    1    3    3    0  502  0.14521713978E+03 -0.18434489055E+04 -0.54516256972E+03  0.19278470148E+04  0.50400001928E-02 0.  1.
</event>
<event>
 5   0  0.1073271E-07  0.4032278E+04  0.7818609E-02  0.7998067E-01
        2   -1    0    0  501    0  0.00000000000E+00  0.00000000000E+00  0.18433503405E+04  0.18433503405E+04  0.25500000920E-02 0.  1.
       -2   -1    0    0    0  501  0.00000000000E+00  0.00000000000E+00 -0.22051243495E+04  0.22051243495E+04  0.25500000920E-02 0. -1.
    10030    2    1    2    0    0  0.00000000000E+00  0.00000000000E+00 -0.36177400893E+03  0.40484746900E+04  0.40322781256E+04 0.  0.
        1    1    3    3  502    0 -0.13437066378E+04  0.87742648881E+03 -0.14061955140E+04  0.21337316127E+04  0.50400001928E-02 0. -1.
       -1    1    3    3    0  502  0.13437066378E+04 -0.87742648881E+03  0.10444215050E+04  0.19147430772E+04  0.50400001928E-02 0.  1.
</event>
<event>
 5   0  0.1095903E-07  0.3989482E+04  0.7818609E-02  0.8006672E-01
       -2   -1    0    0    0  501  0.00000000000E+00  0.00000000000E+00  0.29050630774E+04  0.29050630774E+04  0.25500000920E-02 0. -1.
        2   -1    0    0  501    0  0.00000000000E+00  0.00000000000E+00 -0.13696751075E+04  0.13696751075E+04  0.25500000920E-02 0.  1.
    10030    2    1    2    0    0  0.00000000000E+00  0.00000000000E+00  0.15353879699E+04  0.42747381850E+04  0.39894824642E+04 0.  0.
        3    1    3    3  502    0  0.11484861261E+04 -0.82042971160E+03 -0.74265528150E+03  0.15948862564E+04  0.10100000352E+00 0.  1.
       -3    1    3    3    0  502 -0.11484861261E+04  0.82042971160E+03  0.22780432514E+04  0.26798519286E+04  0.10100000352E+00 0. -1.
</event>
<event>
 5   0  0.1101474E-07  0.4043814E+04  0.7818609E-02  0.7995766E-01
       -2   -1    0    0    0  501  0.00000000000E+00  0.00000000000E+00  0.19383171415E+04  0.19383171415E+04  0.25500000920E-02 0. -1.
        2   -1    0    0  501    0  0.00000000000E+00  0.00000000000E+00 -0.21091020859E+04  0.21091020859E+04  0.25500000920E-02 0.  1.
    10030    2    1    2    0    0  0.00000000000E+00  0.00000000000E+00 -0.17078494436E+03  0.40474192273E+04  0.40438144004E+04 0.  0.
        5    1    3    3  502    0  0.35356757140E+03  0.61874362896E+03 -0.19792295605E+04  0.21036219834E+04  0.46999998093E+01 0.  1.
       -5    1    3    3    0  502 -0.35356757140E+03 -0.61874362896E+03  0.18084446161E+04  0.19437972439E+04  0.46999998093E+01 0. -1.
</event>
<event>
 5   0  0.3399500E-08  0.3894142E+04  0.7818609E-02  0.8026249E-01
        1   -1    0    0  501    0  0.00000000000E+00  0.00000000000E+00  0.19058470076E+04  0.19058470076E+04  0.50400001928E-02 0.  1.
       -1   -1    0    0    0  501  0.00000000000E+00  0.00000000000E+00 -0.19891865066E+04  0.19891865066E+04  0.50400001928E-02 0. -1.
    10030    2    1    2    0    0  0.00000000000E+00  0.00000000000E+00 -0.83339499012E+02  0.38950335141E+04  0.38941418315E+04 0.  0.
        3    1    3    3  502    0  0.68124601950E+03  0.43124116616E+03 -0.18143678873E+04  0.19854460263E+04  0.10100000352E+00 0. -1.
       -3    1    3    3    0  502 -0.68124601950E+03 -0.43124116616E+03  0.17310283883E+04  0.19095874879E+04  0.10100000352E+00 0.  1.
</event>
<event>
 5   0  0.3399500E-08  0.3980565E+04  0.7818609E-02  0.8008479E-01
       -1   -1    0    0    0  501  0.00000000000E+00  0.00000000000E+00  0.16221580763E+04  0.16221580763E+04  0.50400001928E-02 0.  1.
        1   -1    0    0  501    0  0.00000000000E+00  0.00000000000E+00 -0.24419468316E+04  0.24419468316E+04  0.50400001928E-02 0. -1.
    10030    2    1    2    0    0  0.00000000000E+00  0.00000000000E+00 -0.81978875532E+03  0.40641049080E+04  0.39805646710E+04 0.  0.
        4    1    3    3  502    0  0.59562025126E+03  0.94591205686E+03 -0.20911810558E+04  0.23711923001E+04  0.12699999809E+01 0. -1.
       -4    1    3    3    0  502 -0.59562025126E+03 -0.94591205686E+03  0.12713923005E+04  0.16929126078E+04  0.12699999809E+01 0.  1.
</event>
<event>
 5   0  0.1095109E-07  0.4012642E+04  0.7818609E-02  0.8002001E-01
        2   -1    0    0  501    0  0.00000000000E+00  0.00000000000E+00  0.13744481420E+04  0.13744481420E+04  0.25500000920E-02 0.  1.
       -2   -1    0    0    0  501  0.00000000000E+00  0.00000000000E+00 -0.29286834162E+04  0.29286834162E+04  0.25500000920E-02 0. -1.
    10030    2    1    2    0    0  0.00000000000E+00  0.00000000000E+00 -0.15542352742E+04  0.43031315582E+04  0.40126417632E+04 0.  0.
        4    1    3    3  502    0 -0.11484215209E+04 -0.95079331832E+03  0.66262503697E+03  0.16315494097E+04  0.12699999809E+01 0.  1.
       -4    1    3    3    0  502  0.11484215209E+04  0.95079331832E+03 -0.22168603112E+04  0.26715821485E+04  0.12699999809E+01 0. -1.
</event>
<event>
 5   0  0.3399500E-08  0.3824442E+04  0.7818609E-02  0.8040930E-01
       -1   -1    0    0    0  501  0.00000000000E+00  0.00000000000E+00  0.20791732202E+04  0.20791732202E+04  0.50400001928E-02 0. -1.
        1   -1    0    0  501    0  0.00000000000E+00  0.00000000000E+00 -0.17586749353E+04  0.17586749353E+04  0.50400001928E-02 0.  1.
    10030    2    1    2    0    0  0.00000000000E+00  0.00000000000E+00  0.32049828491E+03  0.38378481556E+04  0.38244423534E+04 0.  0.
        3    1    3    3  502    0 -0.13375533068E+04 -0.79788085103E+03 -0.95311143234E+03  0.18259474565E+04  0.10100000352E+00 0.  1.
       -3    1    3    3    0  502  0.13375533068E+04  0.79788085103E+03  0.12736097172E+04  0.20119006991E+04  0.10100000352E+00 0. -1.
</event>
<event>
 5   0  0.3399500E-08  0.3993331E+04  0.7818609E-02  0.8005893E-01
       -1   -1    0    0    0  501  0.00000000000E+00  0.00000000000E+00  0.15221383812E+04  0.15221383812E+04  0.50400001928E-02 0.  1.
        1   -1    0    0  501    0  0.00000000000E+00  0.00000000000E+00 -0.26191266862E+04  0.26191266862E+04  0.50400001928E-02 0. -1.
    10030    2    1    2    0    0  0.00000000000E+00  0.00000000000E+00 -0.10969883049E+04  0.41412650674E+04  0.39933310679E+04 0.  0.
        4    1    3    3  502    0 -0.59095228509E+03  0.18958518028E+04 -0.76402244912E+03  0.21277242719E+04  0.12699999809E+01 0.  1.
       -4    1    3    3    0  502  0.59095228509E+03 -0.18958518028E+04 -0.33296585583E+03  0.20135407956E+04  0.12699999809E+01 0. -1.
</event>
<event>
 5   0  0.3399500E-08  0.3994641E+04  0.7818609E-02  0.8005629E-01
       -1   -1    0    0    0  501  0.00000000000E+00  0.00000000000E+00  0.13666108415E+04  0.13666108415E+04  0.50400001928E-02 0.  1.
        1   -1    0    0  501    0  0.00000000000E+00  0.00000000000E+00 -0.29191110159E+04  0.29191110159E+04  0.50400001928E-02 0. -1.
    10030    2    1    2    0    0  0.00000000000E+00  0.00000000000E+00 -0.15525001744E+04  0.42857218574E+04  0.39946407908E+04 0.  0.
        5    1    3    3  502    0 -0.13864714631E+04 -0.20524098800E+03 -0.23029074345E+04  0.26958916379E+04  0.46999998093E+01 0. -1.
       -5    1    3    3    0  502  0.13864714631E+04  0.20524098800E+03  0.75040726014E+03  0.15898302196E+04  0.46999998093E+01 0.  1.
</event>
<event>
 5   0  0.3399500E-08  0.3999506E+04  0.7818609E-02  0.8004646E-01
       -1   -1    0    0    0  501  0.00000000000E+00  0.00000000000E+00  0.23005401554E+04  0.23005401554E+04  0.50400001928E-02 0. -1.
        1   -1    0    0  501    0  0.00000000000E+00  0.00000000000E+00 -0.17382925283E+04  0.17382925284E+04  0.50400001928E-02 0.  1.
    10030    2    1    2    0    0  0.00000000000E+00  0.00000000000E+00  0.56224762705E+03  0.40388326837E+04  0.39995058511E+04 0.  0.
        3    1    3    3  502    0  0.17616422846E+04  0.84169770999E+03 -0.15576541172E+03  0.19585968058E+04  0.10100000352E+00 0. -1.
       -3    1    3    3    0  502 -0.17616422846E+04 -0.84169770999E+03  0.71801303877E+03  0.20802358780E+04  0.10100000352E+00 0.  1.
</event>
<event>
 5   0  0.3399500E-08  0.4020012E+04  0.7818609E-02  0.8000522E-01
        1   -1    0    0  501    0  0.00000000000E+00  0.00000000000E+00  0.23935520672E+04  0.23935520672E+04  0.50400001928E-02 0. -1.
       -1   -1    0    0    0  501  0.00000000000E+00  0.00000000000E+00 -0.16879200896E+04  0.16879200896E+04  0.50400001928E-02 0.  1.
    10030    2    1    2    0    0  0.00000000000E+00  0.00000000000E+00  0.70563197761E+03  0.40814721569E+04  0.40200122487E+04 0.  0.
        5    1    3    3  502    0  0.16072374591E+04 -0.53212058228E+03  0.14527712924E+04  0.22309036470E+04  0.46999998093E+01 0. -1.
       -5    1    3    3    0  502 -0.16072374591E+04  0.53212058228E+03 -0.74713931477E+03  0.18505685099E+04  0.46999998093E+01 0.  1.
</event>
<event>
 5   0  0.3399500E-08  0.4034059E+04  0.7818609E-02  0.7997711E-01
        1   -1    0    0  501    0  0.00000000000E+00  0.00000000000E+00  0.24851289852E+04  0.24851289852E+04  0.50400001928E-02 0.  1.
       -1   -1    0    0    0  501  0.00000000000E+00  0.00000000000E+00 -0.16371012392E+04  0.16371012392E+04  0.50400001928E-02 0. -1.
    10030    2    1    2    0    0  0.00000000000E+00  0.00000000000E+00  0.84802774601E+03  0.41222302245E+04  0.40340588698E+04 0.  0.
        2    1    3    3  502    0 -0.86068224195E+03  0.18229616482E+04  0.49213922180E+03  0.20751299010E+04  0.25500000920E-02 0.  1.
       -2    1    3    3    0  502  0.86068224195E+03 -0.18229616482E+04  0.35588852422E+03  0.20471003234E+04  0.25500000920E-02 0. -1.
</event>
<event>
 5   0  0.3399500E-08  0.4002075E+04  0.7818609E-02  0.8004128E-01
        1   -1    0    0  501    0  0.00000000000E+00  0.00000000000E+00  0.20574076148E+04  0.20574076148E+04  0.50400001928E-02 0.  1.
       -1   -1    0    0    0  501  0.00000000000E+00  0.00000000000E+00 -0.19462117401E+04  0.19462117401E+04  0.50400001928E-02 0. -1.
    10030    2    1    2    0    0  0.00000000000E+00  0.00000000000E+00  0.11119587472E+03  0.40036193548E+04  0.40020748888E+04 0.  0.
        2    1    3    3  502    0 -0.19776423629E+04  0.30440338407E+03  0.35093238303E+02  0.20012401832E+04  0.25500000920E-02 0. -1.
       -2    1    3    3    0  502  0.19776423629E+04 -0.30440338407E+03  0.76102636418E+02  0.20023791716E+04  0.25500000920E-02 0.  1.
</event>
<event>
 5   0  0.1101474E-07  0.4011804E+04  0.7818609E-02  0.8002170E-01
        2   -1    0    0  501    0  0.00000000000E+00  0.00000000000E+00  0.19919997678E+04  0.19919997678E+04  0.25500000920E-02 0.  1.
       -2   -1    0    0    0  501  0.00000000000E+00  0.00000000000E+00 -0.20199007969E+04  0.20199007969E+04  0.25500000920E-02 0. -1.
    10030    2    1    2    0    0  0.00000000000E+00  0.00000000000E+00 -0.27901029176E+02  0.40119005647E+04  0.40118035437E+04 0.  0.
        5    1    3    3  502    0 -0.18248022628E+04  0.31199280223E+03 -0.78622369628E+03  0.20113211075E+04  0.46999998093E+01 0. -1.
       -5    1    3    3    0  502  0.18248022628E+04 -0.31199280223E+03  0.75832266710E+03  0.20005794572E+04  0.46999998093E+01 0.  1.
</event>
<event>
 5   0  0.3399500E-08  0.4020274E+04  0.7818609E-02  0.8000469E-01
        1   -1    0    0  501    0  0.00000000000E+00  0.00000000000E+00  0.15711328459E+04  0.15711328459E+04  0.50400001928E-02 0. -1.
       -1   -1    0    0    0  501  0.00000000000E+00  0.00000000000E+00 -0.25718078052E+04  0.25718078052E+04  0.50400001928E-02 0.  1.
    10030    2    1    2    0    0  0.00000000000E+00  0.00000000000E+00 -0.10006749593E+04  0.41429406511E+04  0.40202744763E+04 0.  0.
        3    1    3    3  502    0 -0.19661607026E+04 -0.33920190848E+03 -0.75235160672E+03  0.21323411532E+04  0.10100000352E+00 0.  1.
       -3    1    3    3    0  502  0.19661607026E+04  0.33920190848E+03 -0.24832335254E+03  0.20105994979E+04  0.10100000352E+00 0. -1.
</event>
<event>
 5   0  0.1101474E-07  0.4004908E+04  0.7818609E-02  0.8003557E-01
       -2   -1    0    0    0  501  0.00000000000E+00  0.00000000000E+00  0.12356888420E+04  0.12356888420E+04  0.25500000920E-02 0. -1.
        2   -1    0    0  501    0  0.00000000000E+00  0.00000000000E+00 -0.32450090295E+04  0.32450090295E+04  0.25500000920E-02 0.  1.
    10030    2    1    2    0    0  0.00000000000E+00  0.00000000000E+00 -0.20093201876E+04  0.44806978715E+04  0.40049077142E+04 0.  0.
        5    1    3    3  502    0  0.13076027296E+04 -0.45639148578E+03  0.61342330438E+03  0.15147370489E+04  0.46999998093E+01 0. -1.
       -5    1    3    3    0  502 -0.13076027296E+04  0.45639148578E+03 -0.26227434919E+04  0.29659608226E+04  0.46999998093E+01 0.  1.
</event>
<event>
 5   0  0.3399500E-08  0.4005411E+04  0.7818609E-02  0.8003456E-01
       -1   -1    0    0    0  501  0.00000000000E+00  0.00000000000E+00  0.26195181010E+04  0.26195181010E+04  0.50400001928E-02 0. -1.
        1   -1    0    0  501    0  0.00000000000E+00  0.00000000000E+00 -0.15311321847E+04  0.15311321847E+04  0.50400001928E-02 0.  1.
    10030    2    1    2    0    0  0.00000000000E+00  0.00000000000E+00  0.10883859163E+04  0.41506502858E+04  0.40054105772E+04 0.  0.
        5    1    3    3  502    0  0.13918296175E+04  0.10496086834E+04 -0.47742484721E+03  0.18074359316E+04  0.46999998093E+01 0.  1.
       -5    1    3    3    0  502 -0.13918296175E+04 -0.10496086834E+04  0.15658107635E+04  0.23432143541E+04  0.46999998093E+01 0. -1.
</event>
<event>
 5   0  0.1095109E-07  0.3965293E+04  0.7818609E-02  0.8011585E-01
       -2   -1    0    0    0  501  0.00000000000E+00  0.00000000000E+00  0.14956502979E+04  0.14956502980E+04  0.25500000920E-02 0.  1.
        2   -1    0    0  501    0  0.00000000000E+00  0.00000000000E+00 -0.26282133035E+04  0.26282133035E+04  0.25500000920E-02 0. -1.
    10030    2    1    2    0    0  0.00000000000E+00  0.00000000000E+00 -0.11325630055E+04  0.41238636014E+04  0.39652934370E+04 0.  0.
        4    1    3    3  502    0 -0.20004269320E+03 -0.30507420482E+02 -0.26174452648E+04  0.26252560082E+04  0.12699999809E+01 0. -1.
       -4    1    3    3    0  502  0.20004269320E+03  0.30507420482E+02  0.14848822592E+04  0.14986075932E+04  0.12699999809E+01 0.  1.
</event>
<event>
 5   0  0.3399500E-08  0.4033593E+04  0.7818609E-02  0.7997804E-01
        1   -1    0    0  501    0  0.00000000000E+00  0.00000000000E+00  0.16109796258E+04  0.16109796258E+04  0.50400001928E-02 0.  1.
       -1   -1    0    0    0  501  0.00000000000E+00  0.00000000000E+00 -0.25248409719E+04  0.25248409719E+04  0.50400001928E-02 0. -1.
    10030    2    1    2    0    0  0.00000000000E+00  0.00000000000E+00 -0.91386134611E+03  0.41358205977E+04  0.40335926240E+04 0.  0.
        4    1    3    3  502    0  0.86721586612E+02 -0.19668661279E+04 -0.83701436049E+01  0.19687952334E+04  0.12699999809E+01 0. -1.
       -4    1    3    3    0  502 -0.86721586612E+02  0.19668661279E+04 -0.90549120251E+03  0.21670253643E+04  0.12699999809E+01 0.  1.
</event>
<event>
 5   0  0.1095109E-07  0.3998288E+04  0.7818609E-02  0.8004892E-01
        2   -1    0    0  501    0  0.00000000000E+00  0.00000000000E+00  0.15594857555E+04  0.15594857555E+04  0.25500000920E-02 0.  1.
       -2   -1    0    0    0  501  0.00000000000E+00  0.00000000000E+00 -0.25627529668E+04  0.25627529668E+04  0.25500000920E-02 0. -1.
    10030    2    1    2    0    0  0.00000000000E+00  0.00000000000E+00 -0.10032672113E+04  0.41222387223E+04  0.39982880070E+04 0.  0.
        4    1    3    3  502    0 -0.32732000910E+03 -0.11251251749E+04 -0.21715783018E+04  0.24675491852E+04  0.12699999809E+01 0. -1.
       -4    1    3    3    0  502  0.32732000910E+03  0.11251251749E+04  0.11683110905E+04  0.16546895372E+04  0.12699999809E+01 0.  1.
</event>
<event>
 5   0  0.1087688E-07  0.4007038E+04  0.7818609E-02  0.8003128E-01
        2   -1    0    0  501    0  0.00000000000E+00  0.00000000000E+00  0.18818647116E+04  0.18818647116E+04  0.25500000920E-02 0.  1.
       -2   -1    0    0    0  501  0.00000000000E+00  0.00000000000E+00 -0.21330373784E+04  0.21330373784E+04  0.25500000920E-02 0. -1.
    10030    2    1    2    0    0  0.00000000000E+00  0.00000000000E+00 -0.25117266687E+03  0.40149020900E+04  0.40070376943E+04 0.  0.
        2    1    3    3  502    0  0.18313864444E+04  0.74632433521E+03  0.19615360606E+03  0.19873229630E+04  0.25500000920E-02 0.  1.
       -2    1    3    3    0  502 -0.18313864444E+04 -0.74632433521E+03 -0.44732627293E+03  0.20275791270E+04  0.25500000920E-02 0. -1.
</event>
<event>
 5   0  0.3399500E-08  0.4006843E+04  0.7818609E-02  0.8003168E-01
       -1   -1    0    0    0  501  0.00000000000E+00  0.00000000000E+00  0.23982732828E+04  0.23982732829E+04  0.50400001928E-02 0. -1.
        1   -1    0    0  501    0  0.00000000000E+00  0.00000000000E+00 -0.16735780691E+04  0.16735780691E+04  0.50400001928E-02 0.  1.
    10030    2    1    2    0    0  0.00000000000E+00  0.00000000000E+00  0.72469521379E+03  0.40718513519E+04  0.40068429317E+04 0.  0.
        1    1    3    3  502    0 -0.28372918374E+02  0.10310469680E+04  0.21077213431E+04  0.23465617684E+04  0.50400001928E-02 0. -1.
       -1    1    3    3    0  502  0.28372918374E+02 -0.10310469680E+04 -0.13830261293E+04  0.17252895835E+04  0.50400001928E-02 0.  1.
</event>
<event>
 5   0  0.3399500E-08  0.3998582E+04  0.7818609E-02  0.8004833E-01
       -1   -1    0    0    0  501  0.00000000000E+00  0.00000000000E+00  0.16424505291E+04  0.16424505291E+04  0.50400001928E-02 0. -1.
        1   -1    0    0  501    0  0.00000000000E+00  0.00000000000E+00 -0.24336589608E+04  0.24336589608E+04  0.50400001928E-02 0.  1.
    10030    2    1    2    0    0  0.00000000000E+00  0.00000000000E+00 -0.79120843177E+03  0.40761094899E+04  0.39985819725E+04 0.  0.
        1    1    3    3  502    0 -0.12427741293E+04 -0.91014624309E+03 -0.16947993755E+04  0.22902398659E+04  0.50400001928E-02 0.  1.
       -1    1    3    3    0  502  0.12427741293E+04  0.91014624309E+03  0.90359094375E+03  0.17858696240E+04  0.50400001928E-02 0. -1.
</event>
<event>
 5   0  0.1101474E-07  0.3974018E+04  0.7818609E-02  0.8009809E-01
       -2   -1    0    0    0  501  0.00000000000E+00  0.00000000000E+00  0.15599482119E+04  0.15599482119E+04  0.25500000920E-02 0. -1.
        2   -1    0    0  501    0  0.00000000000E+00  0.00000000000E+00 -0.25309842346E+04  0.25309842346E+04  0.25500000920E-02 0.  1.
    10030    2    1    2    0    0  0.00000000000E+00  0.00000000000E+00 -0.97103602277E+03  0.40909324465E+04  0.39740177811E+04 0.  0.
        5    1    3    3  502    0  0.41763194044E+03 -0.15712261153E+04 -0.16614985566E+04  0.23246005004E+04  0.46999998093E+01 0.  1.
       -5    1    3    3    0  502 -0.41763194044E+03  0.15712261153E+04  0.69046253385E+03  0.17663319461E+04  0.46999998093E+01 0. -1.
</event>
<event>
 5   0  0.1095903E-07  0.3983679E+04  0.7818609E-02  0.8007847E-01
       -2   -1    0    0    0  501  0.00000000000E+00  0.00000000000E+00  0.16110703495E+04  0.16110703495E+04  0.25500000920E-02 0.  1.
        2   -1    0    0  501    0  0.00000000000E+00  0.00000000000E+00 -0.24626018450E+04  0.24626018450E+04  0.25500000920E-02 0. -1.
    10030    2    1    2    0    0  0.00000000000E+00  0.00000000000E+00 -0.85153149542E+03  0.40736721945E+04  0.39836791111E+04 0.  0.
        3    1    3    3  502    0 -0.16689599465E+04  0.10841390703E+04 -0.34243887973E+03  0.20194180407E+04  0.10100000352E+00 0.  1.
       -3    1    3    3    0  502  0.16689599465E+04 -0.10841390703E+04 -0.50909261570E+03  0.20542541538E+04  0.10100000352E+00 0. -1.
</event>
<event>
 5   0  0.1101474E-07  0.3977884E+04  0.7818609E-02  0.8009023E-01
        2   -1    0    0  501    0  0.00000000000E+00  0.00000000000E+00  0.12842584156E+04  0.12842584156E+04  0.25500000920E-02 0. -1.
       -2   -1    0    0    0  501  0.00000000000E+00  0.00000000000E+00 -0.30802919084E+04  0.30802919084E+04  0.25500000920E-02 0.  1.
    10030    2    1    2    0    0  0.00000000000E+00  0.00000000000E+00 -0.17960334928E+04  0.43645503240E+04  0.39778842647E+04 0.  0.
        5    1    3    3  502    0 -0.45868650705E+03  0.88872253236E+03 -0.27843294643E+04  0.29585019363E+04  0.46999998093E+01 0.  1.
       -5    1    3    3    0  502  0.45868650705E+03 -0.88872253236E+03  0.98829597150E+03  0.14060483877E+04  0.46999998093E+01 0. -1.
</event>
<event>
 5   0  0.3399500E-08  0.3970708E+04  0.7818609E-02  0.8010482E-01
       -1   -1    0    0    0  501  0.00000000000E+00  0.00000000000E+00  0.16646818554E+04  0.16646818554E+04  0.50400001928E-02 0. -1.
        1   -1    0    0  501    0  0.00000000000E+00  0.00000000000E+00 -0.23677982403E+04  0.23677982403E+04  0.50400001928E-02 0.  1.
    10030    2    1    2    0    0  0.00000000000E+00  0.00000000000E+00 -0.70311638486E+03  0.40324800957E+04  0.39707081322E+04 0.  0.
        2    1    3    3  502    0 -0.52815667211E+03  0.34728337305E+02 -0.22948244865E+04  0.23550742985E+04  0.25500000920E-02 0.  1.
       -2    1    3    3    0  502  0.52815667211E+03 -0.34728337305E+02  0.15917081016E+04  0.16774057972E+04  0.25500000920E-02 0. -1.
</event>
<event>
 5   0  0.1095109E-07  0.4019364E+04  0.7818609E-02  0.8000652E-01
        2   -1    0    0  501    0  0.00000000000E+00  0.00000000000E+00  0.28075888588E+04  0.28075888588E+04  0.25500000920E-02 0.  1.
       -2   -1    0    0    0  501  0.00000000000E+00  0.00000000000E+00 -0.14385374761E+04  0.14385374762E+04  0.25500000920E-02 0. -1.
    10030    2    1    2    0    0  0.00000000000E+00  0.00000000000E+00  0.13690513826E+04  0.42461263349E+04  0.40193640248E+04 0.  0.
        4    1    3    3  502    0  0.76302150904E+03  0.23368250308E+03 -0.12639878004E+04  0.14948164128E+04  0.12699999809E+01 0. -1.
       -4    1    3    3    0  502 -0.76302150904E+03 -0.23368250308E+03  0.26330391830E+04  0.27513099221E+04  0.12699999809E+01 0.  1.
</event>
<event>
 5   0  0.3399500E-08  0.3997843E+04  0.7818609E-02  0.8004982E-01
        1   -1    0    0  501    0  0.00000000000E+00  0.00000000000E+00  0.21509860893E+04  0.21509860893E+04  0.50400001928E-02 0. -1.
       -1   -1    0    0    0  501  0.00000000000E+00  0.00000000000E+00 -0.18576074978E+04  0.18576074978E+04  0.50400001928E-02 0.  1.
    10030    2    1    2    0    0  0.00000000000E+00  0.00000000000E+00  0.29337859152E+03  0.40085935871E+04  0.39978433622E+04 0.  0.
        3    1    3    3  502    0 -0.19142214325E+04  0.21542027206E+03  0.68201470262E+03  0.20434758748E+04  0.10100000352E+00 0.  1.
       -3    1    3    3    0  502  0.19142214325E+04 -0.21542027206E+03 -0.38863611110E+03  0.19651177123E+04  0.10100000352E+00 0. -1.
</event>
<event>
 5   0  0.1095903E-07  0.4016840E+04  0.7818609E-02  0.8001158E-01
        2   -1    0    0  501    0  0.00000000000E+00  0.00000000000E+00  0.31955794373E+04  0.31955794373E+04  0.25500000920E-02 0. -1.
       -2   -1    0    0    0  501  0.00000000000E+00  0.00000000000E+00 -0.12622911643E+04  0.12622911643E+04  0.25500000920E-02 0.  1.
    10030    2    1    2    0    0  0.00000000000E+00  0.00000000000E+00  0.19332882730E+04  0.44578706017E+04  0.40168403944E+04 0.  0.
        3    1    3    3  502    0 -0.67271433688E+03  0.18507619553E+04  0.52846849852E+03  0.20389073933E+04  0.10100000352E+00 0.  1.
       -3    1    3    3    0  502  0.67271433688E+03 -0.18507619553E+04  0.14048197745E+04  0.24189632084E+04  0.10100000352E+00 0. -1.
</event>
<event>
 5   0  0.3399500E-08  0.4000093E+04  0.7818609E-02  0.8004528E-01
        1   -1    0    0  501    0  0.00000000000E+00  0.00000000000E+00  0.23690372782E+04  0.23690372782E+04  0.50400001928E-02 0. -1.
       -1   -1    0    0    0  501  0.00000000000E+00  0.00000000000E+00 -0.16885282538E+04  0.16885282538E+04  0.50400001928E-02 0.  1.
    10030    2    1    2    0    0  0.00000000000E+00  0.00000000000E+00  0.68050902439E+03  0.40575655320E+04  0.40000931882E+04 0.  0.
        1    1    3    3  502    0  0.10671751215E+04 -0.16503158455E+04  0.71677662910E+03  0.20919306552E+04  0.50400001928E-02 0. -1.
       -1    1    3    3    0  502 -0.10671751215E+04  0.16503158455E+04 -0.36267604702E+02  0.19656348769E+04  0.50400001928E-02 0.  1.
</event>
<event>
 5   0  0.1101474E-07  0.4087703E+04  0.7818609E-02  0.7987084E-01
        2   -1    0    0  501    0  0.00000000000E+00  0.00000000000E+00  0.20108608929E+04  0.20108608929E+04  0.25500000920E-02 0. -1.
       -2   -1    0    0    0  501  0.00000000000E+00  0.00000000000E+00 -0.20773829643E+04  0.20773829643E+04  0.25500000920E-02 0.  1.
    10030    2    1    2    0    0  0.00000000000E+00  0.00000000000E+00 -0.66522071427E+02  0.40882438573E+04  0.40877026128E+04 0.  0.
        5    1    3    3  502    0  0.16247906748E+03  0.19236041647E+04  0.63813526391E+03  0.20331972690E+04  0.46999998093E+01 0. -1.
       -5    1    3    3    0  502 -0.16247906748E+03 -0.19236041647E+04 -0.70465733533E+03  0.20550465883E+04  0.46999998093E+01 0.  1.
</event>
<event>
 5   0  0.3399500E-08  0.3995996E+04  0.7818609E-02  0.8005355E-01
        1   -1    0    0  501    0  0.00000000000E+00  0.00000000000E+00  0.12872785703E+04  0.12872785703E+04  0.50400001928E-02 0. -1.
       -1   -1    0    0    0  501  0.00000000000E+00  0.00000000000E+00 -0.31011127071E+04  0.31011127071E+04  0.50400001928E-02 0.  1.
    10030    2    1    2    0    0  0.00000000000E+00  0.00000000000E+00 -0.18138341368E+04  0.43883912775E+04  0.39959959620E+04 0.  0.
        4    1    3    3  502    0 -0.37512710813E+03 -0.19115836568E+04 -0.41933498892E+03  0.19926655189E+04  0.12699999809E+01 0.  1.
       -4    1    3    3    0  502  0.37512710813E+03  0.19115836568E+04 -0.13944991479E+04  0.23957257586E+04  0.12699999809E+01 0. -1.
</event>
<event>
 5   0  0.1087688E-07  0.3987054E+04  0.7818609E-02  0.8007163E-01
       -2   -1    0    0    0  501  0.00000000000E+00  0.00000000000E+00  0.15536639379E+04  0.15536639379E+04  0.25500000920E-02 0. -1.
        2   -1    0    0  501    0  0.00000000000E+00  0.00000000000E+00 -0.25579215714E+04  0.25579215714E+04  0.25500000920E-02 0.  1.
    10030    2    1    2    0    0  0.00000000000E+00  0.00000000000E+00 -0.10042576335E+04  0.41115855093E+04  0.39870543019E+04 0.  0.
        2    1    3    3  502    0  0.37480618109E+03  0.19323444132E+04 -0.17648759450E+03  0.19762546586E+04  0.25500000920E-02 0. -1.
       -2    1    3    3    0  502 -0.37480618109E+03 -0.19323444132E+04 -0.82777003897E+03  0.21353308507E+04  0.25500000920E-02 0.  1.
</event>
<event>
 5   0  0.1095903E-07  0.3986199E+04  0.7818609E-02  0.8007336E-01
       -2   -1    0    0    0  501  0.00000000000E+00  0.00000000000E+00  0.31357296842E+04  0.31357296842E+04  0.25500000920E-02 0. -1.
        2   -1    0    0  501    0  0.00000000000E+00  0.00000000000E+00 -0.12668328215E+04  0.12668328215E+04  0.25500000920E-02 0.  1.
    10030    2    1    2    0    0  0.00000000000E+00  0.00000000000E+00  0.18688968627E+04  0.44025625058E+04  0.39861988327E+04 0.  0.
        3    1    3    3  502    0  0.93202896938E+03 -0.28742714320E+03 -0.98524963069E+03  0.13863654667E+04  0.10100000352E+00 0.  1.
       -3    1    3    3    0  502 -0.93202896938E+03  0.28742714320E+03  0.28541464934E+04  0.30161970390E+04  0.10100000352E+00 0. -1.
</event>
<event>
 5   0  0.3399500E-08  0.3953742E+04  0.7818609E-02  0.8013944E-01
        1   -1    0    0  501    0  0.00000000000E+00  0.00000000000E+00  0.15953536678E+04  0.15953536678E+04  0.50400001928E-02 0. -1.
       -1   -1    0    0    0  501  0.00000000000E+00  0.00000000000E+00 -0.24496249078E+04  0.24496249078E+04  0.50400001928E-02 0.  1.
    10030    2    1    2    0    0  0.00000000000E+00  0.00000000000E+00 -0.85427124002E+03  0.40449785756E+04  0.39537415603E+04 0.  0.
        5    1    3    3  502    0  0.41527151811E+03 -0.13585373036E+04  0.97933246766E+03  0.17254530452E+04  0.46999998093E+01 0. -1.
       -5    1    3    3    0  502 -0.41527151811E+03  0.13585373036E+04 -0.18336037077E+04  0.23195255303E+04  0.46999998093E+01 0.  1.
</event>
<event>
 5   0  0.3399500E-08  0.3962447E+04  0.7818609E-02  0.8012165E-01
       -1   -1    0    0    0  501  0.00000000000E+00  0.00000000000E+00  0.14398366083E+04  0.14398366083E+04  0.50400001928E-02 0.  1.
        1   -1    0    0  501    0  0.00000000000E+00  0.00000000000E+00 -0.27261748397E+04  0.27261748397E+04  0.50400001928E-02 0. -1.
    10030    2    1    2    0    0  0.00000000000E+00  0.00000000000E+00 -0.12863382314E+04  0.41660114480E+04  0.39624468879E+04 0.  0.
        2    1    3    3  502    0  0.17051982251E+04  0.23554508555E+03  0.38806899721E+03  0.17645906100E+04  0.25500000920E-02 0.  1.
       -2    1    3    3    0  502 -0.17051982251E+04 -0.23554508555E+03 -0.16744072286E+04  0.24014208380E+04  0.25500000920E-02 0. -1.
</event>
<event>
 5   0  0.1095109E-07  0.3969602E+04  0.7818609E-02  0.8010707E-01
       -2   -1    0    0    0  501  0.00000000000E+00  0.00000000000E+00  0.14088682784E+04  0.14088682784E+04  0.25500000920E-02 0. -1.
        2   -1    0    0  501    0  0.00000000000E+00  0.00000000000E+00 -0.27961698771E+04  0.27961698771E+04  0.25500000920E-02 0.  1.
    10030    2    1    2    0    0  0.00000000000E+00  0.00000000000E+00 -0.13873015987E+04  0.42050381554E+04  0.39696020157E+04 0.  0.
        4    1    3    3  502    0 -0.84088049358E+03 -0.39539332896E+03  0.11642279920E+04  0.14895785711E+04  0.12699999809E+01 0. -1.
       -4    1    3    3    0  502  0.84088049358E+03  0.39539332896E+03 -0.25515295907E+04  0.27154595844E+04  0.12699999809E+01 0.  1.
</event>
<event>
 5   0  0.1087688E-07  0.3992506E+04  0.7818609E-02  0.8006060E-01
        2   -1    0    0  501    0  0.00000000000E+00  0.00000000000E+00  0.28195519754E+04  0.28195519754E+04  0.25500000920E-02 0. -1.
       -2   -1    0    0    0  501  0.00000000000E+00  0.00000000000E+00 -0.14133541585E+04  0.14133541585E+04  0.25500000920E-02 0.  1.
    10030    2    1    2    0    0  0.00000000000E+00  0.00000000000E+00  0.14061978169E+04  0.42329061339E+04  0.39925057342E+04 0.  0.
        2    1    3    3  502    0 -0.77090403637E+03 -0.16171779436E+04 -0.23053157445E+03  0.18062951978E+04  0.25500000920E-02 0.  1.
       -2    1    3    3    0  502  0.77090403637E+03  0.16171779436E+04  0.16367293914E+04  0.24266109361E+04  0.25500000920E-02 0. -1.
</event>
<event>
 5   0  0.3399500E-08  0.4023459E+04  0.7818609E-02  0.7999831E-01
        1   -1    0    0  501    0  0.00000000000E+00  0.00000000000E+00  0.18013069674E+04  0.18013069674E+04  0.50400001928E-02 0. -1.
       -1   -1    0    0    0  501  0.00000000000E+00  0.00000000000E+00 -0.22467323841E+04  0.22467323842E+04  0.50400001928E-02 0.  1.
    10030    2    1    2    0    0  0.00000000000E+00  0.00000000000E+00 -0.44542541678E+03  0.40480393515E+04  0.40234585607E+04 0.  0.
        2    1    3    3  502    0 -0.99546909397E+03  0.98488267453E+03 -0.16758711626E+04  0.21839177533E+04  0.25500000920E-02 0.  1.
       -2    1    3    3    0  502  0.99546909397E+03 -0.98488267453E+03  0.12304457458E+04  0.18641215982E+04  0.25500000920E-02 0. -1.
</event>
<event>
 5   0  0.1087688E-07  0.3852103E+04  0.7818609E-02  0.8035065E-01
        2   -1    0    0  501    0  0.00000000000E+00  0.00000000000E+00  0.12216389140E+04  0.12216389140E+04  0.25500000920E-02 0. -1.
       -2   -1    0    0    0  501  0.00000000000E+00  0.00000000000E+00 -0.30366379623E+04  0.30366379623E+04  0.25500000920E-02 0.  1.
    10030    2    1    2    0    0  0.00000000000E+00  0.00000000000E+00 -0.18149990483E+04  0.42582768763E+04  0.38521033748E+04 0.  0.
        2    1    3    3  502    0 -0.90959416904E+03  0.99414389872E+03 -0.24288349240E+04  0.27775749732E+04  0.25500000920E-02 0.  1.
       -2    1    3    3    0  502  0.90959416904E+03 -0.99414389872E+03  0.61383587565E+03  0.14807019031E+04  0.25500000920E-02 0. -1.
</event>
<event>
 5   0  0.1101474E-07  0.3979979E+04  0.7818609E-02  0.8008598E-01
       -2   -1    0    0    0  501  0.00000000000E+00  0.00000000000E+00  0.15929818044E+04  0.15929818045E+04  0.25500000920E-02 0. -1.
        2   -1    0    0  501    0  0.00000000000E+00  0.00000000000E+00 -0.24859406467E+04  0.24859406467E+04  0.25500000920E-02 0.  1.
    10030    2    1    2    0    0  0.00000000000E+00  0.00000000000E+00 -0.89295884229E+03  0.40789224512E+04  0.39799790036E+04 0.  0.
        5    1    3    3  502    0 -0.80752286332E+03  0.14163256370E+04  0.72292373784E+03  0.17834551594E+04  0.46999998093E+01 0. -1.
       -5    1    3    3    0  502  0.80752286332E+03 -0.14163256370E+04 -0.16158825801E+04  0.22954672918E+04  0.46999998093E+01 0.  1.
</event>
<event>
 5   0  0.1095109E-07  0.4002426E+04  0.7818609E-02  0.8004057E-01
        2   -1    0    0  501    0  0.00000000000E+00  0.00000000000E+00  0.23506402828E+04  0.23506402828E+04  0.25500000920E-02 0.  1.
       -2   -1    0    0    0  501  0.00000000000E+00  0.00000000000E+00 -0.17037287002E+04  0.17037287002E+04  0.25500000920E-02 0. -1.
    10030    2    1    2    0    0  0.00000000000E+00  0.00000000000E+00  0.64691158256E+03  0.40543689830E+04  0.40024259212E+04 0.  0.
        4    1    3    3  502    0  0.15873952245E+04 -0.21656691957E+03  0.15382384084E+04  0.22210141475E+04  0.12699999809E+01 0.  1.
       -4    1    3    3    0  502 -0.15873952245E+04  0.21656691957E+03 -0.89132682589E+03  0.18333548355E+04  0.12699999809E+01 0. -1.
</event>
<event>
 5   0  0.1087688E-07  0.4012155E+04  0.7818609E-02  0.8002099E-01
       -2   -1    0    0    0  501  0.00000000000E+00  0.00000000000E+00  0.15733726796E+04  0.15733726796E+04  0.25500000920E-02 0. -1.
        2   -1    0    0  501    0  0.00000000000E+00  0.00000000000E+00 -0.25577832002E+04  0.25577832002E+04  0.25500000920E-02 0.  1.
    10030    2    1    2    0    0  0.00000000000E+00  0.00000000000E+00 -0.98441052061E+03  0.41311558798E+04  0.40121546368E+04 0.  0.
        2    1    3    3  502    0 -0.11812369422E+04  0.47806962779E+03  0.11030952568E+04  0.16854347891E+04  0.25500000920E-02 0. -1.
       -2    1    3    3    0  502  0.11812369422E+04 -0.47806962779E+03 -0.20875057774E+04  0.24457210907E+04  0.25500000920E-02 0.  1.
</event>
<event>
 5   0  0.1101474E-07  0.4029282E+04  0.7818609E-02  0.7998665E-01
        2   -1    0    0  501    0  0.00000000000E+00  0.00000000000E+00  0.20020430829E+04  0.20020430829E+04  0.25500000920E-02 0. -1.
       -2   -1    0    0    0  501  0.00000000000E+00  0.00000000000E+00 -0.20273186438E+04  0.20273186438E+04  0.25500000920E-02 0.  1.
    10030    2    1    2    0    0  0.00000000000E+00  0.00000000000E+00 -0.25275560907E+02  0.40293617267E+04  0.40292824511E+04 0.  0.
        5    1    3    3  502    0 -0.13453566320E+04  0.11523389368E+04  0.94701003108E+03  0.20086611415E+04  0.46999998093E+01 0. -1.
       -5    1    3    3    0  502  0.13453566320E+04 -0.11523389368E+04 -0.97228559198E+03  0.20207005852E+04  0.46999998093E+01 0.  1.
</event>
<event>
 5   0  0.3399500E-08  0.3973238E+04  0.7818609E-02  0.8009967E-01
        1   -1    0    0  501    0  0.00000000000E+00  0.00000000000E+00  0.13678068945E+04  0.13678068945E+04  0.50400001928E-02 0.  1.
       -1   -1    0    0    0  501  0.00000000000E+00  0.00000000000E+00 -0.28853894679E+04  0.28853894679E+04  0.50400001928E-02 0. -1.
    10030    2    1    2    0    0  0.00000000000E+00  0.00000000000E+00 -0.15175825734E+04  0.42531963625E+04  0.39732382801E+04 0.  0.
        1    1    3    3  502    0  0.10826702843E+04 -0.83980544763E+03 -0.22986215182E+04  0.26760248538E+04  0.50400001928E-02 0. -1.
       -1    1    3    3    0  502 -0.10826702843E+04  0.83980544763E+03  0.78103894476E+03  0.15771715086E+04  0.50400001928E-02 0.  1.
</event>
<event>
 5   0  0.1095903E-07  0.3796130E+04  0.7818609E-02  0.8046986E-01
       -2   -1    0    0    0  501  0.00000000000E+00  0.00000000000E+00  0.25289170546E+04  0.25289170546E+04  0.25500000920E-02 0. -1.
        2   -1    0    0  501    0  0.00000000000E+00  0.00000000000E+00 -0.14245823288E+04  0.14245823288E+04  0.25500000920E-02 0.  1.
    10030    2    1    2    0    0  0.00000000000E+00  0.00000000000E+00  0.11043347258E+04  0.39534993833E+04  0.37961298960E+04 0.  0.
        3    1    3    3  502    0  0.17806930443E+04 -0.65708588225E+03  0.55693558883E+03  0.19780816047E+04  0.10100000352E+00 0. -1.
       -3    1    3    3    0  502 -0.17806930443E+04  0.65708588225E+03  0.54739913696E+03  0.19754177786E+04  0.10100000352E+00 0.  1.
</event>
<event>
 5   0  0.3399500E-08  0.4058803E+04  0.7818609E-02  0.7992788E-01
        1   -1    0    0  501    0  0.00000000000E+00  0.00000000000E+00  0.14984222727E+04  0.14984222728E+04  0.50400001928E-02 0. -1.
       -1   -1    0    0    0  501  0.00000000000E+00  0.00000000000E+00 -0.27485377241E+04  0.27485377242E+04  0.50400001928E-02 0.  1.
    10030    2    1    2    0    0  0.00000000000E+00  0.00000000000E+00 -0.12501154514E+04  0.42469599969E+04  0.40588028498E+04 0.  0.
        1    1    3    3  502    0 -0.17030616056E+04  0.98734278481E+03 -0.10903724153E+03  0.19715866015E+04  0.50400001928E-02 0. -1.
       -1    1    3    3    0  502  0.17030616056E+04 -0.98734278481E+03 -0.11410782099E+04  0.22753733954E+04  0.50400001928E-02 0.  1.
</event>
<event>
 5   0  0.1087688E-07  0.3987966E+04  0.7818609E-02  0.8006979E-01
       -2   -1    0    0    0  501  0.00000000000E+00  0.00000000000E+00  0.21800064456E+04  0.21800064456E+04  0.25500000920E-02 0.  1.
        2   -1    0    0  501    0  0.00000000000E+00  0.00000000000E+00 -0.18238332966E+04  0.18238332966E+04  0.25500000920E-02 0. -1.
    10030    2    1    2    0    0  0.00000000000E+00  0.00000000000E+00  0.35617314905E+03  0.40038397422E+04  0.39879660692E+04 0.  0.
        2    1    3    3  502    0 -0.10528882164E+04  0.21698344079E+03  0.18641498962E+04  0.21519085124E+04  0.25500000920E-02 0.  1.
       -2    1    3    3    0  502  0.10528882164E+04 -0.21698344079E+03 -0.15079767472E+04  0.18519312298E+04  0.25500000920E-02 0. -1.
</event>
<event>
 5   0  0.1101474E-07  0.3976565E+04  0.7818609E-02  0.8009291E-01
       -2   -1    0    0    0  501  0.00000000000E+00  0.00000000000E+00  0.13901432303E+04  0.13901432303E+04  0.25500000920E-02 0. -1.
        2   -1    0    0  501    0  0.00000000000E+00  0.00000000000E+00 -0.28437843529E+04  0.28437843529E+04  0.25500000920E-02 0.  1.
    10030    2    1    2    0    0  0.00000000000E+00  0.00000000000E+00 -0.14536411226E+04  0.42339275832E+04  0.39765651342E+04 0.  0.
        5    1    3    3  502    0 -0.47071693738E+03  0.17779205089E+04 -0.15311384619E+04  0.23931115416E+04  0.46999998093E+01 0.  1.
       -5    1    3    3    0  502  0.47071693738E+03 -0.17779205089E+04  0.77497339290E+02  0.18408160415E+04  0.46999998093E+01 0. -1.
</event>
<event>
 5   0  0.3399500E-08  0.4022284E+04  0.7818609E-02  0.8000066E-01
        1   -1    0    0  501    0  0.00000000000E+00  0.00000000000E+00  0.21522804215E+04  0.21522804215E+04  0.50400001928E-02 0. -1.
       -1   -1    0    0    0  501  0.00000000000E+00  0.00000000000E+00 -0.18792591775E+04  0.18792591775E+04  0.50400001928E-02 0.  1.
    10030    2    1    2    0    0  0.00000000000E+00  0.00000000000E+00  0.27302124396E+03  0.40315395990E+04  0.40222842936E+04 0.  0.
        3    1    3    3  502    0 -0.16040128923E+04  0.11380489917E+04  0.55781084375E+03  0.20443008130E+04  0.10100000352E+00 0. -1.
       -3    1    3    3    0  502  0.16040128923E+04 -0.11380489917E+04 -0.28478959978E+03  0.19872387860E+04  0.10100000352E+00 0.  1.
</event>
<event>
 5   0  0.3399500E-08  0.4015609E+04  0.7818609E-02  0.8001405E-01
       -1   -1    0    0    0  501  0.00000000000E+00  0.00000000000E+00  0.19501407050E+04  0.19501407050E+04  0.50400001928E-02 0.  1.
        1   -1    0    0  501    0  0.00000000000E+00  0.00000000000E+00 -0.20671730396E+04  0.20671730396E+04  0.50400001928E-02 0. -1.
    10030    2    1    2    0    0  0.00000000000E+00  0.00000000000E+00 -0.11703233454E+03  0.40173137446E+04  0.40156086905E+04 0.  0.
        1    1    3    3  502    0  0.13406834539E+04  0.95706404387E+02  0.14336554327E+04  0.19651869476E+04  0.50400001928E-02 0.  1.
       -1    1    3    3    0  502 -0.13406834539E+04 -0.95706404387E+02 -0.15506877673E+04  0.20521267970E+04  0.50400001928E-02 0. -1.
</event>
<event>
 5   0  0.3399500E-08  0.4036120E+04  0.7818609E-02  0.7997299E-01
       -1   -1    0    0    0  501  0.00000000000E+00  0.00000000000E+00  0.13949501891E+04  0.13949501891E+04  0.50400001928E-02 0.  1.
        1   -1    0    0  501    0  0.00000000000E+00  0.00000000000E+00 -0.29195059847E+04  0.29195059847E+04  0.50400001928E-02 0. -1.
    10030    2    1    2    0    0  0.00000000000E+00  0.00000000000E+00 -0.15245557956E+04  0.43144561738E+04  0.40361196343E+04 0.  0.
        5    1    3    3  502    0  0.65350570471E+03 -0.82088614037E+03 -0.26049948719E+04  0.28083703698E+04  0.46999998093E+01 0. -1.
       -5    1    3    3    0  502 -0.65350570471E+03  0.82088614037E+03  0.10804390763E+04  0.15060858040E+04  0.46999998093E+01 0.  1.
</event>
<event>
 5   0  0.3399500E-08  0.4252870E+04  0.7818609E-02  0.7955391E-01
       -1   -1    0    0    0  501  0.00000000000E+00  0.00000000000E+00  0.25817596375E+04  0.25817596375E+04  0.50400001928E-02 0. -1.
        1   -1    0    0  501    0  0.00000000000E+00  0.00000000000E+00 -0.17514122752E+04  0.17514122752E+04  0.50400001928E-02 0.  1.
    10030    2    1    2    0    0  0.00000000000E+00  0.00000000000E+00  0.83034736233E+03  0.43331719127E+04  0.42528698644E+04 0.  0.
        3    1    3    3  502    0  0.19308676832E+04 -0.48650764760E+03  0.11754437704E+04  0.23122732903E+04  0.10100000352E+00 0. -1.
       -3    1    3    3    0  502 -0.19308676832E+04  0.48650764760E+03 -0.34509640808E+03  0.20208986225E+04  0.10100000352E+00 0.  1.
</event>
<event>
 5   0  0.1101474E-07  0.4011801E+04  0.7818609E-02  0.8002170E-01
       -2   -1    0    0    0  501  0.00000000000E+00  0.00000000000E+00  0.21378105123E+04  0.21378105123E+04  0.25500000920E-02 0.  1.
        2   -1    0    0  501    0  0.00000000000E+00  0.00000000000E+00 -0.18821293073E+04  0.18821293073E+04  0.25500000920E-02 0. -1.
    10030    2    1    2    0    0  0.00000000000E+00  0.00000000000E+00  0.25568120501E+03  0.40199398196E+04  0.40118005029E+04 0.  0.
        5    1    3    3  502    0 -0.12941530657E+04 -0.42987533631E+02  0.16629192413E+04  0.21076058879E+04  0.46999998093E+01 0.  1.
       -5    1    3    3    0  502  0.12941530657E+04  0.42987533631E+02 -0.14072380363E+04  0.19123339317E+04  0.46999998093E+01 0. -1.
</event>
<event>
 5   0  0.1101474E-07  0.3844139E+04  0.7818609E-02  0.8036749E-01
        2   -1    0    0  501    0  0.00000000000E+00  0.00000000000E+00  0.13025794362E+04  0.13025794362E+04  0.25500000920E-02 0.  1.
       -2   -1    0    0    0  501  0.00000000000E+00  0.00000000000E+00 -0.28361804145E+04  0.28361804146E+04  0.25500000920E-02 0. -1.
    10030    2    1    2    0    0  0.00000000000E+00  0.00000000000E+00 -0.15336009783E+04  0.41387598508E+04  0.38441385435E+04 0.  0.
        5    1    3    3  502    0 -0.56460598132E+03 -0.14971026767E+04  0.37982638560E+03  0.16445019039E+04  0.46999998093E+01 0.  1.
       -5    1    3    3    0  502  0.56460598132E+03  0.14971026767E+04 -0.19134273639E+04  0.24942579469E+04  0.46999998093E+01 0. -1.
</event>
<event>
 5   0  0.3399500E-08  0.3999909E+04  0.7818609E-02  0.8004565E-01
       -1   -1    0    0    0  501  0.00000000000E+00  0.00000000000E+00  0.24832492490E+04  0.24832492490E+04  0.50400001928E-02 0.  1.
        1   -1    0    0  501    0  0.00000000000E+00  0.00000000000E+00 -0.16107198540E+04  0.16107198540E+04  0.50400001928E-02 0. -1.
    10030    2    1    2    0    0  0.00000000000E+00  0.00000000000E+00  0.87252939503E+03  0.40939691030E+04  0.39999094329E+04 0.  0.
        1    1    3    3  502    0 -0.13339120505E+04  0.84974562116E+03 -0.81662436025E+03  0.17799618886E+04  0.50400001928E-02 0. -1.
       -1    1    3    3    0  502  0.13339120505E+04 -0.84974562116E+03  0.16891537553E+04  0.23140072144E+04  0.50400001928E-02 0.  1.
</event>
<event>
 5   0  0.3399500E-08  0.3973903E+04  0.7818609E-02  0.8009832E-01
        3   -1    0    0  501    0  0.00000000000E+00  0.00000000000E+00  0.14710769535E+04  0.14710769570E+04  0.10100000352E+00 0. -1.
       -3   -1    0    0    0  501  0.00000000000E+00  0.00000000000E+00 -0.26837321184E+04  0.26837321203E+04  0.10100000352E+00 0.  1.
    10030    2    1    2    0    0  0.00000000000E+00  0.00000000000E+00 -0.12126551650E+04  0.41548090773E+04  0.39739031090E+04 0.  0.
        5    1    3    3  502    0 -0.11576795873E+03 -0.93430382521E+03 -0.24357333588E+04  0.26113492572E+04  0.46999998093E+01 0.  1.
       -5    1    3    3    0  502  0.11576795873E+03  0.93430382521E+03  0.12230781938E+04  0.15434598201E+04  0.46999998093E+01 0. -1.
</event>
<event>
 5   0  0.1095903E-07  0.3995851E+04  0.7818609E-02  0.8005384E-01
       -2   -1    0    0    0  501  0.00000000000E+00  0.00000000000E+00  0.19367561934E+04  0.19367561934E+04  0.25500000920E-02 0.  1.
        2   -1    0    0  501    0  0.00000000000E+00  0.00000000000E+00 -0.20610262982E+04  0.20610262982E+04  0.25500000920E-02 0. -1.
    10030    2    1    2    0    0  0.00000000000E+00  0.00000000000E+00 -0.12427010475E+03  0.39977824916E+04  0.39958505716E+04 0.  0.
        3    1    3    3  502    0 -0.92710345037E+03  0.17636756683E+04 -0.20928698010E+03  0.20034654280E+04  0.10100000352E+00 0.  1.
       -3    1    3    3    0  502  0.92710345037E+03 -0.17636756683E+04  0.85016875355E+02  0.19943170636E+04  0.10100000352E+00 0. -1.
</event>
<event>
 5   0  0.1101474E-07  0.4010070E+04  0.7818609E-02  0.8002518E-01
        2   -1    0    0  501    0  0.00000000000E+00  0.00000000000E+00  0.23464020017E+04  0.23464020017E+04  0.25500000920E-02 0. -1.
       -2   -1    0    0    0  501  0.00000000000E+00  0.00000000000E+00 -0.17133322732E+04  0.17133322732E+04  0.25500000920E-02 0.  1.
    10030    2    1    2    0    0  0.00000000000E+00  0.00000000000E+00  0.63306972852E+03  0.40597342749E+04  0.40100704609E+04 0.  0.
        5    1    3    3  502    0 -0.11757735665E+04 -0.23547824758E+03  0.19433747312E+04  0.22835544488E+04  0.46999998093E+01 0. -1.
       -5    1    3    3    0  502  0.11757735665E+04  0.23547824758E+03 -0.13103050027E+04  0.17761798261E+04  0.46999998093E+01 0.  1.
</event>
<event>
 5   0  0.1095109E-07  0.3995750E+04  0.7818609E-02  0.8005404E-01
        2   -1    0    0  501    0  0.00000000000E+00  0.00000000000E+00  0.21174338697E+04  0.21174338697E+04  0.25500000920E-02 0.  1.
       -2   -1    0    0    0  501  0.00000000000E+00  0.00000000000E+00 -0.18850673749E+04  0.18850673749E+04  0.25500000920E-02 0. -1.
    10030    2    1    2    0    0  0.00000000000E+00  0.00000000000E+00  0.23236649484E+03  0.40025012446E+04  0.39957504958E+04 0.  0.
        4    1    3    3  502    0 -0.19714016905E+04 -0.31823308537E+03  0.54378345241E+02  0.19976625188E+04  0.12699999809E+01 0. -1.
       -4    1    3    3    0  502  0.19714016905E+04  0.31823308537E+03  0.17798814960E+03  0.20048387257E+04  0.12699999809E+01 0.  1.
</event>
<event>
 5   0  0.3399500E-08  0.3963187E+04  0.7818609E-02  0.8012014E-01
       -1   -1    0    0    0  501  0.00000000000E+00  0.00000000000E+00  0.17961719653E+04  0.17961719653E+04  0.50400001928E-02 0.  1.
        1   -1    0    0  501    0  0.00000000000E+00  0.00000000000E+00 -0.21861561068E+04  0.21861561068E+04  0.50400001928E-02 0. -1.
    10030    2    1    2    0    0  0.00000000000E+00  0.00000000000E+00 -0.38998414145E+03  0.39823280721E+04  0.39631867535E+04 0.  0.
        3    1    3    3  502    0  0.68520568170E+03  0.11202600372E+04  0.12961641240E+04  0.18451370745E+04  0.10100000352E+00 0.  1.
       -3    1    3    3    0  502 -0.68520568170E+03 -0.11202600372E+04 -0.16861482654E+04  0.21371909976E+04  0.10100000352E+00 0. -1.
</event>
<event>
 5   0  0.3399500E-08  0.4002518E+04  0.7818609E-02  0.8004039E-01
        1   -1    0    0  501    0  0.00000000000E+00  0.00000000000E+00  0.22844736853E+04  0.22844736853E+04  0.50400001928E-02 0. -1.
       -1   -1    0    0    0  501  0.00000000000E+00  0.00000000000E+00 -0.17531556160E+04  0.17531556160E+04  0.50400001928E-02 0.  1.
    10030    2    1    2    0    0  0.00000000000E+00  0.00000000000E+00  0.53131806929E+03  0.40376293014E+04  0.40025181429E+04 0.  0.
        4    1    3    3  502    0 -0.71723031257E+03  0.11355163780E+03 -0.16155654635E+04  0.17712613233E+04  0.12699999809E+01 0.  1.
       -4    1    3    3    0  502  0.71723031257E+03 -0.11355163780E+03  0.21468835328E+04  0.22663679781E+04  0.12699999809E+01 0. -1.
</event>
<event>
 5   0  0.3399500E-08  0.3998701E+04  0.7818609E-02  0.8004809E-01
       -1   -1    0    0    0  501  0.00000000000E+00  0.00000000000E+00  0.26206953136E+04  0.26206953136E+04  0.50400001928E-02 0. -1.
        1   -1    0    0  501    0  0.00000000000E+00  0.00000000000E+00 -0.15253214158E+04  0.15253214158E+04  0.50400001928E-02 0.  1.
    10030    2    1    2    0    0  0.00000000000E+00  0.00000000000E+00  0.10953738978E+04  0.41460167294E+04  0.39987011322E+04 0.  0.
        4    1    3    3  502    0  0.15981923265E+04 -0.11825078392E+04  0.76728575860E+03  0.21310261731E+04  0.12699999809E+01 0.  1.
       -4    1    3    3    0  502 -0.15981923265E+04  0.11825078392E+04  0.32808813917E+03  0.20149905563E+04  0.12699999809E+01 0. -1.
</event>
<event>
 5   0  0.3399500E-08  0.3978446E+04  0.7818609E-02  0.8008909E-01
        1   -1    0    0  501    0  0.00000000000E+00  0.00000000000E+00  0.25201096063E+04  0.25201096063E+04  0.50400001928E-02 0.  1.
       -1   -1    0    0    0  501  0.00000000000E+00  0.00000000000E+00 -0.15701731407E+04  0.15701731407E+04  0.50400001928E-02 0. -1.
    10030    2    1    2    0    0  0.00000000000E+00  0.00000000000E+00  0.94993646559E+03  0.40902827471E+04  0.39784461366E+04 0.  0.
        4    1    3    3  502    0 -0.17004466548E+04  0.14397619242E+03 -0.57589905566E+03  0.18010855907E+04  0.12699999809E+01 0. -1.
       -4    1    3    3    0  502  0.17004466548E+04 -0.14397619242E+03  0.15258355213E+04  0.22891971563E+04  0.12699999809E+01 0.  1.
</event>
<event>
 5   0  0.3399500E-08  0.3988588E+04  0.7818609E-02  0.8006853E-01
       -1   -1    0    0    0  501  0.00000000000E+00  0.00000000000E+00  0.19883334263E+04  0.19883334263E+04  0.50400001928E-02 0. -1.
        1   -1    0    0  501    0  0.00000000000E+00  0.00000000000E+00 -0.20002729140E+04  0.20002729140E+04  0.50400001928E-02 0.  1.
    10030    2    1    2    0    0  0.00000000000E+00  0.00000000000E+00 -0.11939487732E+02  0.39886063403E+04  0.39885884704E+04 0.  0.
        1    1    3    3  502    0 -0.62483834676E+02  0.88862986323E+03 -0.17902541271E+04  0.19996442441E+04  0.50400001928E-02 0.  1.
       -1    1    3    3    0  502  0.62483834676E+02 -0.88862986323E+03  0.17783146394E+04  0.19889620962E+04  0.50400001928E-02 0. -1.
</event>
<event>
 5   0  0.3399500E-08  0.4104911E+04  0.7818609E-02  0.7983711E-01
       -1   -1    0    0    0  501  0.00000000000E+00  0.00000000000E+00  0.21769296268E+04  0.21769296268E+04  0.50400001928E-02 0.  1.
        1   -1    0    0  501    0  0.00000000000E+00  0.00000000000E+00 -0.19350990568E+04  0.19350990568E+04  0.50400001928E-02 0. -1.
    10030    2    1    2    0    0  0.00000000000E+00  0.00000000000E+00  0.24183057003E+03  0.41120286835E+04  0.41049114326E+04 0.  0.
        5    1    3    3  502    0 -0.17113061873E+03  0.59859186886E+03 -0.18382247467E+04  0.19407962859E+04  0.46999998093E+01 0. -1.
       -5    1    3    3    0  502  0.17113061873E+03 -0.59859186886E+03  0.20800553167E+04  0.21712323976E+04  0.46999998093E+01 0.  1.
</event>
<event>
 5   0  0.1095109E-07  0.3982738E+04  0.7818609E-02  0.8008038E-01
       -2   -1    0    0    0  501  0.00000000000E+00  0.00000000000E+00  0.25483744935E+04  0.25483744935E+04  0.25500000920E-02 0.  1.
        2   -1    0    0  501    0  0.00000000000E+00  0.00000000000E+00 -0.15561096924E+04  0.15561096924E+04  0.25500000920E-02 0. -1.
    10030    2    1    2    0    0  0.00000000000E+00  0.00000000000E+00  0.99226480111E+03  0.41044841859E+04  0.39827378769E+04 0.  0.
        4    1    3    3  502    0  0.88304404500E+03 -0.29124567004E+03  0.23109157716E+04  0.24909685149E+04  0.12699999809E+01 0.  1.
       -4    1    3    3    0  502 -0.88304404500E+03  0.29124567004E+03 -0.13186509705E+04  0.16135156710E+04  0.12699999809E+01 0. -1.
</event>
<event>
 5   0  0.3399500E-08  0.4001182E+04  0.7818609E-02  0.8004308E-01
       -3   -1    0    0    0  501  0.00000000000E+00  0.00000000000E+00  0.21427760614E+04  0.21427760638E+04  0.10100000352E+00 0.  1.
        3   -1    0    0  501    0  0.00000000000E+00  0.00000000000E+00 -0.18678404949E+04  0.18678404976E+04  0.10100000352E+00 0. -1.
    10030    2    1    2    0    0  0.00000000000E+00  0.00000000000E+00  0.27493556650E+03  0.40106165614E+04  0.40011817800E+04 0.  0.
        5    1    3    3  502    0  0.17970653937E+03 -0.19905148664E+04  0.48387840307E+02  0.19992016773E+04  0.46999998093E+01 0.  1.
       -5    1    3    3    0  502 -0.17970653937E+03  0.19905148664E+04  0.22654772619E+03  0.20114148840E+04  0.46999998093E+01 0. -1.
</event>
<event>
 5   0  0.1095109E-07  0.3898143E+04  0.7818609E-02  0.8025416E-01
        2   -1    0    0  501    0  0.00000000000E+00  0.00000000000E+00  0.18551182330E+04  0.18551182330E+04  0.25500000920E-02 0.  1.
       -2   -1    0    0    0  501  0.00000000000E+00  0.00000000000E+00 -0.20477829452E+04  0.20477829452E+04  0.25500000920E-02 0. -1.
    10030    2    1    2    0    0  0.00000000000E+00  0.00000000000E+00 -0.19266471216E+03  0.39029011783E+04  0.38981428804E+04 0.  0.
        4    1    3    3  502    0  0.34442098435E+03  0.48798308567E+03  0.17612286792E+04  0.18597530427E+04  0.12699999809E+01 0.  1.
       -4    1    3    3    0  502 -0.34442098435E+03 -0.48798308567E+03 -0.19538933913E+04  0.20431481356E+04  0.12699999809E+01 0. -1.
</event>
<event>
 5   0  0.3399500E-08  0.3985728E+04  0.7818609E-02  0.8007432E-01
        1   -1    0    0  501    0  0.00000000000E+00  0.00000000000E+00  0.23468610419E+04  0.23468610419E+04  0.50400001928E-02 0.  1.
       -1   -1    0    0    0  501  0.00000000000E+00  0.00000000000E+00 -0.16922636732E+04  0.16922636732E+04  0.50400001928E-02 0. -1.
    10030    2    1    2    0    0  0.00000000000E+00  0.00000000000E+00  0.65459736874E+03  0.40391247151E+04  0.39857283837E+04 0.  0.
        1    1    3    3  502    0 -0.82702258805E+03 -0.14592792042E+04  0.14178406459E+04  0.21963001285E+04  0.50400001928E-02 0.  1.
       -1    1    3    3    0  502  0.82702258805E+03  0.14592792042E+04 -0.76324327718E+03  0.18428245867E+04  0.50400001928E-02 0. -1.
</event>
<event>
 5   0  0.1073271E-07  0.3991537E+04  0.7818609E-02  0.8006256E-01
       -2   -1    0    0    0  501  0.00000000000E+00  0.00000000000E+00  0.16423272569E+04  0.16423272569E+04  0.25500000920E-02 0. -1.
        2   -1    0    0  501    0  0.00000000000E+00  0.00000000000E+00 -0.24252734513E+04  0.24252734513E+04  0.25500000920E-02 0.  1.
    10030    2    1    2    0    0  0.00000000000E+00  0.00000000000E+00 -0.78294619440E+03  0.40676007082E+04  0.39915373953E+04 0.  0.
        1    1    3    3  502    0  0.30700494928E+03 -0.40242368003E+03  0.15758321003E+04  0.16551264802E+04  0.50400001928E-02 0. -1.
       -1    1    3    3    0  502 -0.30700494928E+03  0.40242368003E+03 -0.23587782947E+04  0.24124742280E+04  0.50400001928E-02 0.  1.
</event>
<event>
 5   0  0.3399500E-08  0.4007866E+04  0.7818609E-02  0.8002962E-01
       -1   -1    0    0    0  501  0.00000000000E+00  0.00000000000E+00  0.25169510892E+04  0.25169510892E+04  0.50400001928E-02 0.  1.
        1   -1    0    0  501    0  0.00000000000E+00  0.00000000000E+00 -0.15954813150E+04  0.15954813150E+04  0.50400001928E-02 0. -1.
    10030    2    1    2    0    0  0.00000000000E+00  0.00000000000E+00  0.92146977420E+03  0.41124324042E+04  0.40078664816E+04 0.  0.
        3    1    3    3  502    0 -0.87629080179E+03  0.91032111122E+03  0.20566855786E+04  0.24138197269E+04  0.10100000352E+00 0. -1.
       -3    1    3    3    0  502  0.87629080179E+03 -0.91032111122E+03 -0.11352158044E+04  0.16986126773E+04  0.10100000352E+00 0.  1.
</event>
<event>
 5   0  0.1087688E-07  0.4012900E+04  0.7818609E-02  0.8001949E-01
        2   -1    0    0  501    0  0.00000000000E+00  0.00000000000E+00  0.26773510799E+04  0.26773510799E+04  0.25500000920E-02 0.  1.
       -2   -1    0    0    0  501  0.00000000000E+00  0.00000000000E+00 -0.15036661981E+04  0.15036661981E+04  0.25500000920E-02 0. -1.
    10030    2    1    2    0    0  0.00000000000E+00  0.00000000000E+00  0.11736848818E+04  0.41810172779E+04  0.40129003572E+04 0.  0.
        2    1    3    3  502    0 -0.51781292384E+03 -0.10746997738E+04  0.22677288010E+04  0.25623629217E+04  0.25500000920E-02 0.  1.
       -2    1    3    3    0  502  0.51781292384E+03  0.10746997738E+04 -0.10940439191E+04  0.16186543562E+04  0.25500000920E-02 0. -1.
</event>
<event>
 5   0  0.3399500E-08  0.3974982E+04  0.7818609E-02  0.8009613E-01
       -1   -1    0    0    0  501  0.00000000000E+00  0.00000000000E+00  0.17955404431E+04  0.17955404431E+04  0.50400001928E-02 0. -1.
        1   -1    0    0  501    0  0.00000000000E+00  0.00000000000E+00 -0.21999615719E+04  0.21999615719E+04  0.50400001928E-02 0.  1.
    10030    2    1    2    0    0  0.00000000000E+00  0.00000000000E+00 -0.40442112882E+03  0.39955020150E+04  0.39749817487E+04 0.  0.
        1    1    3    3  502    0  0.14074044772E+04 -0.96138296457E+03  0.82535615353E+03  0.18937416263E+04  0.50400001928E-02 0. -1.
       -1    1    3    3    0  502 -0.14074044772E+04  0.96138296457E+03 -0.12297772823E+04  0.21017603886E+04  0.50400001928E-02 0.  1.
</event>
<event>
 5   0  0.3399500E-08  0.4011051E+04  0.7818609E-02  0.8002321E-01
       -1   -1    0    0    0  501  0.00000000000E+00  0.00000000000E+00  0.20014959856E+04  0.20014959856E+04  0.50400001928E-02 0.  1.
        1   -1    0    0  501    0  0.00000000000E+00  0.00000000000E+00 -0.20095628581E+04  0.20095628581E+04  0.50400001928E-02 0. -1.
    10030    2    1    2    0    0  0.00000000000E+00  0.00000000000E+00 -0.80668724355E+01  0.40110588437E+04  0.40110507318E+04 0.  0.
        5    1    3    3  502    0 -0.14549036981E+04 -0.96724955048E+03  0.98074946486E+03  0.20035488680E+04  0.46999998093E+01 0.  1.
       -5    1    3    3    0  502  0.14549036981E+04  0.96724955048E+03 -0.98881633729E+03  0.20075099757E+04  0.46999998093E+01 0. -1.
</event>
<event>
 5   0  0.3399500E-08  0.4005238E+04  0.7818609E-02  0.8003491E-01
       -1   -1    0    0    0  501  0.00000000000E+00  0.00000000000E+00  0.22068808298E+04  0.22068808298E+04  0.50400001928E-02 0.  1.
        1   -1    0    0  501    0  0.00000000000E+00  0.00000000000E+00 -0.18172633626E+04  0.18172633626E+04  0.50400001928E-02 0. -1.
    10030    2    1    2    0    0  0.00000000000E+00  0.00000000000E+00  0.38961746718E+03  0.40241441925E+04  0.40052384088E+04 0.  0.
        1    1    3    3  502    0 -0.16841784603E+04  0.90804965271E+03 -0.39914363034E+03  0.19545656540E+04  0.50400001928E-02 0. -1.
       -1    1    3    3    0  502  0.16841784603E+04 -0.90804965271E+03  0.78876109752E+03  0.20695785385E+04  0.50400001928E-02 0.  1.
</event>
<event>
 5   0  0.1101474E-07  0.3546653E+04  0.7818609E-02  0.8102822E-01
        2   -1    0    0  501    0  0.00000000000E+00  0.00000000000E+00  0.18311773390E+04  0.18311773390E+04  0.25500000920E-02 0.  1.
       -2   -1    0    0    0  501  0.00000000000E+00  0.00000000000E+00 -0.17173033146E+04  0.17173033146E+04  0.25500000920E-02 0. -1.
    10030    2    1    2    0    0  0.00000000000E+00  0.00000000000E+00  0.11387402442E+03  0.35484806536E+04  0.35466530216E+04 0.  0.
        5    1    3    3  502    0  0.55436573644E+03 -0.11470955428E+04  0.12910698184E+04  0.18138447894E+04  0.46999998093E+01 0.  1.
       -5    1    3    3    0  502 -0.55436573644E+03  0.11470955428E+04 -0.11771957940E+04  0.17346358642E+04  0.46999998093E+01 0. -1.
</event>
<event>
 5   0  0.1095903E-07  0.4002041E+04  0.7818609E-02  0.8004135E-01
        2   -1    0    0  501    0  0.00000000000E+00  0.00000000000E+00  0.15250896885E+04  0.15250896885E+04  0.25500000920E-02 0.  1.
       -2   -1    0    0    0  501  0.00000000000E+00  0.00000000000E+00 -0.26254731857E+04  0.26254731857E+04  0.25500000920E-02 0. -1.
    10030    2    1    2    0    0  0.00000000000E+00  0.00000000000E+00 -0.11003834972E+04  0.41505628742E+04  0.40020405210E+04 0.  0.
        3    1    3    3  502    0 -0.14842678146E+04  0.43517133157E+03  0.76643244212E+03  0.17262223877E+04  0.10100000352E+00 0.  1.
       -3    1    3    3    0  502  0.14842678146E+04 -0.43517133157E+03 -0.18668159393E+04  0.24243404865E+04  0.10100000352E+00 0. -1.
</event>
<event>
 5   0  0.1073271E-07  0.4055929E+04  0.7818609E-02  0.7993358E-01
       -2   -1    0    0    0  501  0.00000000000E+00  0.00000000000E+00  0.28170544380E+04  0.28170544380E+04  0.25500000920E-02 0.  1.
        2   -1    0    0  501    0  0.00000000000E+00  0.00000000000E+00 -0.14599075640E+04  0.14599075640E+04  0.25500000920E-02 0. -1.
    10030    2    1    2    0    0  0.00000000000E+00  0.00000000000E+00  0.13571468741E+04  0.42769620020E+04  0.40559285409E+04 0.  0.
        1    1    3    3  502    0  0.12546573774E+04 -0.20678627325E+03 -0.98730171801E+03  0.16098727837E+04  0.50400001928E-02 0. -1.
       -1    1    3    3    0  502 -0.12546573774E+04  0.20678627325E+03  0.23444485921E+04  0.26670892183E+04  0.50400001928E-02 0.  1.
</event>
<event>
 5   0  0.3399500E-08  0.4012159E+04  0.7818609E-02  0.8002098E-01
        1   -1    0    0  501    0  0.00000000000E+00  0.00000000000E+00  0.25052139835E+04  0.25052139835E+04  0.50400001928E-02 0.  1.
       -1   -1    0    0    0  501  0.00000000000E+00  0.00000000000E+00 -0.16063920568E+04  0.16063920568E+04  0.50400001928E-02 0. -1.
    10030    2    1    2    0    0  0.00000000000E+00  0.00000000000E+00  0.89882192666E+03  0.41116060403E+04  0.40121594403E+04 0.  0.
        2    1    3    3  502    0 -0.31272931844E+03  0.16436324440E+04 -0.68483287120E+03  0.18078504637E+04  0.25500000920E-02 0. -1.
       -2    1    3    3    0  502  0.31272931844E+03 -0.16436324440E+04  0.15836547979E+04  0.23037555766E+04  0.25500000920E-02 0.  1.
</event>
<event>
 5   0  0.3399500E-08  0.4005171E+04  0.7818609E-02  0.8003504E-01
       -1   -1    0    0    0  501  0.00000000000E+00  0.00000000000E+00  0.23659127016E+04  0.23659127016E+04  0.50400001928E-02 0. -1.
        1   -1    0    0  501    0  0.00000000000E+00  0.00000000000E+00 -0.16950533650E+04  0.16950533650E+04  0.50400001928E-02 0.  1.
    10030    2    1    2    0    0  0.00000000000E+00  0.00000000000E+00  0.67085933662E+03  0.40609660665E+04  0.40051708009E+04 0.  0.
        1    1    3    3  502    0  0.52607850651E+03  0.13349426982E+04 -0.10809985318E+04  0.17964933699E+04  0.50400001928E-02 0.  1.
       -1    1    3    3    0  502 -0.52607850651E+03 -0.13349426982E+04  0.17518578685E+04  0.22644726966E+04  0.50400001928E-02 0. -1.
</event>
<event>
 5   0  0.1101474E-07  0.3939355E+04  0.7818609E-02  0.8016894E-01
        2   -1    0    0  501    0  0.00000000000E+00  0.00000000000E+00  0.22197825368E+04  0.22197825368E+04  0.25500000920E-02 0.  1.
       -2   -1    0    0    0  501  0.00000000000E+00  0.00000000000E+00 -0.17477516802E+04  0.17477516802E+04  0.25500000920E-02 0. -1.
    10030    2    1    2    0    0  0.00000000000E+00  0.00000000000E+00  0.47203085659E+03  0.39675342169E+04  0.39393545960E+04 0.  0.
        5    1    3    3  502    0  0.12807681857E+04  0.14529143585E+04 -0.12470760864E+03  0.19408506786E+04  0.46999998093E+01 0.  1.
       -5    1    3    3    0  502 -0.12807681857E+04 -0.14529143585E+04  0.59673846523E+03  0.20266835384E+04  0.46999998093E+01 0. -1.
</event>
<event>
 5   0  0.3399500E-08  0.4000978E+04  0.7818609E-02  0.8004349E-01
       -1   -1    0    0    0  501  0.00000000000E+00  0.00000000000E+00  0.17003056493E+04  0.17003056493E+04  0.50400001928E-02 0.  1.
        1   -1    0    0  501    0  0.00000000000E+00  0.00000000000E+00 -0.23536686345E+04  0.23536686345E+04  0.50400001928E-02 0. -1.
    10030    2    1    2    0    0  0.00000000000E+00  0.00000000000E+00 -0.65336298522E+03  0.40539742838E+04  0.40009779184E+04 0.  0.
        5    1    3    3  502    0  0.11361790250E+04 -0.26796640567E+03 -0.19727695376E+04  0.22922806351E+04  0.46999998093E+01 0. -1.
       -5    1    3    3    0  502 -0.11361790250E+04  0.26796640567E+03  0.13194065524E+04  0.17616936487E+04  0.46999998093E+01 0.  1.
</event>
<event>
 5   0  0.3399500E-08  0.3893715E+04  0.7818609E-02  0.8026338E-01
        1   -1    0    0  501    0  0.00000000000E+00  0.00000000000E+00  0.26077949001E+04  0.26077949001E+04  0.50400001928E-02 0. -1.
       -1   -1    0    0    0  501  0.00000000000E+00  0.00000000000E+00 -0.14534322303E+04  0.14534322303E+04  0.50400001928E-02 0.  1.
    10030    2    1    2    0    0  0.00000000000E+00  0.00000000000E+00  0.11543626697E+04  0.40612271304E+04  0.38937145031E+04 0.  0.
        4    1    3    3  502    0 -0.16001328857E+04 -0.41548826622E+03  0.16496161079E+04  0.23354422852E+04  0.12699999809E+01 0. -1.
       -4    1    3    3    0  502  0.16001328857E+04  0.41548826622E+03 -0.49525343817E+03  0.17257848452E+04  0.12699999809E+01 0.  1.
</event>
<event>
 5   0  0.1101474E-07  0.4016657E+04  0.7818609E-02  0.8001195E-01
        2   -1    0    0  501    0  0.00000000000E+00  0.00000000000E+00  0.20958569018E+04  0.20958569018E+04  0.25500000920E-02 0. -1.
       -2   -1    0    0    0  501  0.00000000000E+00  0.00000000000E+00 -0.19244551509E+04  0.19244551509E+04  0.25500000920E-02 0.  1.
    10030    2    1    2    0    0  0.00000000000E+00  0.00000000000E+00  0.17140175090E+03  0.40203120527E+04  0.40166566247E+04 0.  0.
        5    1    3    3  502    0  0.97494279505E+03 -0.61328731929E+03  0.17324111043E+04  0.20803617747E+04  0.46999998093E+01 0. -1.
       -5    1    3    3    0  502 -0.97494279505E+03  0.61328731929E+03 -0.15610093534E+04  0.19399502780E+04  0.46999998093E+01 0.  1.
</event>
<event>
 5   0  0.1101474E-07  0.3976094E+04  0.7818609E-02  0.8009386E-01
        2   -1    0    0  501    0  0.00000000000E+00  0.00000000000E+00  0.12607491737E+04  0.12607491737E+04  0.25500000920E-02 0.  1.
       -2   -1    0    0    0  501  0.00000000000E+00  0.00000000000E+00 -0.31349072859E+04  0.31349072859E+04  0.25500000920E-02 0. -1.
    10030    2    1    2    0    0  0.00000000000E+00  0.00000000000E+00 -0.18741581122E+04  0.43956564596E+04  0.39760944507E+04 0.  0.
        5    1    3    3  502    0 -0.13646163044E+04  0.13893659983E+04 -0.13790029479E+04  0.23862495167E+04  0.46999998093E+01 0. -1.
       -5    1    3    3    0  502  0.13646163044E+04 -0.13893659983E+04 -0.49515516429E+03  0.20094069429E+04  0.46999998093E+01 0.  1.
</event>
<event>
 5   0  0.1095109E-07  0.3811181E+04  0.7818609E-02  0.8043760E-01
       -2   -1    0    0    0  501  0.00000000000E+00  0.00000000000E+00  0.24611866419E+04  0.24611866419E+04  0.25500000920E-02 0. -1.
        2   -1    0    0  501    0  0.00000000000E+00  0.00000000000E+00 -0.14754162252E+04  0.14754162252E+04  0.25500000920E-02 0.  1.
    10030    2    1    2    0    0  0.00000000000E+00  0.00000000000E+00  0.98577041667E+03  0.39366028671E+04  0.38111807644E+04 0.  0.
        4    1    3    3  502    0  0.46689960194E+03 -0.31100477662E+03 -0.13881875123E+04  0.14972592934E+04  0.12699999809E+01 0.  1.
       -4    1    3    3    0  502 -0.46689960194E+03  0.31100477662E+03  0.23739579290E+04  0.24393435737E+04  0.12699999809E+01 0. -1.
</event>
<event>
 5   0  0.1073271E-07  0.3963948E+04  0.7818609E-02  0.8011859E-01
       -2   -1    0    0    0  501  0.00000000000E+00  0.00000000000E+00  0.15971754583E+04  0.15971754583E+04  0.25500000920E-02 0.  1.
        2   -1    0    0  501    0  0.00000000000E+00  0.00000000000E+00 -0.24594793611E+04  0.24594793611E+04  0.25500000920E-02 0. -1.
    10030    2    1    2    0    0  0.00000000000E+00  0.00000000000E+00 -0.86230390283E+03  0.40566548194E+04  0.39639475656E+04 0.  0.
        1    1    3    3  502    0  0.11901770998E+04 -0.14532398681E+04  0.21592724687E+03  0.18907808491E+04  0.50400001928E-02 0.  1.
       -1    1    3    3    0  502 -0.11901770998E+04  0.14532398681E+04 -0.10782311497E+04  0.21658739703E+04  0.50400001928E-02 0. -1.
</event>
<event>
 5   0  0.1073271E-07  0.3978349E+04  0.7818609E-02  0.8008928E-01
       -2   -1    0    0    0  501  0.00000000000E+00  0.00000000000E+00  0.23169002483E+04  0.23169002483E+04  0.25500000920E-02 0.  1.
        2   -1    0    0  501    0  0.00000000000E+00  0.00000000000E+00 -0.17078057669E+04  0.17078057669E+04  0.25500000920E-02 0. -1.
    10030    2    1    2    0    0  0.00000000000E+00  0.00000000000E+00  0.60909448140E+03  0.40247060153E+04  0.39783492082E+04 0.  0.
        1    1    3    3  502    0 -0.19805384807E+04 -0.83717279956E+02  0.13747339977E+03  0.19870682405E+04  0.50400001928E-02 0.  1.
       -1    1    3    3    0  502  0.19805384807E+04  0.83717279956E+02  0.47162108163E+03  0.20376377748E+04  0.50400001928E-02 0. -1.
</event>
<event>
 5   0  0.3399500E-08  0.4010729E+04  0.7818609E-02  0.8002386E-01
       -1   -1    0    0    0  501  0.00000000000E+00  0.00000000000E+00  0.18143240319E+04  0.18143240320E+04  0.50400001928E-02 0.  1.
        1   -1    0    0  501    0  0.00000000000E+00  0.00000000000E+00 -0.22165204597E+04  0.22165204597E+04  0.50400001928E-02 0. -1.
    10030    2    1    2    0    0  0.00000000000E+00  0.00000000000E+00 -0.40219642773E+03  0.40308444916E+04  0.40107287803E+04 0.  0.
        2    1    3    3  502    0 -0.11718833757E+04 -0.43964273367E+03 -0.17757653503E+04  0.21725420500E+04  0.25500000920E-02 0. -1.
       -2    1    3    3    0  502  0.11718833757E+04  0.43964273367E+03  0.13735689226E+04  0.18583024417E+04  0.25500000920E-02 0.  1.
</event>
<event>
 5   0  0.1073271E-07  0.3852928E+04  0.7818609E-02  0.8034891E-01
        2   -1    0    0  501    0  0.00000000000E+00  0.00000000000E+00  0.11700461463E+04  0.11700461463E+04  0.25500000920E-02 0.  1.
       -2   -1    0    0    0  501  0.00000000000E+00  0.00000000000E+00 -0.31718949304E+04  0.31718949304E+04  0.25500000920E-02 0. -1.
    10030    2    1    2    0    0  0.00000000000E+00  0.00000000000E+00 -0.20018487841E+04  0.43419410768E+04  0.38529279463E+04 0.  0.
        1    1    3    3  502    0  0.23477728422E+03  0.14741072552E+04  0.37149138851E+03  0.15382192382E+04  0.50400001928E-02 0.  1.
       -1    1    3    3    0  502 -0.23477728422E+03 -0.14741072552E+04 -0.23733401726E+04  0.28037218385E+04  0.50400001928E-02 0. -1.
</event>
<event>
 5   0  0.3399500E-08  0.3981875E+04  0.7818609E-02  0.8008213E-01
        1   -1    0    0  501    0  0.00000000000E+00  0.00000000000E+00  0.15078208414E+04  0.15078208414E+04  0.50400001928E-02 0.  1.
       -1   -1    0    0    0  501  0.00000000000E+00  0.00000000000E+00 -0.26288475810E+04  0.26288475810E+04  0.50400001928E-02 0. -1.
    10030    2    1    2    0    0  0.00000000000E+00  0.00000000000E+00 -0.11210267396E+04  0.41366684224E+04  0.39818745191E+04 0.  0.
        5    1    3    3  502    0 -0.10672944616E+04  0.14326937670E+04 -0.14733527009E+04  0.23157113743E+04  0.46999998093E+01 0. -1.
       -5    1    3    3    0  502  0.10672944616E+04 -0.14326937670E+04  0.35232596133E+03  0.18209570480E+04  0.46999998093E+01 0.  1.
</event>
<event>
 5   0  0.3399500E-08  0.4230781E+04  0.7818609E-02  0.7959543E-01
        1   -1    0    0  501    0  0.00000000000E+00  0.00000000000E+00  0.18559759731E+04  0.18559759731E+04  0.50400001928E-02 0. -1.
       -1   -1    0    0    0  501  0.00000000000E+00  0.00000000000E+00 -0.24110636124E+04  0.24110636124E+04  0.50400001928E-02 0.  1.
    10030    2    1    2    0    0  0.00000000000E+00  0.00000000000E+00 -0.55508763928E+03  0.42670395855E+04  0.42307806061E+04 0.  0.
        5    1    3    3  502    0 -0.11377791291E+04  0.11365829341E+04  0.11084577873E+04  0.19532185922E+04  0.46999998093E+01 0. -1.
       -5    1    3    3    0  502  0.11377791291E+04 -0.11365829341E+04 -0.16635454266E+04  0.23138209933E+04  0.46999998093E+01 0.  1.
</event>
<event>
 5   0  0.1095109E-07  0.3898316E+04  0.7818609E-02  0.8025380E-01
        2   -1    0    0  501    0  0.00000000000E+00  0.00000000000E+00  0.19810323563E+04  0.19810323563E+04  0.25500000920E-02 0. -1.
       -2   -1    0    0    0  501  0.00000000000E+00  0.00000000000E+00 -0.19177964915E+04  0.19177964915E+04  0.25500000920E-02 0.  1.
    10030    2    1    2    0    0  0.00000000000E+00  0.00000000000E+00  0.63235864786E+02  0.38988288478E+04  0.38983159967E+04 0.  0.
        4    1    3    3  502    0  0.21850619773E+03  0.46430526555E+03 -0.18490259350E+04  0.19189118946E+04  0.12699999809E+01 0.  1.
       -4    1    3    3    0  502 -0.21850619773E+03 -0.46430526555E+03  0.19122617998E+04  0.19799169533E+04  0.12699999809E+01 0. -1.
</event>
<event>
 5   0  0.3399500E-08  0.4015969E+04  0.7818609E-02  0.8001333E-01
       -1   -1    0    0    0  501  0.00000000000E+00  0.00000000000E+00  0.29087403986E+04  0.29087403986E+04  0.50400001928E-02 0.  1.
        1   -1    0    0  501    0  0.00000000000E+00  0.00000000000E+00 -0.13861672901E+04  0.13861672901E+04  0.50400001928E-02 0. -1.
    10030    2    1    2    0    0  0.00000000000E+00  0.00000000000E+00  0.15225731085E+04  0.42949076887E+04  0.40159685238E+04 0.  0.
        1    1    3    3  502    0 -0.12138055692E+04  0.15481690501E+04  0.33103829823E+03  0.19949279993E+04  0.50400001928E-02 0. -1.
       -1    1    3    3    0  502  0.12138055692E+04 -0.15481690501E+04  0.11915348102E+04  0.22999796894E+04  0.50400001928E-02 0.  1.
</event>
<event>
 5   0  0.1095903E-07  0.4014940E+04  0.7818609E-02  0.8001540E-01
       -2   -1    0    0    0  501  0.00000000000E+00  0.00000000000E+00  0.14020909793E+04  0.14020909793E+04  0.25500000920E-02 0. -1.
        2   -1    0    0  501    0  0.00000000000E+00  0.00000000000E+00 -0.28742320463E+04  0.28742320463E+04  0.25500000920E-02 0.  1.
    10030    2    1    2    0    0  0.00000000000E+00  0.00000000000E+00 -0.14721410670E+04  0.42763230256E+04  0.40149395136E+04 0.  0.
        3    1    3    3  502    0  0.17064161126E+04 -0.47974318509E+03  0.26757353469E+03  0.17926530840E+04  0.10100000352E+00 0. -1.
       -3    1    3    3    0  502 -0.17064161126E+04  0.47974318509E+03 -0.17397146017E+04  0.24836699415E+04  0.10100000352E+00 0.  1.
</event>
<event>
 5   0  0.1095903E-07  0.4002624E+04  0.7818609E-02  0.8004017E-01
        2   -1    0    0  501    0  0.00000000000E+00  0.00000000000E+00  0.19446012618E+04  0.19446012618E+04  0.25500000920E-02 0.  1.
       -2   -1    0    0    0  501  0.00000000000E+00  0.00000000000E+00 -0.20596767724E+04  0.20596767724E+04  0.25500000920E-02 0. -1.
    10030    2    1    2    0    0  0.00000000000E+00  0.00000000000E+00 -0.11507551059E+03  0.40042780342E+04  0.40026241644E+04 0.  0.
        3    1    3    3  502    0 -0.72834565560E+03 -0.12313592317E+04 -0.14575862999E+04  0.20423738109E+04  0.10100000352E+00 0. -1.
       -3    1    3    3    0  502  0.72834565560E+03  0.12313592317E+04  0.13425107893E+04  0.19619042233E+04  0.10100000352E+00 0.  1.
</event>
<event>
 5   0  0.1095903E-07  0.3987521E+04  0.7818609E-02  0.8007069E-01
        2   -1    0    0  501    0  0.00000000000E+00  0.00000000000E+00  0.18013505639E+04  0.18013505639E+04  0.25500000920E-02 0.  1.
       -2   -1    0    0    0  501  0.00000000000E+00  0.00000000000E+00 -0.22067228642E+04  0.22067228642E+04  0.25500000920E-02 0. -1.
    10030    2    1    2    0    0  0.00000000000E+00  0.00000000000E+00 -0.40537230032E+03  0.40080734281E+04  0.39875212731E+04 0.  0.
        3    1    3    3  502    0  0.29658821621E+03  0.16074069444E+04 -0.13502181866E+04  0.21200968885E+04  0.10100000352E+00 0. -1.
       -3    1    3    3    0  502 -0.29658821621E+03 -0.16074069444E+04  0.94484588626E+03  0.18879765396E+04  0.10100000352E+00 0.  1.
</event>
<event>
 5   0  0.3399500E-08  0.3895699E+04  0.7818609E-02  0.8025924E-01
       -1   -1    0    0    0  501  0.00000000000E+00  0.00000000000E+00  0.18159143542E+04  0.18159143542E+04  0.50400001928E-02 0.  1.
        1   -1    0    0  501    0  0.00000000000E+00  0.00000000000E+00 -0.20893700439E+04  0.20893700439E+04  0.50400001928E-02 0. -1.
    10030    2    1    2    0    0  0.00000000000E+00  0.00000000000E+00 -0.27345568975E+03  0.39052843981E+04  0.38956986814E+04 0.  0.
        2    1    3    3  502    0 -0.47495395699E+03  0.14589290117E+04 -0.13397064208E+04  0.20368771235E+04  0.25500000920E-02 0. -1.
       -2    1    3    3    0  502  0.47495395699E+03 -0.14589290117E+04  0.10662507311E+04  0.18684072746E+04  0.25500000920E-02 0.  1.
</event>
<event>
 5   0  0.1101474E-07  0.3991324E+04  0.7818609E-02  0.8006299E-01
       -2   -1    0    0    0  501  0.00000000000E+00  0.00000000000E+00  0.22103187440E+04  0.22103187440E+04  0.25500000920E-02 0.  1.
        2   -1    0    0  501    0  0.00000000000E+00  0.00000000000E+00 -0.18018520201E+04  0.18018520201E+04  0.25500000920E-02 0. -1.
    10030    2    1    2    0    0  0.00000000000E+00  0.00000000000E+00  0.40846672390E+03  0.40121707640E+04  0.39913242383E+04 0.  0.
        5    1    3    3  502    0  0.81155371996E+03 -0.16907855458E+04  0.88990301046E+03  0.20758912929E+04  0.46999998093E+01 0.  1.
       -5    1    3    3    0  502 -0.81155371996E+03  0.16907855458E+04 -0.48143628656E+03  0.19362794711E+04  0.46999998093E+01 0. -1.
</event>
<event>
 5   0  0.1101474E-07  0.3980121E+04  0.7818609E-02  0.8008569E-01
        2   -1    0    0  501    0  0.00000000000E+00  0.00000000000E+00  0.22560518004E+04  0.22560518004E+04  0.25500000920E-02 0. -1.
       -2   -1    0    0    0  501  0.00000000000E+00  0.00000000000E+00 -0.17554301917E+04  0.17554301918E+04  0.25500000920E-02 0.  1.
    10030    2    1    2    0    0  0.00000000000E+00  0.00000000000E+00  0.50062160863E+03  0.40114819921E+04  0.39801213271E+04 0.  0.
        5    1    3    3  502    0 -0.15899440699E+04 -0.89718611236E+03 -0.54805068956E+03  0.19061077393E+04  0.46999998093E+01 0.  1.
       -5    1    3    3    0  502  0.15899440699E+04  0.89718611236E+03  0.10486722982E+04  0.21053742528E+04  0.46999998093E+01 0. -1.
</event>
<event>
 5   0  0.1095109E-07  0.3843220E+04  0.7818609E-02  0.8036943E-01
        2   -1    0    0  501    0  0.00000000000E+00  0.00000000000E+00  0.16010381704E+04  0.16010381704E+04  0.25500000920E-02 0.  1.
       -2   -1    0    0    0  501  0.00000000000E+00  0.00000000000E+00 -0.23063687818E+04  0.23063687818E+04  0.25500000920E-02 0. -1.
    10030    2    1    2    0    0  0.00000000000E+00  0.00000000000E+00 -0.70533061142E+03  0.39074069522E+04  0.38432197203E+04 0.  0.
        4    1    3    3  502    0  0.14743529233E+04 -0.12076636685E+03 -0.15996411163E+04  0.21787965421E+04  0.12699999809E+01 0. -1.
       -4    1    3    3    0  502 -0.14743529233E+04  0.12076636685E+03  0.89431050488E+03  0.17286104101E+04  0.12699999809E+01 0.  1.
</event>
<event>
 5   0  0.1095109E-07  0.4002637E+04  0.7818609E-02  0.8004015E-01
        2   -1    0    0  501    0  0.00000000000E+00  0.00000000000E+00  0.19494471734E+04  0.19494471734E+04  0.25500000920E-02 0. -1.
       -2   -1    0    0    0  501  0.00000000000E+00  0.00000000000E+00 -0.20545703433E+04  0.20545703433E+04  0.25500000920E-02 0.  1.
    10030    2    1    2    0    0  0.00000000000E+00  0.00000000000E+00 -0.10512316984E+03  0.40040175167E+04  0.40026373047E+04 0.  0.
        4    1    3    3  502    0 -0.34770021383E+03 -0.12538635742E+04 -0.15736797014E+04  0.20419448369E+04  0.12699999809E+01 0.  1.
       -4    1    3    3    0  502  0.34770021383E+03  0.12538635742E+04  0.14685565316E+04  0.19620726798E+04  0.12699999809E+01 0. -1.
</event>
<event>
 5   0  0.3399500E-08  0.4012319E+04  0.7818609E-02  0.8002066E-01
       -1   -1    0    0    0  501  0.00000000000E+00  0.00000000000E+00  0.27526907069E+04  0.27526907069E+04  0.50400001928E-02 0.  1.
        1   -1    0    0  501    0  0.00000000000E+00  0.00000000000E+00 -0.14620883021E+04  0.14620883021E+04  0.50400001928E-02 0. -1.
    10030    2    1    2    0    0  0.00000000000E+00  0.00000000000E+00  0.12906024048E+04  0.42147790090E+04  0.40123194697E+04 0.  0.
        4    1    3    3  502    0 -0.64041117594E+03  0.63693362438E+03  0.25270211232E+04  0.26835886954E+04  0.12699999809E+01 0.  1.
       -4    1    3    3    0  502  0.64041117594E+03 -0.63693362438E+03 -0.12364187184E+04  0.15311903136E+04  0.12699999809E+01 0. -1.
</event>
<event>
 5   0  0.1095903E-07  0.3994721E+04  0.7818609E-02  0.8005612E-01
        2   -1    0    0  501    0  0.00000000000E+00  0.00000000000E+00  0.14229796161E+04  0.14229796161E+04  0.25500000920E-02 0.  1.
       -2   -1    0    0    0  501  0.00000000000E+00  0.00000000000E+00 -0.28035876941E+04  0.28035876941E+04  0.25500000920E-02 0. -1.
    10030    2    1    2    0    0  0.00000000000E+00  0.00000000000E+00 -0.13806080780E+04  0.42265673101E+04  0.39947205862E+04 0.  0.
        3    1    3    3  502    0 -0.13155130944E+04 -0.14233141093E+04 -0.12010751023E+04  0.22801270067E+04  0.10100000352E+00 0. -1.
       -3    1    3    3    0  502  0.13155130944E+04  0.14233141093E+04 -0.17953297575E+03  0.19464403034E+04  0.10100000352E+00 0.  1.
</event>
<event>
 5   0  0.3399500E-08  0.3923773E+04  0.7818609E-02  0.8020103E-01
       -1   -1    0    0    0  501  0.00000000000E+00  0.00000000000E+00  0.13799123330E+04  0.13799123330E+04  0.50400001928E-02 0.  1.
        1   -1    0    0  501    0  0.00000000000E+00  0.00000000000E+00 -0.27893061560E+04  0.27893061560E+04  0.50400001928E-02 0. -1.
    10030    2    1    2    0    0  0.00000000000E+00  0.00000000000E+00 -0.14093938230E+04  0.41692184890E+04  0.39237726566E+04 0.  0.
        4    1    3    3  502    0 -0.74833833137E+03 -0.13064728298E+04 -0.20411995503E+04  0.25364105997E+04  0.12699999809E+01 0. -1.
       -4    1    3    3    0  502  0.74833833137E+03  0.13064728298E+04  0.63180572732E+03  0.16328078892E+04  0.12699999809E+01 0.  1.
</event>
<event>
 5   0  0.1073271E-07  0.4010567E+04  0.7818609E-02  0.8002418E-01
       -2   -1    0    0    0  501  0.00000000000E+00  0.00000000000E+00  0.17828341327E+04  0.17828341327E+04  0.25500000920E-02 0.  1.
        2   -1    0    0  501    0  0.00000000000E+00  0.00000000000E+00 -0.22554888267E+04  0.22554888267E+04  0.25500000920E-02 0. -1.
    10030    2    1    2    0    0  0.00000000000E+00  0.00000000000E+00 -0.47265469400E+03  0.40383229594E+04  0.40105672747E+04 0.  0.
        1    1    3    3  502    0 -0.47091293659E+03 -0.45311593185E+03  0.16726012396E+04  0.17957360464E+04  0.50400001928E-02 0.  1.
       -1    1    3    3    0  502  0.47091293659E+03  0.45311593185E+03 -0.21452559336E+04  0.22425869130E+04  0.50400001928E-02 0. -1.
</event>
<event>
 5   0  0.1087688E-07  0.3986886E+04  0.7818609E-02  0.8007197E-01
        2   -1    0    0  501    0  0.00000000000E+00  0.00000000000E+00  0.23199079928E+04  0.23199079929E+04  0.25500000920E-02 0.  1.
       -2   -1    0    0    0  501  0.00000000000E+00  0.00000000000E+00 -0.17129196457E+04  0.17129196457E+04  0.25500000920E-02 0. -1.
    10030    2    1    2    0    0  0.00000000000E+00  0.00000000000E+00  0.60698834715E+03  0.40328276385E+04  0.39868864931E+04 0.  0.
        2    1    3    3  502    0 -0.10652846511E+04  0.11439134672E+04 -0.94787333776E+03  0.18280681806E+04  0.25500000920E-02 0. -1.
       -2    1    3    3    0  502  0.10652846511E+04 -0.11439134672E+04  0.15548616849E+04  0.22047594580E+04  0.25500000920E-02 0.  1.
</event>
<event>
 5   0  0.3399500E-08  0.4004438E+04  0.7818609E-02  0.8003652E-01
       -1   -1    0    0    0  501  0.00000000000E+00  0.00000000000E+00  0.29446875977E+04  0.29446875977E+04  0.50400001928E-02 0.  1.
        1   -1    0    0  501    0  0.00000000000E+00  0.00000000000E+00 -0.13613946305E+04  0.13613946305E+04  0.50400001928E-02 0. -1.
    10030    2    1    2    0    0  0.00000000000E+00  0.00000000000E+00  0.15832929672E+04  0.43060822283E+04  0.40044384796E+04 0.  0.
        1    1    3    3  502    0 -0.97222674255E+03 -0.16922018621E+04  0.31061335871E+03  0.19761712071E+04  0.50400001928E-02 0.  1.
       -1    1    3    3    0  502  0.97222674255E+03  0.16922018621E+04  0.12726796085E+04  0.23299110212E+04  0.50400001928E-02 0. -1.
</event>
<event>
 5   0  0.3399500E-08  0.3995148E+04  0.7818609E-02  0.8005526E-01
        1   -1    0    0  501    0  0.00000000000E+00  0.00000000000E+00  0.35506208671E+04  0.35506208671E+04  0.50400001928E-02 0. -1.
       -1   -1    0    0    0  501  0.00000000000E+00  0.00000000000E+00 -0.11238323564E+04  0.11238323564E+04  0.50400001928E-02 0.  1.
    10030    2    1    2    0    0  0.00000000000E+00  0.00000000000E+00  0.24267885107E+04  0.46744532235E+04  0.39951483656E+04 0.  0.
        2    1    3    3  502    0  0.46244774091E+03  0.17190178847E+04  0.15296639814E+03  0.17866950272E+04  0.25500000920E-02 0.  1.
       -2    1    3    3    0  502 -0.46244774091E+03 -0.17190178847E+04  0.22738221125E+04  0.28877581963E+04  0.25500000920E-02 0. -1.
</event>
<event>
 5   0  0.1095109E-07  0.3983526E+04  0.7818609E-02  0.8007878E-01
       -2   -1    0    0    0  501  0.00000000000E+00  0.00000000000E+00  0.13660469414E+04  0.13660469414E+04  0.25500000920E-02 0.  1.
        2   -1    0    0  501    0  0.00000000000E+00  0.00000000000E+00 -0.29040872149E+04  0.29040872149E+04  0.25500000920E-02 0. -1.
    10030    2    1    2    0    0  0.00000000000E+00  0.00000000000E+00 -0.15380402736E+04  0.42701341563E+04  0.39835258038E+04 0.  0.
        4    1    3    3  502    0  0.11253354167E+04  0.16385110729E+04 -0.90469471381E+03  0.21839350893E+04  0.12699999809E+01 0. -1.
       -4    1    3    3    0  502 -0.11253354167E+04 -0.16385110729E+04 -0.63334555974E+03  0.20861990670E+04  0.12699999809E+01 0.  1.
</event>
<event>
 5   0  0.1095109E-07  0.3841260E+04  0.7818609E-02  0.8037358E-01
       -2   -1    0    0    0  501  0.00000000000E+00  0.00000000000E+00  0.20776363064E+04  0.20776363064E+04  0.25500000920E-02 0.  1.
        2   -1    0    0  501    0  0.00000000000E+00  0.00000000000E+00 -0.17754890470E+04  0.17754890470E+04  0.25500000920E-02 0. -1.
    10030    2    1    2    0    0  0.00000000000E+00  0.00000000000E+00  0.30214725940E+03  0.38531253534E+04  0.38412604732E+04 0.  0.
        4    1    3    3  502    0  0.19063997705E+04  0.28276343617E+02 -0.81286550863E+02  0.19083418857E+04  0.12699999809E+01 0. -1.
       -4    1    3    3    0  502 -0.19063997705E+04 -0.28276343617E+02  0.38343381026E+03  0.19447834677E+04  0.12699999809E+01 0.  1.
</event>
<event>
 5   0  0.3399500E-08  0.3989065E+04  0.7818609E-02  0.8006756E-01
       -1   -1    0    0    0  501  0.00000000000E+00  0.00000000000E+00  0.18000830822E+04  0.18000830822E+04  0.50400001928E-02 0.  1.
        1   -1    0    0  501    0  0.00000000000E+00  0.00000000000E+00 -0.22099869172E+04  0.22099869172E+04  0.50400001928E-02 0. -1.
    10030    2    1    2    0    0  0.00000000000E+00  0.00000000000E+00 -0.40990383493E+03  0.40100699994E+04  0.39890650842E+04 0.  0.
        4    1    3    3  502    0 -0.69485378972E+03  0.16267631472E+04 -0.11312038607E+04  0.20997151982E+04  0.12699999809E+01 0.  1.
       -4    1    3    3    0  502  0.69485378972E+03 -0.16267631472E+04  0.72130002581E+03  0.19103548012E+04  0.12699999809E+01 0. -1.
</event>
<event>
 5   0  0.3399500E-08  0.3966157E+04  0.7818609E-02  0.8011409E-01
        1   -1    0    0  501    0  0.00000000000E+00  0.00000000000E+00  0.15668335142E+04  0.15668335143E+04  0.50400001928E-02 0.  1.
       -1   -1    0    0    0  501  0.00000000000E+00  0.00000000000E+00 -0.25099029223E+04  0.25099029223E+04  0.50400001928E-02 0. -1.
    10030    2    1    2    0    0  0.00000000000E+00  0.00000000000E+00 -0.94306940809E+03  0.40767364366E+04  0.39661568382E+04 0.  0.
        2    1    3    3  502    0  0.10789582342E+04 -0.10532562071E+04  0.85243820587E+03  0.17320942249E+04  0.25500000920E-02 0.  1.
       -2    1    3    3    0  502 -0.10789582342E+04  0.10532562071E+04 -0.17955076140E+04  0.23446422117E+04  0.25500000920E-02 0. -1.
</event>
<event>
 5   0  0.1101474E-07  0.4001372E+04  0.7818609E-02  0.8004270E-01
        2   -1    0    0  501    0  0.00000000000E+00  0.00000000000E+00  0.12833234004E+04  0.12833234004E+04  0.25500000920E-02 0.  1.
       -2   -1    0    0    0  501  0.00000000000E+00  0.00000000000E+00 -0.31190452779E+04  0.31190452779E+04  0.25500000920E-02 0. -1.
    10030    2    1    2    0    0  0.00000000000E+00  0.00000000000E+00 -0.18357218775E+04  0.44023686784E+04  0.40013716609E+04 0.  0.
        5    1    3    3  502    0  0.10136536422E+04  0.12470342407E+03 -0.28106389434E+04  0.29904444503E+04  0.46999998093E+01 0. -1.
       -5    1    3    3    0  502 -0.10136536422E+04 -0.12470342407E+03  0.97491706589E+03  0.14119242280E+04  0.46999998093E+01 0.  1.
</event>
<event>
 5   0  0.1101474E-07  0.3971622E+04  0.7818609E-02  0.8010296E-01
        2   -1    0    0  501    0  0.00000000000E+00  0.00000000000E+00  0.15754965664E+04  0.15754965664E+04  0.25500000920E-02 0.  1.
       -2   -1    0    0    0  501  0.00000000000E+00  0.00000000000E+00 -0.25029858506E+04  0.25029858506E+04  0.25500000920E-02 0. -1.
    10030    2    1    2    0    0  0.00000000000E+00  0.00000000000E+00 -0.92748928422E+03  0.40784824170E+04  0.39716221438E+04 0.  0.
        5    1    3    3  502    0  0.68492308094E+03  0.95082961806E+03 -0.21100727995E+04  0.24136333397E+04  0.46999998093E+01 0. -1.
       -5    1    3    3    0  502 -0.68492308094E+03 -0.95082961806E+03  0.11825835153E+04  0.16648490773E+04  0.46999998093E+01 0.  1.
</event>
<event>
 5   0  0.3399500E-08  0.3964216E+04  0.7818609E-02  0.8011804E-01
        1   -1    0    0  501    0  0.00000000000E+00  0.00000000000E+00  0.21638772817E+04  0.21638772817E+04  0.50400001928E-02 0. -1.
       -1   -1    0    0    0  501  0.00000000000E+00  0.00000000000E+00 -0.18156080497E+04  0.18156080497E+04  0.50400001928E-02 0.  1.
    10030    2    1    2    0    0  0.00000000000E+00  0.00000000000E+00  0.34826923207E+03  0.39794853314E+04  0.39642164478E+04 0.  0.
        5    1    3    3  502    0 -0.30405599849E+03  0.14633507085E+04 -0.11327575084E+04  0.18753684995E+04  0.46999998093E+01 0.  1.
       -5    1    3    3    0  502  0.30405599849E+03 -0.14633507085E+04  0.14810267405E+04  0.21041168319E+04  0.46999998093E+01 0. -1.
</event>
<event>
 5   0  0.1087688E-07  0.3919310E+04  0.7818609E-02  0.8021025E-01
        2   -1    0    0  501    0  0.00000000000E+00  0.00000000000E+00  0.19330630401E+04  0.19330630401E+04  0.25500000920E-02 0. -1.
       -2   -1    0    0    0  501  0.00000000000E+00  0.00000000000E+00 -0.19866130460E+04  0.19866130460E+04  0.25500000920E-02 0.  1.
    10030    2    1    2    0    0  0.00000000000E+00  0.00000000000E+00 -0.53550005892E+02  0.39196760860E+04  0.39193102730E+04 0.  0.
        2    1    3    3  502    0  0.71460199632E+03  0.13798381076E+04  0.11673377126E+04  0.19435242606E+04  0.25500000920E-02 0. -1.
       -2    1    3    3    0  502 -0.71460199632E+03 -0.13798381076E+04 -0.12208877185E+04  0.19761518255E+04  0.25500000920E-02 0.  1.
</event>
<event>
 5   0  0.3399500E-08  0.4005476E+04  0.7818609E-02  0.8003443E-01
       -1   -1    0    0    0  501  0.00000000000E+00  0.00000000000E+00  0.31236702644E+04  0.31236702645E+04  0.50400001928E-02 0. -1.
        1   -1    0    0  501    0  0.00000000000E+00  0.00000000000E+00 -0.12840535661E+04  0.12840535661E+04  0.50400001928E-02 0.  1.
    10030    2    1    2    0    0  0.00000000000E+00  0.00000000000E+00  0.18396166983E+04  0.44077238306E+04  0.40054762226E+04 0.  0.
        1    1    3    3  502    0  0.13374046978E+04 -0.11324334064E+04  0.19866544665E+04  0.26491230086E+04  0.50400001928E-02 0. -1.
       -1    1    3    3    0  502 -0.13374046978E+04  0.11324334064E+04 -0.14703776813E+03  0.17586008219E+04  0.50400001928E-02 0.  1.
</event>
<event>
 5   0  0.1095903E-07  0.3972478E+04  0.7818609E-02  0.8010122E-01
        2   -1    0    0  501    0  0.00000000000E+00  0.00000000000E+00  0.19127248771E+04  0.19127248771E+04  0.25500000920E-02 0.  1.
       -2   -1    0    0    0  501  0.00000000000E+00  0.00000000000E+00 -0.20625784650E+04  0.20625784650E+04  0.25500000920E-02 0. -1.
    10030    2    1    2    0    0  0.00000000000E+00  0.00000000000E+00 -0.14985358792E+03  0.39753033420E+04  0.39724778871E+04 0.  0.
        3    1    3    3  502    0 -0.44242942301E+03  0.11516933908E+04  0.14827803849E+04  0.19289321245E+04  0.10100000352E+00 0.  1.
       -3    1    3    3    0  502  0.44242942301E+03 -0.11516933908E+04 -0.16326339728E+04  0.20463712176E+04  0.10100000352E+00 0. -1.
</event>
<event>
 5   0  0.3399500E-08  0.4037554E+04  0.7818609E-02  0.7997013E-01
       -4   -1    0    0    0  501  0.00000000000E+00  0.00000000000E+00  0.13767311787E+04  0.13767317645E+04  0.12699999809E+01 0. -1.
        4   -1    0    0  501    0  0.00000000000E+00  0.00000000000E+00 -0.29602429524E+04  0.29602432248E+04  0.12699999809E+01 0.  1.
    10030    2    1    2    0    0  0.00000000000E+00  0.00000000000E+00 -0.15835117736E+04  0.43369749893E+04  0.40375540270E+04 0.  0.
        5    1    3    3  502    0  0.13014641924E+04 -0.13569795720E+04 -0.15812707426E+04  0.24567543333E+04  0.46999998093E+01 0.  1.
       -5    1    3    3    0  502 -0.13014641924E+04  0.13569795720E+04 -0.22410310387E+01  0.18802206560E+04  0.46999998093E+01 0. -1.
</event>
<event>
 5   0  0.1087688E-07  0.3994436E+04  0.7818609E-02  0.8005670E-01
        2   -1    0    0  501    0  0.00000000000E+00  0.00000000000E+00  0.22772656101E+04  0.22772656101E+04  0.25500000920E-02 0. -1.
       -2   -1    0    0    0  501  0.00000000000E+00  0.00000000000E+00 -0.17516092974E+04  0.17516092974E+04  0.25500000920E-02 0.  1.
    10030    2    1    2    0    0  0.00000000000E+00  0.00000000000E+00  0.52565631268E+03  0.40288749075E+04  0.39944359378E+04 0.  0.
        2    1    3    3  502    0  0.10386261748E+04 -0.59390324123E+03 -0.13501513927E+04  0.18039884074E+04  0.25500000920E-02 0.  1.
       -2    1    3    3    0  502 -0.10386261748E+04  0.59390324123E+03  0.18758077053E+04  0.22248865001E+04  0.25500000920E-02 0. -1.
</event>
<event>
 5   0  0.3399500E-08  0.4005036E+04  0.7818609E-02  0.8003531E-01
        1   -1    0    0  501    0  0.00000000000E+00  0.00000000000E+00  0.18892753636E+04  0.18892753636E+04  0.50400001928E-02 0. -1.
       -1   -1    0    0    0  501  0.00000000000E+00  0.00000000000E+00 -0.21225483176E+04  0.21225483176E+04  0.50400001928E-02 0.  1.
    10030    2    1    2    0    0  0.00000000000E+00  0.00000000000E+00 -0.23327295405E+03  0.40118236812E+04  0.40050359521E+04 0.  0.
        3    1    3    3  502    0 -0.17216030668E+03  0.18328052332E+04 -0.90617536745E+03  0.20518206551E+04  0.10100000352E+00 0.  1.
       -3    1    3    3    0  502  0.17216030668E+03 -0.18328052332E+04  0.67290241340E+03  0.19600030261E+04  0.10100000352E+00 0. -1.
</event>
<event>
 5   0  0.1087688E-07  0.4030790E+04  0.7818609E-02  0.7998364E-01
        2   -1    0    0  501    0  0.00000000000E+00  0.00000000000E+00  0.31159200275E+04  0.31159200275E+04  0.25500000920E-02 0. -1.
       -2   -1    0    0    0  501  0.00000000000E+00  0.00000000000E+00 -0.13035689773E+04  0.13035689773E+04  0.25500000920E-02 0.  1.
    10030    2    1    2    0    0  0.00000000000E+00  0.00000000000E+00  0.18123510502E+04  0.44194890048E+04  0.40307898400E+04 0.  0.
        2    1    3    3  502    0 -0.13749539417E+04 -0.13985012531E+04  0.39717500928E+03  0.20010127647E+04  0.25500000920E-02 0. -1.
       -2    1    3    3    0  502  0.13749539417E+04  0.13985012531E+04  0.14151760409E+04  0.24184762400E+04  0.25500000920E-02 0.  1.
</event>
<event>
 5   0  0.3399500E-08  0.3986817E+04  0.7818609E-02  0.8007211E-01
        1   -1    0    0  501    0  0.00000000000E+00  0.00000000000E+00  0.26579438801E+04  0.26579438801E+04  0.50400001928E-02 0. -1.
       -1   -1    0    0    0  501  0.00000000000E+00  0.00000000000E+00 -0.14950195235E+04  0.14950195235E+04  0.50400001928E-02 0.  1.
    10030    2    1    2    0    0  0.00000000000E+00  0.00000000000E+00  0.11629243566E+04  0.41529634036E+04  0.39868172736E+04 0.  0.
        5    1    3    3  502    0 -0.11021646800E+04 -0.86024122780E+03  0.20615462167E+04  0.24909389485E+04  0.46999998093E+01 0. -1.
       -5    1    3    3    0  502  0.11021646800E+04  0.86024122780E+03 -0.89862186009E+03  0.16620244551E+04  0.46999998093E+01 0.  1.
</event>
<event>
 5   0  0.3399500E-08  0.4013265E+04  0.7818609E-02  0.8001876E-01
       -1   -1    0    0    0  501  0.00000000000E+00  0.00000000000E+00  0.28262510643E+04  0.28262510643E+04  0.50400001928E-02 0.  1.
        1   -1    0    0  501    0  0.00000000000E+00  0.00000000000E+00 -0.14247048780E+04  0.14247048780E+04  0.50400001928E-02 0. -1.
    10030    2    1    2    0    0  0.00000000000E+00  0.00000000000E+00  0.14015461863E+04  0.42509559423E+04  0.40132648444E+04 0.  0.
        4    1    3    3  502    0  0.17249504162E+04 -0.10252370964E+04  0.69796609038E+03  0.21245524984E+04  0.12699999809E+01 0.  1.
       -4    1    3    3    0  502 -0.17249504162E+04  0.10252370964E+04  0.70358009592E+03  0.21264034440E+04  0.12699999809E+01 0. -1.
</event>
<event>
 5   0  0.1095903E-07  0.3988698E+04  0.7818609E-02  0.8006830E-01
        2   -1    0    0  501    0  0.00000000000E+00  0.00000000000E+00  0.23471802736E+04  0.23471802736E+04  0.25500000920E-02 0. -1.
       -2   -1    0    0    0  501  0.00000000000E+00  0.00000000000E+00 -0.16945560289E+04  0.16945560289E+04  0.25500000920E-02 0.  1.
    10030    2    1    2    0    0  0.00000000000E+00  0.00000000000E+00  0.65262424465E+03  0.40417363025E+04  0.39886982757E+04 0.  0.
        3    1    3    3  502    0  0.40180704897E+03  0.37949846690E+03 -0.16154042345E+04  0.17073367687E+04  0.10100000352E+00 0.  1.
       -3    1    3    3    0  502 -0.40180704897E+03 -0.37949846690E+03  0.22680284791E+04  0.23343995338E+04  0.10100000352E+00 0. -1.
</event>
<event>
 5   0  0.3399500E-08  0.4010291E+04  0.7818609E-02  0.8002474E-01
       -1   -1    0    0    0  501  0.00000000000E+00  0.00000000000E+00  0.31840264939E+04  0.31840264939E+04  0.50400001928E-02 0.  1.
        1   -1    0    0  501    0  0.00000000000E+00  0.00000000000E+00 -0.12627433282E+04  0.12627433282E+04  0.50400001928E-02 0. -1.
    10030    2    1    2    0    0  0.00000000000E+00  0.00000000000E+00  0.19212831656E+04  0.44467698221E+04  0.40102908682E+04 0.  0.
        3    1    3    3  502    0 -0.41907294501E+03 -0.11332459643E+04 -0.81375825698E+03  0.14567330092E+04  0.10100000352E+00 0. -1.
       -3    1    3    3    0  502  0.41907294501E+03  0.11332459643E+04  0.27350414226E+04  0.29900368129E+04  0.10100000352E+00 0.  1.
</event>
<event>
 5   0  0.3399500E-08  0.3997062E+04  0.7818609E-02  0.8005139E-01
       -1   -1    0    0    0  501  0.00000000000E+00  0.00000000000E+00  0.16427918199E+04  0.16427918199E+04  0.50400001928E-02 0.  1.
        1   -1    0    0  501    0  0.00000000000E+00  0.00000000000E+00 -0.24313041449E+04  0.24313041449E+04  0.50400001928E-02 0. -1.
    10030    2    1    2    0    0  0.00000000000E+00  0.00000000000E+00 -0.78851232492E+03  0.40740959648E+04  0.39970622017E+04 0.  0.
        2    1    3    3  502    0  0.11673209640E+04  0.28591349591E+03  0.12333092414E+04  0.17220442634E+04  0.25500000920E-02 0.  1.
       -2    1    3    3    0  502 -0.11673209640E+04 -0.28591349591E+03 -0.20218215663E+04  0.23520517014E+04  0.25500000920E-02 0. -1.
</event>
<event>
 5   0  0.3399500E-08  0.3994982E+04  0.7818609E-02  0.8005560E-01
       -1   -1    0    0    0  501  0.00000000000E+00  0.00000000000E+00  0.16994251179E+04  0.16994251179E+04  0.50400001928E-02 0.  1.
        1   -1    0    0  501    0  0.00000000000E+00  0.00000000000E+00 -0.23478358954E+04  0.23478358954E+04  0.50400001928E-02 0. -1.
    10030    2    1    2    0    0  0.00000000000E+00  0.00000000000E+00 -0.64841077747E+03  0.40472610133E+04  0.39949824997E+04 0.  0.
        2    1    3    3  502    0  0.15489682010E+04 -0.86985791598E+03 -0.12494009201E+04  0.21718558748E+04  0.25500000920E-02 0. -1.
       -2    1    3    3    0  502 -0.15489682010E+04  0.86985791598E+03  0.60099014267E+03  0.18754051384E+04  0.25500000920E-02 0.  1.
</event>
<event>
 5   0  0.1095109E-07  0.4033782E+04  0.7818609E-02  0.7997766E-01
        2   -1    0    0  501    0  0.00000000000E+00  0.00000000000E+00  0.15980177770E+04  0.15980177770E+04  0.25500000920E-02 0.  1.
       -2   -1    0    0    0  501  0.00000000000E+00  0.00000000000E+00 -0.25455593968E+04  0.25455593968E+04  0.25500000920E-02 0. -1.
    10030    2    1    2    0    0  0.00000000000E+00  0.00000000000E+00 -0.94754161980E+03  0.41435771738E+04  0.40337819319E+04 0.  0.
        4    1    3    3  502    0  0.68087320736E+03 -0.81573439555E+03 -0.22347358638E+04  0.24744811420E+04  0.12699999809E+01 0. -1.
       -4    1    3    3    0  502 -0.68087320736E+03  0.81573439555E+03  0.12871942440E+04  0.16690960317E+04  0.12699999809E+01 0.  1.
</event>
<event>
 5   0  0.3399500E-08  0.4011336E+04  0.7818609E-02  0.8002264E-01
        1   -1    0    0  501    0  0.00000000000E+00  0.00000000000E+00  0.22866178920E+04  0.22866178920E+04  0.50400001928E-02 0.  1.
       -1   -1    0    0    0  501  0.00000000000E+00  0.00000000000E+00 -0.17592373909E+04  0.17592373909E+04  0.50400001928E-02 0. -1.
    10030    2    1    2    0    0  0.00000000000E+00  0.00000000000E+00  0.52738050116E+03  0.40458552829E+04  0.40113357846E+04 0.  0.
        1    1    3    3  502    0  0.92094277079E+03  0.94190819333E+03  0.17891129593E+04  0.22217677226E+04  0.50400001928E-02 0.  1.
       -1    1    3    3    0  502 -0.92094277079E+03 -0.94190819333E+03 -0.12617324582E+04  0.18240875603E+04  0.50400001928E-02 0. -1.
</event>
<event>
 5   0  0.3399500E-08  0.4038124E+04  0.7818609E-02  0.7996900E-01
       -1   -1    0    0    0  501  0.00000000000E+00  0.00000000000E+00  0.18097173202E+04  0.18097173202E+04  0.50400001928E-02 0. -1.
        1   -1    0    0  501    0  0.00000000000E+00  0.00000000000E+00 -0.22526229118E+04  0.22526229118E+04  0.50400001928E-02 0.  1.
    10030    2    1    2    0    0  0.00000000000E+00  0.00000000000E+00 -0.44290559163E+03  0.40623402320E+04  0.40381236729E+04 0.  0.
        1    1    3    3  502    0  0.74289133142E+03 -0.12798530368E+04 -0.16032618399E+04  0.21818248906E+04  0.50400001928E-02 0.  1.
       -1    1    3    3    0  502 -0.74289133142E+03  0.12798530368E+04  0.11603562483E+04  0.18805153413E+04  0.50400001928E-02 0. -1.
</event>
<event>
 5   0  0.1101474E-07  0.4086776E+04  0.7818609E-02  0.7987266E-01
       -2   -1    0    0    0  501  0.00000000000E+00  0.00000000000E+00  0.17384249772E+04  0.17384249772E+04  0.25500000920E-02 0.  1.
        2   -1    0    0  501    0  0.00000000000E+00  0.00000000000E+00 -0.24018494022E+04  0.24018494022E+04  0.25500000920E-02 0. -1.
    10030    2    1    2    0    0  0.00000000000E+00  0.00000000000E+00 -0.66342442498E+03  0.41402743794E+04  0.40867762318E+04 0.  0.
        5    1    3    3  502    0  0.52248812882E+03  0.13531589344E+04 -0.17897814554E+04  0.23037735772E+04  0.46999998093E+01 0. -1.
       -5    1    3    3    0  502 -0.52248812882E+03 -0.13531589344E+04  0.11263570304E+04  0.18365008022E+04  0.46999998093E+01 0.  1.
</event>
<event>
 5   0  0.1073271E-07  0.3594704E+04  0.7818609E-02  0.8091706E-01
        2   -1    0    0  501    0  0.00000000000E+00  0.00000000000E+00  0.11366956901E+04  0.11366956901E+04  0.25500000920E-02 0.  1.
       -2   -1    0    0    0  501  0.00000000000E+00  0.00000000000E+00 -0.28419875602E+04  0.28419875602E+04  0.25500000920E-02 0. -1.
    10030    2    1    2    0    0  0.00000000000E+00  0.00000000000E+00 -0.17052918701E+04  0.39786832503E+04  0.35947044446E+04 0.  0.
        1    1    3    3  502    0 -0.10348730976E+04 -0.45332468453E+03 -0.23998211612E+04  0.26524719044E+04  0.50400001928E-02 0. -1.
       -1    1    3    3    0  502  0.10348730976E+04  0.45332468453E+03  0.69452929113E+03  0.13262113459E+04  0.50400001928E-02 0.  1.
</event>
<event>
 5   0  0.1073271E-07  0.3977810E+04  0.7818609E-02  0.8009038E-01
        2   -1    0    0  501    0  0.00000000000E+00  0.00000000000E+00  0.20255852652E+04  0.20255852652E+04  0.25500000920E-02 0.  1.
       -2   -1    0    0    0  501  0.00000000000E+00  0.00000000000E+00 -0.19528890213E+04  0.19528890213E+04  0.25500000920E-02 0. -1.
    10030    2    1    2    0    0  0.00000000000E+00  0.00000000000E+00  0.72696243944E+02  0.39784742865E+04  0.39778100639E+04 0.  0.
        1    1    3    3  502    0 -0.11756836637E+04  0.14766511959E+04 -0.59066356663E+03  0.19777801395E+04  0.50400001928E-02 0. -1.
       -1    1    3    3    0  502  0.11756836637E+04 -0.14766511959E+04  0.66335981057E+03  0.20006941470E+04  0.50400001928E-02 0.  1.
</event>
<event>
 5   0  0.3399500E-08  0.4001352E+04  0.7818609E-02  0.8004274E-01
        1   -1    0    0  501    0  0.00000000000E+00  0.00000000000E+00  0.14655641600E+04  0.14655641600E+04  0.50400001928E-02 0. -1.
       -1   -1    0    0    0  501  0.00000000000E+00  0.00000000000E+00 -0.27311701436E+04  0.27311701436E+04  0.50400001928E-02 0.  1.
    10030    2    1    2    0    0  0.00000000000E+00  0.00000000000E+00 -0.12656059836E+04  0.41967343036E+04  0.40013523100E+04 0.  0.
        3    1    3    3  502    0  0.50669739729E+03  0.79861019605E+03  0.12162871495E+04  0.15407384391E+04  0.10100000352E+00 0. -1.
       -3    1    3    3    0  502 -0.50669739729E+03 -0.79861019605E+03 -0.24818931331E+04  0.26559958644E+04  0.10100000352E+00 0.  1.
</event>
<event>
 5   0  0.1101474E-07  0.4007160E+04  0.7818609E-02  0.8003104E-01
        2   -1    0    0  501    0  0.00000000000E+00  0.00000000000E+00  0.14986964202E+04  0.14986964202E+04  0.25500000920E-02 0.  1.
       -2   -1    0    0    0  501  0.00000000000E+00  0.00000000000E+00 -0.26785502144E+04  0.26785502144E+04  0.25500000920E-02 0. -1.
    10030    2    1    2    0    0  0.00000000000E+00  0.00000000000E+00 -0.11798537943E+04  0.41772466346E+04  0.40071603999E+04 0.  0.
        5    1    3    3  502    0 -0.71159961232E+03 -0.36232782764E+03 -0.25054915054E+04  0.26296701764E+04  0.46999998093E+01 0. -1.
       -5    1    3    3    0  502  0.71159961232E+03  0.36232782764E+03  0.13256377111E+04  0.15475764582E+04  0.46999998093E+01 0.  1.
</event>
<event>
 5   0  0.1087688E-07  0.4007364E+04  0.7818609E-02  0.8003063E-01
       -2   -1    0    0    0  501  0.00000000000E+00  0.00000000000E+00  0.23357569762E+04  0.23357569762E+04  0.25500000920E-02 0. -1.
        2   -1    0    0  501    0  0.00000000000E+00  0.00000000000E+00 -0.17188185469E+04  0.17188185469E+04  0.25500000920E-02 0.  1.
    10030    2    1    2    0    0  0.00000000000E+00  0.00000000000E+00  0.61693842937E+03  0.40545755231E+04  0.40073644265E+04 0.  0.
        2    1    3    3  502    0  0.14347093690E+04  0.87705292130E+03  0.14108601277E+04  0.21950259908E+04  0.25500000920E-02 0. -1.
       -2    1    3    3    0  502 -0.14347093690E+04 -0.87705292130E+03 -0.79392169833E+03  0.18595495323E+04  0.25500000920E-02 0.  1.
</event>
<event>
 5   0  0.3399500E-08  0.4045159E+04  0.7818609E-02  0.7995498E-01
        3   -1    0    0  501    0  0.00000000000E+00  0.00000000000E+00  0.22020458781E+04  0.22020458804E+04  0.10100000352E+00 0.  1.
       -3   -1    0    0    0  501  0.00000000000E+00  0.00000000000E+00 -0.18577393783E+04  0.18577393810E+04  0.10100000352E+00 0. -1.
    10030    2    1    2    0    0  0.00000000000E+00  0.00000000000E+00  0.34430649986E+03  0.40597852614E+04  0.40451587612E+04 0.  0.
        1    1    3    3  502    0 -0.10644880227E+04 -0.17176718353E+04  0.86427383401E+02  0.20226223021E+04  0.50400001928E-02 0. -1.
       -1    1    3    3    0  502  0.10644880227E+04  0.17176718353E+04  0.25787911646E+03  0.20371629594E+04  0.50400001928E-02 0.  1.
</event>
<event>
 5   0  0.1073271E-07  0.4033408E+04  0.7818609E-02  0.7997841E-01
       -2   -1    0    0    0  501  0.00000000000E+00  0.00000000000E+00  0.14177106718E+04  0.14177106718E+04  0.25500000920E-02 0.  1.
        2   -1    0    0  501    0  0.00000000000E+00  0.00000000000E+00 -0.28687769847E+04  0.28687769847E+04  0.25500000920E-02 0. -1.
    10030    2    1    2    0    0  0.00000000000E+00  0.00000000000E+00 -0.14510663129E+04  0.42864876565E+04  0.40334083583E+04 0.  0.
        1    1    3    3  502    0  0.33556027943E+03 -0.27945734912E+03 -0.28179277997E+04  0.28515634651E+04  0.50400001928E-02 0. -1.
       -1    1    3    3    0  502 -0.33556027943E+03  0.27945734912E+03  0.13668614868E+04  0.14349241915E+04  0.50400001928E-02 0.  1.
</event>
<event>
 5   0  0.1095109E-07  0.4019625E+04  0.7818609E-02  0.8000599E-01
        2   -1    0    0  501    0  0.00000000000E+00  0.00000000000E+00  0.19084941081E+04  0.19084941081E+04  0.25500000920E-02 0. -1.
       -2   -1    0    0    0  501  0.00000000000E+00  0.00000000000E+00 -0.21165100067E+04  0.21165100067E+04  0.25500000920E-02 0.  1.
    10030    2    1    2    0    0  0.00000000000E+00  0.00000000000E+00 -0.20801589859E+03  0.40250041148E+04  0.40196252947E+04 0.  0.
        4    1    3    3  502    0  0.62609335490E+03 -0.21918575941E+03  0.17957154996E+04  0.19143226099E+04  0.12699999809E+01 0. -1.
       -4    1    3    3    0  502 -0.62609335490E+03  0.21918575941E+03 -0.20037313982E+04  0.21106815049E+04  0.12699999809E+01 0.  1.
</event>
<event>
 5   0  0.1073271E-07  0.4040592E+04  0.7818609E-02  0.7996407E-01
        2   -1    0    0  501    0  0.00000000000E+00  0.00000000000E+00  0.24632129088E+04  0.24632129088E+04  0.25500000920E-02 0.  1.
       -2   -1    0    0    0  501  0.00000000000E+00  0.00000000000E+00 -0.16570215602E+04  0.16570215602E+04  0.25500000920E-02 0. -1.
    10030    2    1    2    0    0  0.00000000000E+00  0.00000000000E+00  0.80619134856E+03  0.41202344691E+04  0.40405924800E+04 0.  0.
        1    1    3    3  502    0 -0.12415768472E+04  0.15901100815E+04  0.51308154629E+03  0.20816377716E+04  0.50400001928E-02 0.  1.
       -1    1    3    3    0  502  0.12415768472E+04 -0.15901100815E+04  0.29310980228E+03  0.20385966975E+04  0.50400001928E-02 0. -1.
</event>
<event>
 5   0  0.1087688E-07  0.3983376E+04  0.7818609E-02  0.8007909E-01
        2   -1    0    0  501    0  0.00000000000E+00  0.00000000000E+00  0.18942505602E+04  0.18942505602E+04  0.25500000920E-02 0. -1.
       -2   -1    0    0    0  501  0.00000000000E+00  0.00000000000E+00 -0.20941374730E+04  0.20941374730E+04  0.25500000920E-02 0.  1.
    10030    2    1    2    0    0  0.00000000000E+00  0.00000000000E+00 -0.19988691287E+03  0.39883880332E+04  0.39833759960E+04 0.  0.
        2    1    3    3  502    0 -0.14289068024E+04  0.11156955575E+04  0.72587905169E+03  0.19528060899E+04  0.25500000920E-02 0. -1.
       -2    1    3    3    0  502  0.14289068024E+04 -0.11156955575E+04 -0.92576596456E+03  0.20355819433E+04  0.25500000920E-02 0.  1.
</event>
<event>
 5   0  0.3399500E-08  0.4016252E+04  0.7818609E-02  0.8001276E-01
        1   -1    0    0  501    0  0.00000000000E+00  0.00000000000E+00  0.23372577026E+04  0.23372577026E+04  0.50400001928E-02 0. -1.
       -1   -1    0    0    0  501  0.00000000000E+00  0.00000000000E+00 -0.17253424404E+04  0.17253424404E+04  0.50400001928E-02 0.  1.
    10030    2    1    2    0    0  0.00000000000E+00  0.00000000000E+00  0.61191526215E+03  0.40626001430E+04  0.40162519386E+04 0.  0.
        2    1    3    3  502    0  0.19422116167E+04  0.29335120636E+03  0.72830322568E+03  0.20949144333E+04  0.25500000920E-02 0. -1.
       -2    1    3    3    0  502 -0.19422116167E+04 -0.29335120636E+03 -0.11638796352E+03  0.19676857097E+04  0.25500000920E-02 0.  1.
</event>
<event>
 5   0  0.3399500E-08  0.4014097E+04  0.7818609E-02  0.8001709E-01
       -1   -1    0    0    0  501  0.00000000000E+00  0.00000000000E+00  0.21121468359E+04  0.21121468359E+04  0.50400001928E-02 0.  1.
        1   -1    0    0  501    0  0.00000000000E+00  0.00000000000E+00 -0.19071801693E+04  0.19071801693E+04  0.50400001928E-02 0. -1.
    10030    2    1    2    0    0  0.00000000000E+00  0.00000000000E+00  0.20496666666E+03  0.40193270052E+04  0.40140974378E+04 0.  0.
        2    1    3    3  502    0  0.19159200027E+03  0.15792482264E+04  0.13278063785E+04  0.20721491824E+04  0.25500000920E-02 0.  1.
       -2    1    3    3    0  502 -0.19159200027E+03 -0.15792482264E+04 -0.11228397118E+04  0.19471778228E+04  0.25500000920E-02 0. -1.
</event>
<event>
 5   0  0.1073271E-07  0.3938291E+04  0.7818609E-02  0.8017112E-01
        2   -1    0    0  501    0  0.00000000000E+00  0.00000000000E+00  0.15607544004E+04  0.15607544004E+04  0.25500000920E-02 0. -1.
       -2   -1    0    0    0  501  0.00000000000E+00  0.00000000000E+00 -0.24843971781E+04  0.24843971781E+04  0.25500000920E-02 0.  1.
    10030    2    1    2    0    0  0.00000000000E+00  0.00000000000E+00 -0.92364277767E+03  0.40451515785E+04  0.39382909126E+04 0.  0.
        1    1    3    3  502    0  0.15105690621E+04 -0.36515614215E+03  0.78027849599E+03  0.17389630332E+04  0.50400001928E-02 0. -1.
       -1    1    3    3    0  502 -0.15105690621E+04  0.36515614215E+03 -0.17039212737E+04  0.23061885453E+04  0.50400001928E-02 0.  1.
</event>
<event>
 5   0  0.3399500E-08  0.3964339E+04  0.7818609E-02  0.8011779E-01
        1   -1    0    0  501    0  0.00000000000E+00  0.00000000000E+00  0.14579045554E+04  0.14579045555E+04  0.50400001928E-02 0. -1.
       -1   -1    0    0    0  501  0.00000000000E+00  0.00000000000E+00 -0.26949606681E+04  0.26949606681E+04  0.50400001928E-02 0.  1.
    10030    2    1    2    0    0  0.00000000000E+00  0.00000000000E+00 -0.12370561126E+04  0.41528652235E+04  0.39643387518E+04 0.  0.
        3    1    3    3  502    0  0.14103645738E+03 -0.17953891729E+04  0.24890987527E+03  0.18180400712E+04  0.10100000352E+00 0. -1.
       -3    1    3    3    0  502 -0.14103645738E+03  0.17953891729E+04 -0.14859659879E+04  0.23348251523E+04  0.10100000352E+00 0.  1.
</event>
<event>
 5   0  0.3399500E-08  0.3985403E+04  0.7818609E-02  0.8007498E-01
        1   -1    0    0  501    0  0.00000000000E+00  0.00000000000E+00  0.18479484061E+04  0.18479484061E+04  0.50400001928E-02 0. -1.
       -1   -1    0    0    0  501  0.00000000000E+00  0.00000000000E+00 -0.21487937499E+04  0.21487937500E+04  0.50400001928E-02 0.  1.
    10030    2    1    2    0    0  0.00000000000E+00  0.00000000000E+00 -0.30084534386E+03  0.39967421560E+04  0.39854033599E+04 0.  0.
        5    1    3    3  502    0  0.11113376364E+03 -0.55224504548E+03  0.17664318465E+04  0.18540843729E+04  0.46999998093E+01 0. -1.
       -5    1    3    3    0  502 -0.11113376364E+03  0.55224504548E+03 -0.20672771904E+04  0.21426577831E+04  0.46999998093E+01 0.  1.
</event>
<event>
 5   0  0.1073271E-07  0.4010360E+04  0.7818609E-02  0.8002460E-01
        2   -1    0    0  501    0  0.00000000000E+00  0.00000000000E+00  0.34732387875E+04  0.34732387875E+04  0.25500000920E-02 0. -1.
       -2   -1    0    0    0  501  0.00000000000E+00  0.00000000000E+00 -0.11576363736E+04  0.11576363736E+04  0.25500000920E-02 0.  1.
    10030    2    1    2    0    0  0.00000000000E+00  0.00000000000E+00  0.23156024139E+04  0.46308751611E+04  0.40103603602E+04 0.  0.
        1    1    3    3  502    0  0.38273778289E+03 -0.29016667067E+03 -0.10902327595E+04  0.11913405798E+04  0.50400001928E-02 0.  1.
       -1    1    3    3    0  502 -0.38273778289E+03  0.29016667067E+03  0.34058351734E+04  0.34395345813E+04  0.50400001928E-02 0. -1.
</event>
<event>
 5   0  0.3399500E-08  0.4004273E+04  0.7818609E-02  0.8003685E-01
       -1   -1    0    0    0  501  0.00000000000E+00  0.00000000000E+00  0.15860581708E+04  0.15860581708E+04  0.50400001928E-02 0.  1.
        1   -1    0    0  501    0  0.00000000000E+00  0.00000000000E+00 -0.25273665167E+04  0.25273665167E+04  0.50400001928E-02 0. -1.
    10030    2    1    2    0    0  0.00000000000E+00  0.00000000000E+00 -0.94130834592E+03  0.41134246875E+04  0.40042728750E+04 0.  0.
        4    1    3    3  502    0 -0.60377244174E+03 -0.37778476745E+03  0.14515242224E+04  0.16168446657E+04  0.12699999809E+01 0.  1.
       -4    1    3    3    0  502  0.60377244174E+03  0.37778476745E+03 -0.23928325683E+04  0.24965800217E+04  0.12699999809E+01 0. -1.
</event>
<event>
 5   0  0.1087688E-07  0.4024816E+04  0.7818609E-02  0.7999559E-01
       -2   -1    0    0    0  501  0.00000000000E+00  0.00000000000E+00  0.15823020771E+04  0.15823020771E+04  0.25500000920E-02 0. -1.
        2   -1    0    0  501    0  0.00000000000E+00  0.00000000000E+00 -0.25594265225E+04  0.25594265225E+04  0.25500000920E-02 0.  1.
    10030    2    1    2    0    0  0.00000000000E+00  0.00000000000E+00 -0.97712444542E+03  0.41417285997E+04  0.40248159724E+04 0.  0.
        2    1    3    3  502    0 -0.17919453393E+04 -0.39367064523E+03  0.36234359421E+03  0.18701169900E+04  0.25500000920E-02 0. -1.
       -2    1    3    3    0  502  0.17919453393E+04  0.39367064523E+03 -0.13394680396E+04  0.22716116097E+04  0.25500000920E-02 0.  1.
</event>
<event>
 5   0  0.3399500E-08  0.3859575E+04  0.7818609E-02  0.8033490E-01
       -1   -1    0    0    0  501  0.00000000000E+00  0.00000000000E+00  0.14435325247E+04  0.14435325247E+04  0.50400001928E-02 0. -1.
        1   -1    0    0  501    0  0.00000000000E+00  0.00000000000E+00 -0.25798377636E+04  0.25798377636E+04  0.50400001928E-02 0.  1.
    10030    2    1    2    0    0  0.00000000000E+00  0.00000000000E+00 -0.11363052389E+04  0.40233702884E+04  0.38595749612E+04 0.  0.
        1    1    3    3  502    0 -0.64090793921E+03  0.16139689456E+04 -0.14455497914E+04  0.22594851058E+04  0.50400001928E-02 0.  1.
       -1    1    3    3    0  502  0.64090793921E+03 -0.16139689456E+04  0.30924455247E+03  0.17638851826E+04  0.50400001928E-02 0. -1.
</event>
<event>
 5   0  0.3399500E-08  0.3992481E+04  0.7818609E-02  0.8006065E-01
        1   -1    0    0  501    0  0.00000000000E+00  0.00000000000E+00  0.24047617375E+04  0.24047617375E+04  0.50400001928E-02 0.  1.
       -1   -1    0    0    0  501  0.00000000000E+00  0.00000000000E+00 -0.16571186837E+04  0.16571186837E+04  0.50400001928E-02 0. -1.
    10030    2    1    2    0    0  0.00000000000E+00  0.00000000000E+00  0.74764305379E+03  0.40618804211E+04  0.39924807351E+04 0.  0.
        1    1    3    3  502    0  0.72831634561E+03 -0.18233261265E+04  0.74066201572E+03  0.20984620760E+04  0.50400001928E-02 0.  1.
       -1    1    3    3    0  502 -0.72831634561E+03  0.18233261265E+04  0.69810380691E+01  0.19634183451E+04  0.50400001928E-02 0. -1.
</event>
<event>
 5   0  0.1101474E-07  0.4002444E+04  0.7818609E-02  0.8004054E-01
        2   -1    0    0  501    0  0.00000000000E+00  0.00000000000E+00  0.24400261342E+04  0.24400261342E+04  0.25500000920E-02 0. -1.
       -2   -1    0    0    0  501  0.00000000000E+00  0.00000000000E+00 -0.16413307865E+04  0.16413307865E+04  0.25500000920E-02 0.  1.
    10030    2    1    2    0    0  0.00000000000E+00  0.00000000000E+00  0.79869534779E+03  0.40813569207E+04  0.40024442601E+04 0.  0.
        5    1    3    3  502    0 -0.18003816243E+04 -0.59417304160E+03  0.10526446456E+04  0.21685244837E+04  0.46999998093E+01 0. -1.
       -5    1    3    3    0  502  0.18003816243E+04  0.59417304160E+03 -0.25394929782E+03  0.19128324370E+04  0.46999998093E+01 0.  1.
</event>
<event>
 5   0  0.3399500E-08  0.4026031E+04  0.7818609E-02  0.7999316E-01
       -1   -1    0    0    0  501  0.00000000000E+00  0.00000000000E+00  0.16975033217E+04  0.16975033217E+04  0.50400001928E-02 0.  1.
        1   -1    0    0  501    0  0.00000000000E+00  0.00000000000E+00 -0.23871719282E+04  0.23871719282E+04  0.50400001928E-02 0. -1.
    10030    2    1    2    0    0  0.00000000000E+00  0.00000000000E+00 -0.68966860651E+03  0.40846752499E+04  0.40260314344E+04 0.  0.
        3    1    3    3  502    0  0.73326281310E+01  0.95472133122E+03 -0.21428464013E+04  0.23459192862E+04  0.10100000352E+00 0. -1.
       -3    1    3    3    0  502 -0.73326281310E+01 -0.95472133122E+03  0.14531777948E+04  0.17387559637E+04  0.10100000352E+00 0.  1.
</event>
<event>
 5   0  0.3399500E-08  0.4007960E+04  0.7818609E-02  0.8002943E-01
       -1   -1    0    0    0  501  0.00000000000E+00  0.00000000000E+00  0.19690206023E+04  0.19690206023E+04  0.50400001928E-02 0. -1.
        1   -1    0    0  501    0  0.00000000000E+00  0.00000000000E+00 -0.20395602951E+04  0.20395602952E+04  0.50400001928E-02 0.  1.
    10030    2    1    2    0    0  0.00000000000E+00  0.00000000000E+00 -0.70539692822E+02  0.40085808975E+04  0.40079601998E+04 0.  0.
        5    1    3    3  502    0 -0.16037795296E+04 -0.10140513934E+04  0.60942686393E+03  0.19929456090E+04  0.46999998093E+01 0. -1.
       -5    1    3    3    0  502  0.16037795296E+04  0.10140513934E+04 -0.67996655675E+03  0.20156352885E+04  0.46999998093E+01 0.  1.
</event>
<event>
 5   0  0.1087688E-07  0.4001647E+04  0.7818609E-02  0.8004214E-01
       -2   -1    0    0    0  501  0.00000000000E+00  0.00000000000E+00  0.13512524600E+04  0.13512524600E+04  0.25500000920E-02 0. -1.
        2   -1    0    0  501    0  0.00000000000E+00  0.00000000000E+00 -0.29626547318E+04  0.29626547318E+04  0.25500000920E-02 0.  1.
    10030    2    1    2    0    0  0.00000000000E+00  0.00000000000E+00 -0.16114022718E+04  0.43139071918E+04  0.40016469082E+04 0.  0.
        2    1    3    3  502    0  0.53962981916E+03  0.19266349146E+04 -0.79156045653E+03  0.21516715344E+04  0.25500000920E-02 0.  1.
       -2    1    3    3    0  502 -0.53962981916E+03 -0.19266349146E+04 -0.81984181526E+03  0.21622356573E+04  0.25500000920E-02 0. -1.
</event>
<event>
 5   0  0.1095109E-07  0.3952906E+04  0.7818609E-02  0.8014115E-01
       -2   -1    0    0    0  501  0.00000000000E+00  0.00000000000E+00  0.19834137886E+04  0.19834137886E+04  0.25500000920E-02 0. -1.
        2   -1    0    0  501    0  0.00000000000E+00  0.00000000000E+00 -0.19695162687E+04  0.19695162687E+04  0.25500000920E-02 0.  1.
    10030    2    1    2    0    0  0.00000000000E+00  0.00000000000E+00  0.13897519931E+02  0.39529300573E+04  0.39529056271E+04 0.  0.
        4    1    3    3  502    0 -0.68236910546E+03  0.15669354169E+04 -0.98575567507E+03  0.19729749265E+04  0.12699999809E+01 0.  1.
       -4    1    3    3    0  502  0.68236910546E+03 -0.15669354169E+04  0.99965319500E+03  0.19799551308E+04  0.12699999809E+01 0. -1.
</event>
<event>
 5   0  0.3399500E-08  0.4007573E+04  0.7818609E-02  0.8003021E-01
       -1   -1    0    0    0  501  0.00000000000E+00  0.00000000000E+00  0.22311151220E+04  0.22311151220E+04  0.50400001928E-02 0. -1.
        1   -1    0    0  501    0  0.00000000000E+00  0.00000000000E+00 -0.17996205200E+04  0.17996205201E+04  0.50400001928E-02 0.  1.
    10030    2    1    2    0    0  0.00000000000E+00  0.00000000000E+00  0.43149460198E+03  0.40307356421E+04  0.40075731091E+04 0.  0.
        3    1    3    3  502    0  0.18596067666E+04 -0.48928987026E+03 -0.35108664962E+03  0.19546876347E+04  0.10100000352E+00 0.  1.
       -3    1    3    3    0  502 -0.18596067666E+04  0.48928987026E+03  0.78258125160E+03  0.20760480074E+04  0.10100000352E+00 0. -1.
</event>
<event>
 5   0  0.1087688E-07  0.3986769E+04  0.7818609E-02  0.8007221E-01
        2   -1    0    0  501    0  0.00000000000E+00  0.00000000000E+00  0.16381352373E+04  0.16381352373E+04  0.25500000920E-02 0.  1.
       -2   -1    0    0    0  501  0.00000000000E+00  0.00000000000E+00 -0.24256736375E+04  0.24256736375E+04  0.25500000920E-02 0. -1.
    10030    2    1    2    0    0  0.00000000000E+00  0.00000000000E+00 -0.78753840022E+03  0.40638088748E+04  0.39867688469E+04 0.  0.
        2    1    3    3  502    0 -0.59047818293E+03 -0.82342798488E+02 -0.23326660293E+04  0.24076493984E+04  0.25500000920E-02 0. -1.
       -2    1    3    3    0  502  0.59047818293E+03  0.82342798488E+02  0.15451276291E+04  0.16561594764E+04  0.25500000920E-02 0.  1.
</event>
<event>
 5   0  0.1095109E-07  0.4004969E+04  0.7818609E-02  0.8003545E-01
        2   -1    0    0  501    0  0.00000000000E+00  0.00000000000E+00  0.23819949285E+04  0.23819949285E+04  0.25500000920E-02 0.  1.
       -2   -1    0    0    0  501  0.00000000000E+00  0.00000000000E+00 -0.16834398354E+04  0.16834398354E+04  0.25500000920E-02 0. -1.
    10030    2    1    2    0    0  0.00000000000E+00  0.00000000000E+00  0.69855509307E+03  0.40654347639E+04  0.40049694882E+04 0.  0.
        4    1    3    3  502    0 -0.16864577205E+04 -0.27992894198E+03  0.14078270480E+04  0.22146057133E+04  0.12699999809E+01 0.  1.
       -4    1    3    3    0  502  0.16864577205E+04  0.27992894198E+03 -0.70927195494E+03  0.18508290506E+04  0.12699999809E+01 0. -1.
</event>
<event>
 5   0  0.1095903E-07  0.4113782E+04  0.7818609E-02  0.7981978E-01
        2   -1    0    0  501    0  0.00000000000E+00  0.00000000000E+00  0.23000340546E+04  0.23000340546E+04  0.25500000920E-02 0.  1.
       -2   -1    0    0    0  501  0.00000000000E+00  0.00000000000E+00 -0.18394514408E+04  0.18394514408E+04  0.25500000920E-02 0. -1.
    10030    2    1    2    0    0  0.00000000000E+00  0.00000000000E+00  0.46058261379E+03  0.41394854954E+04  0.41137821798E+04 0.  0.
        3    1    3    3  502    0 -0.10014393063E+04  0.13375824595E+04  0.14372830383E+04  0.22040394875E+04  0.10100000352E+00 0. -1.
       -3    1    3    3    0  502  0.10014393063E+04 -0.13375824595E+04 -0.97670042454E+03  0.19354460079E+04  0.10100000352E+00 0.  1.
</event>
<event>
 5   0  0.3399500E-08  0.4013838E+04  0.7818609E-02  0.8001761E-01
        1   -1    0    0  501    0  0.00000000000E+00  0.00000000000E+00  0.19830641410E+04  0.19830641411E+04  0.50400001928E-02 0.  1.
       -1   -1    0    0    0  501  0.00000000000E+00  0.00000000000E+00 -0.20310608619E+04  0.20310608619E+04  0.50400001928E-02 0. -1.
    10030    2    1    2    0    0  0.00000000000E+00  0.00000000000E+00 -0.47996720900E+02  0.40141250030E+04  0.40138380454E+04 0.  0.
        5    1    3    3  502    0 -0.74284039875E+00 -0.19704022592E+04 -0.40509811545E+03  0.20116192950E+04  0.46999998093E+01 0. -1.
       -5    1    3    3    0  502  0.74284039875E+00  0.19704022592E+04  0.35710139455E+03  0.20025057080E+04  0.46999998093E+01 0.  1.
</event>
<event>
 5   0  0.1087688E-07  0.4024637E+04  0.7818609E-02  0.7999595E-01
       -2   -1    0    0    0  501  0.00000000000E+00  0.00000000000E+00  0.16319298887E+04  0.16319298887E+04  0.25500000920E-02 0. -1.
        2   -1    0    0  501    0  0.00000000000E+00  0.00000000000E+00 -0.24813720374E+04  0.24813720374E+04  0.25500000920E-02 0.  1.
    10030    2    1    2    0    0  0.00000000000E+00  0.00000000000E+00 -0.84944214877E+03  0.41133019261E+04  0.40246367254E+04 0.  0.
        2    1    3    3  502    0 -0.35768484776E+03  0.69945484660E+03 -0.23181688819E+04  0.24476687884E+04  0.25500000920E-02 0.  1.
       -2    1    3    3    0  502  0.35768484776E+03 -0.69945484660E+03  0.14687267331E+04  0.16656331377E+04  0.25500000920E-02 0. -1.
</event>
<event>
 5   0  0.3399500E-08  0.3973201E+04  0.7818609E-02  0.8009975E-01
        1   -1    0    0  501    0  0.00000000000E+00  0.00000000000E+00  0.15605125111E+04  0.15605125111E+04  0.50400001928E-02 0. -1.
       -1   -1    0    0    0  501  0.00000000000E+00  0.00000000000E+00 -0.25290291023E+04  0.25290291023E+04  0.50400001928E-02 0.  1.
    10030    2    1    2    0    0  0.00000000000E+00  0.00000000000E+00 -0.96851659122E+03  0.40895416134E+04  0.39732010043E+04 0.  0.
        4    1    3    3  502    0 -0.17552147977E+03  0.11274740759E+04  0.11895741683E+04  0.16483609727E+04  0.12699999809E+01 0. -1.
       -4    1    3    3    0  502  0.17552147977E+03 -0.11274740759E+04 -0.21580907595E+04  0.24411806407E+04  0.12699999809E+01 0.  1.
</event>
<event>
 5   0  0.1087688E-07  0.3991353E+04  0.7818609E-02  0.8006293E-01
       -2   -1    0    0    0  501  0.00000000000E+00  0.00000000000E+00  0.24424357920E+04  0.24424357920E+04  0.25500000920E-02 0.  1.
        2   -1    0    0  501    0  0.00000000000E+00  0.00000000000E+00 -0.16306359906E+04  0.16306359906E+04  0.25500000920E-02 0. -1.
    10030    2    1    2    0    0  0.00000000000E+00  0.00000000000E+00  0.81179980137E+03  0.40730717826E+04  0.39913525062E+04 0.  0.
        2    1    3    3  502    0 -0.10884089851E+04  0.16698982427E+04  0.30628235553E+03  0.20166812195E+04  0.25500000920E-02 0.  1.
       -2    1    3    3    0  502  0.10884089851E+04 -0.16698982427E+04  0.50551744584E+03  0.20563905631E+04  0.25500000920E-02 0. -1.
</event>
<event>
 5   0  0.3399500E-08  0.3985951E+04  0.7818609E-02  0.8007387E-01
        1   -1    0    0  501    0  0.00000000000E+00  0.00000000000E+00  0.19312239376E+04  0.19312239376E+04  0.50400001928E-02 0.  1.
       -1   -1    0    0    0  501  0.00000000000E+00  0.00000000000E+00 -0.20567014254E+04  0.20567014254E+04  0.50400001928E-02 0. -1.
    10030    2    1    2    0    0  0.00000000000E+00  0.00000000000E+00 -0.12547748777E+03  0.39879253630E+04  0.39859508403E+04 0.  0.
        5    1    3    3  502    0  0.15493570331E+04  0.57613120404E+03 -0.11766161506E+04  0.20290101124E+04  0.46999998093E+01 0. -1.
       -5    1    3    3    0  502 -0.15493570331E+04 -0.57613120404E+03  0.10511386629E+04  0.19589152506E+04  0.46999998093E+01 0.  1.
</event>
<event>
 5   0  0.3399500E-08  0.4044852E+04  0.7818609E-02  0.7995559E-01
        1   -1    0    0  501    0  0.00000000000E+00  0.00000000000E+00  0.13480302505E+04  0.13480302505E+04  0.50400001928E-02 0.  1.
       -1   -1    0    0    0  501  0.00000000000E+00  0.00000000000E+00 -0.30342102627E+04  0.30342102627E+04  0.50400001928E-02 0. -1.
    10030    2    1    2    0    0  0.00000000000E+00  0.00000000000E+00 -0.16861800122E+04  0.43822405132E+04  0.40448521459E+04 0.  0.
        5    1    3    3  502    0 -0.19874587008E+04  0.26474248443E+03 -0.11299476207E+04  0.23014961191E+04  0.46999998093E+01 0.  1.
       -5    1    3    3    0  502  0.19874587008E+04 -0.26474248443E+03 -0.55623239151E+03  0.20807443942E+04  0.46999998093E+01 0. -1.
</event>
<event>
 5   0  0.3399500E-08  0.4028835E+04  0.7818609E-02  0.7998755E-01
        1   -1    0    0  501    0  0.00000000000E+00  0.00000000000E+00  0.12585391576E+04  0.12585391576E+04  0.50400001928E-02 0. -1.
       -1   -1    0    0    0  501  0.00000000000E+00  0.00000000000E+00 -0.32242760618E+04  0.32242760618E+04  0.50400001928E-02 0.  1.
    10030    2    1    2    0    0  0.00000000000E+00  0.00000000000E+00 -0.19657369042E+04  0.44828152194E+04  0.40288349078E+04 0.  0.
        3    1    3    3  502    0  0.12424823467E+04  0.46629499508E+03  0.70338174615E+03  0.15019784603E+04  0.10100000352E+00 0. -1.
       -3    1    3    3    0  502 -0.12424823467E+04 -0.46629499508E+03 -0.26691186503E+04  0.29808367590E+04  0.10100000352E+00 0.  1.
</event>
<event>
 5   0  0.3399500E-08  0.3992303E+04  0.7818609E-02  0.8006101E-01
        1   -1    0    0  501    0  0.00000000000E+00  0.00000000000E+00  0.29680369392E+04  0.29680369392E+04  0.50400001928E-02 0. -1.
       -1   -1    0    0    0  501  0.00000000000E+00  0.00000000000E+00 -0.13425103927E+04  0.13425103927E+04  0.50400001928E-02 0.  1.
    10030    2    1    2    0    0  0.00000000000E+00  0.00000000000E+00  0.16255265466E+04  0.43105473319E+04  0.39923028126E+04 0.  0.
        2    1    3    3  502    0 -0.23269467130E+03 -0.15206599047E+04 -0.56066886197E+03  0.16373463069E+04  0.25500000920E-02 0.  1.
       -2    1    3    3    0  502  0.23269467130E+03  0.15206599047E+04  0.21861954085E+04  0.26732010250E+04  0.25500000920E-02 0. -1.
</event>
<event>
 5   0  0.1101474E-07  0.3995417E+04  0.7818609E-02  0.8005472E-01
        2   -1    0    0  501    0  0.00000000000E+00  0.00000000000E+00  0.15932061376E+04  0.15932061376E+04  0.25500000920E-02 0.  1.
       -2   -1    0    0    0  501  0.00000000000E+00  0.00000000000E+00 -0.25049106108E+04  0.25049106108E+04  0.25500000920E-02 0. -1.
    10030    2    1    2    0    0  0.00000000000E+00  0.00000000000E+00 -0.91170447322E+03  0.40981167483E+04  0.39954168539E+04 0.  0.
        5    1    3    3  502    0 -0.18821706571E+04  0.50321496367E+03 -0.90882029756E+03  0.21498297852E+04  0.46999998093E+01 0. -1.
       -5    1    3    3    0  502  0.18821706571E+04 -0.50321496367E+03 -0.28841756617E+01  0.19482869631E+04  0.46999998093E+01 0.  1.
</event>
<event>
 5   0  0.3399500E-08  0.4031278E+04  0.7818609E-02  0.7998266E-01
        1   -1    0    0  501    0  0.00000000000E+00  0.00000000000E+00  0.17742418630E+04  0.17742418630E+04  0.50400001928E-02 0. -1.
       -1   -1    0    0    0  501  0.00000000000E+00  0.00000000000E+00 -0.22898795351E+04  0.22898795351E+04  0.50400001928E-02 0.  1.
    10030    2    1    2    0    0  0.00000000000E+00  0.00000000000E+00 -0.51563767212E+03  0.40641213981E+04  0.40312777788E+04 0.  0.
        1    1    3    3  502    0  0.18106510366E+04 -0.28154286986E+02 -0.11502143656E+04  0.21452838803E+04  0.50400001928E-02 0. -1.
       -1    1    3    3    0  502 -0.18106510366E+04  0.28154286986E+02  0.63457669345E+03  0.19188375179E+04  0.50400001928E-02 0.  1.
</event>
<event>
 5   0  0.3399500E-08  0.3994538E+04  0.7818609E-02  0.8005649E-01
       -1   -1    0    0    0  501  0.00000000000E+00  0.00000000000E+00  0.14522103665E+04  0.14522103665E+04  0.50400001928E-02 0.  1.
        1   -1    0    0  501    0  0.00000000000E+00  0.00000000000E+00 -0.27469052147E+04  0.27469052147E+04  0.50400001928E-02 0. -1.
    10030    2    1    2    0    0  0.00000000000E+00  0.00000000000E+00 -0.12946948482E+04  0.41991155812E+04  0.39945383856E+04 0.  0.
        5    1    3    3  502    0 -0.21477788968E+03 -0.92283283552E+03 -0.24956057049E+04  0.26694231415E+04  0.46999998093E+01 0. -1.
       -5    1    3    3    0  502  0.21477788968E+03  0.92283283552E+03  0.12009108567E+04  0.15296924397E+04  0.46999998093E+01 0.  1.
</event>
<event>
 5   0  0.1087688E-07  0.3948517E+04  0.7818609E-02  0.8015014E-01
        2   -1    0    0  501    0  0.00000000000E+00  0.00000000000E+00  0.16152356239E+04  0.16152356239E+04  0.25500000920E-02 0.  1.
       -2   -1    0    0    0  501  0.00000000000E+00  0.00000000000E+00 -0.24130818859E+04  0.24130818859E+04  0.25500000920E-02 0. -1.
    10030    2    1    2    0    0  0.00000000000E+00  0.00000000000E+00 -0.79784626202E+03  0.40283175098E+04  0.39485165952E+04 0.  0.
        2    1    3    3  502    0 -0.16189826044E+04 -0.48145068739E+03 -0.14417340207E+04  0.22206972833E+04  0.25500000920E-02 0. -1.
       -2    1    3    3    0  502  0.16189826044E+04  0.48145068739E+03  0.64388775866E+03  0.18076202265E+04  0.25500000920E-02 0.  1.
</event>
<event>
 5   0  0.3399500E-08  0.3995576E+04  0.7818609E-02  0.8005440E-01
        1   -1    0    0  501    0  0.00000000000E+00  0.00000000000E+00  0.25496062694E+04  0.25496062694E+04  0.50400001928E-02 0. -1.
       -1   -1    0    0    0  501  0.00000000000E+00  0.00000000000E+00 -0.15654012311E+04  0.15654012311E+04  0.50400001928E-02 0.  1.
    10030    2    1    2    0    0  0.00000000000E+00  0.00000000000E+00  0.98420503833E+03  0.41150075005E+04  0.39955759499E+04 0.  0.
        2    1    3    3  502    0 -0.20939109016E+03  0.10003729521E+03 -0.15514732925E+04  0.15687324394E+04  0.25500000920E-02 0.  1.
       -2    1    3    3    0  502  0.20939109016E+03 -0.10003729521E+03  0.25356783308E+04  0.25462750610E+04  0.25500000920E-02 0. -1.
</event>
<event>
 5   0  0.1101474E-07  0.4049913E+04  0.7818609E-02  0.7994552E-01
        2   -1    0    0  501    0  0.00000000000E+00  0.00000000000E+00  0.13981545704E+04  0.13981545704E+04  0.25500000920E-02 0. -1.
       -2   -1    0    0    0  501  0.00000000000E+00  0.00000000000E+00 -0.29327584279E+04  0.29327584279E+04  0.25500000920E-02 0.  1.
    10030    2    1    2    0    0  0.00000000000E+00  0.00000000000E+00 -0.15346038575E+04  0.43309129984E+04  0.40499133818E+04 0.  0.
        5    1    3    3  502    0  0.44092730533E+03  0.17085066814E+03  0.13382772671E+04  0.14193713302E+04  0.46999998093E+01 0. -1.
       -5    1    3    3    0  502 -0.44092730533E+03 -0.17085066814E+03 -0.28728811246E+04  0.29115416682E+04  0.46999998093E+01 0.  1.
</event>
<event>
 5   0  0.3399500E-08  0.4012312E+04  0.7818609E-02  0.8002067E-01
        1   -1    0    0  501    0  0.00000000000E+00  0.00000000000E+00  0.23157997595E+04  0.23157997595E+04  0.50400001928E-02 0. -1.
       -1   -1    0    0    0  501  0.00000000000E+00  0.00000000000E+00 -0.17379144577E+04  0.17379144577E+04  0.50400001928E-02 0.  1.
    10030    2    1    2    0    0  0.00000000000E+00  0.00000000000E+00  0.57788530176E+03  0.40537142171E+04  0.40123119934E+04 0.  0.
        1    1    3    3  502    0 -0.83949169598E+02  0.48022199875E+03  0.22550451557E+04  0.23071387659E+04  0.50400001928E-02 0. -1.
       -1    1    3    3    0  502  0.83949169598E+02 -0.48022199875E+03 -0.16771598539E+04  0.17465754512E+04  0.50400001928E-02 0.  1.
</event>
<event>
 5   0  0.1095903E-07  0.3992420E+04  0.7818609E-02  0.8006077E-01
       -2   -1    0    0    0  501  0.00000000000E+00  0.00000000000E+00  0.17485262945E+04  0.17485262945E+04  0.25500000920E-02 0.  1.
        2   -1    0    0  501    0  0.00000000000E+00  0.00000000000E+00 -0.22789789374E+04  0.22789789374E+04  0.25500000920E-02 0. -1.
    10030    2    1    2    0    0  0.00000000000E+00  0.00000000000E+00 -0.53045264286E+03  0.40275052319E+04  0.39924201165E+04 0.  0.
        3    1    3    3  502    0  0.69916184801E+02 -0.69512143820E+03  0.16211727200E+04  0.17652997154E+04  0.10100000352E+00 0.  1.
       -3    1    3    3    0  502 -0.69916184801E+02  0.69512143820E+03 -0.21516253629E+04  0.22622055165E+04  0.10100000352E+00 0. -1.
</event>
<event>
 5   0  0.1101474E-07  0.4014113E+04  0.7818609E-02  0.8001706E-01
        2   -1    0    0  501    0  0.00000000000E+00  0.00000000000E+00  0.24643367970E+04  0.24643367970E+04  0.25500000920E-02 0. -1.
       -2   -1    0    0    0  501  0.00000000000E+00  0.00000000000E+00 -0.16346288076E+04  0.16346288076E+04  0.25500000920E-02 0.  1.
    10030    2    1    2    0    0  0.00000000000E+00  0.00000000000E+00  0.82970798933E+03  0.40989656046E+04  0.40141130627E+04 0.  0.
        5    1    3    3  502    0 -0.18699589262E+04 -0.32656222821E+02 -0.32885532217E+03  0.18989420022E+04  0.46999998093E+01 0.  1.
       -5    1    3    3    0  502  0.18699589262E+04  0.32656222821E+02  0.11585633115E+04  0.22000236025E+04  0.46999998093E+01 0. -1.
</event>
<event>
 5   0  0.3399500E-08  0.3738106E+04  0.7818609E-02  0.8059569E-01
       -1   -1    0    0    0  501  0.00000000000E+00  0.00000000000E+00  0.24840275109E+04  0.24840275109E+04  0.50400001928E-02 0. -1.
        1   -1    0    0  501    0  0.00000000000E+00  0.00000000000E+00 -0.14063283251E+04  0.14063283251E+04  0.50400001928E-02 0.  1.
    10030    2    1    2    0    0  0.00000000000E+00  0.00000000000E+00  0.10776991858E+04  0.38903558361E+04  0.37381055357E+04 0.  0.
        1    1    3    3  502    0  0.55886633409E+03 -0.16731473110E+04 -0.10405222134E+03  0.17670824453E+04  0.50400001928E-02 0. -1.
       -1    1    3    3    0  502 -0.55886633409E+03  0.16731473110E+04  0.11817514071E+04  0.21232733908E+04  0.50400001928E-02 0.  1.
</event>
<event>
 5   0  0.1087688E-07  0.3991378E+04  0.7818609E-02  0.8006288E-01
        2   -1    0    0  501    0  0.00000000000E+00  0.00000000000E+00  0.13965137168E+04  0.13965137168E+04  0.25500000920E-02 0. -1.
       -2   -1    0    0    0  501  0.00000000000E+00  0.00000000000E+00 -0.28519414116E+04  0.28519414116E+04  0.25500000920E-02 0.  1.
    10030    2    1    2    0    0  0.00000000000E+00  0.00000000000E+00 -0.14554276948E+04  0.42484551284E+04  0.39913783588E+04 0.  0.
        2    1    3    3  502    0 -0.17158077501E+04 -0.19000658034E+03  0.33811769744E+03  0.17590970164E+04  0.25500000920E-02 0. -1.
       -2    1    3    3    0  502  0.17158077501E+04  0.19000658034E+03 -0.17935453922E+04  0.24893581120E+04  0.25500000920E-02 0.  1.
</event>
<event>
 5   0  0.1101474E-07  0.4000200E+04  0.7818609E-02  0.8004506E-01
        2   -1    0    0  501    0  0.00000000000E+00  0.00000000000E+00  0.14194948446E+04  0.14194948446E+04  0.25500000920E-02 0.  1.
       -2   -1    0    0    0  501  0.00000000000E+00  0.00000000000E+00 -0.28181860238E+04  0.28181860238E+04  0.25500000920E-02 0. -1.
    10030    2    1    2    0    0  0.00000000000E+00  0.00000000000E+00 -0.13986911792E+04  0.42376808684E+04  0.40002002610E+04 0.  0.
        5    1    3    3  502    0  0.10570237738E+04  0.10954131993E+04  0.67503752006E+03  0.16652108212E+04  0.46999998093E+01 0.  1.
       -5    1    3    3    0  502 -0.10570237738E+04 -0.10954131993E+04 -0.20737286993E+04  0.25724700472E+04  0.46999998093E+01 0. -1.
</event>
<event>
 5   0  0.3399500E-08  0.3958087E+04  0.7818609E-02  0.8013055E-01
        1   -1    0    0  501    0  0.00000000000E+00  0.00000000000E+00  0.25409669162E+04  0.25409669162E+04  0.50400001928E-02 0. -1.
       -1   -1    0    0    0  501  0.00000000000E+00  0.00000000000E+00 -0.15413872162E+04  0.15413872162E+04  0.50400001928E-02 0.  1.
    10030    2    1    2    0    0  0.00000000000E+00  0.00000000000E+00  0.99957969999E+03  0.40823541325E+04  0.39580873773E+04 0.  0.
        4    1    3    3  502    0 -0.12040490941E+04  0.39761161229E+03 -0.10673828774E+04  0.16574489540E+04  0.12699999809E+01 0.  1.
       -4    1    3    3    0  502  0.12040490941E+04 -0.39761161229E+03  0.20669625774E+04  0.24249051784E+04  0.12699999809E+01 0. -1.
</event>
<event>
 5   0  0.1101474E-07  0.3982408E+04  0.7818609E-02  0.8008105E-01
       -2   -1    0    0    0  501  0.00000000000E+00  0.00000000000E+00  0.18871085185E+04  0.18871085185E+04  0.25500000920E-02 0.  1.
        2   -1    0    0  501    0  0.00000000000E+00  0.00000000000E+00 -0.21010417902E+04  0.21010417902E+04  0.25500000920E-02 0. -1.
    10030    2    1    2    0    0  0.00000000000E+00  0.00000000000E+00 -0.21393327169E+03  0.39881503086E+04  0.39824082462E+04 0.  0.
        5    1    3    3  502    0 -0.77718870511E+03 -0.17748492803E+04 -0.56671409583E+03  0.20187370328E+04  0.46999998093E+01 0.  1.
       -5    1    3    3    0  502  0.77718870511E+03  0.17748492803E+04  0.35278082414E+03  0.19694132758E+04  0.46999998093E+01 0. -1.
</event>
<event>
 5   0  0.3399500E-08  0.4014066E+04  0.7818609E-02  0.8001715E-01
        1   -1    0    0  501    0  0.00000000000E+00  0.00000000000E+00  0.22660854410E+04  0.22660854410E+04  0.50400001928E-02 0. -1.
       -1   -1    0    0    0  501  0.00000000000E+00  0.00000000000E+00 -0.17775950263E+04  0.17775950263E+04  0.50400001928E-02 0.  1.
    10030    2    1    2    0    0  0.00000000000E+00  0.00000000000E+00  0.48849041465E+03  0.40436804673E+04  0.40140663717E+04 0.  0.
        4    1    3    3  502    0  0.14414968482E+04 -0.57276394031E+03 -0.10388109676E+04  0.18668426645E+04  0.12699999809E+01 0.  1.
       -4    1    3    3    0  502 -0.14414968482E+04  0.57276394031E+03  0.15273013822E+04  0.21768378028E+04  0.12699999809E+01 0. -1.
</event>
<event>
 5   0  0.3399500E-08  0.3918253E+04  0.7818609E-02  0.8021244E-01
        1   -1    0    0  501    0  0.00000000000E+00  0.00000000000E+00  0.28937438227E+04  0.28937438227E+04  0.50400001928E-02 0.  1.
       -1   -1    0    0    0  501  0.00000000000E+00  0.00000000000E+00 -0.13263702559E+04  0.13263702559E+04  0.50400001928E-02 0. -1.
    10030    2    1    2    0    0  0.00000000000E+00  0.00000000000E+00  0.15673735669E+04  0.42201140786E+04  0.39182525363E+04 0.  0.
        5    1    3    3  502    0  0.75066923066E+03 -0.89881645250E+03  0.24752834880E+04  0.27383253541E+04  0.46999998093E+01 0.  1.
       -5    1    3    3    0  502 -0.75066923066E+03  0.89881645250E+03 -0.90790992113E+03  0.14817887245E+04  0.46999998093E+01 0. -1.
</event>
<event>
 5   0  0.3399500E-08  0.4001947E+04  0.7818609E-02  0.8004154E-01
       -1   -1    0    0    0  501  0.00000000000E+00  0.00000000000E+00  0.14573677368E+04  0.14573677368E+04  0.50400001928E-02 0.  1.
        1   -1    0    0  501    0  0.00000000000E+00  0.00000000000E+00 -0.27473474810E+04  0.27473474810E+04  0.50400001928E-02 0. -1.
    10030    2    1    2    0    0  0.00000000000E+00  0.00000000000E+00 -0.12899797442E+04  0.42047152177E+04  0.40019473162E+04 0.  0.
        5    1    3    3  502    0 -0.16670970299E+04 -0.67206415202E+03  0.27875570203E+03  0.18189583731E+04  0.46999998093E+01 0.  1.
       -5    1    3    3    0  502  0.16670970299E+04  0.67206415202E+03 -0.15687354462E+04  0.23857568447E+04  0.46999998093E+01 0. -1.
</event>
<event>
 5   0  0.1095903E-07  0.4032912E+04  0.7818609E-02  0.7997940E-01
        2   -1    0    0  501    0  0.00000000000E+00  0.00000000000E+00  0.25188725727E+04  0.25188725727E+04  0.25500000920E-02 0.  1.
       -2   -1    0    0    0  501  0.00000000000E+00  0.00000000000E+00 -0.16142516441E+04  0.16142516441E+04  0.25500000920E-02 0. -1.
    10030    2    1    2    0    0  0.00000000000E+00  0.00000000000E+00  0.90462092863E+03  0.41331242167E+04  0.40329116983E+04 0.  0.
        3    1    3    3  502    0 -0.12904080871E+04  0.13732711841E+04 -0.28320494932E+03  0.19055791324E+04  0.10100000352E+00 0. -1.
       -3    1    3    3    0  502  0.12904080871E+04 -0.13732711841E+04  0.11878258779E+04  0.22275450844E+04  0.10100000352E+00 0.  1.
</event>
<event>
 5   0  0.3399500E-08  0.3987254E+04  0.7818609E-02  0.8007123E-01
        1   -1    0    0  501    0  0.00000000000E+00  0.00000000000E+00  0.25365436719E+04  0.25365436719E+04  0.50400001928E-02 0.  1.
       -1   -1    0    0    0  501  0.00000000000E+00  0.00000000000E+00 -0.15669151264E+04  0.15669151264E+04  0.50400001928E-02 0. -1.
    10030    2    1    2    0    0  0.00000000000E+00  0.00000000000E+00  0.96962854550E+03  0.41034587984E+04  0.39872540167E+04 0.  0.
        5    1    3    3  502    0 -0.16109131694E+04 -0.11742574343E+04  0.51012362757E+03  0.20577098840E+04  0.46999998093E+01 0. -1.
       -5    1    3    3    0  502  0.16109131694E+04  0.11742574343E+04  0.45950491792E+03  0.20457489144E+04  0.46999998093E+01 0.  1.
</event>
<event>
 5   0  0.3399500E-08  0.3992929E+04  0.7818609E-02  0.8005975E-01
        1   -1    0    0  501    0  0.00000000000E+00  0.00000000000E+00  0.25449239534E+04  0.25449239534E+04  0.50400001928E-02 0. -1.
       -1   -1    0    0    0  501  0.00000000000E+00  0.00000000000E+00 -0.15662038793E+04  0.15662038793E+04  0.50400001928E-02 0.  1.
    10030    2    1    2    0    0  0.00000000000E+00  0.00000000000E+00  0.97872007409E+03  0.41111278327E+04  0.39929286336E+04 0.  0.
        5    1    3    3  502    0  0.23001170676E+03 -0.15623524011E+04 -0.76827157972E+03  0.17561644914E+04  0.46999998093E+01 0.  1.
       -5    1    3    3    0  502 -0.23001170676E+03  0.15623524011E+04  0.17469916538E+04  0.23549633413E+04  0.46999998093E+01 0. -1.
</event>
<event>
 5   0  0.1095903E-07  0.4000818E+04  0.7818609E-02  0.8004381E-01
       -2   -1    0    0    0  501  0.00000000000E+00  0.00000000000E+00  0.20757322442E+04  0.20757322442E+04  0.25500000920E-02 0. -1.
        2   -1    0    0  501    0  0.00000000000E+00  0.00000000000E+00 -0.19278194039E+04  0.19278194039E+04  0.25500000920E-02 0.  1.
    10030    2    1    2    0    0  0.00000000000E+00  0.00000000000E+00  0.14791284029E+03  0.40035516481E+04  0.40008183651E+04 0.  0.
        3    1    3    3  502    0 -0.11953127253E+04 -0.44862844625E+02  0.16784393945E+04  0.20610540986E+04  0.10100000352E+00 0. -1.
       -3    1    3    3    0  502  0.11953127253E+04  0.44862844625E+02 -0.15305265542E+04  0.19424975494E+04  0.10100000352E+00 0.  1.
</event>
<event>
 5   0  0.1073271E-07  0.3830599E+04  0.7818609E-02  0.8039620E-01
        2   -1    0    0  501    0  0.00000000000E+00  0.00000000000E+00  0.18007151323E+04  0.18007151323E+04  0.25500000920E-02 0. -1.
       -2   -1    0    0    0  501  0.00000000000E+00  0.00000000000E+00 -0.20371748580E+04  0.20371748580E+04  0.25500000920E-02 0.  1.
    10030    2    1    2    0    0  0.00000000000E+00  0.00000000000E+00 -0.23645972563E+03  0.38378899903E+04  0.38305986968E+04 0.  0.
        1    1    3    3  502    0  0.13117784194E+04 -0.88616402064E+03 -0.11983924990E+04  0.19854958763E+04  0.50400001928E-02 0.  1.
       -1    1    3    3    0  502 -0.13117784194E+04  0.88616402064E+03  0.96193277334E+03  0.18523941140E+04  0.50400001928E-02 0. -1.
</event>
<event>
 5   0  0.1095109E-07  0.3959417E+04  0.7818609E-02  0.8012784E-01
        2   -1    0    0  501    0  0.00000000000E+00  0.00000000000E+00  0.12483534464E+04  0.12483534464E+04  0.25500000920E-02 0. -1.
       -2   -1    0    0    0  501  0.00000000000E+00  0.00000000000E+00 -0.31395329006E+04  0.31395329006E+04  0.25500000920E-02 0.  1.
    10030    2    1    2    0    0  0.00000000000E+00  0.00000000000E+00 -0.18911794542E+04  0.43878863471E+04  0.39594174908E+04 0.  0.
        4    1    3    3  502    0  0.13450190142E+03 -0.19485031195E+04 -0.58736026248E+03  0.20395462385E+04  0.12699999809E+01 0. -1.
       -4    1    3    3    0  502 -0.13450190142E+03  0.19485031195E+04 -0.13038191917E+04  0.23483401086E+04  0.12699999809E+01 0.  1.
</event>
<event>
 5   0  0.3399500E-08  0.4041913E+04  0.7818609E-02  0.7996144E-01
       -1   -1    0    0    0  501  0.00000000000E+00  0.00000000000E+00  0.24313850346E+04  0.24313850346E+04  0.50400001928E-02 0.  1.
        1   -1    0    0  501    0  0.00000000000E+00  0.00000000000E+00 -0.16798104028E+04  0.16798104028E+04  0.50400001928E-02 0. -1.
    10030    2    1    2    0    0  0.00000000000E+00  0.00000000000E+00  0.75157463185E+03  0.41111954374E+04  0.40419133461E+04 0.  0.
        2    1    3    3  502    0  0.35026880545E+03  0.14992887828E+04 -0.95573941349E+03  0.18121790521E+04  0.25500000920E-02 0. -1.
       -2    1    3    3    0  502 -0.35026880545E+03 -0.14992887828E+04  0.17073140453E+04  0.22990163853E+04  0.25500000920E-02 0.  1.
</event>
<event>
 5   0  0.1101474E-07  0.3999673E+04  0.7818609E-02  0.8004612E-01
        2   -1    0    0  501    0  0.00000000000E+00  0.00000000000E+00  0.22463051942E+04  0.22463051942E+04  0.25500000920E-02 0.  1.
       -2   -1    0    0    0  501  0.00000000000E+00  0.00000000000E+00 -0.17804111294E+04  0.17804111294E+04  0.25500000920E-02 0. -1.
    10030    2    1    2    0    0  0.00000000000E+00  0.00000000000E+00  0.46589406489E+03  0.40267163236E+04  0.39996733705E+04 0.  0.
        5    1    3    3  502    0  0.10678268233E+04  0.10564623194E+04 -0.10961906164E+04  0.18595759501E+04  0.46999998093E+01 0. -1.
       -5    1    3    3    0  502 -0.10678268233E+04 -0.10564623194E+04  0.15620846813E+04  0.21671403735E+04  0.46999998093E+01 0.  1.
</event>
<event>
 5   0  0.3399500E-08  0.3978464E+04  0.7818609E-02  0.8008905E-01
        1   -1    0    0  501    0  0.00000000000E+00  0.00000000000E+00  0.14265765253E+04  0.14265765253E+04  0.50400001928E-02 0. -1.
       -1   -1    0    0    0  501  0.00000000000E+00  0.00000000000E+00 -0.27738045451E+04  0.27738045451E+04  0.50400001928E-02 0.  1.
    10030    2    1    2    0    0  0.00000000000E+00  0.00000000000E+00 -0.13472280198E+04  0.42003810705E+04  0.39784642514E+04 0.  0.
        4    1    3    3  502    0 -0.15327622512E+04 -0.11681020021E+04 -0.11942968431E+04  0.22671940739E+04  0.12699999809E+01 0.  1.
       -4    1    3    3    0  502  0.15327622512E+04  0.11681020021E+04 -0.15293117670E+03  0.19331869966E+04  0.12699999809E+01 0. -1.
</event>
<event>
 5   0  0.1073271E-07  0.3988633E+04  0.7818609E-02  0.8006844E-01
        2   -1    0    0  501    0  0.00000000000E+00  0.00000000000E+00  0.14072874477E+04  0.14072874477E+04  0.25500000920E-02 0. -1.
       -2   -1    0    0    0  501  0.00000000000E+00  0.00000000000E+00 -0.28262160032E+04  0.28262160032E+04  0.25500000920E-02 0.  1.
    10030    2    1    2    0    0  0.00000000000E+00  0.00000000000E+00 -0.14189285555E+04  0.42335034509E+04  0.39886330018E+04 0.  0.
        1    1    3    3  502    0 -0.90061363391E+03 -0.86493166200E+03 -0.23599499772E+04  0.26699392489E+04  0.50400001928E-02 0.  1.
       -1    1    3    3    0  502  0.90061363391E+03  0.86493166200E+03  0.94102142177E+03  0.15635642020E+04  0.50400001928E-02 0. -1.
</event>
<event>
 5   0  0.1101474E-07  0.3996384E+04  0.7818609E-02  0.8005276E-01
       -2   -1    0    0    0  501  0.00000000000E+00  0.00000000000E+00  0.18423839097E+04  0.18423839097E+04  0.25500000920E-02 0. -1.
        2   -1    0    0  501    0  0.00000000000E+00  0.00000000000E+00 -0.21671770554E+04  0.21671770554E+04  0.25500000920E-02 0.  1.
    10030    2    1    2    0    0  0.00000000000E+00  0.00000000000E+00 -0.32479314573E+03  0.40095609651E+04  0.39963844342E+04 0.  0.
        5    1    3    3  502    0  0.13453630863E+04  0.12773255547E+04 -0.90726453933E+03  0.20651182632E+04  0.46999998093E+01 0.  1.
       -5    1    3    3    0  502 -0.13453630863E+04 -0.12773255547E+04  0.58247139360E+03  0.19444427019E+04  0.46999998093E+01 0. -1.
</event>
<event>
 5   0  0.1087688E-07  0.4002643E+04  0.7818609E-02  0.8004014E-01
       -2   -1    0    0    0  501  0.00000000000E+00  0.00000000000E+00  0.21906498821E+04  0.21906498821E+04  0.25500000920E-02 0. -1.
        2   -1    0    0  501    0  0.00000000000E+00  0.00000000000E+00 -0.18283555476E+04  0.18283555476E+04  0.25500000920E-02 0.  1.
    10030    2    1    2    0    0  0.00000000000E+00  0.00000000000E+00  0.36229433447E+03  0.40190054296E+04  0.40026425595E+04 0.  0.
        2    1    3    3  502    0 -0.52473284983E+03  0.77753958356E+03 -0.15939528004E+04  0.18494858468E+04  0.25500000920E-02 0.  1.
       -2    1    3    3    0  502  0.52473284983E+03 -0.77753958356E+03  0.19562471349E+04  0.21695195828E+04  0.25500000920E-02 0. -1.
</event>
<event>
 5   0  0.3399500E-08  0.4011263E+04  0.7818609E-02  0.8002278E-01
        1   -1    0    0  501    0  0.00000000000E+00  0.00000000000E+00  0.16773818778E+04  0.16773818778E+04  0.50400001928E-02 0. -1.
       -1   -1    0    0    0  501  0.00000000000E+00  0.00000000000E+00 -0.23981165880E+04  0.23981165880E+04  0.50400001928E-02 0.  1.
    10030    2    1    2    0    0  0.00000000000E+00  0.00000000000E+00 -0.72073471017E+03  0.40754984658E+04  0.40112627965E+04 0.  0.
        3    1    3    3  502    0  0.15124941351E+04 -0.35132326142E+03 -0.16501410859E+04  0.22658402760E+04  0.10100000352E+00 0.  1.
       -3    1    3    3    0  502 -0.15124941351E+04  0.35132326142E+03  0.92940637573E+03  0.18096581899E+04  0.10100000352E+00 0. -1.
</event>
<event>
 5   0  0.3399500E-08  0.3944727E+04  0.7818609E-02  0.8015791E-01
        1   -1    0    0  501    0  0.00000000000E+00  0.00000000000E+00  0.27186985843E+04  0.27186985844E+04  0.50400001928E-02 0.  1.
       -1   -1    0    0    0  501  0.00000000000E+00  0.00000000000E+00 -0.14309116157E+04  0.14309116158E+04  0.50400001928E-02 0. -1.
    10030    2    1    2    0    0  0.00000000000E+00  0.00000000000E+00  0.12877869686E+04  0.41496102001E+04  0.39447268012E+04 0.  0.
        4    1    3    3  502    0  0.36008306324E+02  0.19265021954E+04  0.10870936406E+04  0.22123475097E+04  0.12699999809E+01 0.  1.
       -4    1    3    3    0  502 -0.36008306324E+02 -0.19265021954E+04  0.20069332796E+03  0.19372626905E+04  0.12699999809E+01 0. -1.
</event>
<event>
 5   0  0.1087688E-07  0.4035508E+04  0.7818609E-02  0.7997421E-01
       -2   -1    0    0    0  501  0.00000000000E+00  0.00000000000E+00  0.27739491157E+04  0.27739491157E+04  0.25500000920E-02 0. -1.
        2   -1    0    0  501    0  0.00000000000E+00  0.00000000000E+00 -0.14677024976E+04  0.14677024976E+04  0.25500000920E-02 0.  1.
    10030    2    1    2    0    0  0.00000000000E+00  0.00000000000E+00  0.13062466181E+04  0.42416516133E+04  0.40355084167E+04 0.  0.
        2    1    3    3  502    0 -0.73410930571E+03 -0.14658380026E+04 -0.58328844684E+03  0.17400640606E+04  0.25500000920E-02 0.  1.
       -2    1    3    3    0  502  0.73410930571E+03  0.14658380026E+04  0.18895350649E+04  0.25015875528E+04  0.25500000920E-02 0. -1.
</event>
<event>
 5   0  0.1101474E-07  0.3788708E+04  0.7818609E-02  0.8048583E-01
        2   -1    0    0  501    0  0.00000000000E+00  0.00000000000E+00  0.27034211223E+04  0.27034211223E+04  0.25500000920E-02 0.  1.
       -2   -1    0    0    0  501  0.00000000000E+00  0.00000000000E+00 -0.13274203508E+04  0.13274203508E+04  0.25500000920E-02 0. -1.
    10030    2    1    2    0    0  0.00000000000E+00  0.00000000000E+00  0.13760007716E+04  0.40308414731E+04  0.37887075445E+04 0.  0.
        5    1    3    3  502    0 -0.12349003852E+04 -0.10114258351E+04  0.17732885675E+04  0.23859035217E+04  0.46999998093E+01 0.  1.
       -5    1    3    3    0  502  0.12349003852E+04  0.10114258351E+04 -0.39728779596E+03  0.16449379514E+04  0.46999998093E+01 0. -1.
</event>
<event>
 5   0  0.3399500E-08  0.3985370E+04  0.7818609E-02  0.8007504E-01
        1   -1    0    0  501    0  0.00000000000E+00  0.00000000000E+00  0.18398037276E+04  0.18398037276E+04  0.50400001928E-02 0.  1.
       -1   -1    0    0    0  501  0.00000000000E+00  0.00000000000E+00 -0.21582700864E+04  0.21582700864E+04  0.50400001928E-02 0. -1.
    10030    2    1    2    0    0  0.00000000000E+00  0.00000000000E+00 -0.31846635880E+03  0.39980738139E+04  0.39853699201E+04 0.  0.
        1    1    3    3  502    0 -0.13842612229E+03 -0.15522159062E+04 -0.14050683645E+04  0.20982738429E+04  0.50400001928E-02 0. -1.
       -1    1    3    3    0  502  0.13842612229E+03  0.15522159062E+04  0.10866020057E+04  0.18997999710E+04  0.50400001928E-02 0.  1.
</event>
<event>
 5   0  0.3399500E-08  0.3919639E+04  0.7818609E-02  0.8020957E-01
        1   -1    0    0  501    0  0.00000000000E+00  0.00000000000E+00  0.26021980131E+04  0.26021980131E+04  0.50400001928E-02 0. -1.
       -1   -1    0    0    0  501  0.00000000000E+00  0.00000000000E+00 -0.14760185961E+04  0.14760185961E+04  0.50400001928E-02 0.  1.
    10030    2    1    2    0    0  0.00000000000E+00  0.00000000000E+00  0.11261794169E+04  0.40782166092E+04  0.39196390947E+04 0.  0.
        2    1    3    3  502    0  0.10510386827E+04 -0.54650380618E+03 -0.10613381711E+04  0.15905305518E+04  0.25500000920E-02 0.  1.
       -2    1    3    3    0  502 -0.10510386827E+04  0.54650380618E+03  0.21875175880E+04  0.24876860575E+04  0.25500000920E-02 0. -1.
</event>
<event>
 5   0  0.1095109E-07  0.3820862E+04  0.7818609E-02  0.8041693E-01
       -2   -1    0    0    0  501  0.00000000000E+00  0.00000000000E+00  0.17686161650E+04  0.17686161650E+04  0.25500000920E-02 0.  1.
        2   -1    0    0  501    0  0.00000000000E+00  0.00000000000E+00 -0.20636173636E+04  0.20636173636E+04  0.25500000920E-02 0. -1.
    10030    2    1    2    0    0  0.00000000000E+00  0.00000000000E+00 -0.29500119864E+03  0.38322335286E+04  0.38208622209E+04 0.  0.
        4    1    3    3  502    0 -0.16318482538E+04 -0.21455943934E+03 -0.11203258699E+04  0.19910038031E+04  0.12699999809E+01 0. -1.
       -4    1    3    3    0  502  0.16318482538E+04  0.21455943934E+03  0.82532467121E+03  0.18412297255E+04  0.12699999809E+01 0.  1.
</event>
<event>
 5   0  0.1095109E-07  0.4023762E+04  0.7818609E-02  0.7999770E-01
       -2   -1    0    0    0  501  0.00000000000E+00  0.00000000000E+00  0.13838318361E+04  0.13838318361E+04  0.25500000920E-02 0. -1.
        2   -1    0    0  501    0  0.00000000000E+00  0.00000000000E+00 -0.29249691922E+04  0.29249691922E+04  0.25500000920E-02 0.  1.
    10030    2    1    2    0    0  0.00000000000E+00  0.00000000000E+00 -0.15411373560E+04  0.43088010283E+04  0.40237621638E+04 0.  0.
        4    1    3    3  502    0 -0.61565993460E+03 -0.13607508049E+04 -0.22140118307E+04  0.26706796715E+04  0.12699999809E+01 0.  1.
       -4    1    3    3    0  502  0.61565993460E+03  0.13607508049E+04  0.67287447467E+03  0.16381213568E+04  0.12699999809E+01 0. -1.
</event>
<event>
 5   0  0.1095109E-07  0.3976594E+04  0.7818609E-02  0.8009285E-01
        2   -1    0    0  501    0  0.00000000000E+00  0.00000000000E+00  0.27613997401E+04  0.27613997401E+04  0.25500000920E-02 0. -1.
       -2   -1    0    0    0  501  0.00000000000E+00  0.00000000000E+00 -0.14316381993E+04  0.14316381993E+04  0.25500000920E-02 0.  1.
    10030    2    1    2    0    0  0.00000000000E+00  0.00000000000E+00  0.13297615408E+04  0.41930379393E+04  0.39765941967E+04 0.  0.
        4    1    3    3  502    0 -0.10426841980E+04  0.11112262852E+04  0.20116268073E+04  0.25236200622E+04  0.12699999809E+01 0. -1.
       -4    1    3    3    0  502  0.10426841980E+04 -0.11112262852E+04 -0.68186526653E+03  0.16694178771E+04  0.12699999809E+01 0.  1.
</event>
<event>
 5   0  0.1095903E-07  0.4002496E+04  0.7818609E-02  0.8004043E-01
       -2   -1    0    0    0  501  0.00000000000E+00  0.00000000000E+00  0.22295212954E+04  0.22295212954E+04  0.25500000920E-02 0.  1.
        2   -1    0    0  501    0  0.00000000000E+00  0.00000000000E+00 -0.17963465330E+04  0.17963465330E+04  0.25500000920E-02 0. -1.
    10030    2    1    2    0    0  0.00000000000E+00  0.00000000000E+00  0.43317476245E+03  0.40258678284E+04  0.40024956461E+04 0.  0.
        3    1    3    3  502    0 -0.17992772877E+04 -0.82575672676E+02 -0.66073025068E+03  0.19185364146E+04  0.10100000352E+00 0. -1.
       -3    1    3    3    0  502  0.17992772877E+04  0.82575672676E+02  0.10939050131E+04  0.21073314138E+04  0.10100000352E+00 0.  1.
</event>
<event>
 5   0  0.3399500E-08  0.3990919E+04  0.7818609E-02  0.8006381E-01
       -1   -1    0    0    0  501  0.00000000000E+00  0.00000000000E+00  0.19818296168E+04  0.19818296168E+04  0.50400001928E-02 0. -1.
        1   -1    0    0  501    0  0.00000000000E+00  0.00000000000E+00 -0.20091829341E+04  0.20091829341E+04  0.50400001928E-02 0.  1.
    10030    2    1    2    0    0  0.00000000000E+00  0.00000000000E+00 -0.27353317315E+02  0.39910125509E+04  0.39909188137E+04 0.  0.
        2    1    3    3  502    0  0.13141859149E+04 -0.12040850573E+04 -0.91088935001E+03  0.20016555278E+04  0.25500000920E-02 0.  1.
       -2    1    3    3    0  502 -0.13141859149E+04  0.12040850573E+04  0.88353603269E+03  0.19893570231E+04  0.25500000920E-02 0. -1.
</event>
<event>
 5   0  0.3399500E-08  0.4019717E+04  0.7818609E-02  0.8000581E-01
       -1   -1    0    0    0  501  0.00000000000E+00  0.00000000000E+00  0.16691353030E+04  0.16691353030E+04  0.50400001928E-02 0. -1.
        1   -1    0    0  501    0  0.00000000000E+00  0.00000000000E+00 -0.24201340619E+04  0.24201340619E+04  0.50400001928E-02 0.  1.
    10030    2    1    2    0    0  0.00000000000E+00  0.00000000000E+00 -0.75099875894E+03  0.40892693649E+04  0.40197170053E+04 0.  0.
        1    1    3    3  502    0 -0.18774901040E+04  0.49896598881E+03 -0.89977568441E+03  0.21409185951E+04  0.50400001928E-02 0. -1.
       -1    1    3    3    0  502  0.18774901040E+04 -0.49896598881E+03  0.14877692547E+03  0.19483507698E+04  0.50400001928E-02 0.  1.
</event>
<event>
 5   0  0.1073271E-07  0.4003435E+04  0.7818609E-02  0.8003854E-01
        2   -1    0    0  501    0  0.00000000000E+00  0.00000000000E+00  0.25765994390E+04  0.25765994390E+04  0.25500000920E-02 0.  1.
       -2   -1    0    0    0  501  0.00000000000E+00  0.00000000000E+00 -0.15551014622E+04  0.15551014622E+04  0.25500000920E-02 0. -1.
    10030    2    1    2    0    0  0.00000000000E+00  0.00000000000E+00  0.10214979768E+04  0.41317009013E+04  0.40034353025E+04 0.  0.
        1    1    3    3  502    0  0.95478628332E+03 -0.17825620185E+03 -0.12956084292E+04  0.16192570278E+04  0.50400001928E-02 0. -1.
       -1    1    3    3    0  502 -0.95478628332E+03  0.17825620185E+03  0.23171064060E+04  0.25124438734E+04  0.50400001928E-02 0.  1.
</event>
<event>
 5   0  0.1101474E-07  0.3994194E+04  0.7818609E-02  0.8005719E-01
        2   -1    0    0  501    0  0.00000000000E+00  0.00000000000E+00  0.22971606568E+04  0.22971606568E+04  0.25500000920E-02 0.  1.
       -2   -1    0    0    0  501  0.00000000000E+00  0.00000000000E+00 -0.17362287239E+04  0.17362287239E+04  0.25500000920E-02 0. -1.
    10030    2    1    2    0    0  0.00000000000E+00  0.00000000000E+00  0.56093193291E+03  0.40333893807E+04  0.39941939441E+04 0.  0.
        5    1    3    3  502    0  0.10715087436E+04  0.70596063795E+03  0.18257977147E+04  0.22316072224E+04  0.46999998093E+01 0.  1.
       -5    1    3    3    0  502 -0.10715087436E+04 -0.70596063795E+03 -0.12648657818E+04  0.18017821583E+04  0.46999998093E+01 0. -1.
</event>
<event>
 5   0  0.1095109E-07  0.4113168E+04  0.7818609E-02  0.7982098E-01
        2   -1    0    0  501    0  0.00000000000E+00  0.00000000000E+00  0.25433892862E+04  0.25433892862E+04  0.25500000920E-02 0.  1.
       -2   -1    0    0    0  501  0.00000000000E+00  0.00000000000E+00 -0.16629530378E+04  0.16629530378E+04  0.25500000920E-02 0. -1.
    10030    2    1    2    0    0  0.00000000000E+00  0.00000000000E+00  0.88043624839E+03  0.42063423240E+04  0.41131676065E+04 0.  0.
        4    1    3    3  502    0 -0.20413250166E+03  0.16817299274E+04 -0.75223611713E+03  0.18535766550E+04  0.12699999809E+01 0. -1.
       -4    1    3    3    0  502  0.20413250166E+03 -0.16817299274E+04  0.16326723655E+04  0.23527656690E+04  0.12699999809E+01 0.  1.
</event>
<event>
 5   0  0.3399500E-08  0.3989178E+04  0.7818609E-02  0.8006733E-01
       -3   -1    0    0    0  501  0.00000000000E+00  0.00000000000E+00  0.24092220132E+04  0.24092220153E+04  0.10100000352E+00 0.  1.
        3   -1    0    0  501    0  0.00000000000E+00  0.00000000000E+00 -0.16513154429E+04  0.16513154459E+04  0.10100000352E+00 0. -1.
    10030    2    1    2    0    0  0.00000000000E+00  0.00000000000E+00  0.75790657036E+03  0.40605374613E+04  0.39891781240E+04 0.  0.
        3    1    3    3  502    0 -0.17425277491E+04  0.77517971716E+03 -0.21551345519E+03  0.19193104517E+04  0.10100000352E+00 0. -1.
       -3    1    3    3    0  502  0.17425277491E+04 -0.77517971716E+03  0.97342002555E+03  0.21412270096E+04  0.10100000352E+00 0.  1.
</event>
<event>
 5   0  0.3399500E-08  0.3950905E+04  0.7818609E-02  0.8014524E-01
        1   -1    0    0  501    0  0.00000000000E+00  0.00000000000E+00  0.18193321486E+04  0.18193321486E+04  0.50400001928E-02 0. -1.
       -1   -1    0    0    0  501  0.00000000000E+00  0.00000000000E+00 -0.21449698844E+04  0.21449698844E+04  0.50400001928E-02 0.  1.
    10030    2    1    2    0    0  0.00000000000E+00  0.00000000000E+00 -0.32563773580E+03  0.39643020330E+04  0.39509050449E+04 0.  0.
        3    1    3    3  502    0 -0.61278262324E+03 -0.79909206080E+03  0.15424621349E+04  0.18420749476E+04  0.10100000352E+00 0. -1.
       -3    1    3    3    0  502  0.61278262324E+03  0.79909206080E+03 -0.18680998707E+04  0.21222270854E+04  0.10100000352E+00 0.  1.
</event>
<event>
 5   0  0.3399500E-08  0.3957122E+04  0.7818609E-02  0.8013253E-01
        1   -1    0    0  501    0  0.00000000000E+00  0.00000000000E+00  0.14069101705E+04  0.14069101705E+04  0.50400001928E-02 0.  1.
       -1   -1    0    0    0  501  0.00000000000E+00  0.00000000000E+00 -0.27824830328E+04  0.27824830328E+04  0.50400001928E-02 0. -1.
    10030    2    1    2    0    0  0.00000000000E+00  0.00000000000E+00 -0.13755728623E+04  0.41893932033E+04  0.39571220239E+04 0.  0.
        2    1    3    3  502    0  0.19520104793E+03  0.19330950165E+04 -0.29202078843E+03  0.19647483128E+04  0.25500000920E-02 0.  1.
       -2    1    3    3    0  502 -0.19520104793E+03 -0.19330950165E+04 -0.10835520739E+04  0.22246448905E+04  0.25500000920E-02 0. -1.
</event>
<event>
 5   0  0.3399500E-08  0.4004001E+04  0.7818609E-02  0.8003740E-01
       -1   -1    0    0    0  501  0.00000000000E+00  0.00000000000E+00  0.22165682776E+04  0.22165682776E+04  0.50400001928E-02 0.  1.
        1   -1    0    0  501    0  0.00000000000E+00  0.00000000000E+00 -0.18082034760E+04  0.18082034761E+04  0.50400001928E-02 0. -1.
    10030    2    1    2    0    0  0.00000000000E+00  0.00000000000E+00  0.40836480154E+03  0.40247717536E+04  0.40040012310E+04 0.  0.
        2    1    3    3  502    0 -0.13375904735E+04  0.38299453969E+03  0.16511543045E+04  0.21591997660E+04  0.25500000920E-02 0.  1.
       -2    1    3    3    0  502  0.13375904735E+04 -0.38299453969E+03 -0.12427895030E+04  0.18655719876E+04  0.25500000920E-02 0. -1.
</event>
<event>
 5   0  0.3399500E-08  0.3949565E+04  0.7818609E-02  0.8014799E-01
        1   -1    0    0  501    0  0.00000000000E+00  0.00000000000E+00  0.18337362889E+04  0.18337362889E+04  0.50400001928E-02 0. -1.
       -1   -1    0    0    0  501  0.00000000000E+00  0.00000000000E+00 -0.21266771939E+04  0.21266771939E+04  0.50400001928E-02 0.  1.
    10030    2    1    2    0    0  0.00000000000E+00  0.00000000000E+00 -0.29294090497E+03  0.39604134829E+04  0.39495646066E+04 0.  0.
        5    1    3    3  502    0 -0.15424881958E+04 -0.12242995219E+04 -0.29372034346E+03  0.19910984113E+04  0.46999998093E+01 0. -1.
       -5    1    3    3    0  502  0.15424881958E+04  0.12242995219E+04  0.77943848661E+00  0.19693150715E+04  0.46999998093E+01 0.  1.
</event>
<event>
 5   0  0.1073271E-07  0.3986743E+04  0.7818609E-02  0.8007226E-01
       -2   -1    0    0    0  501  0.00000000000E+00  0.00000000000E+00  0.17247336743E+04  0.17247336743E+04  0.25500000920E-02 0. -1.
        2   -1    0    0  501    0  0.00000000000E+00  0.00000000000E+00 -0.23038508911E+04  0.23038508911E+04  0.25500000920E-02 0.  1.
    10030    2    1    2    0    0  0.00000000000E+00  0.00000000000E+00 -0.57911721684E+03  0.40285845654E+04  0.39867426365E+04 0.  0.
        1    1    3    3  502    0 -0.41986701076E+03 -0.82456508777E+03  0.14945689626E+04  0.17578203192E+04  0.50400001928E-02 0. -1.
       -1    1    3    3    0  502  0.41986701076E+03  0.82456508777E+03 -0.20736861795E+04  0.22707642461E+04  0.50400001928E-02 0.  1.
</event>
<event>
 5   0  0.3399500E-08  0.4013468E+04  0.7818609E-02  0.8001835E-01
        1   -1    0    0  501    0  0.00000000000E+00  0.00000000000E+00  0.22003416419E+04  0.22003416419E+04  0.50400001928E-02 0.  1.
       -1   -1    0    0    0  501  0.00000000000E+00  0.00000000000E+00 -0.18301621099E+04  0.18301621099E+04  0.50400001928E-02 0. -1.
    10030    2    1    2    0    0  0.00000000000E+00  0.00000000000E+00  0.37017953203E+03  0.40305037518E+04  0.40134682766E+04 0.  0.
        4    1    3    3  502    0 -0.92070017934E+03 -0.32985617719E+03 -0.15746282574E+04  0.18536314844E+04  0.12699999809E+01 0. -1.
       -4    1    3    3    0  502  0.92070017934E+03  0.32985617719E+03  0.19448077894E+04  0.21768722674E+04  0.12699999809E+01 0.  1.
</event>
<event>
 5   0  0.3399500E-08  0.4054861E+04  0.7818609E-02  0.7993570E-01
        1   -1    0    0  501    0  0.00000000000E+00  0.00000000000E+00  0.14462557082E+04  0.14462557082E+04  0.50400001928E-02 0.  1.
       -1   -1    0    0    0  501  0.00000000000E+00  0.00000000000E+00 -0.28421490569E+04  0.28421490569E+04  0.50400001928E-02 0. -1.
    10030    2    1    2    0    0  0.00000000000E+00  0.00000000000E+00 -0.13958933486E+04  0.42884047651E+04  0.40548609333E+04 0.  0.
        1    1    3    3  502    0  0.16773397184E+02  0.25782016203E+03  0.14287739163E+04  0.14519461032E+04  0.50400001928E-02 0.  1.
       -1    1    3    3    0  502 -0.16773397184E+02 -0.25782016203E+03 -0.28246672649E+04  0.28364586618E+04  0.50400001928E-02 0. -1.
</event>
<event>
 5   0  0.1095109E-07  0.3945855E+04  0.7818609E-02  0.8015559E-01
        2   -1    0    0  501    0  0.00000000000E+00  0.00000000000E+00  0.24019667531E+04  0.24019667531E+04  0.25500000920E-02 0. -1.
       -2   -1    0    0    0  501  0.00000000000E+00  0.00000000000E+00 -0.16205230915E+04  0.16205230915E+04  0.25500000920E-02 0.  1.
    10030    2    1    2    0    0  0.00000000000E+00  0.00000000000E+00  0.78144366156E+03  0.40224898446E+04  0.39458548318E+04 0.  0.
        4    1    3    3  502    0 -0.61527227347E+03  0.65762698171E+03  0.21802083813E+04  0.23588860541E+04  0.12699999809E+01 0. -1.
       -4    1    3    3    0  502  0.61527227347E+03 -0.65762698171E+03 -0.13987647197E+04  0.16636037905E+04  0.12699999809E+01 0.  1.
</event>
<event>
 5   0  0.3399500E-08  0.4009378E+04  0.7818609E-02  0.8002657E-01
        1   -1    0    0  501    0  0.00000000000E+00  0.00000000000E+00  0.20898711355E+04  0.20898711355E+04  0.50400001928E-02 0.  1.
       -1   -1    0    0    0  501  0.00000000000E+00  0.00000000000E+00 -0.19229790803E+04  0.19229790803E+04  0.50400001928E-02 0. -1.
    10030    2    1    2    0    0  0.00000000000E+00  0.00000000000E+00  0.16689205520E+03  0.40128502158E+04  0.40093782431E+04 0.  0.
        5    1    3    3  502    0  0.50853745406E+03 -0.18891849991E+04 -0.35411224326E+03  0.19882273195E+04  0.46999998093E+01 0. -1.
       -5    1    3    3    0  502 -0.50853745406E+03  0.18891849991E+04  0.52100429846E+03  0.20246228963E+04  0.46999998093E+01 0.  1.
</event>
<event>
 5   0  0.3399500E-08  0.4006199E+04  0.7818609E-02  0.8003297E-01
       -1   -1    0    0    0  501  0.00000000000E+00  0.00000000000E+00  0.21622351331E+04  0.21622351331E+04  0.50400001928E-02 0.  1.
        1   -1    0    0  501    0  0.00000000000E+00  0.00000000000E+00 -0.18556758494E+04  0.18556758494E+04  0.50400001928E-02 0. -1.
    10030    2    1    2    0    0  0.00000000000E+00  0.00000000000E+00  0.30655928367E+03  0.40179109825E+04  0.40061989552E+04 0.  0.
        4    1    3    3  502    0  0.51029077397E+03 -0.10030836464E+04  0.18151793524E+04  0.21357554096E+04  0.12699999809E+01 0.  1.
       -4    1    3    3    0  502 -0.51029077397E+03  0.10030836464E+04 -0.15086200687E+04  0.18821555728E+04  0.12699999809E+01 0. -1.
</event>
<event>
 5   0  0.1073271E-07  0.4004955E+04  0.7818609E-02  0.8003548E-01
       -2   -1    0    0    0  501  0.00000000000E+00  0.00000000000E+00  0.19794490327E+04  0.19794490327E+04  0.25500000920E-02 0. -1.
        2   -1    0    0  501    0  0.00000000000E+00  0.00000000000E+00 -0.20257734548E+04  0.20257734548E+04  0.25500000920E-02 0.  1.
    10030    2    1    2    0    0  0.00000000000E+00  0.00000000000E+00 -0.46324422093E+02  0.40052224875E+04  0.40049545843E+04 0.  0.
        1    1    3    3  502    0  0.53874618807E+03  0.26259880691E+02 -0.19517564744E+04  0.20249173741E+04  0.50400001928E-02 0.  1.
       -1    1    3    3    0  502 -0.53874618807E+03 -0.26259880691E+02  0.19054320523E+04  0.19803051135E+04  0.50400001928E-02 0. -1.
</event>
<event>
 5   0  0.3399500E-08  0.3969199E+04  0.7818609E-02  0.8010789E-01
        1   -1    0    0  501    0  0.00000000000E+00  0.00000000000E+00  0.20713869160E+04  0.20713869160E+04  0.50400001928E-02 0. -1.
       -1   -1    0    0    0  501  0.00000000000E+00  0.00000000000E+00 -0.19014480402E+04  0.19014480402E+04  0.50400001928E-02 0.  1.
    10030    2    1    2    0    0  0.00000000000E+00  0.00000000000E+00  0.16993887581E+03  0.39728349562E+04  0.39691987060E+04 0.  0.
        4    1    3    3  502    0  0.36648865296E+03  0.12756320948E+04  0.15618149123E+04  0.20495898632E+04  0.12699999809E+01 0. -1.
       -4    1    3    3    0  502 -0.36648865296E+03 -0.12756320948E+04 -0.13918760365E+04  0.19232450930E+04  0.12699999809E+01 0.  1.
</event>
<event>
 5   0  0.1073271E-07  0.4134208E+04  0.7818609E-02  0.7978007E-01
       -2   -1    0    0    0  501  0.00000000000E+00  0.00000000000E+00  0.16040967063E+04  0.16040967063E+04  0.25500000920E-02 0. -1.
        2   -1    0    0  501    0  0.00000000000E+00  0.00000000000E+00 -0.26637536823E+04  0.26637536823E+04  0.25500000920E-02 0.  1.
    10030    2    1    2    0    0  0.00000000000E+00  0.00000000000E+00 -0.10596569760E+04  0.42678503887E+04  0.41342077879E+04 0.  0.
        1    1    3    3  502    0 -0.15162807869E+04 -0.88974008603E+03 -0.16522539906E+04  0.24126102244E+04  0.50400001928E-02 0.  1.
       -1    1    3    3    0  502  0.15162807869E+04  0.88974008603E+03  0.59259701464E+03  0.18552401643E+04  0.50400001928E-02 0. -1.
</event>
<event>
 5   0  0.1095903E-07  0.3754203E+04  0.7818609E-02  0.8056055E-01
       -2   -1    0    0    0  501  0.00000000000E+00  0.00000000000E+00  0.16669495739E+04  0.16669495739E+04  0.25500000920E-02 0. -1.
        2   -1    0    0  501    0  0.00000000000E+00  0.00000000000E+00 -0.21137473405E+04  0.21137473405E+04  0.25500000920E-02 0.  1.
    10030    2    1    2    0    0  0.00000000000E+00  0.00000000000E+00 -0.44679776660E+03  0.37806969144E+04  0.37542030998E+04 0.  0.
        3    1    3    3  502    0 -0.76423562637E+03 -0.57616226380E+03 -0.18495673009E+04  0.20825268924E+04  0.10100000352E+00 0.  1.
       -3    1    3    3    0  502  0.76423562637E+03  0.57616226380E+03  0.14027695343E+04  0.16981700220E+04  0.10100000352E+00 0. -1.
</event>
<event>
 5   0  0.1095903E-07  0.4000260E+04  0.7818609E-02  0.8004494E-01
        2   -1    0    0  501    0  0.00000000000E+00  0.00000000000E+00  0.21151300961E+04  0.21151300961E+04  0.25500000920E-02 0. -1.
       -2   -1    0    0    0  501  0.00000000000E+00  0.00000000000E+00 -0.18913829046E+04  0.18913829046E+04  0.25500000920E-02 0.  1.
    10030    2    1    2    0    0  0.00000000000E+00  0.00000000000E+00  0.22374719145E+03  0.40065130007E+04  0.40002604439E+04 0.  0.
        3    1    3    3  502    0 -0.26961406580E+02 -0.74127717772E+03 -0.17485286336E+04  0.18993607252E+04  0.10100000352E+00 0.  1.
       -3    1    3    3    0  502  0.26961406580E+02  0.74127717772E+03  0.19722758251E+04  0.21071522755E+04  0.10100000352E+00 0. -1.
</event>
<event>
 5   0  0.3399500E-08  0.4011703E+04  0.7818609E-02  0.8002190E-01
        1   -1    0    0  501    0  0.00000000000E+00  0.00000000000E+00  0.25303189506E+04  0.25303189506E+04  0.50400001928E-02 0.  1.
       -1   -1    0    0    0  501  0.00000000000E+00  0.00000000000E+00 -0.15900923583E+04  0.15900923583E+04  0.50400001928E-02 0. -1.
    10030    2    1    2    0    0  0.00000000000E+00  0.00000000000E+00  0.94022659231E+03  0.41204113090E+04  0.40117032929E+04 0.  0.
        1    1    3    3  502    0  0.15713292979E+04  0.12172641163E+04  0.74692163171E+03  0.21233698725E+04  0.50400001928E-02 0.  1.
       -1    1    3    3    0  502 -0.15713292979E+04 -0.12172641163E+04  0.19330496059E+03  0.19970414365E+04  0.50400001928E-02 0. -1.
</event>
<event>
 5   0  0.3399500E-08  0.4047211E+04  0.7818609E-02  0.7995090E-01
        1   -1    0    0  501    0  0.00000000000E+00  0.00000000000E+00  0.14205965832E+04  0.14205965832E+04  0.50400001928E-02 0. -1.
       -1   -1    0    0    0  501  0.00000000000E+00  0.00000000000E+00 -0.28825775172E+04  0.28825775172E+04  0.50400001928E-02 0.  1.
    10030    2    1    2    0    0  0.00000000000E+00  0.00000000000E+00 -0.14619809340E+04  0.43031741004E+04  0.40472112728E+04 0.  0.
        5    1    3    3  502    0 -0.11466559269E+04  0.12768214307E+04 -0.18711259191E+04  0.25389421175E+04  0.46999998093E+01 0.  1.
       -5    1    3    3    0  502  0.11466559269E+04 -0.12768214307E+04  0.40914498515E+03  0.17642319829E+04  0.46999998093E+01 0. -1.
</event>
<event>
 5   0  0.1095903E-07  0.4013415E+04  0.7818609E-02  0.8001846E-01
        2   -1    0    0  501    0  0.00000000000E+00  0.00000000000E+00  0.22089840235E+04  0.22089840235E+04  0.25500000920E-02 0. -1.
       -2   -1    0    0    0  501  0.00000000000E+00  0.00000000000E+00 -0.18229533450E+04  0.18229533450E+04  0.25500000920E-02 0.  1.
    10030    2    1    2    0    0  0.00000000000E+00  0.00000000000E+00  0.38603067855E+03  0.40319373685E+04  0.40134149124E+04 0.  0.
        3    1    3    3  502    0 -0.10051513754E+04  0.10272261790E+04  0.15999614939E+04  0.21506742437E+04  0.10100000352E+00 0. -1.
       -3    1    3    3    0  502  0.10051513754E+04 -0.10272261790E+04 -0.12139308153E+04  0.18812631249E+04  0.10100000352E+00 0.  1.
</event>
<event>
 5   0  0.3399500E-08  0.3973068E+04  0.7818609E-02  0.8010002E-01
       -1   -1    0    0    0  501  0.00000000000E+00  0.00000000000E+00  0.19454216063E+04  0.19454216063E+04  0.50400001928E-02 0. -1.
        1   -1    0    0  501    0  0.00000000000E+00  0.00000000000E+00 -0.20285147645E+04  0.20285147645E+04  0.50400001928E-02 0.  1.
    10030    2    1    2    0    0  0.00000000000E+00  0.00000000000E+00 -0.83093158191E+02  0.39739363708E+04  0.39730675562E+04 0.  0.
        5    1    3    3  502    0 -0.18835107178E+04 -0.47599136567E+03 -0.45650349247E+03  0.19956447412E+04  0.46999998093E+01 0.  1.
       -5    1    3    3    0  502  0.18835107178E+04  0.47599136567E+03  0.37341033428E+03  0.19782916297E+04  0.46999998093E+01 0. -1.
</event>
<event>
 5   0  0.1087688E-07  0.3991979E+04  0.7818609E-02  0.8006167E-01
       -2   -1    0    0    0  501  0.00000000000E+00  0.00000000000E+00  0.17690016341E+04  0.17690016341E+04  0.25500000920E-02 0. -1.
        2   -1    0    0  501    0  0.00000000000E+00  0.00000000000E+00 -0.22521028751E+04  0.22521028751E+04  0.25500000920E-02 0.  1.
    10030    2    1    2    0    0  0.00000000000E+00  0.00000000000E+00 -0.48310124098E+03  0.40211045092E+04  0.39919787906E+04 0.  0.
        2    1    3    3  502    0 -0.13595612996E+04  0.42519006092E+03  0.11667847788E+04  0.18413528275E+04  0.25500000920E-02 0. -1.
       -2    1    3    3    0  502  0.13595612996E+04 -0.42519006092E+03 -0.16498860198E+04  0.21797516816E+04  0.25500000920E-02 0.  1.
</event>
<event>
 5   0  0.3399500E-08  0.4050254E+04  0.7818609E-02  0.7994485E-01
        1   -1    0    0  501    0  0.00000000000E+00  0.00000000000E+00  0.11831506956E+04  0.11831506956E+04  0.50400001928E-02 0. -1.
       -1   -1    0    0    0  501  0.00000000000E+00  0.00000000000E+00 -0.34662869401E+04  0.34662869401E+04  0.50400001928E-02 0.  1.
    10030    2    1    2    0    0  0.00000000000E+00  0.00000000000E+00 -0.22831362445E+04  0.46494376357E+04  0.40502542164E+04 0.  0.
        3    1    3    3  502    0  0.15621563129E+04  0.11517168806E+04 -0.18053455710E+04  0.26506710018E+04  0.10100000352E+00 0.  1.
       -3    1    3    3    0  502 -0.15621563129E+04 -0.11517168806E+04 -0.47779067350E+03  0.19987666339E+04  0.10100000352E+00 0. -1.
</event>
<event>
 5   0  0.3399500E-08  0.4010657E+04  0.7818609E-02  0.8002400E-01
       -1   -1    0    0    0  501  0.00000000000E+00  0.00000000000E+00  0.16995771652E+04  0.16995771652E+04  0.50400001928E-02 0.  1.
        1   -1    0    0  501    0  0.00000000000E+00  0.00000000000E+00 -0.23660841898E+04  0.23660841898E+04  0.50400001928E-02 0. -1.
    10030    2    1    2    0    0  0.00000000000E+00  0.00000000000E+00 -0.66650702457E+03  0.40656613550E+04  0.40106571332E+04 0.  0.
        3    1    3    3  502    0  0.54594150160E+03  0.17059951275E+04  0.58070508192E+03  0.18830002391E+04  0.10100000352E+00 0.  1.
       -3    1    3    3    0  502 -0.54594150160E+03 -0.17059951275E+04 -0.12472121065E+04  0.21826611159E+04  0.10100000352E+00 0. -1.
</event>
<event>
 5   0  0.3399500E-08  0.4054713E+04  0.7818609E-02  0.7993599E-01
        1   -1    0    0  501    0  0.00000000000E+00  0.00000000000E+00  0.13445556329E+04  0.13445556329E+04  0.50400001928E-02 0.  1.
       -1   -1    0    0    0  501  0.00000000000E+00  0.00000000000E+00 -0.30569018602E+04  0.30569018602E+04  0.50400001928E-02 0. -1.
    10030    2    1    2    0    0  0.00000000000E+00  0.00000000000E+00 -0.17123462274E+04  0.44014574931E+04  0.40547131170E+04 0.  0.
        4    1    3    3  502    0 -0.13535277808E+04 -0.14894042725E+04 -0.11216489260E+04  0.23040096499E+04  0.12699999809E+01 0. -1.
       -4    1    3    3    0  502  0.13535277808E+04  0.14894042725E+04 -0.59069730132E+03  0.20974478433E+04  0.12699999809E+01 0.  1.
</event>
<event>
 5   0  0.1095109E-07  0.3993395E+04  0.7818609E-02  0.8005880E-01
       -2   -1    0    0    0  501  0.00000000000E+00  0.00000000000E+00  0.16153203438E+04  0.16153203438E+04  0.25500000920E-02 0.  1.
        2   -1    0    0  501    0  0.00000000000E+00  0.00000000000E+00 -0.24681181842E+04  0.24681181842E+04  0.25500000920E-02 0. -1.
    10030    2    1    2    0    0  0.00000000000E+00  0.00000000000E+00 -0.85279784042E+03  0.40834385280E+04  0.39933953042E+04 0.  0.
        4    1    3    3  502    0 -0.47091720617E+03 -0.17181796993E+04 -0.13483355152E+04  0.22342593333E+04  0.12699999809E+01 0. -1.
       -4    1    3    3    0  502  0.47091720617E+03  0.17181796993E+04  0.49553767475E+03  0.18491791947E+04  0.12699999809E+01 0.  1.
</event>
<event>
 5   0  0.3399500E-08  0.4002329E+04  0.7818609E-02  0.8004077E-01
        1   -1    0    0  501    0  0.00000000000E+00  0.00000000000E+00  0.25575710573E+04  0.25575710573E+04  0.50400001928E-02 0. -1.
       -1   -1    0    0    0  501  0.00000000000E+00  0.00000000000E+00 -0.15658059608E+04  0.15658059608E+04  0.50400001928E-02 0.  1.
    10030    2    1    2    0    0  0.00000000000E+00  0.00000000000E+00  0.99176509655E+03  0.41233770181E+04  0.40023293252E+04 0.  0.
        5    1    3    3  502    0 -0.17154197212E+04  0.24487751087E+03  0.15271607581E+04  0.23097341592E+04  0.46999998093E+01 0. -1.
       -5    1    3    3    0  502  0.17154197212E+04 -0.24487751087E+03 -0.53539566152E+03  0.18136428589E+04  0.46999998093E+01 0.  1.
</event>
<event>
 5   0  0.3399500E-08  0.3982035E+04  0.7818609E-02  0.8008180E-01
       -3   -1    0    0    0  501  0.00000000000E+00  0.00000000000E+00  0.28159381362E+04  0.28159381380E+04  0.10100000352E+00 0. -1.
        3   -1    0    0  501    0  0.00000000000E+00  0.00000000000E+00 -0.14077550951E+04  0.14077550987E+04  0.10100000352E+00 0.  1.
    10030    2    1    2    0    0  0.00000000000E+00  0.00000000000E+00  0.14081830411E+04  0.42236932367E+04  0.39820352937E+04 0.  0.
        4    1    3    3  502    0 -0.13807366661E+04 -0.92042320876E+03 -0.46292311682E+03  0.17227629115E+04  0.12699999809E+01 0.  1.
       -4    1    3    3    0  502  0.13807366661E+04  0.92042320876E+03  0.18711061579E+04  0.25009303252E+04  0.12699999809E+01 0. -1.
</event>
<event>
 5   0  0.3399500E-08  0.4016935E+04  0.7818609E-02  0.8001139E-01
        1   -1    0    0  501    0  0.00000000000E+00  0.00000000000E+00  0.27261612375E+04  0.27261612375E+04  0.50400001928E-02 0. -1.
       -1   -1    0    0    0  501  0.00000000000E+00  0.00000000000E+00 -0.14797151201E+04  0.14797151201E+04  0.50400001928E-02 0.  1.
    10030    2    1    2    0    0  0.00000000000E+00  0.00000000000E+00  0.12464461174E+04  0.42058763576E+04  0.40169351515E+04 0.  0.
        4    1    3    3  502    0  0.86582784526E+03  0.13063126695E+04  0.19384229061E+04  0.24927084916E+04  0.12699999809E+01 0. -1.
       -4    1    3    3    0  502 -0.86582784526E+03 -0.13063126695E+04 -0.69197678871E+03  0.17131678660E+04  0.12699999809E+01 0.  1.
</event>
<event>
 5   0  0.1087688E-07  0.3774478E+04  0.7818609E-02  0.8051654E-01
       -2   -1    0    0    0  501  0.00000000000E+00  0.00000000000E+00  0.29862629401E+04  0.29862629401E+04  0.25500000920E-02 0.  1.
        2   -1    0    0  501    0  0.00000000000E+00  0.00000000000E+00 -0.11926849418E+04  0.11926849418E+04  0.25500000920E-02 0. -1.
    10030    2    1    2    0    0  0.00000000000E+00  0.00000000000E+00  0.17935779984E+04  0.41789478819E+04  0.37744778929E+04 0.  0.
        2    1    3    3  502    0  0.16088271938E+04  0.73709634640E+03  0.16228312740E+04  0.24010866930E+04  0.25500000920E-02 0.  1.
       -2    1    3    3    0  502 -0.16088271938E+04 -0.73709634640E+03  0.17074672436E+03  0.17778611890E+04  0.25500000920E-02 0. -1.
</event>
<event>
 5   0  0.1095109E-07  0.3993050E+04  0.7818609E-02  0.8005950E-01
       -2   -1    0    0    0  501  0.00000000000E+00  0.00000000000E+00  0.17313096320E+04  0.17313096320E+04  0.25500000920E-02 0.  1.
        2   -1    0    0  501    0  0.00000000000E+00  0.00000000000E+00 -0.23023677867E+04  0.23023677867E+04  0.25500000920E-02 0. -1.
    10030    2    1    2    0    0  0.00000000000E+00  0.00000000000E+00 -0.57105815470E+03  0.40336774186E+04  0.39930497244E+04 0.  0.
        4    1    3    3  502    0  0.94068397709E+03  0.11549145649E+04 -0.16284899789E+04  0.22069651609E+04  0.12699999809E+01 0. -1.
       -4    1    3    3    0  502 -0.94068397709E+03 -0.11549145649E+04  0.10574318242E+04  0.18267122578E+04  0.12699999809E+01 0.  1.
</event>
<event>
 5   0  0.1095109E-07  0.4028611E+04  0.7818609E-02  0.7998800E-01
        2   -1    0    0  501    0  0.00000000000E+00  0.00000000000E+00  0.19422607100E+04  0.19422607100E+04  0.25500000920E-02 0.  1.
       -2   -1    0    0    0  501  0.00000000000E+00  0.00000000000E+00 -0.20890224162E+04  0.20890224162E+04  0.25500000920E-02 0. -1.
    10030    2    1    2    0    0  0.00000000000E+00  0.00000000000E+00 -0.14676170620E+03  0.40312831262E+04  0.40286107587E+04 0.  0.
        4    1    3    3  502    0  0.59203085640E+03 -0.16201643881E+04 -0.11142590001E+04  0.20535354664E+04  0.12699999809E+01 0. -1.
       -4    1    3    3    0  502 -0.59203085640E+03  0.16201643881E+04  0.96749729392E+03  0.19777476598E+04  0.12699999809E+01 0.  1.
</event>
<event>
 5   0  0.3399500E-08  0.4016344E+04  0.7818609E-02  0.8001258E-01
       -1   -1    0    0    0  501  0.00000000000E+00  0.00000000000E+00  0.25514142454E+04  0.25514142454E+04  0.50400001928E-02 0. -1.
        1   -1    0    0  501    0  0.00000000000E+00  0.00000000000E+00 -0.15805956116E+04  0.15805956116E+04  0.50400001928E-02 0.  1.
    10030    2    1    2    0    0  0.00000000000E+00  0.00000000000E+00  0.97081863388E+03  0.41320098570E+04  0.40163436903E+04 0.  0.
        4    1    3    3  502    0  0.60841918481E+03  0.13981620513E+04 -0.85902319090E+03  0.17501295614E+04  0.12699999809E+01 0.  1.
       -4    1    3    3    0  502 -0.60841918481E+03 -0.13981620513E+04  0.18298418248E+04  0.23818802956E+04  0.12699999809E+01 0. -1.
</event>
<event>
 5   0  0.1087688E-07  0.3962871E+04  0.7818609E-02  0.8012079E-01
       -2   -1    0    0    0  501  0.00000000000E+00  0.00000000000E+00  0.16403187313E+04  0.16403187313E+04  0.25500000920E-02 0.  1.
        2   -1    0    0  501    0  0.00000000000E+00  0.00000000000E+00 -0.23934902212E+04  0.23934902212E+04  0.25500000920E-02 0. -1.
    10030    2    1    2    0    0  0.00000000000E+00  0.00000000000E+00 -0.75317148992E+03  0.40338089525E+04  0.39628711022E+04 0.  0.
        2    1    3    3  502    0 -0.17575543383E+04  0.73650531453E+02 -0.13048671289E+04  0.21902282705E+04  0.25500000920E-02 0. -1.
       -2    1    3    3    0  502  0.17575543383E+04 -0.73650531453E+02  0.55169563903E+03  0.18435806820E+04  0.25500000920E-02 0.  1.
</event>
<event>
 5   0  0.1095109E-07  0.4013790E+04  0.7818609E-02  0.8001770E-01
       -2   -1    0    0    0  501  0.00000000000E+00  0.00000000000E+00  0.21211352022E+04  0.21211352022E+04  0.25500000920E-02 0. -1.
        2   -1    0    0  501    0  0.00000000000E+00  0.00000000000E+00 -0.18988079260E+04  0.18988079260E+04  0.25500000920E-02 0.  1.
    10030    2    1    2    0    0  0.00000000000E+00  0.00000000000E+00  0.22232727617E+03  0.40199431282E+04  0.40137903951E+04 0.  0.
        4    1    3    3  502    0 -0.13206773128E+03  0.15425832953E+04  0.13900790375E+04  0.20807033551E+04  0.12699999809E+01 0. -1.
       -4    1    3    3    0  502  0.13206773128E+03 -0.15425832953E+04 -0.11677517613E+04  0.19392397731E+04  0.12699999809E+01 0.  1.
</event>
<event>
 5   0  0.1101474E-07  0.4000891E+04  0.7818609E-02  0.8004367E-01
       -2   -1    0    0    0  501  0.00000000000E+00  0.00000000000E+00  0.25273233977E+04  0.25273233977E+04  0.25500000920E-02 0. -1.
        2   -1    0    0  501    0  0.00000000000E+00  0.00000000000E+00 -0.15834071562E+04  0.15834071562E+04  0.25500000920E-02 0.  1.
    10030    2    1    2    0    0  0.00000000000E+00  0.00000000000E+00  0.94391624148E+03  0.41107305540E+04  0.40008908778E+04 0.  0.
        5    1    3    3  502    0  0.50430391396E+03  0.16251881852E+03 -0.15099960231E+04  0.16002640044E+04  0.46999998093E+01 0.  1.
       -5    1    3    3    0  502 -0.50430391396E+03 -0.16251881852E+03  0.24539122646E+04  0.25104665495E+04  0.46999998093E+01 0. -1.
</event>
<event>
 5   0  0.3399500E-08  0.4002380E+04  0.7818609E-02  0.8004067E-01
       -1   -1    0    0    0  501  0.00000000000E+00  0.00000000000E+00  0.15360682183E+04  0.15360682183E+04  0.50400001928E-02 0. -1.
        1   -1    0    0  501    0  0.00000000000E+00  0.00000000000E+00 -0.26071502615E+04  0.26071502615E+04  0.50400001928E-02 0.  1.
    10030    2    1    2    0    0  0.00000000000E+00  0.00000000000E+00 -0.10710820433E+04  0.41432184798E+04  0.40023796206E+04 0.  0.
        2    1    3    3  502    0 -0.16000475869E+04 -0.84970381829E+03 -0.14155195602E+04  0.22990964496E+04  0.25500000920E-02 0.  1.
       -2    1    3    3    0  502  0.16000475869E+04  0.84970381829E+03  0.34443751694E+03  0.18441220302E+04  0.25500000920E-02 0. -1.
</event>
<event>
 5   0  0.1101474E-07  0.3978917E+04  0.7818609E-02  0.8008813E-01
       -2   -1    0    0    0  501  0.00000000000E+00  0.00000000000E+00  0.23957637111E+04  0.23957637111E+04  0.25500000920E-02 0.  1.
        2   -1    0    0  501    0  0.00000000000E+00  0.00000000000E+00 -0.16520597093E+04  0.16520597093E+04  0.25500000920E-02 0. -1.
    10030    2    1    2    0    0  0.00000000000E+00  0.00000000000E+00  0.74370400181E+03  0.40478234205E+04  0.39789167874E+04 0.  0.
        5    1    3    3  502    0  0.54204752058E+03  0.16873556397E+04  0.12913510025E+04  0.21928506723E+04  0.46999998093E+01 0. -1.
       -5    1    3    3    0  502 -0.54204752058E+03 -0.16873556397E+04 -0.54764700065E+03  0.18549727482E+04  0.46999998093E+01 0.  1.
</event>
<event>
 5   0  0.3399500E-08  0.3719723E+04  0.7818609E-02  0.8063605E-01
       -1   -1    0    0    0  501  0.00000000000E+00  0.00000000000E+00  0.16016737285E+04  0.16016737285E+04  0.50400001928E-02 0.  1.
        1   -1    0    0  501    0  0.00000000000E+00  0.00000000000E+00 -0.21596690080E+04  0.21596690080E+04  0.50400001928E-02 0. -1.
    10030    2    1    2    0    0  0.00000000000E+00  0.00000000000E+00 -0.55799527945E+03  0.37613427365E+04  0.37197231684E+04 0.  0.
        2    1    3    3  502    0 -0.15750095921E+04 -0.87101884652E+03  0.19502897330E+03  0.18103495096E+04  0.25500000920E-02 0. -1.
       -2    1    3    3    0  502  0.15750095921E+04  0.87101884652E+03 -0.75302425275E+03  0.19509932269E+04  0.25500000920E-02 0.  1.
</event>
<event>
 5   0  0.1073271E-07  0.3988624E+04  0.7818609E-02  0.8006845E-01
        2   -1    0    0  501    0  0.00000000000E+00  0.00000000000E+00  0.29070534947E+04  0.29070534947E+04  0.25500000920E-02 0. -1.
       -2   -1    0    0    0  501  0.00000000000E+00  0.00000000000E+00 -0.13681480661E+04  0.13681480661E+04  0.25500000920E-02 0.  1.
    10030    2    1    2    0    0  0.00000000000E+00  0.00000000000E+00  0.15389054287E+04  0.42752015608E+04  0.39886236306E+04 0.  0.
        1    1    3    3  502    0  0.43199450559E+03 -0.28300920911E+03 -0.12952314477E+04  0.13943951981E+04  0.50400001928E-02 0.  1.
       -1    1    3    3    0  502 -0.43199450559E+03  0.28300920911E+03  0.28341368764E+04  0.28808063627E+04  0.50400001928E-02 0. -1.
</event>
<event>
 5   0  0.3399500E-08  0.3973248E+04  0.7818609E-02  0.8009965E-01
       -1   -1    0    0    0  501  0.00000000000E+00  0.00000000000E+00  0.17003671684E+04  0.17003671684E+04  0.50400001928E-02 0. -1.
        1   -1    0    0  501    0  0.00000000000E+00  0.00000000000E+00 -0.23210721705E+04  0.23210721705E+04  0.50400001928E-02 0.  1.
    10030    2    1    2    0    0  0.00000000000E+00  0.00000000000E+00 -0.62070500210E+03  0.40214393389E+04  0.39732479984E+04 0.  0.
        1    1    3    3  502    0 -0.46158516172E+03  0.14172410918E+04 -0.16396912149E+04  0.22159017249E+04  0.50400001928E-02 0.  1.
       -1    1    3    3    0  502  0.46158516172E+03 -0.14172410918E+04  0.10189862128E+04  0.18055376141E+04  0.50400001928E-02 0. -1.
</event>
<event>
 5   0  0.1095903E-07  0.3712644E+04  0.7818609E-02  0.8065165E-01
       -2   -1    0    0    0  501  0.00000000000E+00  0.00000000000E+00  0.13915250842E+04  0.13915250842E+04  0.25500000920E-02 0. -1.
        2   -1    0    0  501    0  0.00000000000E+00  0.00000000000E+00 -0.24763706781E+04  0.24763706781E+04  0.25500000920E-02 0.  1.
    10030    2    1    2    0    0  0.00000000000E+00  0.00000000000E+00 -0.10848455939E+04  0.38678957623E+04  0.37126442955E+04 0.  0.
        3    1    3    3  502    0  0.43926693437E+03  0.16999239743E+04  0.85469612756E+02  0.17578401585E+04  0.10100000352E+00 0. -1.
       -3    1    3    3    0  502 -0.43926693437E+03 -0.16999239743E+04 -0.11703152067E+04  0.21100556038E+04  0.10100000352E+00 0.  1.
</event>
<event>
 5   0  0.3399500E-08  0.3953363E+04  0.7818609E-02  0.8014021E-01
        1   -1    0    0  501    0  0.00000000000E+00  0.00000000000E+00  0.22905169318E+04  0.22905169318E+04  0.50400001928E-02 0.  1.
       -1   -1    0    0    0  501  0.00000000000E+00  0.00000000000E+00 -0.17058462391E+04  0.17058462391E+04  0.50400001928E-02 0. -1.
    10030    2    1    2    0    0  0.00000000000E+00  0.00000000000E+00  0.58467069268E+03  0.39963631710E+04  0.39533629704E+04 0.  0.
        5    1    3    3  502    0  0.11867665079E+03 -0.19726745369E+04  0.33424259963E+03  0.20043126456E+04  0.46999998093E+01 0. -1.
       -5    1    3    3    0  502 -0.11867665079E+03  0.19726745369E+04  0.25042809305E+03  0.19920505254E+04  0.46999998093E+01 0.  1.
</event>
<event>
 5   0  0.3399500E-08  0.4000234E+04  0.7818609E-02  0.8004499E-01
       -1   -1    0    0    0  501  0.00000000000E+00  0.00000000000E+00  0.22792988805E+04  0.22792988805E+04  0.50400001928E-02 0.  1.
        1   -1    0    0  501    0  0.00000000000E+00  0.00000000000E+00 -0.17551306358E+04  0.17551306358E+04  0.50400001928E-02 0. -1.
    10030    2    1    2    0    0  0.00000000000E+00  0.00000000000E+00  0.52416824474E+03  0.40344295163E+04  0.40002336398E+04 0.  0.
        3    1    3    3  502    0 -0.33179914160E+03 -0.25967262018E+03 -0.17098658769E+04  0.17610116034E+04  0.10100000352E+00 0. -1.
       -3    1    3    3    0  502  0.33179914160E+03  0.25967262018E+03  0.22340341216E+04  0.22734179129E+04  0.10100000352E+00 0.  1.
</event>
<event>
 5   0  0.1087688E-07  0.4012798E+04  0.7818609E-02  0.8001970E-01
        2   -1    0    0  501    0  0.00000000000E+00  0.00000000000E+00  0.26882044325E+04  0.26882044325E+04  0.25500000920E-02 0. -1.
       -2   -1    0    0    0  501  0.00000000000E+00  0.00000000000E+00 -0.14975188578E+04  0.14975188578E+04  0.25500000920E-02 0.  1.
    10030    2    1    2    0    0  0.00000000000E+00  0.00000000000E+00  0.11906855747E+04  0.41857232902E+04  0.40127979422E+04 0.  0.
        2    1    3    3  502    0  0.17434227067E+04 -0.82623251211E+03  0.11699480614E+04  0.22563158831E+04  0.25500000920E-02 0. -1.
       -2    1    3    3    0  502 -0.17434227067E+04  0.82623251211E+03  0.20737513281E+02  0.19294074071E+04  0.25500000920E-02 0.  1.
</event>
<event>
 5   0  0.1101474E-07  0.4000411E+04  0.7818609E-02  0.8004464E-01
        2   -1    0    0  501    0  0.00000000000E+00  0.00000000000E+00  0.26839214564E+04  0.26839214564E+04  0.25500000920E-02 0. -1.
       -2   -1    0    0    0  501  0.00000000000E+00  0.00000000000E+00 -0.14906631687E+04  0.14906631687E+04  0.25500000920E-02 0.  1.
    10030    2    1    2    0    0  0.00000000000E+00  0.00000000000E+00  0.11932582877E+04  0.41745846250E+04  0.40004114102E+04 0.  0.
        5    1    3    3  502    0  0.15956699597E+04  0.15890805843E+03  0.18442523149E+04  0.24439114310E+04  0.46999998093E+01 0. -1.
       -5    1    3    3    0  502 -0.15956699597E+04 -0.15890805843E+03 -0.65099402727E+03  0.17306731941E+04  0.46999998093E+01 0.  1.
</event>
<event>
 5   0  0.3399500E-08  0.3986897E+04  0.7818609E-02  0.8007195E-01
       -1   -1    0    0    0  501  0.00000000000E+00  0.00000000000E+00  0.31255207860E+04  0.31255207860E+04  0.50400001928E-02 0. -1.
        1   -1    0    0  501    0  0.00000000000E+00  0.00000000000E+00 -0.12714160601E+04  0.12714160601E+04  0.50400001928E-02 0.  1.
    10030    2    1    2    0    0  0.00000000000E+00  0.00000000000E+00  0.18541047259E+04  0.43969368461E+04  0.39868972014E+04 0.  0.
        1    1    3    3  502    0  0.83666888280E+02  0.81251159464E+03  0.29324943239E+04  0.30441251944E+04  0.50400001928E-02 0. -1.
       -1    1    3    3    0  502 -0.83666888280E+02 -0.81251159464E+03 -0.10783895981E+04  0.13528116517E+04  0.50400001928E-02 0.  1.
</event>
<event>
 5   0  0.1095109E-07  0.3954981E+04  0.7818609E-02  0.8013690E-01
        2   -1    0    0  501    0  0.00000000000E+00  0.00000000000E+00  0.22924598343E+04  0.22924598343E+04  0.25500000920E-02 0.  1.
       -2   -1    0    0    0  501  0.00000000000E+00  0.00000000000E+00 -0.17057957069E+04  0.17057957069E+04  0.25500000920E-02 0. -1.
    10030    2    1    2    0    0  0.00000000000E+00  0.00000000000E+00  0.58666412746E+03  0.39982555412E+04  0.39549807299E+04 0.  0.
        4    1    3    3  502    0  0.17834121618E+04  0.23936384239E+03  0.11224353888E+04  0.21207821205E+04  0.12699999809E+01 0. -1.
       -4    1    3    3    0  502 -0.17834121618E+04 -0.23936384239E+03 -0.53577126137E+03  0.18774734206E+04  0.12699999809E+01 0.  1.
</event>
<event>
 5   0  0.3399500E-08  0.4063114E+04  0.7818609E-02  0.7991934E-01
        1   -1    0    0  501    0  0.00000000000E+00  0.00000000000E+00  0.15544760093E+04  0.15544760093E+04  0.50400001928E-02 0. -1.
       -1   -1    0    0    0  501  0.00000000000E+00  0.00000000000E+00 -0.26550573186E+04  0.26550573186E+04  0.50400001928E-02 0.  1.
    10030    2    1    2    0    0  0.00000000000E+00  0.00000000000E+00 -0.11005813093E+04  0.42095333279E+04  0.40631135377E+04 0.  0.
        5    1    3    3  502    0 -0.98892022270E+03  0.74217938906E+03  0.11197560358E+04  0.16681334246E+04  0.46999998093E+01 0. -1.
       -5    1    3    3    0  502  0.98892022270E+03 -0.74217938906E+03 -0.22203373451E+04  0.25413999033E+04  0.46999998093E+01 0.  1.
</event>
<event>
 5   0  0.1087688E-07  0.3778278E+04  0.7818609E-02  0.8050832E-01
       -2   -1    0    0    0  501  0.00000000000E+00  0.00000000000E+00  0.15108500626E+04  0.15108500626E+04  0.25500000920E-02 0.  1.
        2   -1    0    0  501    0  0.00000000000E+00  0.00000000000E+00 -0.23621446862E+04  0.23621446862E+04  0.25500000920E-02 0. -1.
    10030    2    1    2    0    0  0.00000000000E+00  0.00000000000E+00 -0.85129462365E+03  0.38729947488E+04  0.37782781512E+04 0.  0.
        2    1    3    3  502    0 -0.12534924527E+04  0.14052311490E+04 -0.27042964810E+03  0.19023801160E+04  0.25500000920E-02 0.  1.
       -2    1    3    3    0  502  0.12534924527E+04 -0.14052311490E+04 -0.58086497555E+03  0.19706146328E+04  0.25500000920E-02 0. -1.
</event>
<event>
 5   0  0.1095903E-07  0.4002048E+04  0.7818609E-02  0.8004134E-01
       -2   -1    0    0    0  501  0.00000000000E+00  0.00000000000E+00  0.21473641087E+04  0.21473641087E+04  0.25500000920E-02 0.  1.
        2   -1    0    0  501    0  0.00000000000E+00  0.00000000000E+00 -0.18646567613E+04  0.18646567613E+04  0.25500000920E-02 0. -1.
    10030    2    1    2    0    0  0.00000000000E+00  0.00000000000E+00  0.28270734745E+03  0.40120208700E+04  0.40020479779E+04 0.  0.
        3    1    3    3  502    0 -0.98228815030E+03 -0.54299825978E+03  0.18020928210E+04  0.21230345419E+04  0.10100000352E+00 0.  1.
       -3    1    3    3    0  502  0.98228815030E+03  0.54299825978E+03 -0.15193854736E+04  0.18889863281E+04  0.10100000352E+00 0. -1.
</event>
<event>
 5   0  0.3399500E-08  0.4010856E+04  0.7818609E-02  0.8002360E-01
       -1   -1    0    0    0  501  0.00000000000E+00  0.00000000000E+00  0.16348334994E+04  0.16348334994E+04  0.50400001928E-02 0. -1.
        1   -1    0    0  501    0  0.00000000000E+00  0.00000000000E+00 -0.24600314174E+04  0.24600314174E+04  0.50400001928E-02 0.  1.
    10030    2    1    2    0    0  0.00000000000E+00  0.00000000000E+00 -0.82519791796E+03  0.40948649168E+04  0.40108561534E+04 0.  0.
        4    1    3    3  502    0 -0.72452443345E+03 -0.11567050737E+04 -0.19126723504E+04  0.23497275193E+04  0.12699999809E+01 0.  1.
       -4    1    3    3    0  502  0.72452443345E+03  0.11567050737E+04  0.10874744324E+04  0.17451373975E+04  0.12699999809E+01 0. -1.
</event>
<event>
 5   0  0.3399500E-08  0.3971612E+04  0.7818609E-02  0.8010298E-01
        1   -1    0    0  501    0  0.00000000000E+00  0.00000000000E+00  0.26854047477E+04  0.26854047477E+04  0.50400001928E-02 0.  1.
       -1   -1    0    0    0  501  0.00000000000E+00  0.00000000000E+00 -0.14684662273E+04  0.14684662274E+04  0.50400001928E-02 0. -1.
    10030    2    1    2    0    0  0.00000000000E+00  0.00000000000E+00  0.12169385203E+04  0.41538709750E+04  0.39716123571E+04 0.  0.
        5    1    3    3  502    0  0.12904217553E+04  0.82860306289E+03  0.19279637539E+04  0.24635010998E+04  0.46999998093E+01 0.  1.
       -5    1    3    3    0  502 -0.12904217553E+04 -0.82860306289E+03 -0.71102523358E+03  0.16903698752E+04  0.46999998093E+01 0. -1.
</event>
<event>
 5   0  0.1095903E-07  0.3547980E+04  0.7818609E-02  0.8102513E-01
       -2   -1    0    0    0  501  0.00000000000E+00  0.00000000000E+00  0.15232267005E+04  0.15232267005E+04  0.25500000920E-02 0.  1.
        2   -1    0    0  501    0  0.00000000000E+00  0.00000000000E+00 -0.20660354761E+04  0.20660354761E+04  0.25500000920E-02 0. -1.
    10030    2    1    2    0    0  0.00000000000E+00  0.00000000000E+00 -0.54280877565E+03  0.35892621766E+04  0.35479799330E+04 0.  0.
        3    1    3    3  502    0  0.55113503272E+03  0.23165468309E+03 -0.19610556269E+04  0.20501592373E+04  0.10100000352E+00 0. -1.
       -3    1    3    3    0  502 -0.55113503272E+03 -0.23165468309E+03  0.14182468512E+04  0.15391029393E+04  0.10100000352E+00 0.  1.
</event>
<event>
 5   0  0.1095903E-07  0.3986887E+04  0.7818609E-02  0.8007197E-01
        2   -1    0    0  501    0  0.00000000000E+00  0.00000000000E+00  0.18606261046E+04  0.18606261046E+04  0.25500000920E-02 0.  1.
       -2   -1    0    0    0  501  0.00000000000E+00  0.00000000000E+00 -0.21357421935E+04  0.21357421935E+04  0.25500000920E-02 0. -1.
    10030    2    1    2    0    0  0.00000000000E+00  0.00000000000E+00 -0.27511608897E+03  0.39963682981E+04  0.39868873462E+04 0.  0.
        3    1    3    3  502    0  0.13572521758E+04 -0.11280418466E+04 -0.10666958655E+04  0.20621474138E+04  0.10100000352E+00 0. -1.
       -3    1    3    3    0  502 -0.13572521758E+04  0.11280418466E+04  0.79157977656E+03  0.19342208843E+04  0.10100000352E+00 0.  1.
</event>
<event>
 5   0  0.1087688E-07  0.4013727E+04  0.7818609E-02  0.8001783E-01
       -2   -1    0    0    0  501  0.00000000000E+00  0.00000000000E+00  0.16415793314E+04  0.16415793314E+04  0.25500000920E-02 0. -1.
        2   -1    0    0  501    0  0.00000000000E+00  0.00000000000E+00 -0.24534302298E+04  0.24534302298E+04  0.25500000920E-02 0.  1.
    10030    2    1    2    0    0  0.00000000000E+00  0.00000000000E+00 -0.81185089840E+03  0.40950095612E+04  0.40137266256E+04 0.  0.
        2    1    3    3  502    0 -0.38960903564E+03  0.41253821367E+03 -0.23698805634E+04  0.24368661973E+04  0.25500000920E-02 0.  1.
       -2    1    3    3    0  502  0.38960903564E+03 -0.41253821367E+03  0.15580296650E+04  0.16581433640E+04  0.25500000920E-02 0. -1.
</event>
<event>
 5   0  0.3399500E-08  0.3998488E+04  0.7818609E-02  0.8004852E-01
        1   -1    0    0  501    0  0.00000000000E+00  0.00000000000E+00  0.23861471230E+04  0.23861471230E+04  0.50400001928E-02 0. -1.
       -1   -1    0    0    0  501  0.00000000000E+00  0.00000000000E+00 -0.16750757672E+04  0.16750757672E+04  0.50400001928E-02 0.  1.
    10030    2    1    2    0    0  0.00000000000E+00  0.00000000000E+00  0.71107135581E+03  0.40612228902E+04  0.39984883257E+04 0.  0.
        1    1    3    3  502    0  0.15083194088E+04  0.91491128008E+03  0.13109790083E+04  0.21978980981E+04  0.50400001928E-02 0.  1.
       -1    1    3    3    0  502 -0.15083194088E+04 -0.91491128008E+03 -0.59990765252E+03  0.18633247921E+04  0.50400001928E-02 0. -1.
</event>
<event>
 5   0  0.1095109E-07  0.3991397E+04  0.7818609E-02  0.8006284E-01
       -2   -1    0    0    0  501  0.00000000000E+00  0.00000000000E+00  0.23133134571E+04  0.23133134571E+04  0.25500000920E-02 0. -1.
        2   -1    0    0  501    0  0.00000000000E+00  0.00000000000E+00 -0.17216918740E+04  0.17216918740E+04  0.25500000920E-02 0.  1.
    10030    2    1    2    0    0  0.00000000000E+00  0.00000000000E+00  0.59162158304E+03  0.40350053311E+04  0.39913972396E+04 0.  0.
        4    1    3    3  502    0 -0.18705713859E+04 -0.49173029456E+03 -0.20147350675E+03  0.19445897200E+04  0.12699999809E+01 0. -1.
       -4    1    3    3    0  502  0.18705713859E+04  0.49173029456E+03  0.79309508979E+03  0.20904156110E+04  0.12699999809E+01 0.  1.
</event>
<event>
 5   0  0.1095903E-07  0.4008567E+04  0.7818609E-02  0.8002820E-01
       -2   -1    0    0    0  501  0.00000000000E+00  0.00000000000E+00  0.12993966360E+04  0.12993966360E+04  0.25500000920E-02 0.  1.
        2   -1    0    0  501    0  0.00000000000E+00  0.00000000000E+00 -0.30915525531E+04  0.30915525531E+04  0.25500000920E-02 0. -1.
    10030    2    1    2    0    0  0.00000000000E+00  0.00000000000E+00 -0.17921559171E+04  0.43909491891E+04  0.40085673189E+04 0.  0.
        3    1    3    3  502    0  0.16497804056E+04  0.30356927423E+03  0.30547341533E+03  0.17050641362E+04  0.10100000352E+00 0.  1.
       -3    1    3    3    0  502 -0.16497804056E+04 -0.30356927423E+03 -0.20976293324E+04  0.26858850529E+04  0.10100000352E+00 0. -1.
</event>
<event>
 5   0  0.3399500E-08  0.4013153E+04  0.7818609E-02  0.8001898E-01
        1   -1    0    0  501    0  0.00000000000E+00  0.00000000000E+00  0.17517024440E+04  0.17517024440E+04  0.50400001928E-02 0.  1.
       -1   -1    0    0    0  501  0.00000000000E+00  0.00000000000E+00 -0.22985346640E+04  0.22985346640E+04  0.50400001928E-02 0. -1.
    10030    2    1    2    0    0  0.00000000000E+00  0.00000000000E+00 -0.54683222000E+03  0.40502371080E+04  0.40131527699E+04 0.  0.
        2    1    3    3  502    0  0.78082756964E+03 -0.12532625942E+04 -0.16446433237E+04  0.22102512268E+04  0.25500000920E-02 0. -1.
       -2    1    3    3    0  502 -0.78082756964E+03  0.12532625942E+04  0.10978111037E+04  0.18399858812E+04  0.25500000920E-02 0.  1.
</event>
<event>
 5   0  0.3399500E-08  0.4029971E+04  0.7818609E-02  0.7998528E-01
        1   -1    0    0  501    0  0.00000000000E+00  0.00000000000E+00  0.30341744262E+04  0.30341744262E+04  0.50400001928E-02 0.  1.
       -1   -1    0    0    0  501  0.00000000000E+00  0.00000000000E+00 -0.13381454589E+04  0.13381454589E+04  0.50400001928E-02 0. -1.
    10030    2    1    2    0    0  0.00000000000E+00  0.00000000000E+00  0.16960289673E+04  0.43723198851E+04  0.40299710818E+04 0.  0.
        1    1    3    3  502    0 -0.26968410975E+03  0.13019875198E+04  0.24906547975E+04  0.28233424060E+04  0.50400001928E-02 0.  1.
       -1    1    3    3    0  502  0.26968410975E+03 -0.13019875198E+04 -0.79462583030E+03  0.15489774792E+04  0.50400001928E-02 0. -1.
</event>
<event>
 5   0  0.1073271E-07  0.3986734E+04  0.7818609E-02  0.8007228E-01
        2   -1    0    0  501    0  0.00000000000E+00  0.00000000000E+00  0.31844580805E+04  0.31844580805E+04  0.25500000920E-02 0. -1.
       -2   -1    0    0    0  501  0.00000000000E+00  0.00000000000E+00 -0.12477826077E+04  0.12477826077E+04  0.25500000920E-02 0.  1.
    10030    2    1    2    0    0  0.00000000000E+00  0.00000000000E+00  0.19366754728E+04  0.44322406882E+04  0.39867337046E+04 0.  0.
        1    1    3    3  502    0 -0.12233799363E+04 -0.30455120575E+03 -0.74825977746E+03  0.14660499992E+04  0.50400001928E-02 0.  1.
       -1    1    3    3    0  502  0.12233799363E+04  0.30455120575E+03  0.26849352503E+04  0.29661906890E+04  0.50400001928E-02 0. -1.
</event>
<event>
 5   0  0.3399500E-08  0.3997871E+04  0.7818609E-02  0.8004976E-01
       -1   -1    0    0    0  501  0.00000000000E+00  0.00000000000E+00  0.12897948369E+04  0.12897948369E+04  0.50400001928E-02 0.  1.
        1   -1    0    0  501    0  0.00000000000E+00  0.00000000000E+00 -0.30979685334E+04  0.30979685334E+04  0.50400001928E-02 0. -1.
    10030    2    1    2    0    0  0.00000000000E+00  0.00000000000E+00 -0.18081736964E+04  0.43877633703E+04  0.39978713433E+04 0.  0.
        5    1    3    3  502    0 -0.30194379050E+03 -0.16158714726E+04 -0.21523307636E+04  0.27082762922E+04  0.46999998093E+01 0. -1.
       -5    1    3    3    0  502  0.30194379050E+03  0.16158714726E+04  0.34415706719E+03  0.16794870781E+04  0.46999998093E+01 0.  1.
</event>
<event>
 5   0  0.3399500E-08  0.4038508E+04  0.7818609E-02  0.7996823E-01
        1   -1    0    0  501    0  0.00000000000E+00  0.00000000000E+00  0.14626653279E+04  0.14626653279E+04  0.50400001928E-02 0. -1.
       -1   -1    0    0    0  501  0.00000000000E+00  0.00000000000E+00 -0.27876420897E+04  0.27876420897E+04  0.50400001928E-02 0.  1.
    10030    2    1    2    0    0  0.00000000000E+00  0.00000000000E+00 -0.13249767618E+04  0.42503074176E+04  0.40385083539E+04 0.  0.
        1    1    3    3  502    0 -0.27550872899E+03 -0.12346479114E+04  0.99394313782E+03  0.16087832315E+04  0.50400001928E-02 0. -1.
       -1    1    3    3    0  502  0.27550872899E+03  0.12346479114E+04 -0.23189198996E+04  0.26415241861E+04  0.50400001928E-02 0.  1.
</event>
<event>
 5   0  0.1095903E-07  0.3962369E+04  0.7818609E-02  0.8012181E-01
        2   -1    0    0  501    0  0.00000000000E+00  0.00000000000E+00  0.18256789917E+04  0.18256789917E+04  0.25500000920E-02 0. -1.
       -2   -1    0    0    0  501  0.00000000000E+00  0.00000000000E+00 -0.21499350040E+04  0.21499350040E+04  0.25500000920E-02 0.  1.
    10030    2    1    2    0    0  0.00000000000E+00  0.00000000000E+00 -0.32425601234E+03  0.39756139957E+04  0.39623685696E+04 0.  0.
        3    1    3    3  502    0 -0.18212537036E+04 -0.33279116623E+03 -0.86973451248E+03  0.20455202628E+04  0.10100000352E+00 0.  1.
       -3    1    3    3    0  502  0.18212537036E+04  0.33279116623E+03  0.54547850014E+03  0.19300937329E+04  0.10100000352E+00 0. -1.
</event>
<event>
 5   0  0.3399500E-08  0.3981512E+04  0.7818609E-02  0.8008287E-01
        1   -1    0    0  501    0  0.00000000000E+00  0.00000000000E+00  0.14369303261E+04  0.14369303261E+04  0.50400001928E-02 0. -1.
       -1   -1    0    0    0  501  0.00000000000E+00  0.00000000000E+00 -0.27580387812E+04  0.27580387812E+04  0.50400001928E-02 0.  1.
    10030    2    1    2    0    0  0.00000000000E+00  0.00000000000E+00 -0.13211084551E+04  0.41949691073E+04  0.39815120571E+04 0.  0.
        1    1    3    3  502    0  0.32880796709E+03  0.41878927331E+03  0.13605171533E+04  0.14609948868E+04  0.50400001928E-02 0. -1.
       -1    1    3    3    0  502 -0.32880796709E+03 -0.41878927331E+03 -0.26816256084E+04  0.27339742205E+04  0.50400001928E-02 0.  1.
</event>
<event>
 5   0  0.3399500E-08  0.4012385E+04  0.7818609E-02  0.8002053E-01
       -1   -1    0    0    0  501  0.00000000000E+00  0.00000000000E+00  0.13539138763E+04  0.13539138763E+04  0.50400001928E-02 0. -1.
        1   -1    0    0  501    0  0.00000000000E+00  0.00000000000E+00 -0.29727215024E+04  0.29727215024E+04  0.50400001928E-02 0.  1.
    10030    2    1    2    0    0  0.00000000000E+00  0.00000000000E+00 -0.16188076261E+04  0.43266353788E+04  0.40123852719E+04 0.  0.
        1    1    3    3  502    0 -0.87784855069E+03  0.17875739085E+04 -0.54799106821E+03  0.20655102922E+04  0.50400001928E-02 0. -1.
       -1    1    3    3    0  502  0.87784855069E+03 -0.17875739085E+04 -0.10708165579E+04  0.22611250866E+04  0.50400001928E-02 0.  1.
</event>
<event>
 5   0  0.3399500E-08  0.4068681E+04  0.7818609E-02  0.7990833E-01
        1   -1    0    0  501    0  0.00000000000E+00  0.00000000000E+00  0.14933591909E+04  0.14933591909E+04  0.50400001928E-02 0. -1.
       -1   -1    0    0    0  501  0.00000000000E+00  0.00000000000E+00 -0.27712962572E+04  0.27712962572E+04  0.50400001928E-02 0.  1.
    10030    2    1    2    0    0  0.00000000000E+00  0.00000000000E+00 -0.12779370663E+04  0.42646554482E+04  0.40686807378E+04 0.  0.
        2    1    3    3  502    0  0.69393271061E+03 -0.15974284775E+04  0.46296342948E+03  0.18021252689E+04  0.25500000920E-02 0.  1.
       -2    1    3    3    0  502 -0.69393271061E+03  0.15974284775E+04 -0.17409004958E+04  0.24625301793E+04  0.25500000920E-02 0. -1.
</event>
<event>
 5   0  0.1073271E-07  0.3954924E+04  0.7818609E-02  0.8013702E-01
       -2   -1    0    0    0  501  0.00000000000E+00  0.00000000000E+00  0.28225629314E+04  0.28225629314E+04  0.25500000920E-02 0. -1.
        2   -1    0    0  501    0  0.00000000000E+00  0.00000000000E+00 -0.13853918454E+04  0.13853918454E+04  0.25500000920E-02 0.  1.
    10030    2    1    2    0    0  0.00000000000E+00  0.00000000000E+00  0.14371710860E+04  0.42079547768E+04  0.39549238517E+04 0.  0.
        1    1    3    3  502    0  0.25121435086E+03  0.41194739183E+03  0.27589700452E+04  0.28008436254E+04  0.50400001928E-02 0. -1.
       -1    1    3    3    0  502 -0.25121435086E+03 -0.41194739183E+03 -0.13217989592E+04  0.14071111514E+04  0.50400001928E-02 0.  1.
</event>
<event>
 5   0  0.1095903E-07  0.4015544E+04  0.7818609E-02  0.8001418E-01
        2   -1    0    0  501    0  0.00000000000E+00  0.00000000000E+00  0.12173896124E+04  0.12173896124E+04  0.25500000920E-02 0.  1.
       -2   -1    0    0    0  501  0.00000000000E+00  0.00000000000E+00 -0.33113048394E+04  0.33113048394E+04  0.25500000920E-02 0. -1.
    10030    2    1    2    0    0  0.00000000000E+00  0.00000000000E+00 -0.20939152269E+04  0.45286944518E+04  0.40155438561E+04 0.  0.
        3    1    3    3  502    0 -0.57315258943E+03  0.14603705663E+04 -0.24600586671E+04  0.29177173848E+04  0.10100000352E+00 0. -1.
       -3    1    3    3    0  502  0.57315258943E+03 -0.14603705663E+04  0.36614344017E+03  0.16109770670E+04  0.10100000352E+00 0.  1.
</event>
<event>
 5   0  0.1087688E-07  0.3960211E+04  0.7818609E-02  0.8012622E-01
       -2   -1    0    0    0  501  0.00000000000E+00  0.00000000000E+00  0.20091512910E+04  0.20091512910E+04  0.25500000920E-02 0.  1.
        2   -1    0    0  501    0  0.00000000000E+00  0.00000000000E+00 -0.19514793457E+04  0.19514793457E+04  0.25500000920E-02 0. -1.
    10030    2    1    2    0    0  0.00000000000E+00  0.00000000000E+00  0.57671945352E+02  0.39606306367E+04  0.39602107251E+04 0.  0.
        2    1    3    3  502    0 -0.13718627431E+04  0.13203037085E+04  0.57259204830E+03  0.19882331157E+04  0.25500000920E-02 0. -1.
       -2    1    3    3    0  502  0.13718627431E+04 -0.13203037085E+04 -0.51492010295E+03  0.19723975210E+04  0.25500000920E-02 0.  1.
</event>
<event>
 5   0  0.1095109E-07  0.4182468E+04  0.7818609E-02  0.7968716E-01
       -2   -1    0    0    0  501  0.00000000000E+00  0.00000000000E+00  0.20848562615E+04  0.20848562615E+04  0.25500000920E-02 0.  1.
        2   -1    0    0  501    0  0.00000000000E+00  0.00000000000E+00 -0.20976307898E+04  0.20976307898E+04  0.25500000920E-02 0. -1.
    10030    2    1    2    0    0  0.00000000000E+00  0.00000000000E+00 -0.12774528309E+02  0.41824870512E+04  0.41824675426E+04 0.  0.
        4    1    3    3  502    0  0.13362170107E+04  0.10368583715E+04  0.12235395641E+04  0.20874869724E+04  0.12699999809E+01 0.  1.
       -4    1    3    3    0  502 -0.13362170107E+04 -0.10368583715E+04 -0.12363140924E+04  0.20950000788E+04  0.12699999809E+01 0. -1.
</event>
<event>
 5   0  0.1095903E-07  0.4001516E+04  0.7818609E-02  0.8004241E-01
       -2   -1    0    0    0  501  0.00000000000E+00  0.00000000000E+00  0.16404876082E+04  0.16404876082E+04  0.25500000920E-02 0. -1.
        2   -1    0    0  501    0  0.00000000000E+00  0.00000000000E+00 -0.24401476041E+04  0.24401476041E+04  0.25500000920E-02 0.  1.
    10030    2    1    2    0    0  0.00000000000E+00  0.00000000000E+00 -0.79965999584E+03  0.40806352123E+04  0.40015156662E+04 0.  0.
        3    1    3    3  502    0  0.30974383501E+03 -0.15220964236E+04 -0.16858406730E+04  0.22923301575E+04  0.10100000352E+00 0.  1.
       -3    1    3    3    0  502 -0.30974383501E+03  0.15220964236E+04  0.88618067716E+03  0.17883050548E+04  0.10100000352E+00 0. -1.
</event>
<event>
 5   0  0.3399500E-08  0.4000115E+04  0.7818609E-02  0.8004523E-01
        1   -1    0    0  501    0  0.00000000000E+00  0.00000000000E+00  0.22549027396E+04  0.22549027396E+04  0.50400001928E-02 0.  1.
       -1   -1    0    0    0  501  0.00000000000E+00  0.00000000000E+00 -0.17740144802E+04  0.17740144802E+04  0.50400001928E-02 0. -1.
    10030    2    1    2    0    0  0.00000000000E+00  0.00000000000E+00  0.48088825935E+03  0.40289172198E+04  0.40001150541E+04 0.  0.
        3    1    3    3  502    0 -0.33168649143E+03 -0.11366154326E+04  0.18639809414E+04  0.22082426339E+04  0.10100000352E+00 0.  1.
       -3    1    3    3    0  502  0.33168649143E+03  0.11366154326E+04 -0.13830926821E+04  0.18206745858E+04  0.10100000352E+00 0. -1.
</event>
<event>
 5   0  0.1095109E-07  0.4036370E+04  0.7818609E-02  0.7997249E-01
       -2   -1    0    0    0  501  0.00000000000E+00  0.00000000000E+00  0.32647164778E+04  0.32647164778E+04  0.25500000920E-02 0.  1.
        2   -1    0    0  501    0  0.00000000000E+00  0.00000000000E+00 -0.12476034673E+04  0.12476034673E+04  0.25500000920E-02 0. -1.
    10030    2    1    2    0    0  0.00000000000E+00  0.00000000000E+00  0.20171130105E+04  0.45123199452E+04  0.40363704476E+04 0.  0.
        4    1    3    3  502    0 -0.24149159447E+03 -0.83883240096E+02 -0.12294291799E+04  0.12557278007E+04  0.12699999809E+01 0. -1.
       -4    1    3    3    0  502  0.24149159447E+03  0.83883240096E+02  0.32465421904E+04  0.32565921444E+04  0.12699999809E+01 0.  1.
</event>
<event>
 5   0  0.1087688E-07  0.4059386E+04  0.7818609E-02  0.7992673E-01
       -2   -1    0    0    0  501  0.00000000000E+00  0.00000000000E+00  0.24044347633E+04  0.24044347633E+04  0.25500000920E-02 0.  1.
        2   -1    0    0  501    0  0.00000000000E+00  0.00000000000E+00 -0.17133563028E+04  0.17133563028E+04  0.25500000920E-02 0. -1.
    10030    2    1    2    0    0  0.00000000000E+00  0.00000000000E+00  0.69107846049E+03  0.41177910662E+04  0.40593858927E+04 0.  0.
        2    1    3    3  502    0 -0.64887957373E+03  0.45667478213E+02 -0.16047574846E+04  0.17315821679E+04  0.25500000920E-02 0. -1.
       -2    1    3    3    0  502  0.64887957373E+03 -0.45667478213E+02  0.22958359451E+04  0.23862088983E+04  0.25500000920E-02 0.  1.
</event>
<event>
 5   0  0.3399500E-08  0.3998800E+04  0.7818609E-02  0.8004789E-01
       -1   -1    0    0    0  501  0.00000000000E+00  0.00000000000E+00  0.16718774870E+04  0.16718774871E+04  0.50400001928E-02 0. -1.
        1   -1    0    0  501    0  0.00000000000E+00  0.00000000000E+00 -0.23910846658E+04  0.23910846658E+04  0.50400001928E-02 0.  1.
    10030    2    1    2    0    0  0.00000000000E+00  0.00000000000E+00 -0.71920717875E+03  0.40629621529E+04  0.39988001312E+04 0.  0.
        2    1    3    3  502    0 -0.97808429472E+03 -0.12672647164E+02  0.14121624566E+04  0.17178510667E+04  0.25500000920E-02 0. -1.
       -2    1    3    3    0  502  0.97808429472E+03  0.12672647164E+02 -0.21313696354E+04  0.23451110861E+04  0.25500000920E-02 0.  1.
</event>
<event>
 5   0  0.3399500E-08  0.3553971E+04  0.7818609E-02  0.8101117E-01
        1   -1    0    0  501    0  0.00000000000E+00  0.00000000000E+00  0.15328261791E+04  0.15328261791E+04  0.50400001928E-02 0.  1.
       -1   -1    0    0    0  501  0.00000000000E+00  0.00000000000E+00 -0.20600358162E+04  0.20600358162E+04  0.50400001928E-02 0. -1.
    10030    2    1    2    0    0  0.00000000000E+00  0.00000000000E+00 -0.52720963711E+03  0.35928619953E+04  0.35539706408E+04 0.  0.
        2    1    3    3  502    0 -0.12236980190E+04  0.15614351655E+03 -0.15566081955E+04  0.19861638185E+04  0.25500000920E-02 0. -1.
       -2    1    3    3    0  502  0.12236980190E+04 -0.15614351655E+03  0.10293985584E+04  0.16066981768E+04  0.25500000920E-02 0.  1.
</event>
<event>
 5   0  0.1073271E-07  0.4022872E+04  0.7818609E-02  0.7999948E-01
        2   -1    0    0  501    0  0.00000000000E+00  0.00000000000E+00  0.29194504267E+04  0.29194504267E+04  0.25500000920E-02 0. -1.
       -2   -1    0    0    0  501  0.00000000000E+00  0.00000000000E+00 -0.13858344624E+04  0.13858344624E+04  0.25500000920E-02 0.  1.
    10030    2    1    2    0    0  0.00000000000E+00  0.00000000000E+00  0.15336159643E+04  0.43052848891E+04  0.40228721146E+04 0.  0.
        1    1    3    3  502    0 -0.12781071222E+03 -0.54979676627E+03 -0.12993364835E+04  0.14166465189E+04  0.50400001928E-02 0.  1.
       -1    1    3    3    0  502  0.12781071222E+03  0.54979676627E+03  0.28329524477E+04  0.28886383702E+04  0.50400001928E-02 0. -1.
</event>
<event>
 5   0  0.3399500E-08  0.4012376E+04  0.7818609E-02  0.8002055E-01
        1   -1    0    0  501    0  0.00000000000E+00  0.00000000000E+00  0.12774749786E+04  0.12774749786E+04  0.50400001928E-02 0. -1.
       -1   -1    0    0    0  501  0.00000000000E+00  0.00000000000E+00 -0.31505823214E+04  0.31505823214E+04  0.50400001928E-02 0.  1.
    10030    2    1    2    0    0  0.00000000000E+00  0.00000000000E+00 -0.18731073428E+04  0.44280573000E+04  0.40123758964E+04 0.  0.
        1    1    3    3  502    0  0.14819052139E+04  0.93600671171E+03  0.14059505891E+03  0.17583852246E+04  0.50400001928E-02 0. -1.
       -1    1    3    3    0  502 -0.14819052139E+04 -0.93600671171E+03 -0.20137024017E+04  0.26696720754E+04  0.50400001928E-02 0.  1.
</event>
<event>
 5   0  0.3399500E-08  0.4004346E+04  0.7818609E-02  0.8003670E-01
       -3   -1    0    0    0  501  0.00000000000E+00  0.00000000000E+00  0.25681575475E+04  0.25681575495E+04  0.10100000352E+00 0. -1.
        3   -1    0    0  501    0  0.00000000000E+00  0.00000000000E+00 -0.15609232993E+04  0.15609233026E+04  0.10100000352E+00 0.  1.
    10030    2    1    2    0    0  0.00000000000E+00  0.00000000000E+00  0.10072342482E+04  0.41290808521E+04  0.40043461205E+04 0.  0.
        2    1    3    3  502    0  0.14178418021E+04 -0.10776863761E+04 -0.43976588740E+03  0.18344147123E+04  0.25500000920E-02 0.  1.
       -2    1    3    3    0  502 -0.14178418021E+04  0.10776863761E+04  0.14470001356E+04  0.22946661398E+04  0.25500000920E-02 0. -1.
</event>
<event>
 5   0  0.3399500E-08  0.3755410E+04  0.7818609E-02  0.8055792E-01
       -1   -1    0    0    0  501  0.00000000000E+00  0.00000000000E+00  0.29064162137E+04  0.29064162137E+04  0.50400001928E-02 0. -1.
        1   -1    0    0  501    0  0.00000000000E+00  0.00000000000E+00 -0.12131007209E+04  0.12131007209E+04  0.50400001928E-02 0.  1.
    10030    2    1    2    0    0  0.00000000000E+00  0.00000000000E+00  0.16933154928E+04  0.41195169346E+04  0.37554097534E+04 0.  0.
        1    1    3    3  502    0 -0.94672765689E+03  0.43671098018E+03 -0.86640794255E+03  0.13556077823E+04  0.50400001928E-02 0.  1.
       -1    1    3    3    0  502  0.94672765689E+03 -0.43671098018E+03  0.25597234353E+04  0.27639091523E+04  0.50400001928E-02 0. -1.
</event>
<event>
 5   0  0.3399500E-08  0.3973885E+04  0.7818609E-02  0.8009835E-01
       -1   -1    0    0    0  501  0.00000000000E+00  0.00000000000E+00  0.14583768811E+04  0.14583768811E+04  0.50400001928E-02 0.  1.
        1   -1    0    0  501    0  0.00000000000E+00  0.00000000000E+00 -0.27070789378E+04  0.27070789378E+04  0.50400001928E-02 0. -1.
    10030    2    1    2    0    0  0.00000000000E+00  0.00000000000E+00 -0.12487020566E+04  0.41654558189E+04  0.39738854227E+04 0.  0.
        3    1    3    3  502    0 -0.94951531598E+03  0.15469018922E+04  0.22298474482E+03  0.18287173117E+04  0.10100000352E+00 0.  1.
       -3    1    3    3    0  502  0.94951531598E+03 -0.15469018922E+04 -0.14716868015E+04  0.23367385072E+04  0.10100000352E+00 0. -1.
</event>
<event>
 5   0  0.1095903E-07  0.3993390E+04  0.7818609E-02  0.8005881E-01
       -2   -1    0    0    0  501  0.00000000000E+00  0.00000000000E+00  0.15988323117E+04  0.15988323117E+04  0.25500000920E-02 0.  1.
        2   -1    0    0  501    0  0.00000000000E+00  0.00000000000E+00 -0.24935645833E+04  0.24935645833E+04  0.25500000920E-02 0. -1.
    10030    2    1    2    0    0  0.00000000000E+00  0.00000000000E+00 -0.89473227158E+03  0.40923968951E+04  0.39933903527E+04 0.  0.
        3    1    3    3  502    0 -0.10049693686E+04 -0.12192864757E+04  0.80362345791E+03  0.17726910655E+04  0.10100000352E+00 0.  1.
       -3    1    3    3    0  502  0.10049693686E+04  0.12192864757E+04 -0.16983557295E+04  0.23197058295E+04  0.10100000352E+00 0. -1.
</event>
<event>
 5   0  0.1073271E-07  0.3995550E+04  0.7818609E-02  0.8005445E-01
        2   -1    0    0  501    0  0.00000000000E+00  0.00000000000E+00  0.21106468041E+04  0.21106468041E+04  0.25500000920E-02 0. -1.
       -2   -1    0    0    0  501  0.00000000000E+00  0.00000000000E+00 -0.18909394893E+04  0.18909394893E+04  0.25500000920E-02 0.  1.
    10030    2    1    2    0    0  0.00000000000E+00  0.00000000000E+00  0.21970731482E+03  0.40015862934E+04  0.39955502198E+04 0.  0.
        1    1    3    3  502    0  0.59530467716E+03 -0.14849265152E+04 -0.10884952115E+04  0.19349977363E+04  0.50400001928E-02 0.  1.
       -1    1    3    3    0  502 -0.59530467716E+03  0.14849265152E+04  0.13082025264E+04  0.20665885570E+04  0.50400001928E-02 0. -1.
</event>
<event>
 5   0  0.1095109E-07  0.4032839E+04  0.7818609E-02  0.7997954E-01
       -2   -1    0    0    0  501  0.00000000000E+00  0.00000000000E+00  0.19754463251E+04  0.19754463251E+04  0.25500000920E-02 0.  1.
        2   -1    0    0  501    0  0.00000000000E+00  0.00000000000E+00 -0.20582427600E+04  0.20582427600E+04  0.25500000920E-02 0. -1.
    10030    2    1    2    0    0  0.00000000000E+00  0.00000000000E+00 -0.82796434975E+02  0.40336890851E+04  0.40328392462E+04 0.  0.
        4    1    3    3  502    0  0.11911932577E+04  0.76377666633E+03 -0.14782420318E+04  0.20463375310E+04  0.12699999809E+01 0. -1.
       -4    1    3    3    0  502 -0.11911932577E+04 -0.76377666633E+03  0.13954455968E+04  0.19873515541E+04  0.12699999809E+01 0.  1.
</event>
<event>
 5   0  0.3399500E-08  0.4011596E+04  0.7818609E-02  0.8002211E-01
       -1   -1    0    0    0  501  0.00000000000E+00  0.00000000000E+00  0.13520316097E+04  0.13520316097E+04  0.50400001928E-02 0.  1.
        1   -1    0    0  501    0  0.00000000000E+00  0.00000000000E+00 -0.29756890735E+04  0.29756890735E+04  0.50400001928E-02 0. -1.
    10030    2    1    2    0    0  0.00000000000E+00  0.00000000000E+00 -0.16236574638E+04  0.43277206832E+04  0.40115960355E+04 0.  0.
        2    1    3    3  502    0 -0.13195175745E+04  0.11420142222E+04 -0.18786454783E+04  0.25641045116E+04  0.25500000920E-02 0. -1.
       -2    1    3    3    0  502  0.13195175745E+04 -0.11420142222E+04  0.25498801450E+03  0.17636161716E+04  0.25500000920E-02 0.  1.
</event>
<event>
 5   0  0.1101474E-07  0.4013829E+04  0.7818609E-02  0.8001763E-01
        2   -1    0    0  501    0  0.00000000000E+00  0.00000000000E+00  0.27410609910E+04  0.27410609910E+04  0.25500000920E-02 0. -1.
       -2   -1    0    0    0  501  0.00000000000E+00  0.00000000000E+00 -0.14693967682E+04  0.14693967682E+04  0.25500000920E-02 0.  1.
    10030    2    1    2    0    0  0.00000000000E+00  0.00000000000E+00  0.12716642228E+04  0.42104577592E+04  0.40138291750E+04 0.  0.
        5    1    3    3  502    0  0.17757003745E+03  0.27063306711E+03  0.27134928843E+04  0.27327347289E+04  0.46999998093E+01 0. -1.
       -5    1    3    3    0  502 -0.17757003745E+03 -0.27063306711E+03 -0.14418286615E+04  0.14777230303E+04  0.46999998093E+01 0.  1.
</event>
<event>
 5   0  0.1101474E-07  0.4038372E+04  0.7818609E-02  0.7996850E-01
       -2   -1    0    0    0  501  0.00000000000E+00  0.00000000000E+00  0.14276609032E+04  0.14276609032E+04  0.25500000920E-02 0.  1.
        2   -1    0    0  501    0  0.00000000000E+00  0.00000000000E+00 -0.28557991993E+04  0.28557991993E+04  0.25500000920E-02 0. -1.
    10030    2    1    2    0    0  0.00000000000E+00  0.00000000000E+00 -0.14281382961E+04  0.42834601025E+04  0.40383723772E+04 0.  0.
        5    1    3    3  502    0 -0.48187775488E+03  0.19462946184E+04 -0.96690932951E+03  0.22260288978E+04  0.46999998093E+01 0.  1.
       -5    1    3    3    0  502  0.48187775488E+03 -0.19462946184E+04 -0.46122896661E+03  0.20574312047E+04  0.46999998093E+01 0. -1.
</event>
<event>
 5   0  0.1095903E-07  0.4005088E+04  0.7818609E-02  0.8003521E-01
        2   -1    0    0  501    0  0.00000000000E+00  0.00000000000E+00  0.21304978466E+04  0.21304978466E+04  0.25500000920E-02 0.  1.
       -2   -1    0    0    0  501  0.00000000000E+00  0.00000000000E+00 -0.18822746862E+04  0.18822746862E+04  0.25500000920E-02 0. -1.
    10030    2    1    2    0    0  0.00000000000E+00  0.00000000000E+00  0.24822316039E+03  0.40127725329E+04  0.40050878471E+04 0.  0.
        3    1    3    3  502    0  0.79836208407E+03 -0.13373000178E+04  0.13852677239E+04  0.20843992017E+04  0.10100000352E+00 0.  1.
       -3    1    3    3    0  502 -0.79836208407E+03  0.13373000178E+04 -0.11370445635E+04  0.19283733312E+04  0.10100000352E+00 0. -1.
</event>
<event>
 5   0  0.1101474E-07  0.4121985E+04  0.7818609E-02  0.7980380E-01
       -2   -1    0    0    0  501  0.00000000000E+00  0.00000000000E+00  0.14239240842E+04  0.14239240842E+04  0.25500000920E-02 0.  1.
        2   -1    0    0  501    0  0.00000000000E+00  0.00000000000E+00 -0.29830875470E+04  0.29830875470E+04  0.25500000920E-02 0. -1.
    10030    2    1    2    0    0  0.00000000000E+00  0.00000000000E+00 -0.15591634628E+04  0.44070116311E+04  0.41219850574E+04 0.  0.
        5    1    3    3  502    0  0.17468133558E+03  0.15946271913E+04  0.60384716567E+03  0.17140603659E+04  0.46999998093E+01 0.  1.
       -5    1    3    3    0  502 -0.17468133558E+03 -0.15946271913E+04 -0.21630106285E+04  0.26929512653E+04  0.46999998093E+01 0. -1.
</event>
<event>
 5   0  0.1087688E-07  0.4034818E+04  0.7818609E-02  0.7997559E-01
       -2   -1    0    0    0  501  0.00000000000E+00  0.00000000000E+00  0.16621339264E+04  0.16621339264E+04  0.25500000920E-02 0. -1.
        2   -1    0    0  501    0  0.00000000000E+00  0.00000000000E+00 -0.24486223435E+04  0.24486223435E+04  0.25500000920E-02 0.  1.
    10030    2    1    2    0    0  0.00000000000E+00  0.00000000000E+00 -0.78648841716E+03  0.41107562699E+04  0.40348176018E+04 0.  0.
        2    1    3    3  502    0  0.29016247340E+03  0.15010616863E+04 -0.17342840789E+04  0.23119519271E+04  0.25500000920E-02 0.  1.
       -2    1    3    3    0  502 -0.29016247340E+03 -0.15010616863E+04  0.94779566175E+03  0.17988043427E+04  0.25500000920E-02 0. -1.
</event>
<event>
 5   0  0.1101474E-07  0.4032070E+04  0.7818609E-02  0.7998108E-01
        2   -1    0    0  501    0  0.00000000000E+00  0.00000000000E+00  0.22857139985E+04  0.22857139985E+04  0.25500000920E-02 0.  1.
       -2   -1    0    0    0  501  0.00000000000E+00  0.00000000000E+00 -0.17781743716E+04  0.17781743716E+04  0.25500000920E-02 0. -1.
    10030    2    1    2    0    0  0.00000000000E+00  0.00000000000E+00  0.50753962686E+03  0.40638883701E+04  0.40320704622E+04 0.  0.
        5    1    3    3  502    0  0.88999756930E+03 -0.17437874584E+04 -0.23115637317E+03  0.19713816810E+04  0.46999998093E+01 0. -1.
       -5    1    3    3    0  502 -0.88999756930E+03  0.17437874584E+04  0.73869600003E+03  0.20925066891E+04  0.46999998093E+01 0.  1.
</event>
<event>
 5   0  0.1087688E-07  0.3841286E+04  0.7818609E-02  0.8037353E-01
       -2   -1    0    0    0  501  0.00000000000E+00  0.00000000000E+00  0.19281409141E+04  0.19281409141E+04  0.25500000920E-02 0.  1.
        2   -1    0    0  501    0  0.00000000000E+00  0.00000000000E+00 -0.19131746465E+04  0.19131746465E+04  0.25500000920E-02 0. -1.
    10030    2    1    2    0    0  0.00000000000E+00  0.00000000000E+00  0.14966267600E+02  0.38413155605E+04  0.38412864052E+04 0.  0.
        2    1    3    3  502    0 -0.53310747670E+03  0.18384978006E+04  0.16430449860E+03  0.19212687768E+04  0.25500000920E-02 0.  1.
       -2    1    3    3    0  502  0.53310747670E+03 -0.18384978006E+04 -0.14933823100E+03  0.19200467837E+04  0.25500000920E-02 0. -1.
</event>
<event>
 5   0  0.1095109E-07  0.3982014E+04  0.7818609E-02  0.8008185E-01
        2   -1    0    0  501    0  0.00000000000E+00  0.00000000000E+00  0.21276856073E+04  0.21276856073E+04  0.25500000920E-02 0.  1.
       -2   -1    0    0    0  501  0.00000000000E+00  0.00000000000E+00 -0.18631086862E+04  0.18631086862E+04  0.25500000920E-02 0. -1.
    10030    2    1    2    0    0  0.00000000000E+00  0.00000000000E+00  0.26457692116E+03  0.39907942935E+04  0.39820143327E+04 0.  0.
        4    1    3    3  502    0 -0.40936332067E+03  0.52068386262E+03 -0.17494611159E+04  0.18706431573E+04  0.12699999809E+01 0. -1.
       -4    1    3    3    0  502  0.40936332067E+03 -0.52068386262E+03  0.20140380370E+04  0.21201511363E+04  0.12699999809E+01 0.  1.
</event>
<event>
 5   0  0.1073271E-07  0.3984032E+04  0.7818609E-02  0.8007776E-01
       -2   -1    0    0    0  501  0.00000000000E+00  0.00000000000E+00  0.16063761917E+04  0.16063761917E+04  0.25500000920E-02 0.  1.
        2   -1    0    0  501    0  0.00000000000E+00  0.00000000000E+00 -0.24702354847E+04  0.24702354847E+04  0.25500000920E-02 0. -1.
    10030    2    1    2    0    0  0.00000000000E+00  0.00000000000E+00 -0.86385929299E+03  0.40766116764E+04  0.39840318625E+04 0.  0.
        1    1    3    3  502    0  0.17181921049E+04 -0.99169633658E+03 -0.61634461314E+03  0.20773845132E+04  0.50400001928E-02 0.  1.
       -1    1    3    3    0  502 -0.17181921049E+04  0.99169633658E+03 -0.24751467985E+03  0.19992271632E+04  0.50400001928E-02 0. -1.
</event>
<event>
 5   0  0.3399500E-08  0.4001493E+04  0.7818609E-02  0.8004246E-01
       -1   -1    0    0    0  501  0.00000000000E+00  0.00000000000E+00  0.17364962117E+04  0.17364962117E+04  0.50400001928E-02 0.  1.
        1   -1    0    0  501    0  0.00000000000E+00  0.00000000000E+00 -0.23052084455E+04  0.23052084455E+04  0.50400001928E-02 0. -1.
    10030    2    1    2    0    0  0.00000000000E+00  0.00000000000E+00 -0.56871223372E+03  0.40417046572E+04  0.40014925879E+04 0.  0.
        1    1    3    3  502    0 -0.20583339278E+02  0.19995861228E+04 -0.34995021566E+03  0.20300821387E+04  0.50400001928E-02 0.  1.
       -1    1    3    3    0  502  0.20583339278E+02 -0.19995861228E+04 -0.21876201806E+03  0.20116225185E+04  0.50400001928E-02 0. -1.
</event>
<event>
 5   0  0.3399500E-08  0.3998911E+04  0.7818609E-02  0.8004766E-01
       -1   -1    0    0    0  501  0.00000000000E+00  0.00000000000E+00  0.31342013487E+04  0.31342013487E+04  0.50400001928E-02 0. -1.
        1   -1    0    0  501    0  0.00000000000E+00  0.00000000000E+00 -0.12755473459E+04  0.12755473459E+04  0.50400001928E-02 0.  1.
    10030    2    1    2    0    0  0.00000000000E+00  0.00000000000E+00  0.18586540027E+04  0.44097486946E+04  0.39989109577E+04 0.  0.
        5    1    3    3  502    0  0.18066100746E+04 -0.80598542543E+03  0.60906264220E+03  0.20698869196E+04  0.46999998093E+01 0.  1.
       -5    1    3    3    0  502 -0.18066100746E+04  0.80598542543E+03  0.12495913605E+04  0.23398617750E+04  0.46999998093E+01 0. -1.
</event>
<event>
 5   0  0.3399500E-08  0.4008791E+04  0.7818609E-02  0.8002776E-01
       -1   -1    0    0    0  501  0.00000000000E+00  0.00000000000E+00  0.11740870669E+04  0.11740870669E+04  0.50400001928E-02 0. -1.
        1   -1    0    0  501    0  0.00000000000E+00  0.00000000000E+00 -0.34218934642E+04  0.34218934642E+04  0.50400001928E-02 0.  1.
    10030    2    1    2    0    0  0.00000000000E+00  0.00000000000E+00 -0.22478063973E+04  0.45959805311E+04  0.40087907706E+04 0.  0.
        2    1    3    3  502    0  0.66854623774E+03  0.19258821657E+03  0.10312136119E+04  0.12439637481E+04  0.25500000920E-02 0. -1.
       -2    1    3    3    0  502 -0.66854623774E+03 -0.19258821657E+03 -0.32790200092E+04  0.33520167831E+04  0.25500000920E-02 0.  1.
</event>
<event>
 5   0  0.3399500E-08  0.3894155E+04  0.7818609E-02  0.8026246E-01
        3   -1    0    0  501    0  0.00000000000E+00  0.00000000000E+00  0.14495644886E+04  0.14495644921E+04  0.10100000352E+00 0. -1.
       -3   -1    0    0    0  501  0.00000000000E+00  0.00000000000E+00 -0.26153443662E+04  0.26153443682E+04  0.10100000352E+00 0.  1.
    10030    2    1    2    0    0  0.00000000000E+00  0.00000000000E+00 -0.11657798776E+04  0.40649088603E+04  0.38941547632E+04 0.  0.
        5    1    3    3  502    0 -0.99345281618E+03 -0.16587165973E+04 -0.82274584643E+03  0.21012429812E+04  0.46999998093E+01 0.  1.
       -5    1    3    3    0  502  0.99345281618E+03  0.16587165973E+04 -0.34303403120E+03  0.19636658791E+04  0.46999998093E+01 0. -1.
</event>
<event>
 5   0  0.1073271E-07  0.3957945E+04  0.7818609E-02  0.8013084E-01
       -2   -1    0    0    0  501  0.00000000000E+00  0.00000000000E+00  0.14751949222E+04  0.14751949222E+04  0.25500000920E-02 0.  1.
        2   -1    0    0  501    0  0.00000000000E+00  0.00000000000E+00 -0.26547898348E+04  0.26547898348E+04  0.25500000920E-02 0. -1.
    10030    2    1    2    0    0  0.00000000000E+00  0.00000000000E+00 -0.11795949126E+04  0.41299847570E+04  0.39579451657E+04 0.  0.
        1    1    3    3  502    0  0.44416170838E+03 -0.93326771111E+03  0.11711790668E+04  0.15620270965E+04  0.50400001928E-02 0.  1.
       -1    1    3    3    0  502 -0.44416170838E+03  0.93326771111E+03 -0.23507739794E+04  0.25679576605E+04  0.50400001928E-02 0. -1.
</event>
<event>
 5   0  0.1095109E-07  0.4010740E+04  0.7818609E-02  0.8002383E-01
       -2   -1    0    0    0  501  0.00000000000E+00  0.00000000000E+00  0.17265312835E+04  0.17265312835E+04  0.25500000920E-02 0.  1.
        2   -1    0    0  501    0  0.00000000000E+00  0.00000000000E+00 -0.23292422858E+04  0.23292422858E+04  0.25500000920E-02 0. -1.
    10030    2    1    2    0    0  0.00000000000E+00  0.00000000000E+00 -0.60271100227E+03  0.40557735693E+04  0.40107404171E+04 0.  0.
        4    1    3    3  502    0 -0.17835362486E+04 -0.69125516748E+03  0.30762956252E+03  0.19373881432E+04  0.12699999809E+01 0. -1.
       -4    1    3    3    0  502  0.17835362486E+04  0.69125516748E+03 -0.91034056479E+03  0.21183854261E+04  0.12699999809E+01 0.  1.
</event>
<event>
 5   0  0.3399500E-08  0.3920036E+04  0.7818609E-02  0.8020875E-01
        1   -1    0    0  501    0  0.00000000000E+00  0.00000000000E+00  0.14132287124E+04  0.14132287124E+04  0.50400001928E-02 0. -1.
       -1   -1    0    0    0  501  0.00000000000E+00  0.00000000000E+00 -0.27183643709E+04  0.27183643709E+04  0.50400001928E-02 0.  1.
    10030    2    1    2    0    0  0.00000000000E+00  0.00000000000E+00 -0.13051356585E+04  0.41315930834E+04  0.39200360099E+04 0.  0.
        4    1    3    3  502    0  0.16552230813E+03 -0.14337184958E+04  0.74517141272E+03  0.16242624193E+04  0.12699999809E+01 0. -1.
       -4    1    3    3    0  502 -0.16552230813E+03  0.14337184958E+04 -0.20503070713E+04  0.25073306640E+04  0.12699999809E+01 0.  1.
</event>
<event>
 5   0  0.3399500E-08  0.3586399E+04  0.7818609E-02  0.8093614E-01
       -1   -1    0    0    0  501  0.00000000000E+00  0.00000000000E+00  0.16113599247E+04  0.16113599247E+04  0.50400001928E-02 0.  1.
        1   -1    0    0  501    0  0.00000000000E+00  0.00000000000E+00 -0.19955594757E+04  0.19955594757E+04  0.50400001928E-02 0. -1.
    10030    2    1    2    0    0  0.00000000000E+00  0.00000000000E+00 -0.38419955097E+03  0.36069194004E+04  0.35863990667E+04 0.  0.
        2    1    3    3  502    0  0.11637997834E+04 -0.31627879300E+03 -0.15267581748E+04  0.19456239963E+04  0.25500000920E-02 0. -1.
       -2    1    3    3    0  502 -0.11637997834E+04  0.31627879300E+03  0.11425586238E+04  0.16612954041E+04  0.25500000920E-02 0.  1.
</event>
<event>
 5   0  0.3399500E-08  0.4054621E+04  0.7818609E-02  0.7993617E-01
        1   -1    0    0  501    0  0.00000000000E+00  0.00000000000E+00  0.14854276655E+04  0.14854276655E+04  0.50400001928E-02 0.  1.
       -1   -1    0    0    0  501  0.00000000000E+00  0.00000000000E+00 -0.27668719585E+04  0.27668719586E+04  0.50400001928E-02 0. -1.
    10030    2    1    2    0    0  0.00000000000E+00  0.00000000000E+00 -0.12814442930E+04  0.42522996241E+04  0.40546211434E+04 0.  0.
        2    1    3    3  502    0 -0.17331054204E+04  0.69711518200E+03 -0.14667542640E+04  0.23750772716E+04  0.25500000920E-02 0. -1.
       -2    1    3    3    0  502  0.17331054204E+04 -0.69711518200E+03  0.18530997097E+03  0.18772223524E+04  0.25500000920E-02 0.  1.
</event>
<event>
 5   0  0.1087688E-07  0.3972844E+04  0.7818609E-02  0.8010047E-01
       -2   -1    0    0    0  501  0.00000000000E+00  0.00000000000E+00  0.14948549228E+04  0.14948549228E+04  0.25500000920E-02 0.  1.
        2   -1    0    0  501    0  0.00000000000E+00  0.00000000000E+00 -0.26396359830E+04  0.26396359830E+04  0.25500000920E-02 0. -1.
    10030    2    1    2    0    0  0.00000000000E+00  0.00000000000E+00 -0.11447810602E+04  0.41344909059E+04  0.39728442425E+04 0.  0.
        2    1    3    3  502    0  0.16028614926E+04  0.85331689516E+03 -0.14104888401E+04  0.22993028195E+04  0.25500000920E-02 0. -1.
       -2    1    3    3    0  502 -0.16028614926E+04 -0.85331689516E+03  0.26570777990E+03  0.18351880863E+04  0.25500000920E-02 0.  1.
</event>
<event>
 5   0  0.3399500E-08  0.3984641E+04  0.7818609E-02  0.8007652E-01
        1   -1    0    0  501    0  0.00000000000E+00  0.00000000000E+00  0.19062054469E+04  0.19062054469E+04  0.50400001928E-02 0.  1.
       -1   -1    0    0    0  501  0.00000000000E+00  0.00000000000E+00 -0.20823263133E+04  0.20823263133E+04  0.50400001928E-02 0. -1.
    10030    2    1    2    0    0  0.00000000000E+00  0.00000000000E+00 -0.17612086648E+03  0.39885317602E+04  0.39846413945E+04 0.  0.
        1    1    3    3  502    0  0.44306566277E+03  0.15632629678E+04 -0.12421143001E+04  0.20452252253E+04  0.50400001928E-02 0. -1.
       -1    1    3    3    0  502 -0.44306566277E+03 -0.15632629678E+04  0.10659934336E+04  0.19433065349E+04  0.50400001928E-02 0.  1.
</event>
<event>
 5   0  0.3399500E-08  0.4008867E+04  0.7818609E-02  0.8002760E-01
        1   -1    0    0  501    0  0.00000000000E+00  0.00000000000E+00  0.21337235959E+04  0.21337235959E+04  0.50400001928E-02 0.  1.
       -1   -1    0    0    0  501  0.00000000000E+00  0.00000000000E+00 -0.18829771774E+04  0.18829771774E+04  0.50400001928E-02 0. -1.
    10030    2    1    2    0    0  0.00000000000E+00  0.00000000000E+00  0.25074641845E+03  0.40167007733E+04  0.40088665899E+04 0.  0.
        4    1    3    3  502    0 -0.60377458402E+03  0.30412333924E+02 -0.17894560767E+04  0.18888153223E+04  0.12699999809E+01 0. -1.
       -4    1    3    3    0  502  0.60377458402E+03 -0.30412333924E+02  0.20402024952E+04  0.21278854510E+04  0.12699999809E+01 0.  1.
</event>
<event>
 5   0  0.3399500E-08  0.4012917E+04  0.7818609E-02  0.8001946E-01
        1   -1    0    0  501    0  0.00000000000E+00  0.00000000000E+00  0.25529810234E+04  0.25529810234E+04  0.50400001928E-02 0. -1.
       -1   -1    0    0    0  501  0.00000000000E+00  0.00000000000E+00 -0.15769310591E+04  0.15769310591E+04  0.50400001928E-02 0.  1.
    10030    2    1    2    0    0  0.00000000000E+00  0.00000000000E+00  0.97604996430E+03  0.41299120825E+04  0.40129166795E+04 0.  0.
        3    1    3    3  502    0 -0.41032997934E+03 -0.16700569331E+04  0.15518017249E+04  0.23163655703E+04  0.10100000352E+00 0. -1.
       -3    1    3    3    0  502  0.41032997934E+03  0.16700569331E+04 -0.57575176055E+03  0.18135465122E+04  0.10100000352E+00 0.  1.
</event>
<event>
 5   0  0.3399500E-08  0.3998802E+04  0.7818609E-02  0.8004788E-01
        1   -1    0    0  501    0  0.00000000000E+00  0.00000000000E+00  0.19345572074E+04  0.19345572074E+04  0.50400001928E-02 0.  1.
       -1   -1    0    0    0  501  0.00000000000E+00  0.00000000000E+00 -0.20664185676E+04  0.20664185676E+04  0.50400001928E-02 0. -1.
    10030    2    1    2    0    0  0.00000000000E+00  0.00000000000E+00 -0.13186136023E+03  0.40009757750E+04  0.39988022874E+04 0.  0.
        4    1    3    3  502    0  0.11341856796E+04  0.14173753828E+04 -0.90440358727E+03  0.20281216909E+04  0.12699999809E+01 0. -1.
       -4    1    3    3    0  502 -0.11341856796E+04 -0.14173753828E+04  0.77254222704E+03  0.19728540841E+04  0.12699999809E+01 0.  1.
</event>
<event>
 5   0  0.1095109E-07  0.4000086E+04  0.7818609E-02  0.8004529E-01
        2   -1    0    0  501    0  0.00000000000E+00  0.00000000000E+00  0.14193033193E+04  0.14193033193E+04  0.25500000920E-02 0.  1.
       -2   -1    0    0    0  501  0.00000000000E+00  0.00000000000E+00 -0.28184048732E+04  0.28184048732E+04  0.25500000920E-02 0. -1.
    10030    2    1    2    0    0  0.00000000000E+00  0.00000000000E+00 -0.13991015539E+04  0.42377081924E+04  0.40000856948E+04 0.  0.
        4    1    3    3  502    0 -0.16320371458E+04  0.76459142191E+03  0.21915774466E+03  0.18155376662E+04  0.12699999809E+01 0.  1.
       -4    1    3    3    0  502  0.16320371458E+04 -0.76459142191E+03 -0.16182592986E+04  0.24221705262E+04  0.12699999809E+01 0. -1.
</event>
<event>
 5   0  0.1087688E-07  0.4009550E+04  0.7818609E-02  0.8002623E-01
        2   -1    0    0  501    0  0.00000000000E+00  0.00000000000E+00  0.25826668686E+04  0.25826668686E+04  0.25500000920E-02 0.  1.
       -2   -1    0    0    0  501  0.00000000000E+00  0.00000000000E+00 -0.15561910122E+04  0.15561910122E+04  0.25500000920E-02 0. -1.
    10030    2    1    2    0    0  0.00000000000E+00  0.00000000000E+00  0.10264758564E+04  0.41388578808E+04  0.40095500837E+04 0.  0.
        2    1    3    3  502    0 -0.18572655161E+04 -0.72169174019E+03  0.74138339086E+03  0.21260111706E+04  0.25500000920E-02 0.  1.
       -2    1    3    3    0  502  0.18572655161E+04  0.72169174019E+03  0.28509246557E+03  0.20128467103E+04  0.25500000920E-02 0. -1.
</event>
<event>
 5   0  0.1101474E-07  0.4007213E+04  0.7818609E-02  0.8003093E-01
       -2   -1    0    0    0  501  0.00000000000E+00  0.00000000000E+00  0.22336816403E+04  0.22336816403E+04  0.25500000920E-02 0. -1.
        2   -1    0    0  501    0  0.00000000000E+00  0.00000000000E+00 -0.17972293327E+04  0.17972293327E+04  0.25500000920E-02 0.  1.
    10030    2    1    2    0    0  0.00000000000E+00  0.00000000000E+00  0.43645230759E+03  0.40309109730E+04  0.40072125792E+04 0.  0.
        5    1    3    3  502    0 -0.67716435789E+03 -0.12482496915E+04 -0.12035460006E+04  0.18615111940E+04  0.46999998093E+01 0.  1.
       -5    1    3    3    0  502  0.67716435789E+03  0.12482496915E+04  0.16399983082E+04  0.21693997789E+04  0.46999998093E+01 0. -1.
</event>
<event>
 5   0  0.1095903E-07  0.3966547E+04  0.7818609E-02  0.8011329E-01
        2   -1    0    0  501    0  0.00000000000E+00  0.00000000000E+00  0.19015961912E+04  0.19015961912E+04  0.25500000920E-02 0.  1.
       -2   -1    0    0    0  501  0.00000000000E+00  0.00000000000E+00 -0.20684586357E+04  0.20684586357E+04  0.25500000920E-02 0. -1.
    10030    2    1    2    0    0  0.00000000000E+00  0.00000000000E+00 -0.16686244447E+03  0.39700548269E+04  0.39665466407E+04 0.  0.
        3    1    3    3  502    0 -0.16870724643E+04  0.49433487604E+03  0.83541808393E+03  0.19464079364E+04  0.10100000352E+00 0.  1.
       -3    1    3    3    0  502  0.16870724643E+04 -0.49433487604E+03 -0.10022805284E+04  0.20236468905E+04  0.10100000352E+00 0. -1.
</event>
<event>
 5   0  0.1073271E-07  0.3971387E+04  0.7818609E-02  0.8010344E-01
       -2   -1    0    0    0  501  0.00000000000E+00  0.00000000000E+00  0.17076919533E+04  0.17076919533E+04  0.25500000920E-02 0. -1.
        2   -1    0    0  501    0  0.00000000000E+00  0.00000000000E+00 -0.23089517662E+04  0.23089517662E+04  0.25500000920E-02 0.  1.
    10030    2    1    2    0    0  0.00000000000E+00  0.00000000000E+00 -0.60125981289E+03  0.40166437194E+04  0.39713868366E+04 0.  0.
        1    1    3    3  502    0 -0.40577375256E+03  0.10186600908E+04  0.13737288286E+04  0.17576835930E+04  0.50400001928E-02 0. -1.
       -1    1    3    3    0  502  0.40577375256E+03 -0.10186600908E+04 -0.19749886414E+04  0.22589601264E+04  0.50400001928E-02 0.  1.
</event>
<event>
 5   0  0.3399500E-08  0.4234558E+04  0.7818609E-02  0.7958831E-01
       -1   -1    0    0    0  501  0.00000000000E+00  0.00000000000E+00  0.15659770485E+04  0.15659770485E+04  0.50400001928E-02 0.  1.
        1   -1    0    0  501    0  0.00000000000E+00  0.00000000000E+00 -0.28626668240E+04  0.28626668240E+04  0.50400001928E-02 0. -1.
    10030    2    1    2    0    0  0.00000000000E+00  0.00000000000E+00 -0.12966897755E+04  0.44286438726E+04  0.42345580851E+04 0.  0.
        5    1    3    3  502    0  0.10506821931E+04 -0.93759337136E+03  0.10052086224E+04  0.17301678721E+04  0.46999998093E+01 0.  1.
       -5    1    3    3    0  502 -0.10506821931E+04  0.93759337136E+03 -0.23018983979E+04  0.26984760005E+04  0.46999998093E+01 0. -1.
</event>
<event>
 5   0  0.3399500E-08  0.4015210E+04  0.7818609E-02  0.8001485E-01
        1   -1    0    0  501    0  0.00000000000E+00  0.00000000000E+00  0.25473383174E+04  0.25473383174E+04  0.50400001928E-02 0.  1.
       -1   -1    0    0    0  501  0.00000000000E+00  0.00000000000E+00 -0.15822312258E+04  0.15822312258E+04  0.50400001928E-02 0. -1.
    10030    2    1    2    0    0  0.00000000000E+00  0.00000000000E+00  0.96510709155E+03  0.41295695432E+04  0.40152101955E+04 0.  0.
        3    1    3    3  502    0  0.13150955931E+04 -0.13937174054E+04  0.10984015501E+04  0.22087124304E+04  0.10100000352E+00 0. -1.
       -3    1    3    3    0  502 -0.13150955931E+04  0.13937174054E+04 -0.13329445853E+03  0.19208571128E+04  0.10100000352E+00 0.  1.
</event>
<event>
 5   0  0.1101474E-07  0.3990468E+04  0.7818609E-02  0.8006472E-01
       -2   -1    0    0    0  501  0.00000000000E+00  0.00000000000E+00  0.17248832995E+04  0.17248832995E+04  0.25500000920E-02 0.  1.
        2   -1    0    0  501    0  0.00000000000E+00  0.00000000000E+00 -0.23079585395E+04  0.23079585395E+04  0.25500000920E-02 0. -1.
    10030    2    1    2    0    0  0.00000000000E+00  0.00000000000E+00 -0.58307524002E+03  0.40328418389E+04  0.39904682134E+04 0.  0.
        5    1    3    3  502    0 -0.16279449543E+04 -0.10751147678E+03  0.86921134007E+03  0.18485978296E+04  0.46999998093E+01 0.  1.
       -5    1    3    3    0  502  0.16279449543E+04  0.10751147678E+03 -0.14522865801E+04  0.21842440094E+04  0.46999998093E+01 0. -1.
</event>
<event>
 5   0  0.3399500E-08  0.4041400E+04  0.7818609E-02  0.7996247E-01
       -1   -1    0    0    0  501  0.00000000000E+00  0.00000000000E+00  0.22646590782E+04  0.22646590782E+04  0.50400001928E-02 0.  1.
        1   -1    0    0  501    0  0.00000000000E+00  0.00000000000E+00 -0.18030210330E+04  0.18030210330E+04  0.50400001928E-02 0. -1.
    10030    2    1    2    0    0  0.00000000000E+00  0.00000000000E+00  0.46163804524E+03  0.40676801112E+04  0.40413997330E+04 0.  0.
        4    1    3    3  502    0  0.36105679569E+03  0.19665028264E+04  0.52552153015E+03  0.20672856280E+04  0.12699999809E+01 0.  1.
       -4    1    3    3    0  502 -0.36105679569E+03 -0.19665028264E+04 -0.63883484912E+02  0.20003944832E+04  0.12699999809E+01 0. -1.
</event>
<event>
 5   0  0.1073271E-07  0.4004336E+04  0.7818609E-02  0.8003672E-01
        2   -1    0    0  501    0  0.00000000000E+00  0.00000000000E+00  0.23128377121E+04  0.23128377121E+04  0.25500000920E-02 0.  1.
       -2   -1    0    0    0  501  0.00000000000E+00  0.00000000000E+00 -0.17332285727E+04  0.17332285727E+04  0.25500000920E-02 0. -1.
    10030    2    1    2    0    0  0.00000000000E+00  0.00000000000E+00  0.57960913945E+03  0.40460662848E+04  0.40043358534E+04 0.  0.
        1    1    3    3  502    0 -0.46221867404E+03 -0.11765508609E+04  0.18586470478E+04  0.22477737607E+04  0.50400001928E-02 0.  1.
       -1    1    3    3    0  502  0.46221867404E+03  0.11765508609E+04 -0.12790379084E+04  0.17982925241E+04  0.50400001928E-02 0. -1.
</event>
<event>
 5   0  0.1095903E-07  0.3973136E+04  0.7818609E-02  0.8009988E-01
        2   -1    0    0  501    0  0.00000000000E+00  0.00000000000E+00  0.13635932024E+04  0.13635932024E+04  0.25500000920E-02 0.  1.
       -2   -1    0    0    0  501  0.00000000000E+00  0.00000000000E+00 -0.28941562307E+04  0.28941562307E+04  0.25500000920E-02 0. -1.
    10030    2    1    2    0    0  0.00000000000E+00  0.00000000000E+00 -0.15305630283E+04  0.42577494331E+04  0.39731356699E+04 0.  0.
        3    1    3    3  502    0 -0.30392904514E+03  0.29867637879E+03  0.13140406007E+04  0.13814062234E+04  0.10100000352E+00 0.  1.
       -3    1    3    3    0  502  0.30392904514E+03 -0.29867637879E+03 -0.28446036290E+04  0.28763432097E+04  0.10100000352E+00 0. -1.
</event>
<event>
 5   0  0.3399500E-08  0.4134162E+04  0.7818609E-02  0.7978016E-01
       -1   -1    0    0    0  501  0.00000000000E+00  0.00000000000E+00  0.22149964211E+04  0.22149964211E+04  0.50400001928E-02 0. -1.
        1   -1    0    0  501    0  0.00000000000E+00  0.00000000000E+00 -0.19290429174E+04  0.19290429174E+04  0.50400001928E-02 0.  1.
    10030    2    1    2    0    0  0.00000000000E+00  0.00000000000E+00  0.28595350371E+03  0.41440393385E+04  0.41341616602E+04 0.  0.
        3    1    3    3  502    0 -0.27399478202E+03 -0.83207219694E+02  0.21950188137E+04  0.22136178949E+04  0.10100000352E+00 0. -1.
       -3    1    3    3    0  502  0.27399478202E+03  0.83207219694E+02 -0.19090653099E+04  0.19304214436E+04  0.10100000352E+00 0.  1.
</event>
<event>
 5   0  0.1095903E-07  0.3987387E+04  0.7818609E-02  0.8007096E-01
        2   -1    0    0  501    0  0.00000000000E+00  0.00000000000E+00  0.20674608473E+04  0.20674608473E+04  0.25500000920E-02 0. -1.
       -2   -1    0    0    0  501  0.00000000000E+00  0.00000000000E+00 -0.19225583652E+04  0.19225583652E+04  0.25500000920E-02 0.  1.
    10030    2    1    2    0    0  0.00000000000E+00  0.00000000000E+00  0.14490248202E+03  0.39900192125E+04  0.39873871880E+04 0.  0.
        3    1    3    3  502    0  0.10997021357E+03  0.19680446189E+04 -0.22694697054E+03  0.19841365899E+04  0.10100000352E+00 0.  1.
       -3    1    3    3    0  502 -0.10997021357E+03 -0.19680446189E+04  0.37184945256E+03  0.20058826226E+04  0.10100000352E+00 0. -1.
</event>
<event>
 5   0  0.1073271E-07  0.3917732E+04  0.7818609E-02  0.8021351E-01
        2   -1    0    0  501    0  0.00000000000E+00  0.00000000000E+00  0.20600812865E+04  0.20600812865E+04  0.25500000920E-02 0. -1.
       -2   -1    0    0    0  501  0.00000000000E+00  0.00000000000E+00 -0.18626234838E+04  0.18626234838E+04  0.25500000920E-02 0.  1.
    10030    2    1    2    0    0  0.00000000000E+00  0.00000000000E+00  0.19745780272E+03  0.39227047703E+04  0.39177318861E+04 0.  0.
        1    1    3    3  502    0  0.17525620713E+04  0.79460211304E+03 -0.26819150139E+03  0.19428826555E+04  0.50400001928E-02 0.  1.
       -1    1    3    3    0  502 -0.17525620713E+04 -0.79460211304E+03  0.46564930411E+03  0.19798221148E+04  0.50400001928E-02 0. -1.
</event>
<event>
 5   0  0.3399500E-08  0.4011306E+04  0.7818609E-02  0.8002270E-01
       -1   -1    0    0    0  501  0.00000000000E+00  0.00000000000E+00  0.14028078388E+04  0.14028078388E+04  0.50400001928E-02 0.  1.
        1   -1    0    0  501    0  0.00000000000E+00  0.00000000000E+00 -0.28675659486E+04  0.28675659486E+04  0.50400001928E-02 0. -1.
    10030    2    1    2    0    0  0.00000000000E+00  0.00000000000E+00 -0.14647581097E+04  0.42703737874E+04  0.40113060172E+04 0.  0.
        4    1    3    3  502    0 -0.73351467645E+03 -0.16650667483E+04  0.16601369364E+03  0.18270339943E+04  0.12699999809E+01 0.  1.
       -4    1    3    3    0  502  0.73351467645E+03  0.16650667483E+04 -0.16307718034E+04  0.24433397931E+04  0.12699999809E+01 0. -1.
</event>
<event>
 5   0  0.1095109E-07  0.3964404E+04  0.7818609E-02  0.8011766E-01
        2   -1    0    0  501    0  0.00000000000E+00  0.00000000000E+00  0.11907097518E+04  0.11907097518E+04  0.25500000920E-02 0.  1.
       -2   -1    0    0    0  501  0.00000000000E+00  0.00000000000E+00 -0.32998180294E+04  0.32998180294E+04  0.25500000920E-02 0. -1.
    10030    2    1    2    0    0  0.00000000000E+00  0.00000000000E+00 -0.21091082776E+04  0.44905277813E+04  0.39644043724E+04 0.  0.
        4    1    3    3  502    0 -0.37116085653E+03  0.81626869567E+03 -0.30569467846E+04  0.31857464152E+04  0.12699999809E+01 0. -1.
       -4    1    3    3    0  502  0.37116085653E+03 -0.81626869567E+03  0.94783850701E+03  0.13047813661E+04  0.12699999809E+01 0.  1.
</event>
<event>
 5   0  0.1087688E-07  0.4000565E+04  0.7818609E-02  0.8004433E-01
       -2   -1    0    0    0  501  0.00000000000E+00  0.00000000000E+00  0.18177610218E+04  0.18177610218E+04  0.25500000920E-02 0. -1.
        2   -1    0    0  501    0  0.00000000000E+00  0.00000000000E+00 -0.22011314163E+04  0.22011314163E+04  0.25500000920E-02 0.  1.
    10030    2    1    2    0    0  0.00000000000E+00  0.00000000000E+00 -0.38337039445E+03  0.40188924381E+04  0.40005654062E+04 0.  0.
        2    1    3    3  502    0 -0.26551742351E+03 -0.19654837277E+04  0.69322503135E+02  0.19845481590E+04  0.25500000920E-02 0. -1.
       -2    1    3    3    0  502  0.26551742351E+03  0.19654837277E+04 -0.45269289759E+03  0.20343442790E+04  0.25500000920E-02 0.  1.
</event>
<event>
 5   0  0.3399500E-08  0.3984876E+04  0.7818609E-02  0.8007605E-01
        1   -1    0    0  501    0  0.00000000000E+00  0.00000000000E+00  0.16532966101E+04  0.16532966101E+04  0.50400001928E-02 0.  1.
       -1   -1    0    0    0  501  0.00000000000E+00  0.00000000000E+00 -0.24011472199E+04  0.24011472199E+04  0.50400001928E-02 0. -1.
    10030    2    1    2    0    0  0.00000000000E+00  0.00000000000E+00 -0.74785060985E+03  0.40544438300E+04  0.39848756864E+04 0.  0.
        3    1    3    3  502    0 -0.49021283053E+03  0.17037405512E+03 -0.23311699234E+04  0.23882397618E+04  0.10100000352E+00 0. -1.
       -3    1    3    3    0  502  0.49021283053E+03 -0.17037405512E+03  0.15833193136E+04  0.16662040682E+04  0.10100000352E+00 0.  1.
</event>
<event>
 5   0  0.3399500E-08  0.3995375E+04  0.7818609E-02  0.8005480E-01
        1   -1    0    0  501    0  0.00000000000E+00  0.00000000000E+00  0.11074716387E+04  0.11074716387E+04  0.50400001928E-02 0. -1.
       -1   -1    0    0    0  501  0.00000000000E+00  0.00000000000E+00 -0.36034829336E+04  0.36034829336E+04  0.50400001928E-02 0.  1.
    10030    2    1    2    0    0  0.00000000000E+00  0.00000000000E+00 -0.24960112949E+04  0.47109545723E+04  0.39953749008E+04 0.  0.
        4    1    3    3  502    0  0.77816428829E+01  0.30956821789E+03  0.10789994418E+04  0.11225571005E+04  0.12699999809E+01 0. -1.
       -4    1    3    3    0  502 -0.77816428829E+01 -0.30956821789E+03 -0.35750107367E+04  0.35883974719E+04  0.12699999809E+01 0.  1.
</event>
<event>
 5   0  0.3399500E-08  0.3998108E+04  0.7818609E-02  0.8004928E-01
       -3   -1    0    0    0  501  0.00000000000E+00  0.00000000000E+00  0.14981058291E+04  0.14981058325E+04  0.10100000352E+00 0.  1.
        3   -1    0    0  501    0  0.00000000000E+00  0.00000000000E+00 -0.26675130395E+04  0.26675130414E+04  0.10100000352E+00 0. -1.
    10030    2    1    2    0    0  0.00000000000E+00  0.00000000000E+00 -0.11694072105E+04  0.41656188739E+04  0.39981079749E+04 0.  0.
        4    1    3    3  502    0  0.15065873799E+04  0.12692630303E+04 -0.93861314815E+03  0.21821618703E+04  0.12699999809E+01 0. -1.
       -4    1    3    3    0  502 -0.15065873799E+04 -0.12692630303E+04 -0.23079406231E+03  0.19834570036E+04  0.12699999809E+01 0.  1.
</event>
<event>
 5   0  0.3399500E-08  0.4016127E+04  0.7818609E-02  0.8001301E-01
        1   -1    0    0  501    0  0.00000000000E+00  0.00000000000E+00  0.15312932678E+04  0.15312932679E+04  0.50400001928E-02 0. -1.
       -1   -1    0    0    0  501  0.00000000000E+00  0.00000000000E+00 -0.26332772378E+04  0.26332772378E+04  0.50400001928E-02 0.  1.
    10030    2    1    2    0    0  0.00000000000E+00  0.00000000000E+00 -0.11019839699E+04  0.41645705056E+04  0.40161273419E+04 0.  0.
        4    1    3    3  502    0  0.88342639507E+03 -0.44836339109E+03 -0.23622190498E+04  0.25615527280E+04  0.12699999809E+01 0.  1.
       -4    1    3    3    0  502 -0.88342639507E+03  0.44836339109E+03  0.12602350799E+04  0.16030177777E+04  0.12699999809E+01 0. -1.
</event>
<event>
 5   0  0.3399500E-08  0.3990707E+04  0.7818609E-02  0.8006424E-01
       -1   -1    0    0    0  501  0.00000000000E+00  0.00000000000E+00  0.20218025057E+04  0.20218025057E+04  0.50400001928E-02 0.  1.
        1   -1    0    0  501    0  0.00000000000E+00  0.00000000000E+00 -0.19692509005E+04  0.19692509005E+04  0.50400001928E-02 0. -1.
    10030    2    1    2    0    0  0.00000000000E+00  0.00000000000E+00  0.52551605219E+02  0.39910534061E+04  0.39907074084E+04 0.  0.
        1    1    3    3  502    0  0.16062523741E+04  0.10844688330E+04  0.50099270564E+03  0.20017774677E+04  0.50400001928E-02 0. -1.
       -1    1    3    3    0  502 -0.16062523741E+04 -0.10844688330E+04 -0.44844110042E+03  0.19892759385E+04  0.50400001928E-02 0.  1.
</event>
<event>
 5   0  0.1101474E-07  0.4019097E+04  0.7818609E-02  0.8000705E-01
        2   -1    0    0  501    0  0.00000000000E+00  0.00000000000E+00  0.21055480507E+04  0.21055480507E+04  0.25500000920E-02 0.  1.
       -2   -1    0    0    0  501  0.00000000000E+00  0.00000000000E+00 -0.19179255519E+04  0.19179255519E+04  0.25500000920E-02 0. -1.
    10030    2    1    2    0    0  0.00000000000E+00  0.00000000000E+00  0.18762249885E+03  0.40234736026E+04  0.40190966185E+04 0.  0.
        5    1    3    3  502    0  0.15459048066E+04 -0.11585784652E+04 -0.46008742677E+03  0.19859074150E+04  0.46999998093E+01 0. -1.
       -5    1    3    3    0  502 -0.15459048066E+04  0.11585784652E+04  0.64770992562E+03  0.20375661875E+04  0.46999998093E+01 0.  1.
</event>
<event>
 5   0  0.3399500E-08  0.3493265E+04  0.7818609E-02  0.8115388E-01
        1   -1    0    0  501    0  0.00000000000E+00  0.00000000000E+00  0.15350061231E+04  0.15350061231E+04  0.50400001928E-02 0.  1.
       -1   -1    0    0    0  501  0.00000000000E+00  0.00000000000E+00 -0.19874348243E+04  0.19874348243E+04  0.50400001928E-02 0. -1.
    10030    2    1    2    0    0  0.00000000000E+00  0.00000000000E+00 -0.45242870119E+03  0.35224409474E+04  0.34932647335E+04 0.  0.
        4    1    3    3  502    0 -0.12246216364E+03 -0.16871249657E+04 -0.66497544364E+03  0.18175757440E+04  0.12699999809E+01 0. -1.
       -4    1    3    3    0  502  0.12246216364E+03  0.16871249657E+04  0.21254674245E+03  0.17048652035E+04  0.12699999809E+01 0.  1.
</event>
<event>
 5   0  0.3399500E-08  0.4019324E+04  0.7818609E-02  0.8000660E-01
       -1   -1    0    0    0  501  0.00000000000E+00  0.00000000000E+00  0.31637561028E+04  0.31637561028E+04  0.50400001928E-02 0. -1.
        1   -1    0    0  501    0  0.00000000000E+00  0.00000000000E+00 -0.12765653524E+04  0.12765653524E+04  0.50400001928E-02 0.  1.
    10030    2    1    2    0    0  0.00000000000E+00  0.00000000000E+00  0.18871907504E+04  0.44403214552E+04  0.40193240348E+04 0.  0.
        2    1    3    3  502    0 -0.59768367629E+03  0.18769386020E+04  0.50361182684E+03  0.20331623557E+04  0.25500000920E-02 0.  1.
       -2    1    3    3    0  502  0.59768367629E+03 -0.18769386020E+04  0.13835789235E+04  0.24071590995E+04  0.25500000920E-02 0. -1.
</event>
<event>
 5   0  0.1095903E-07  0.3987395E+04  0.7818609E-02  0.8007094E-01
       -2   -1    0    0    0  501  0.00000000000E+00  0.00000000000E+00  0.19900698455E+04  0.19900698455E+04  0.25500000920E-02 0.  1.
        2   -1    0    0  501    0  0.00000000000E+00  0.00000000000E+00 -0.19973314469E+04  0.19973314469E+04  0.25500000920E-02 0. -1.
    10030    2    1    2    0    0  0.00000000000E+00  0.00000000000E+00 -0.72616013709E+01  0.39874012923E+04  0.39873946801E+04 0.  0.
        3    1    3    3  502    0 -0.11984138374E+04 -0.64080468478E+03  0.14551391475E+04  0.19910440272E+04  0.10100000352E+00 0.  1.
       -3    1    3    3    0  502  0.11984138374E+04  0.64080468478E+03 -0.14624007488E+04  0.19963572651E+04  0.10100000352E+00 0. -1.
</event>
<event>
 5   0  0.1095903E-07  0.3993677E+04  0.7818609E-02  0.8005823E-01
       -2   -1    0    0    0  501  0.00000000000E+00  0.00000000000E+00  0.17809135577E+04  0.17809135577E+04  0.25500000920E-02 0.  1.
        2   -1    0    0  501    0  0.00000000000E+00  0.00000000000E+00 -0.22389427972E+04  0.22389427972E+04  0.25500000920E-02 0. -1.
    10030    2    1    2    0    0  0.00000000000E+00  0.00000000000E+00 -0.45802923954E+03  0.40198563549E+04  0.39936767933E+04 0.  0.
        3    1    3    3  502    0 -0.15335021003E+04 -0.10963247400E+04 -0.89197239723E+03  0.20854667091E+04  0.10100000352E+00 0. -1.
       -3    1    3    3    0  502  0.15335021003E+04  0.10963247400E+04  0.43394315770E+03  0.19343896457E+04  0.10100000352E+00 0.  1.
</event>
<event>
 5   0  0.3399500E-08  0.3975937E+04  0.7818609E-02  0.8009419E-01
       -1   -1    0    0    0  501  0.00000000000E+00  0.00000000000E+00  0.22258273960E+04  0.22258273960E+04  0.50400001928E-02 0.  1.
        1   -1    0    0  501    0  0.00000000000E+00  0.00000000000E+00 -0.17755276165E+04  0.17755276165E+04  0.50400001928E-02 0. -1.
    10030    2    1    2    0    0  0.00000000000E+00  0.00000000000E+00  0.45029977952E+03  0.40013550124E+04  0.39759366248E+04 0.  0.
        5    1    3    3  502    0 -0.10427333978E+04  0.14214534592E+04 -0.69951288111E+03  0.18966188959E+04  0.46999998093E+01 0. -1.
       -5    1    3    3    0  502  0.10427333978E+04 -0.14214534592E+04  0.11498126606E+04  0.21047361165E+04  0.46999998093E+01 0.  1.
</event>
<event>
 5   0  0.1101474E-07  0.4002098E+04  0.7818609E-02  0.8004123E-01
       -2   -1    0    0    0  501  0.00000000000E+00  0.00000000000E+00  0.20751335270E+04  0.20751335270E+04  0.25500000920E-02 0.  1.
        2   -1    0    0  501    0  0.00000000000E+00  0.00000000000E+00 -0.19296094698E+04  0.19296094699E+04  0.25500000920E-02 0. -1.
    10030    2    1    2    0    0  0.00000000000E+00  0.00000000000E+00  0.14552405711E+03  0.40047429968E+04  0.40020981022E+04 0.  0.
        5    1    3    3  502    0 -0.10508062415E+04  0.15558599012E+04  0.76552109696E+03  0.20275449266E+04  0.46999998093E+01 0.  1.
       -5    1    3    3    0  502  0.10508062415E+04 -0.15558599012E+04 -0.61999703986E+03  0.19771980702E+04  0.46999998093E+01 0. -1.
</event>
<event>
 5   0  0.1095903E-07  0.4029971E+04  0.7818609E-02  0.7998528E-01
        2   -1    0    0  501    0  0.00000000000E+00  0.00000000000E+00  0.18460856836E+04  0.18460856836E+04  0.25500000920E-02 0. -1.
       -2   -1    0    0    0  501  0.00000000000E+00  0.00000000000E+00 -0.21993381538E+04  0.21993381538E+04  0.25500000920E-02 0.  1.
    10030    2    1    2    0    0  0.00000000000E+00  0.00000000000E+00 -0.35325247019E+03  0.40454238373E+04  0.40299710565E+04 0.  0.
        3    1    3    3  502    0 -0.14650942034E+04  0.61915297129E+03 -0.14184288044E+04  0.21311479794E+04  0.10100000352E+00 0.  1.
       -3    1    3    3    0  502  0.14650942034E+04 -0.61915297129E+03  0.10651763343E+04  0.19142758579E+04  0.10100000352E+00 0. -1.
</event>
<event>
 5   0  0.3399500E-08  0.4188794E+04  0.7818609E-02  0.7967507E-01
        1   -1    0    0  501    0  0.00000000000E+00  0.00000000000E+00  0.13991851755E+04  0.13991851755E+04  0.50400001928E-02 0. -1.
       -1   -1    0    0    0  501  0.00000000000E+00  0.00000000000E+00 -0.31350374808E+04  0.31350374808E+04  0.50400001928E-02 0.  1.
    10030    2    1    2    0    0  0.00000000000E+00  0.00000000000E+00 -0.17358523054E+04  0.45342226563E+04  0.41887936057E+04 0.  0.
        3    1    3    3  502    0  0.15391370481E+04  0.67451151435E+03 -0.22210461327E+04  0.27851309789E+04  0.10100000352E+00 0.  1.
       -3    1    3    3    0  502 -0.15391370481E+04 -0.67451151435E+03  0.48519382733E+03  0.17490916774E+04  0.10100000352E+00 0. -1.
</event>
<event>
 5   0  0.3399500E-08  0.4003598E+04  0.7818609E-02  0.8003821E-01
       -1   -1    0    0    0  501  0.00000000000E+00  0.00000000000E+00  0.13037438179E+04  0.13037438179E+04  0.50400001928E-02 0. -1.
        1   -1    0    0  501    0  0.00000000000E+00  0.00000000000E+00 -0.30736088666E+04  0.30736088666E+04  0.50400001928E-02 0.  1.
    10030    2    1    2    0    0  0.00000000000E+00  0.00000000000E+00 -0.17698650487E+04  0.43773526845E+04  0.40035976613E+04 0.  0.
        3    1    3    3  502    0  0.20121945842E+03 -0.19911587025E+04 -0.93378357841E+03  0.22084279546E+04  0.10100000352E+00 0. -1.
       -3    1    3    3    0  502 -0.20121945842E+03  0.19911587025E+04 -0.83608147028E+03  0.21689247299E+04  0.10100000352E+00 0.  1.
</event>
<event>
 5   0  0.3399500E-08  0.3998639E+04  0.7818609E-02  0.8004821E-01
       -1   -1    0    0    0  501  0.00000000000E+00  0.00000000000E+00  0.15438702870E+04  0.15438702871E+04  0.50400001928E-02 0. -1.
        1   -1    0    0  501    0  0.00000000000E+00  0.00000000000E+00 -0.25891286785E+04  0.25891286785E+04  0.50400001928E-02 0.  1.
    10030    2    1    2    0    0  0.00000000000E+00  0.00000000000E+00 -0.10452583914E+04  0.41329989655E+04  0.39986391866E+04 0.  0.
        4    1    3    3  502    0  0.15491013477E+04  0.12359318761E+04 -0.24909633015E+03  0.19973215020E+04  0.12699999809E+01 0.  1.
       -4    1    3    3    0  502 -0.15491013477E+04 -0.12359318761E+04 -0.79616206127E+03  0.21356774636E+04  0.12699999809E+01 0. -1.
</event>
<event>
 5   0  0.1073271E-07  0.3989780E+04  0.7818609E-02  0.8006611E-01
        2   -1    0    0  501    0  0.00000000000E+00  0.00000000000E+00  0.26666680950E+04  0.26666680950E+04  0.25500000920E-02 0.  1.
       -2   -1    0    0    0  501  0.00000000000E+00  0.00000000000E+00 -0.14923441675E+04  0.14923441675E+04  0.25500000920E-02 0. -1.
    10030    2    1    2    0    0  0.00000000000E+00  0.00000000000E+00  0.11743239275E+04  0.41590122625E+04  0.39897802337E+04 0.  0.
        1    1    3    3  502    0  0.11863199663E+04 -0.13515259720E+04  0.14872745108E+04  0.23336587124E+04  0.50400001928E-02 0. -1.
       -1    1    3    3    0  502 -0.11863199663E+04  0.13515259720E+04 -0.31295058326E+03  0.18253535501E+04  0.50400001928E-02 0.  1.
</event>
<event>
 5   0  0.1101474E-07  0.4151217E+04  0.7818609E-02  0.7974717E-01
        2   -1    0    0  501    0  0.00000000000E+00  0.00000000000E+00  0.29465223066E+04  0.29465223066E+04  0.25500000920E-02 0.  1.
       -2   -1    0    0    0  501  0.00000000000E+00  0.00000000000E+00 -0.14621136110E+04  0.14621136110E+04  0.25500000920E-02 0. -1.
    10030    2    1    2    0    0  0.00000000000E+00  0.00000000000E+00  0.14844086956E+04  0.44086359175E+04  0.41512168671E+04 0.  0.
        5    1    3    3  502    0  0.85623557250E+03 -0.12101404044E+04 -0.80065574172E+03  0.16848296236E+04  0.46999998093E+01 0. -1.
       -5    1    3    3    0  502 -0.85623557250E+03  0.12101404044E+04  0.22850644374E+04  0.27238062939E+04  0.46999998093E+01 0.  1.
</event>
<event>
 5   0  0.1087688E-07  0.3999490E+04  0.7818609E-02  0.8004649E-01
        2   -1    0    0  501    0  0.00000000000E+00  0.00000000000E+00  0.14952829925E+04  0.14952829925E+04  0.25500000920E-02 0. -1.
       -2   -1    0    0    0  501  0.00000000000E+00  0.00000000000E+00 -0.26743967363E+04  0.26743967363E+04  0.25500000920E-02 0.  1.
    10030    2    1    2    0    0  0.00000000000E+00  0.00000000000E+00 -0.11791137438E+04  0.41696797289E+04  0.39994899450E+04 0.  0.
        2    1    3    3  502    0  0.97689524479E+03  0.53327743531E+03 -0.23216607562E+04  0.25746490652E+04  0.25500000920E-02 0.  1.
       -2    1    3    3    0  502 -0.97689524479E+03 -0.53327743531E+03  0.11425470124E+04  0.15950306636E+04  0.25500000920E-02 0. -1.
</event>
<event>
 5   0  0.1095903E-07  0.4019654E+04  0.7818609E-02  0.8000593E-01
       -2   -1    0    0    0  501  0.00000000000E+00  0.00000000000E+00  0.25441710324E+04  0.25441710324E+04  0.25500000920E-02 0. -1.
        2   -1    0    0  501    0  0.00000000000E+00  0.00000000000E+00 -0.15877094126E+04  0.15877094126E+04  0.25500000920E-02 0.  1.
    10030    2    1    2    0    0  0.00000000000E+00  0.00000000000E+00  0.95646161980E+03  0.41318804450E+04  0.40196538634E+04 0.  0.
        3    1    3    3  502    0  0.73594771965E+03 -0.67992297704E+03  0.22691396979E+04  0.24805058516E+04  0.10100000352E+00 0. -1.
       -3    1    3    3    0  502 -0.73594771965E+03  0.67992297704E+03 -0.13126780781E+04  0.16513745934E+04  0.10100000352E+00 0.  1.
</event>
<event>
 5   0  0.3399500E-08  0.4017779E+04  0.7818609E-02  0.8000970E-01
        1   -1    0    0  501    0  0.00000000000E+00  0.00000000000E+00  0.27873753787E+04  0.27873753787E+04  0.50400001928E-02 0. -1.
       -1   -1    0    0    0  501  0.00000000000E+00  0.00000000000E+00 -0.14478269981E+04  0.14478269981E+04  0.50400001928E-02 0.  1.
    10030    2    1    2    0    0  0.00000000000E+00  0.00000000000E+00  0.13395483806E+04  0.42352023768E+04  0.40177791512E+04 0.  0.
        4    1    3    3  502    0 -0.71319204320E+03 -0.12174481191E+04  0.21771269316E+04  0.25943604419E+04  0.12699999809E+01 0. -1.
       -4    1    3    3    0  502  0.71319204320E+03  0.12174481191E+04 -0.83757855100E+03  0.16408419349E+04  0.12699999809E+01 0.  1.
</event>
<event>
 5   0  0.3399500E-08  0.3653351E+04  0.7818609E-02  0.8078379E-01
       -1   -1    0    0    0  501  0.00000000000E+00  0.00000000000E+00  0.14651635204E+04  0.14651635204E+04  0.50400001928E-02 0. -1.
        1   -1    0    0  501    0  0.00000000000E+00  0.00000000000E+00 -0.22773869052E+04  0.22773869052E+04  0.50400001928E-02 0.  1.
    10030    2    1    2    0    0  0.00000000000E+00  0.00000000000E+00 -0.81222338483E+03  0.37425504256E+04  0.36533514560E+04 0.  0.
        1    1    3    3  502    0 -0.14782305983E+04 -0.79459400195E+03  0.33274619783E+03  0.17109252941E+04  0.50400001928E-02 0. -1.
       -1    1    3    3    0  502  0.14782305983E+04  0.79459400195E+03 -0.11449695827E+04  0.20316251315E+04  0.50400001928E-02 0.  1.
</event>
<event>
 5   0  0.1095903E-07  0.4004295E+04  0.7818609E-02  0.8003681E-01
        2   -1    0    0  501    0  0.00000000000E+00  0.00000000000E+00  0.14474905847E+04  0.14474905847E+04  0.25500000920E-02 0.  1.
       -2   -1    0    0    0  501  0.00000000000E+00  0.00000000000E+00 -0.27693413986E+04  0.27693413986E+04  0.25500000920E-02 0. -1.
    10030    2    1    2    0    0  0.00000000000E+00  0.00000000000E+00 -0.13218508140E+04  0.42168319833E+04  0.40042954937E+04 0.  0.
        3    1    3    3  502    0 -0.13014172121E+04 -0.12860703815E+04 -0.15170530187E+04  0.23767864140E+04  0.10100000352E+00 0. -1.
       -3    1    3    3    0  502  0.13014172121E+04  0.12860703815E+04  0.19520220473E+03  0.18400455693E+04  0.10100000352E+00 0.  1.
</event>
<event>
 5   0  0.1101474E-07  0.3936525E+04  0.7818609E-02  0.8017475E-01
        2   -1    0    0  501    0  0.00000000000E+00  0.00000000000E+00  0.27299232590E+04  0.27299232590E+04  0.25500000920E-02 0.  1.
       -2   -1    0    0    0  501  0.00000000000E+00  0.00000000000E+00 -0.14191082486E+04  0.14191082486E+04  0.25500000920E-02 0. -1.
    10030    2    1    2    0    0  0.00000000000E+00  0.00000000000E+00  0.13108150104E+04  0.41490315076E+04  0.39365246677E+04 0.  0.
        5    1    3    3  502    0 -0.12454406153E+04  0.14466977312E+04  0.11608558542E+04  0.22342034500E+04  0.46999998093E+01 0.  1.
       -5    1    3    3    0  502  0.12454406153E+04 -0.14466977312E+04  0.14995915619E+03  0.19148280576E+04  0.46999998093E+01 0. -1.
</event>
<event>
 5   0  0.3399500E-08  0.4079056E+04  0.7818609E-02  0.7988786E-01
       -1   -1    0    0    0  501  0.00000000000E+00  0.00000000000E+00  0.12540826743E+04  0.12540826743E+04  0.50400001928E-02 0. -1.
        1   -1    0    0  501    0  0.00000000000E+00  0.00000000000E+00 -0.33169062452E+04  0.33169062452E+04  0.50400001928E-02 0.  1.
    10030    2    1    2    0    0  0.00000000000E+00  0.00000000000E+00 -0.20628235709E+04  0.45709889194E+04  0.40790560939E+04 0.  0.
        3    1    3    3  502    0  0.79389847026E+03 -0.30145404514E+03  0.10465454444E+04  0.13477413327E+04  0.10100000352E+00 0. -1.
       -3    1    3    3    0  502 -0.79389847026E+03  0.30145404514E+03 -0.31093690153E+04  0.32232475868E+04  0.10100000352E+00 0.  1.
</event>
<event>
 5   0  0.3399500E-08  0.3950571E+04  0.7818609E-02  0.8014593E-01
        1   -1    0    0  501    0  0.00000000000E+00  0.00000000000E+00  0.18202412197E+04  0.18202412198E+04  0.50400001928E-02 0.  1.
       -1   -1    0    0    0  501  0.00000000000E+00  0.00000000000E+00 -0.21435362451E+04  0.21435362451E+04  0.50400001928E-02 0. -1.
    10030    2    1    2    0    0  0.00000000000E+00  0.00000000000E+00 -0.32329502537E+03  0.39637774649E+04  0.39505711128E+04 0.  0.
        4    1    3    3  502    0  0.19610366984E+04 -0.17563429838E+03 -0.22483196874E+01  0.19688877588E+04  0.12699999809E+01 0.  1.
       -4    1    3    3    0  502 -0.19610366984E+04  0.17563429838E+03 -0.32104670568E+03  0.19948897060E+04  0.12699999809E+01 0. -1.
</event>
<event>
 5   0  0.3399500E-08  0.4189280E+04  0.7818609E-02  0.7967415E-01
       -1   -1    0    0    0  501  0.00000000000E+00  0.00000000000E+00  0.15555641946E+04  0.15555641946E+04  0.50400001928E-02 0.  1.
        1   -1    0    0  501    0  0.00000000000E+00  0.00000000000E+00 -0.28205306559E+04  0.28205306559E+04  0.50400001928E-02 0. -1.
    10030    2    1    2    0    0  0.00000000000E+00  0.00000000000E+00 -0.12649664612E+04  0.43760948505E+04  0.41892798895E+04 0.  0.
        2    1    3    3  502    0  0.14401961236E+04  0.30506307974E+03  0.92402714258E+03  0.17381180965E+04  0.25500000920E-02 0.  1.
       -2    1    3    3    0  502 -0.14401961236E+04 -0.30506307974E+03 -0.21889936038E+04  0.26379767540E+04  0.25500000920E-02 0. -1.
</event>
<event>
 5   0  0.1095109E-07  0.3983605E+04  0.7818609E-02  0.8007862E-01
        2   -1    0    0  501    0  0.00000000000E+00  0.00000000000E+00  0.19375373288E+04  0.19375373288E+04  0.25500000920E-02 0. -1.
       -2   -1    0    0    0  501  0.00000000000E+00  0.00000000000E+00 -0.20475872958E+04  0.20475872958E+04  0.25500000920E-02 0.  1.
    10030    2    1    2    0    0  0.00000000000E+00  0.00000000000E+00 -0.11004996699E+03  0.39851246246E+04  0.39836048095E+04 0.  0.
        4    1    3    3  502    0 -0.69033003712E+03 -0.12381174363E+04 -0.14547674612E+04  0.20312164644E+04  0.12699999809E+01 0.  1.
       -4    1    3    3    0  502  0.69033003712E+03  0.12381174363E+04  0.13447174942E+04  0.19539081602E+04  0.12699999809E+01 0. -1.
</event>
<event>
 5   0  0.3399500E-08  0.3964633E+04  0.7818609E-02  0.8011719E-01
       -1   -1    0    0    0  501  0.00000000000E+00  0.00000000000E+00  0.13975648070E+04  0.13975648070E+04  0.50400001928E-02 0. -1.
        1   -1    0    0  501    0  0.00000000000E+00  0.00000000000E+00 -0.28117327147E+04  0.28117327147E+04  0.50400001928E-02 0.  1.
    10030    2    1    2    0    0  0.00000000000E+00  0.00000000000E+00 -0.14141679077E+04  0.42092975217E+04  0.39646329912E+04 0.  0.
        5    1    3    3  502    0 -0.67399737246E+03 -0.93907252446E+03 -0.24168773744E+04  0.26790759596E+04  0.46999998093E+01 0.  1.
       -5    1    3    3    0  502  0.67399737246E+03  0.93907252446E+03  0.10027094667E+04  0.15302215620E+04  0.46999998093E+01 0. -1.
</event>
<event>
 5   0  0.1101474E-07  0.4023940E+04  0.7818609E-02  0.7999734E-01
       -2   -1    0    0    0  501  0.00000000000E+00  0.00000000000E+00  0.15681462629E+04  0.15681462629E+04  0.25500000920E-02 0. -1.
        2   -1    0    0  501    0  0.00000000000E+00  0.00000000000E+00 -0.25814069111E+04  0.25814069111E+04  0.25500000920E-02 0.  1.
    10030    2    1    2    0    0  0.00000000000E+00  0.00000000000E+00 -0.10132606481E+04  0.41495531740E+04  0.40239401590E+04 0.  0.
        5    1    3    3  502    0 -0.89273883907E+03 -0.77159043272E+03  0.11738623967E+04  0.16644246595E+04  0.46999998093E+01 0. -1.
       -5    1    3    3    0  502  0.89273883907E+03  0.77159043272E+03 -0.21871230448E+04  0.24851285146E+04  0.46999998093E+01 0.  1.
</event>
<event>
 5   0  0.3399500E-08  0.3776026E+04  0.7818609E-02  0.8051319E-01
        1   -1    0    0  501    0  0.00000000000E+00  0.00000000000E+00  0.22279380610E+04  0.22279380610E+04  0.50400001928E-02 0.  1.
       -1   -1    0    0    0  501  0.00000000000E+00  0.00000000000E+00 -0.15999515220E+04  0.15999515220E+04  0.50400001928E-02 0. -1.
    10030    2    1    2    0    0  0.00000000000E+00  0.00000000000E+00  0.62798653900E+03  0.38278895831E+04  0.37760258960E+04 0.  0.
        2    1    3    3  502    0  0.15783849760E+04  0.86274858125E+02  0.13605735939E+04  0.20856421045E+04  0.25500000920E-02 0.  1.
       -2    1    3    3    0  502 -0.15783849760E+04 -0.86274858125E+02 -0.73258705494E+03  0.17422474786E+04  0.25500000920E-02 0. -1.
</event>
<event>
 5   0  0.1073271E-07  0.4014484E+04  0.7818609E-02  0.8001631E-01
       -2   -1    0    0    0  501  0.00000000000E+00  0.00000000000E+00  0.18917298773E+04  0.18917298773E+04  0.25500000920E-02 0. -1.
        2   -1    0    0  501    0  0.00000000000E+00  0.00000000000E+00 -0.21298079432E+04  0.21298079432E+04  0.25500000920E-02 0.  1.
    10030    2    1    2    0    0  0.00000000000E+00  0.00000000000E+00 -0.23807806586E+03  0.40215378206E+04  0.40144844347E+04 0.  0.
        1    1    3    3  502    0  0.62252905548E+03  0.18791567514E+04 -0.45165976139E+03  0.20304603078E+04  0.50400001928E-02 0.  1.
       -1    1    3    3    0  502 -0.62252905548E+03 -0.18791567514E+04  0.21358169553E+03  0.19910775128E+04  0.50400001928E-02 0. -1.
</event>
<event>
 5   0  0.3399500E-08  0.3986027E+04  0.7818609E-02  0.8007371E-01
       -1   -1    0    0    0  501  0.00000000000E+00  0.00000000000E+00  0.17538839899E+04  0.17538839899E+04  0.50400001928E-02 0.  1.
        1   -1    0    0  501    0  0.00000000000E+00  0.00000000000E+00 -0.22647468903E+04  0.22647468903E+04  0.50400001928E-02 0. -1.
    10030    2    1    2    0    0  0.00000000000E+00  0.00000000000E+00 -0.51086290042E+03  0.40186308803E+04  0.39860272514E+04 0.  0.
        5    1    3    3  502    0  0.11821689456E+04 -0.74539385714E+03 -0.16879497683E+04  0.21914223528E+04  0.46999998093E+01 0. -1.
       -5    1    3    3    0  502 -0.11821689456E+04  0.74539385714E+03  0.11770868679E+04  0.18272085274E+04  0.46999998093E+01 0.  1.
</event>
<event>
 5   0  0.3399500E-08  0.4036953E+04  0.7818609E-02  0.7997133E-01
        1   -1    0    0  501    0  0.00000000000E+00  0.00000000000E+00  0.21856578021E+04  0.21856578021E+04  0.50400001928E-02 0.  1.
       -1   -1    0    0    0  501  0.00000000000E+00  0.00000000000E+00 -0.18640827728E+04  0.18640827728E+04  0.50400001928E-02 0. -1.
    10030    2    1    2    0    0  0.00000000000E+00  0.00000000000E+00  0.32157502931E+03  0.40497405748E+04  0.40369528390E+04 0.  0.
        2    1    3    3  502    0  0.12434074059E+04  0.44063593907E+03  0.16933785599E+04  0.21465677150E+04  0.25500000920E-02 0.  1.
       -2    1    3    3    0  502 -0.12434074059E+04 -0.44063593907E+03 -0.13718035306E+04  0.19031728598E+04  0.25500000920E-02 0. -1.
</event>
<event>
 5   0  0.1087688E-07  0.4012709E+04  0.7818609E-02  0.8001988E-01
        2   -1    0    0  501    0  0.00000000000E+00  0.00000000000E+00  0.15418205585E+04  0.15418205585E+04  0.25500000920E-02 0.  1.
       -2   -1    0    0    0  501  0.00000000000E+00  0.00000000000E+00 -0.26108476430E+04  0.26108476430E+04  0.25500000920E-02 0. -1.
    10030    2    1    2    0    0  0.00000000000E+00  0.00000000000E+00 -0.10690270845E+04  0.41526682015E+04  0.40127090954E+04 0.  0.
        2    1    3    3  502    0  0.35007124681E+03 -0.10981202977E+04  0.11650338929E+04  0.16388172679E+04  0.25500000920E-02 0.  1.
       -2    1    3    3    0  502 -0.35007124681E+03  0.10981202977E+04 -0.22340609774E+04  0.25138509336E+04  0.25500000920E-02 0. -1.
</event>
<event>
 5   0  0.1087688E-07  0.3920805E+04  0.7818609E-02  0.8020716E-01
       -2   -1    0    0    0  501  0.00000000000E+00  0.00000000000E+00  0.16468515390E+04  0.16468515390E+04  0.25500000920E-02 0.  1.
        2   -1    0    0  501    0  0.00000000000E+00  0.00000000000E+00 -0.23336521498E+04  0.23336521498E+04  0.25500000920E-02 0. -1.
    10030    2    1    2    0    0  0.00000000000E+00  0.00000000000E+00 -0.68680061081E+03  0.39805036888E+04  0.39208053430E+04 0.  0.
        2    1    3    3  502    0  0.17616209277E+04 -0.78767372260E+03 -0.69426402381E+03  0.20507902674E+04  0.25500000920E-02 0. -1.
       -2    1    3    3    0  502 -0.17616209277E+04  0.78767372260E+03  0.74634129983E+01  0.19297134214E+04  0.25500000920E-02 0.  1.
</event>
<event>
 5   0  0.1095109E-07  0.4016303E+04  0.7818609E-02  0.8001266E-01
       -2   -1    0    0    0  501  0.00000000000E+00  0.00000000000E+00  0.23611599018E+04  0.23611599018E+04  0.25500000920E-02 0. -1.
        2   -1    0    0  501    0  0.00000000000E+00  0.00000000000E+00 -0.17079201674E+04  0.17079201674E+04  0.25500000920E-02 0.  1.
    10030    2    1    2    0    0  0.00000000000E+00  0.00000000000E+00  0.65323973437E+03  0.40690800692E+04  0.40163030835E+04 0.  0.
        4    1    3    3  502    0 -0.66630548689E+03 -0.88742408744E+03  0.20222876491E+04  0.23067582148E+04  0.12699999809E+01 0. -1.
       -4    1    3    3    0  502  0.66630548689E+03  0.88742408744E+03 -0.13690479147E+04  0.17623218544E+04  0.12699999809E+01 0.  1.
</event>
<event>
 5   0  0.1087688E-07  0.3996631E+04  0.7818609E-02  0.8005227E-01
       -2   -1    0    0    0  501  0.00000000000E+00  0.00000000000E+00  0.23652109308E+04  0.23652109308E+04  0.25500000920E-02 0.  1.
        2   -1    0    0  501    0  0.00000000000E+00  0.00000000000E+00 -0.16883332605E+04  0.16883332605E+04  0.25500000920E-02 0. -1.
    10030    2    1    2    0    0  0.00000000000E+00  0.00000000000E+00  0.67687767029E+03  0.40535441914E+04  0.39966307223E+04 0.  0.
        2    1    3    3  502    0 -0.67898711381E+03 -0.58629323126E+03 -0.14726267179E+04  0.17243528363E+04  0.25500000920E-02 0. -1.
       -2    1    3    3    0  502  0.67898711381E+03  0.58629323126E+03  0.21495043882E+04  0.23291913551E+04  0.25500000920E-02 0.  1.
</event>
<event>
 5   0  0.1087688E-07  0.3990893E+04  0.7818609E-02  0.8006386E-01
        2   -1    0    0  501    0  0.00000000000E+00  0.00000000000E+00  0.22284171318E+04  0.22284171318E+04  0.25500000920E-02 0. -1.
       -2   -1    0    0    0  501  0.00000000000E+00  0.00000000000E+00 -0.17868319775E+04  0.17868319775E+04  0.25500000920E-02 0.  1.
    10030    2    1    2    0    0  0.00000000000E+00  0.00000000000E+00  0.44158515427E+03  0.40152491094E+04  0.39908931283E+04 0.  0.
        2    1    3    3  502    0 -0.19128789021E+04 -0.33604766864E+03 -0.24001271817E+03  0.19569465589E+04  0.25500000920E-02 0. -1.
       -2    1    3    3    0  502  0.19128789021E+04  0.33604766864E+03  0.68159787244E+03  0.20583025505E+04  0.25500000920E-02 0.  1.
</event>
<event>
 5   0  0.1095903E-07  0.3999561E+04  0.7818609E-02  0.8004635E-01
       -2   -1    0    0    0  501  0.00000000000E+00  0.00000000000E+00  0.16297926974E+04  0.16297926974E+04  0.25500000920E-02 0.  1.
        2   -1    0    0  501    0  0.00000000000E+00  0.00000000000E+00 -0.24537606885E+04  0.24537606885E+04  0.25500000920E-02 0. -1.
    10030    2    1    2    0    0  0.00000000000E+00  0.00000000000E+00 -0.82396799112E+03  0.40835533859E+04  0.39995606015E+04 0.  0.
        3    1    3    3  502    0 -0.69993696607E+03  0.66209056136E+03 -0.22011677436E+04  0.24027931899E+04  0.10100000352E+00 0. -1.
       -3    1    3    3    0  502  0.69993696607E+03 -0.66209056136E+03  0.13771997525E+04  0.16807601960E+04  0.10100000352E+00 0.  1.
</event>
<event>
 5   0  0.3399500E-08  0.4016049E+04  0.7818609E-02  0.8001317E-01
       -1   -1    0    0    0  501  0.00000000000E+00  0.00000000000E+00  0.14289094974E+04  0.14289094974E+04  0.50400001928E-02 0. -1.
        1   -1    0    0  501    0  0.00000000000E+00  0.00000000000E+00 -0.28218465187E+04  0.28218465187E+04  0.50400001928E-02 0.  1.
    10030    2    1    2    0    0  0.00000000000E+00  0.00000000000E+00 -0.13929370213E+04  0.42507560161E+04  0.40160494473E+04 0.  0.
        4    1    3    3  502    0  0.10704797884E+04 -0.55613913169E+03 -0.23955711496E+04  0.26821596628E+04  0.12699999809E+01 0.  1.
       -4    1    3    3    0  502 -0.10704797884E+04  0.55613913169E+03  0.10026341284E+04  0.15685963533E+04  0.12699999809E+01 0. -1.
</event>
<event>
 5   0  0.3399500E-08  0.4004385E+04  0.7818609E-02  0.8003663E-01
        1   -1    0    0  501    0  0.00000000000E+00  0.00000000000E+00  0.21912107392E+04  0.21912107392E+04  0.50400001928E-02 0.  1.
       -1   -1    0    0    0  501  0.00000000000E+00  0.00000000000E+00 -0.18294790462E+04  0.18294790462E+04  0.50400001928E-02 0. -1.
    10030    2    1    2    0    0  0.00000000000E+00  0.00000000000E+00  0.36173169304E+03  0.40206897854E+04  0.40043846634E+04 0.  0.
        1    1    3    3  502    0 -0.68717109953E+03  0.18549955723E+04 -0.12952300912E+03  0.19824199613E+04  0.50400001928E-02 0.  1.
       -1    1    3    3    0  502  0.68717109953E+03 -0.18549955723E+04  0.49125470216E+03  0.20382698240E+04  0.50400001928E-02 0. -1.
</event>
<event>
 5   0  0.3399500E-08  0.4080868E+04  0.7818609E-02  0.7988429E-01
       -1   -1    0    0    0  501  0.00000000000E+00  0.00000000000E+00  0.31722202897E+04  0.31722202897E+04  0.50400001928E-02 0. -1.
        1   -1    0    0  501    0  0.00000000000E+00  0.00000000000E+00 -0.13124471901E+04  0.13124471901E+04  0.50400001928E-02 0.  1.
    10030    2    1    2    0    0  0.00000000000E+00  0.00000000000E+00  0.18597730997E+04  0.44846674798E+04  0.40808683417E+04 0.  0.
        3    1    3    3  502    0  0.10019093478E+04  0.15211638513E+04 -0.80674756289E+02  0.18232581359E+04  0.10100000352E+00 0.  1.
       -3    1    3    3    0  502 -0.10019093478E+04 -0.15211638513E+04  0.19404478559E+04  0.26614093439E+04  0.10100000352E+00 0. -1.
</event>
<event>
 5   0  0.3399500E-08  0.4028587E+04  0.7818609E-02  0.7998804E-01
       -1   -1    0    0    0  501  0.00000000000E+00  0.00000000000E+00  0.30233512779E+04  0.30233512779E+04  0.50400001928E-02 0. -1.
        1   -1    0    0  501    0  0.00000000000E+00  0.00000000000E+00 -0.13420135856E+04  0.13420135856E+04  0.50400001928E-02 0.  1.
    10030    2    1    2    0    0  0.00000000000E+00  0.00000000000E+00  0.16813376923E+04  0.43653648636E+04  0.40285870919E+04 0.  0.
        2    1    3    3  502    0 -0.12335351027E+04 -0.10787557847E+04  0.21099377680E+04  0.26715464206E+04  0.25500000920E-02 0. -1.
       -2    1    3    3    0  502  0.12335351027E+04  0.10787557847E+04 -0.42860007572E+03  0.16938184429E+04  0.25500000920E-02 0.  1.
</event>
<event>
 5   0  0.3399500E-08  0.4043997E+04  0.7818609E-02  0.7995729E-01
       -1   -1    0    0    0  501  0.00000000000E+00  0.00000000000E+00  0.13210490456E+04  0.13210490456E+04  0.50400001928E-02 0.  1.
        1   -1    0    0  501    0  0.00000000000E+00  0.00000000000E+00 -0.30948727947E+04  0.30948727947E+04  0.50400001928E-02 0. -1.
    10030    2    1    2    0    0  0.00000000000E+00  0.00000000000E+00 -0.17738237491E+04  0.44159218403E+04  0.40439974044E+04 0.  0.
        3    1    3    3  502    0  0.92241491780E+03 -0.44554403573E+03 -0.27905501668E+04  0.29726299824E+04  0.10100000352E+00 0. -1.
       -3    1    3    3    0  502 -0.92241491780E+03  0.44554403573E+03  0.10167264177E+04  0.14432918579E+04  0.10100000352E+00 0.  1.
</event>
<event>
 5   0  0.1095109E-07  0.4072992E+04  0.7818609E-02  0.7989981E-01
       -2   -1    0    0    0  501  0.00000000000E+00  0.00000000000E+00  0.14370399692E+04  0.14370399692E+04  0.25500000920E-02 0.  1.
        2   -1    0    0  501    0  0.00000000000E+00  0.00000000000E+00 -0.28860129799E+04  0.28860129799E+04  0.25500000920E-02 0. -1.
    10030    2    1    2    0    0  0.00000000000E+00  0.00000000000E+00 -0.14489730107E+04  0.43230529491E+04  0.40729920224E+04 0.  0.
        4    1    3    3  502    0  0.36670854856E+01 -0.17322142706E+04  0.41211562506E+03  0.17805675017E+04  0.12699999809E+01 0.  1.
       -4    1    3    3    0  502 -0.36670854856E+01  0.17322142706E+04 -0.18610886358E+04  0.25424854474E+04  0.12699999809E+01 0. -1.
</event>
<event>
 5   0  0.1095109E-07  0.4014346E+04  0.7818609E-02  0.8001659E-01
        2   -1    0    0  501    0  0.00000000000E+00  0.00000000000E+00  0.21291790198E+04  0.21291790198E+04  0.25500000920E-02 0. -1.
       -2   -1    0    0    0  501  0.00000000000E+00  0.00000000000E+00 -0.18921580164E+04  0.18921580164E+04  0.25500000920E-02 0.  1.
    10030    2    1    2    0    0  0.00000000000E+00  0.00000000000E+00  0.23702100342E+03  0.40213370363E+04  0.40143458500E+04 0.  0.
        4    1    3    3  502    0 -0.65133381026E+03 -0.16668490351E+04  0.10290049087E+04  0.20643338280E+04  0.12699999809E+01 0.  1.
       -4    1    3    3    0  502  0.65133381026E+03  0.16668490351E+04 -0.79198390528E+03  0.19570032083E+04  0.12699999809E+01 0. -1.
</event>
<event>
 5   0  0.1087688E-07  0.4000200E+04  0.7818609E-02  0.8004506E-01
        2   -1    0    0  501    0  0.00000000000E+00  0.00000000000E+00  0.19075681285E+04  0.19075681285E+04  0.25500000920E-02 0.  1.
       -2   -1    0    0    0  501  0.00000000000E+00  0.00000000000E+00 -0.20971202476E+04  0.20971202476E+04  0.25500000920E-02 0. -1.
    10030    2    1    2    0    0  0.00000000000E+00  0.00000000000E+00 -0.18955211910E+03  0.40046883761E+04  0.40001998680E+04 0.  0.
        2    1    3    3  502    0  0.15377933721E+04 -0.42661611110E+03  0.11122259606E+04  0.19452137027E+04  0.25500000920E-02 0.  1.
       -2    1    3    3    0  502 -0.15377933721E+04  0.42661611110E+03 -0.13017780797E+04  0.20594746734E+04  0.25500000920E-02 0. -1.
</event>
<event>
 5   0  0.3399500E-08  0.3618574E+04  0.7818609E-02  0.8086250E-01
        1   -1    0    0  501    0  0.00000000000E+00  0.00000000000E+00  0.21788783890E+04  0.21788783890E+04  0.50400001928E-02 0. -1.
       -1   -1    0    0    0  501  0.00000000000E+00  0.00000000000E+00 -0.15023877912E+04  0.15023877913E+04  0.50400001928E-02 0.  1.
    10030    2    1    2    0    0  0.00000000000E+00  0.00000000000E+00  0.67649059776E+03  0.36812661803E+04  0.36185744653E+04 0.  0.
        1    1    3    3  502    0 -0.14483931020E+04 -0.58383761988E+03 -0.59126429829E+03  0.16698210727E+04  0.50400001928E-02 0.  1.
       -1    1    3    3    0  502  0.14483931020E+04  0.58383761988E+03  0.12677548961E+04  0.20114451076E+04  0.50400001928E-02 0. -1.
</event>
<event>
 5   0  0.3399500E-08  0.3908254E+04  0.7818609E-02  0.8023315E-01
        1   -1    0    0  501    0  0.00000000000E+00  0.00000000000E+00  0.17367232681E+04  0.17367232681E+04  0.50400001928E-02 0. -1.
       -1   -1    0    0    0  501  0.00000000000E+00  0.00000000000E+00 -0.21987449276E+04  0.21987449276E+04  0.50400001928E-02 0.  1.
    10030    2    1    2    0    0  0.00000000000E+00  0.00000000000E+00 -0.46202165949E+03  0.39354681956E+04  0.39082535620E+04 0.  0.
        3    1    3    3  502    0  0.32451348011E+03 -0.17493967084E+04  0.58264649811E+03  0.18722112044E+04  0.10100000352E+00 0.  1.
       -3    1    3    3    0  502 -0.32451348011E+03  0.17493967084E+04 -0.10446681576E+04  0.20632569912E+04  0.10100000352E+00 0. -1.
</event>
<event>
 5   0  0.3399500E-08  0.3956859E+04  0.7818609E-02  0.8013307E-01
        1   -1    0    0  501    0  0.00000000000E+00  0.00000000000E+00  0.18480985818E+04  0.18480985818E+04  0.50400001928E-02 0. -1.
       -1   -1    0    0    0  501  0.00000000000E+00  0.00000000000E+00 -0.21179510967E+04  0.21179510968E+04  0.50400001928E-02 0.  1.
    10030    2    1    2    0    0  0.00000000000E+00  0.00000000000E+00 -0.26985251494E+03  0.39660496786E+04  0.39568585612E+04 0.  0.
        4    1    3    3  502    0  0.16816383366E+04  0.23505624656E+03 -0.11526773150E+04  0.20522732614E+04  0.12699999809E+01 0.  1.
       -4    1    3    3    0  502 -0.16816383366E+04 -0.23505624656E+03  0.88282480002E+03  0.19137764171E+04  0.12699999809E+01 0. -1.
</event>
<event>
 5   0  0.3399500E-08  0.4006072E+04  0.7818609E-02  0.8003323E-01
        1   -1    0    0  501    0  0.00000000000E+00  0.00000000000E+00  0.30999387185E+04  0.30999387185E+04  0.50400001928E-02 0.  1.
       -1   -1    0    0    0  501  0.00000000000E+00  0.00000000000E+00 -0.12942686080E+04  0.12942686081E+04  0.50400001928E-02 0. -1.
    10030    2    1    2    0    0  0.00000000000E+00  0.00000000000E+00  0.18056701105E+04  0.43942073266E+04  0.40060720764E+04 0.  0.
        4    1    3    3  502    0 -0.54353493411E+03  0.15342985882E+04 -0.37758906247E+03  0.16709510751E+04  0.12699999809E+01 0. -1.
       -4    1    3    3    0  502  0.54353493411E+03 -0.15342985882E+04  0.21832591729E+04  0.27232562515E+04  0.12699999809E+01 0.  1.
</event>
<event>
 5   0  0.1073271E-07  0.3997235E+04  0.7818609E-02  0.8005105E-01
        2   -1    0    0  501    0  0.00000000000E+00  0.00000000000E+00  0.16511806836E+04  0.16511806836E+04  0.25500000920E-02 0.  1.
       -2   -1    0    0    0  501  0.00000000000E+00  0.00000000000E+00 -0.24191612880E+04  0.24191612880E+04  0.25500000920E-02 0. -1.
    10030    2    1    2    0    0  0.00000000000E+00  0.00000000000E+00 -0.76798060432E+03  0.40703419716E+04  0.39972352392E+04 0.  0.
        1    1    3    3  502    0 -0.46197425277E+03  0.10613854087E+04  0.12750755895E+04  0.17221431285E+04  0.50400001928E-02 0.  1.
       -1    1    3    3    0  502  0.46197425277E+03 -0.10613854087E+04 -0.20430561938E+04  0.23481988432E+04  0.50400001928E-02 0. -1.
</event>
<event>
 5   0  0.1087688E-07  0.4026471E+04  0.7818609E-02  0.7999228E-01
        2   -1    0    0  501    0  0.00000000000E+00  0.00000000000E+00  0.30866422121E+04  0.30866422121E+04  0.25500000920E-02 0. -1.
       -2   -1    0    0    0  501  0.00000000000E+00  0.00000000000E+00 -0.13131156443E+04  0.13131156443E+04  0.25500000920E-02 0.  1.
    10030    2    1    2    0    0  0.00000000000E+00  0.00000000000E+00  0.17735265678E+04  0.43997578564E+04  0.40264714961E+04 0.  0.
        2    1    3    3  502    0 -0.44307440212E+03  0.15906899182E+04 -0.37175410328E+03  0.16925750958E+04  0.25500000920E-02 0.  1.
       -2    1    3    3    0  502  0.44307440212E+03 -0.15906899182E+04  0.21452806710E+04  0.27071827606E+04  0.25500000920E-02 0. -1.
</event>
<event>
 5   0  0.1095903E-07  0.3998143E+04  0.7818609E-02  0.8004921E-01
        2   -1    0    0  501    0  0.00000000000E+00  0.00000000000E+00  0.24093365617E+04  0.24093365617E+04  0.25500000920E-02 0.  1.
       -2   -1    0    0    0  501  0.00000000000E+00  0.00000000000E+00 -0.16586668778E+04  0.16586668778E+04  0.25500000920E-02 0. -1.
    10030    2    1    2    0    0  0.00000000000E+00  0.00000000000E+00  0.75066968394E+03  0.40680034395E+04  0.39981429451E+04 0.  0.
        3    1    3    3  502    0 -0.56505946803E+03  0.19017824233E+04  0.12565314089E+03  0.19879278935E+04  0.10100000352E+00 0.  1.
       -3    1    3    3    0  502  0.56505946803E+03 -0.19017824233E+04  0.62501654305E+03  0.20800755460E+04  0.10100000352E+00 0. -1.
</event>
<event>
 5   0  0.1101474E-07  0.4004166E+04  0.7818609E-02  0.8003707E-01
       -2   -1    0    0    0  501  0.00000000000E+00  0.00000000000E+00  0.18521487200E+04  0.18521487200E+04  0.25500000920E-02 0. -1.
        2   -1    0    0  501    0  0.00000000000E+00  0.00000000000E+00 -0.21641550076E+04  0.21641550076E+04  0.25500000920E-02 0.  1.
    10030    2    1    2    0    0  0.00000000000E+00  0.00000000000E+00 -0.31200628754E+03  0.40163037276E+04  0.40041662938E+04 0.  0.
        5    1    3    3  502    0 -0.16331135028E+04  0.91561719015E+03 -0.86730736133E+03  0.20634094845E+04  0.46999998093E+01 0.  1.
       -5    1    3    3    0  502  0.16331135028E+04 -0.91561719015E+03  0.55530107379E+03  0.19528942430E+04  0.46999998093E+01 0. -1.
</event>
<event>
 5   0  0.3399500E-08  0.3985123E+04  0.7818609E-02  0.8007554E-01
       -1   -1    0    0    0  501  0.00000000000E+00  0.00000000000E+00  0.15177408516E+04  0.15177408516E+04  0.50400001928E-02 0. -1.
        1   -1    0    0  501    0  0.00000000000E+00  0.00000000000E+00 -0.26159289348E+04  0.26159289348E+04  0.50400001928E-02 0.  1.
    10030    2    1    2    0    0  0.00000000000E+00  0.00000000000E+00 -0.10981880833E+04  0.41336697864E+04  0.39851234406E+04 0.  0.
        5    1    3    3  502    0 -0.80633686607E+03  0.30778148660E+01  0.13409373998E+04  0.15647120549E+04  0.46999998093E+01 0. -1.
       -5    1    3    3    0  502  0.80633686607E+03 -0.30778148660E+01 -0.24391254830E+04  0.25689577315E+04  0.46999998093E+01 0.  1.
</event>
<event>
 5   0  0.3399500E-08  0.3957824E+04  0.7818609E-02  0.8013109E-01
        1   -1    0    0  501    0  0.00000000000E+00  0.00000000000E+00  0.17336016954E+04  0.17336016954E+04  0.50400001928E-02 0.  1.
       -1   -1    0    0    0  501  0.00000000000E+00  0.00000000000E+00 -0.22589349978E+04  0.22589349978E+04  0.50400001928E-02 0. -1.
    10030    2    1    2    0    0  0.00000000000E+00  0.00000000000E+00 -0.52533330235E+03  0.39925366932E+04  0.39578244236E+04 0.  0.
        2    1    3    3  502    0  0.90753944550E+03  0.10128645045E+04  0.11874988778E+04  0.18054572646E+04  0.25500000920E-02 0.  1.
       -2    1    3    3    0  502 -0.90753944550E+03 -0.10128645045E+04 -0.17128321801E+04  0.21870794286E+04  0.25500000920E-02 0. -1.
</event>
<event>
 5   0  0.3399500E-08  0.4007563E+04  0.7818609E-02  0.8003023E-01
       -1   -1    0    0    0  501  0.00000000000E+00  0.00000000000E+00  0.16658571137E+04  0.16658571137E+04  0.50400001928E-02 0.  1.
        1   -1    0    0  501    0  0.00000000000E+00  0.00000000000E+00 -0.24102548340E+04  0.24102548340E+04  0.50400001928E-02 0. -1.
    10030    2    1    2    0    0  0.00000000000E+00  0.00000000000E+00 -0.74439772036E+03  0.40761119477E+04  0.40075629308E+04 0.  0.
        5    1    3    3  502    0  0.14577898244E+03  0.18598016814E+04 -0.11161499331E+04  0.21739196326E+04  0.46999998093E+01 0. -1.
       -5    1    3    3    0  502 -0.14577898244E+03 -0.18598016814E+04  0.37175221275E+03  0.19021923151E+04  0.46999998093E+01 0.  1.
</event>
<event>
 5   0  0.1087688E-07  0.4013541E+04  0.7818609E-02  0.8001820E-01
       -2   -1    0    0    0  501  0.00000000000E+00  0.00000000000E+00  0.16892378838E+04  0.16892378838E+04  0.25500000920E-02 0.  1.
        2   -1    0    0  501    0  0.00000000000E+00  0.00000000000E+00 -0.23839912596E+04  0.23839912596E+04  0.25500000920E-02 0. -1.
    10030    2    1    2    0    0  0.00000000000E+00  0.00000000000E+00 -0.69475337579E+03  0.40732291435E+04  0.40135412546E+04 0.  0.
        2    1    3    3  502    0  0.11811321003E+04 -0.92592979544E+03  0.10046171955E+04  0.18060107237E+04  0.25500000920E-02 0.  1.
       -2    1    3    3    0  502 -0.11811321003E+04  0.92592979544E+03 -0.16993705713E+04  0.22672184198E+04  0.25500000920E-02 0. -1.
</event>
<event>
 5   0  0.1073271E-07  0.4005897E+04  0.7818609E-02  0.8003358E-01
       -2   -1    0    0    0  501  0.00000000000E+00  0.00000000000E+00  0.14012275949E+04  0.14012275949E+04  0.25500000920E-02 0. -1.
        2   -1    0    0  501    0  0.00000000000E+00  0.00000000000E+00 -0.28630623727E+04  0.28630623727E+04  0.25500000920E-02 0.  1.
    10030    2    1    2    0    0  0.00000000000E+00  0.00000000000E+00 -0.14618347778E+04  0.42642899676E+04  0.40058966550E+04 0.  0.
        1    1    3    3  502    0 -0.16238393465E+03 -0.19083394181E+04 -0.10686592562E+03  0.19182148479E+04  0.50400001928E-02 0. -1.
       -1    1    3    3    0  502  0.16238393465E+03  0.19083394181E+04 -0.13549688522E+04  0.23460751197E+04  0.50400001928E-02 0.  1.
</event>
<event>
 5   0  0.1073271E-07  0.3982752E+04  0.7818609E-02  0.8008035E-01
       -2   -1    0    0    0  501  0.00000000000E+00  0.00000000000E+00  0.24868069550E+04  0.24868069550E+04  0.25500000920E-02 0.  1.
        2   -1    0    0  501    0  0.00000000000E+00  0.00000000000E+00 -0.15946463676E+04  0.15946463676E+04  0.25500000920E-02 0. -1.
    10030    2    1    2    0    0  0.00000000000E+00  0.00000000000E+00  0.89216058740E+03  0.40814533225E+04  0.39827516506E+04 0.  0.
        1    1    3    3  502    0  0.99830976926E+03 -0.11511553155E+04 -0.86779958823E+03  0.17535270403E+04  0.50400001928E-02 0. -1.
       -1    1    3    3    0  502 -0.99830976926E+03  0.11511553155E+04  0.17599601756E+04  0.23279262822E+04  0.50400001928E-02 0.  1.
</event>
<event>
 5   0  0.1095903E-07  0.4004553E+04  0.7818609E-02  0.8003629E-01
       -2   -1    0    0    0  501  0.00000000000E+00  0.00000000000E+00  0.23148115422E+04  0.23148115422E+04  0.25500000920E-02 0. -1.
        2   -1    0    0  501    0  0.00000000000E+00  0.00000000000E+00 -0.17319381495E+04  0.17319381495E+04  0.25500000920E-02 0.  1.
    10030    2    1    2    0    0  0.00000000000E+00  0.00000000000E+00  0.58287339273E+03  0.40467496917E+04  0.40045526187E+04 0.  0.
        3    1    3    3  502    0 -0.19764362564E+04  0.29826068340E+03  0.17250758744E+03  0.20062448975E+04  0.10100000352E+00 0.  1.
       -3    1    3    3    0  502  0.19764362564E+04 -0.29826068340E+03  0.41036580529E+03  0.20405047942E+04  0.10100000352E+00 0. -1.
</event>
<event>
 5   0  0.3399500E-08  0.3993412E+04  0.7818609E-02  0.8005877E-01
        1   -1    0    0  501    0  0.00000000000E+00  0.00000000000E+00  0.27338784513E+04  0.27338784513E+04  0.50400001928E-02 0. -1.
       -1   -1    0    0    0  501  0.00000000000E+00  0.00000000000E+00 -0.14583076445E+04  0.14583076445E+04  0.50400001928E-02 0.  1.
    10030    2    1    2    0    0  0.00000000000E+00  0.00000000000E+00  0.12755708068E+04  0.41921860958E+04  0.39934124980E+04 0.  0.
        4    1    3    3  502    0  0.22718257977E+02  0.12714104025E+04  0.22538373476E+04  0.25878147022E+04  0.12699999809E+01 0. -1.
       -4    1    3    3    0  502 -0.22718257977E+02 -0.12714104025E+04 -0.97826654078E+03  0.16043713936E+04  0.12699999809E+01 0.  1.
</event>
<event>
 5   0  0.1095903E-07  0.3789131E+04  0.7818609E-02  0.8048491E-01
       -2   -1    0    0    0  501  0.00000000000E+00  0.00000000000E+00  0.13267349072E+04  0.13267349072E+04  0.25500000920E-02 0.  1.
        2   -1    0    0  501    0  0.00000000000E+00  0.00000000000E+00 -0.27054227921E+04  0.27054227921E+04  0.25500000920E-02 0. -1.
    10030    2    1    2    0    0  0.00000000000E+00  0.00000000000E+00 -0.13786878849E+04  0.40321576993E+04  0.37891312234E+04 0.  0.
        3    1    3    3  502    0 -0.12763072070E+04 -0.22091954142E+02 -0.21791105031E+04  0.25254644595E+04  0.10100000352E+00 0. -1.
       -3    1    3    3    0  502  0.12763072070E+04  0.22091954142E+02  0.80042261825E+03  0.15066932398E+04  0.10100000352E+00 0.  1.
</event>
<event>
 5   0  0.3399500E-08  0.3533161E+04  0.7818609E-02  0.8105976E-01
       -1   -1    0    0    0  501  0.00000000000E+00  0.00000000000E+00  0.20749076634E+04  0.20749076634E+04  0.50400001928E-02 0.  1.
        1   -1    0    0  501    0  0.00000000000E+00  0.00000000000E+00 -0.15040697239E+04  0.15040697239E+04  0.50400001928E-02 0. -1.
    10030    2    1    2    0    0  0.00000000000E+00  0.00000000000E+00  0.57083793949E+03  0.35789773873E+04  0.35331605094E+04 0.  0.
        2    1    3    3  502    0  0.42687912656E+03 -0.15884902407E+04 -0.36735893771E+03  0.16853722505E+04  0.25500000920E-02 0. -1.
       -2    1    3    3    0  502 -0.42687912656E+03  0.15884902407E+04  0.93819687719E+03  0.18936051368E+04  0.25500000920E-02 0.  1.
</event>
<event>
 5   0  0.1101474E-07  0.4013403E+04  0.7818609E-02  0.8001848E-01
       -2   -1    0    0    0  501  0.00000000000E+00  0.00000000000E+00  0.16166392835E+04  0.16166392835E+04  0.25500000920E-02 0.  1.
        2   -1    0    0  501    0  0.00000000000E+00  0.00000000000E+00 -0.24908783300E+04  0.24908783300E+04  0.25500000920E-02 0. -1.
    10030    2    1    2    0    0  0.00000000000E+00  0.00000000000E+00 -0.87423904654E+03  0.41075176135E+04  0.40134034228E+04 0.  0.
        5    1    3    3  502    0 -0.13954973277E+04 -0.87170460764E+03 -0.16127726589E+04  0.23039833884E+04  0.46999998093E+01 0. -1.
       -5    1    3    3    0  502  0.13954973277E+04  0.87170460764E+03  0.73853361239E+03  0.18035342251E+04  0.46999998093E+01 0.  1.
</event>
<event>
 5   0  0.1095903E-07  0.3965257E+04  0.7818609E-02  0.8011592E-01
        2   -1    0    0  501    0  0.00000000000E+00  0.00000000000E+00  0.31138841067E+04  0.31138841067E+04  0.25500000920E-02 0. -1.
       -2   -1    0    0    0  501  0.00000000000E+00  0.00000000000E+00 -0.12623512091E+04  0.12623512091E+04  0.25500000920E-02 0.  1.
    10030    2    1    2    0    0  0.00000000000E+00  0.00000000000E+00  0.18515328976E+04  0.43762353158E+04  0.39652567973E+04 0.  0.
        3    1    3    3  502    0  0.59089273786E+03 -0.42439431078E+03 -0.11097181280E+04  0.13269284429E+04  0.10100000352E+00 0.  1.
       -3    1    3    3    0  502 -0.59089273786E+03  0.42439431078E+03  0.29612510256E+04  0.30493068729E+04  0.10100000352E+00 0. -1.
</event>
<event>
 5   0  0.3399500E-08  0.3620414E+04  0.7818609E-02  0.8085832E-01
        1   -1    0    0  501    0  0.00000000000E+00  0.00000000000E+00  0.20717590395E+04  0.20717590395E+04  0.50400001928E-02 0. -1.
       -1   -1    0    0    0  501  0.00000000000E+00  0.00000000000E+00 -0.15816751637E+04  0.15816751637E+04  0.50400001928E-02 0.  1.
    10030    2    1    2    0    0  0.00000000000E+00  0.00000000000E+00  0.49008387584E+03  0.36534342032E+04  0.36204142404E+04 0.  0.
        2    1    3    3  502    0 -0.14031818301E+03  0.17764923267E+04  0.56611933924E+03  0.18697874974E+04  0.25500000920E-02 0. -1.
       -2    1    3    3    0  502  0.14031818301E+03 -0.17764923267E+04 -0.76035463393E+02  0.17836467058E+04  0.25500000920E-02 0.  1.
</event>
<event>
 5   0  0.3399500E-08  0.3988540E+04  0.7818609E-02  0.8006862E-01
       -1   -1    0    0    0  501  0.00000000000E+00  0.00000000000E+00  0.15156293817E+04  0.15156293817E+04  0.50400001928E-02 0. -1.
        1   -1    0    0  501    0  0.00000000000E+00  0.00000000000E+00 -0.26240672285E+04  0.26240672285E+04  0.50400001928E-02 0.  1.
    10030    2    1    2    0    0  0.00000000000E+00  0.00000000000E+00 -0.11084378468E+04  0.41396966102E+04  0.39885402799E+04 0.  0.
        2    1    3    3  502    0  0.11095780476E+04 -0.14680399749E+04  0.24355149428E+03  0.18562387082E+04  0.25500000920E-02 0. -1.
       -2    1    3    3    0  502 -0.11095780476E+04  0.14680399749E+04 -0.13519893411E+04  0.22834579020E+04  0.25500000920E-02 0.  1.
</event>
<event>
 5   0  0.1087688E-07  0.4011637E+04  0.7818609E-02  0.8002203E-01
        2   -1    0    0  501    0  0.00000000000E+00  0.00000000000E+00  0.20651628475E+04  0.20651628475E+04  0.25500000920E-02 0.  1.
       -2   -1    0    0    0  501  0.00000000000E+00  0.00000000000E+00 -0.19481795591E+04  0.19481795591E+04  0.25500000920E-02 0. -1.
    10030    2    1    2    0    0  0.00000000000E+00  0.00000000000E+00  0.11698328840E+03  0.40133424066E+04  0.40116370952E+04 0.  0.
        2    1    3    3  502    0  0.12292630102E+04 -0.14238657676E+04  0.75508266641E+03  0.20269758522E+04  0.25500000920E-02 0. -1.
       -2    1    3    3    0  502 -0.12292630102E+04  0.14238657676E+04 -0.63809937800E+03  0.19863665544E+04  0.25500000920E-02 0.  1.
</event>
<event>
 5   0  0.1087688E-07  0.3999700E+04  0.7818609E-02  0.8004607E-01
       -2   -1    0    0    0  501  0.00000000000E+00  0.00000000000E+00  0.16891463168E+04  0.16891463168E+04  0.25500000920E-02 0.  1.
        2   -1    0    0  501    0  0.00000000000E+00  0.00000000000E+00 -0.23677043556E+04  0.23677043556E+04  0.25500000920E-02 0. -1.
    10030    2    1    2    0    0  0.00000000000E+00  0.00000000000E+00 -0.67855803873E+03  0.40568506724E+04  0.39996995345E+04 0.  0.
        2    1    3    3  502    0  0.48544282821E+03 -0.14151634848E+04 -0.16852891223E+04  0.22535620369E+04  0.25500000920E-02 0. -1.
       -2    1    3    3    0  502 -0.48544282821E+03  0.14151634848E+04  0.10067310836E+04  0.18032886355E+04  0.25500000920E-02 0.  1.
</event>
<event>
 5   0  0.3399500E-08  0.4014208E+04  0.7818609E-02  0.8001686E-01
       -1   -1    0    0    0  501  0.00000000000E+00  0.00000000000E+00  0.12898289173E+04  0.12898289174E+04  0.50400001928E-02 0. -1.
        1   -1    0    0  501    0  0.00000000000E+00  0.00000000000E+00 -0.31232563200E+04  0.31232563200E+04  0.50400001928E-02 0.  1.
    10030    2    1    2    0    0  0.00000000000E+00  0.00000000000E+00 -0.18334274027E+04  0.44130852374E+04  0.40142079258E+04 0.  0.
        3    1    3    3  502    0 -0.11378323535E+04  0.13982447025E+04 -0.18868480641E+04  0.26095873888E+04  0.10100000352E+00 0.  1.
       -3    1    3    3    0  502  0.11378323535E+04 -0.13982447025E+04  0.53420661362E+02  0.18034978486E+04  0.10100000352E+00 0. -1.
</event>
<event>
 5   0  0.1095109E-07  0.4005303E+04  0.7818609E-02  0.8003478E-01
        2   -1    0    0  501    0  0.00000000000E+00  0.00000000000E+00  0.20538623991E+04  0.20538623991E+04  0.25500000920E-02 0.  1.
       -2   -1    0    0    0  501  0.00000000000E+00  0.00000000000E+00 -0.19527175778E+04  0.19527175778E+04  0.25500000920E-02 0. -1.
    10030    2    1    2    0    0  0.00000000000E+00  0.00000000000E+00  0.10114482123E+03  0.40065799769E+04  0.40053030892E+04 0.  0.
        4    1    3    3  502    0 -0.61146878718E+03  0.40521703929E+03  0.19146354713E+04  0.20503476601E+04  0.12699999809E+01 0.  1.
       -4    1    3    3    0  502  0.61146878718E+03 -0.40521703929E+03 -0.18134906500E+04  0.19562323168E+04  0.12699999809E+01 0. -1.
</event>
<event>
 5   0  0.3399500E-08  0.4020978E+04  0.7818609E-02  0.8000328E-01
        1   -1    0    0  501    0  0.00000000000E+00  0.00000000000E+00  0.14634094733E+04  0.14634094733E+04  0.50400001928E-02 0. -1.
       -1   -1    0    0    0  501  0.00000000000E+00  0.00000000000E+00 -0.27620883276E+04  0.27620883276E+04  0.50400001928E-02 0.  1.
    10030    2    1    2    0    0  0.00000000000E+00  0.00000000000E+00 -0.12986788543E+04  0.42254978009E+04  0.40209781022E+04 0.  0.
        1    1    3    3  502    0 -0.43661365233E+03  0.12185352753E+01  0.14129867779E+04  0.14789065558E+04  0.50400001928E-02 0. -1.
       -1    1    3    3    0  502  0.43661365233E+03 -0.12185352753E+01 -0.27116656322E+04  0.27465912450E+04  0.50400001928E-02 0.  1.
</event>
<event>
 5   0  0.1087688E-07  0.4012722E+04  0.7818609E-02  0.8001985E-01
        2   -1    0    0  501    0  0.00000000000E+00  0.00000000000E+00  0.16704083565E+04  0.16704083565E+04  0.25500000920E-02 0. -1.
       -2   -1    0    0    0  501  0.00000000000E+00  0.00000000000E+00 -0.24098801956E+04  0.24098801956E+04  0.25500000920E-02 0.  1.
    10030    2    1    2    0    0  0.00000000000E+00  0.00000000000E+00 -0.73947183911E+03  0.40802885521E+04  0.40127217780E+04 0.  0.
        2    1    3    3  502    0 -0.93574278953E+03 -0.15421386970E+04  0.52350744669E+03  0.18782615302E+04  0.25500000920E-02 0. -1.
       -2    1    3    3    0  502  0.93574278953E+03  0.15421386970E+04 -0.12629792858E+04  0.22020270220E+04  0.25500000920E-02 0.  1.
</event>
<event>
 5   0  0.3399500E-08  0.3986955E+04  0.7818609E-02  0.8007183E-01
       -1   -1    0    0    0  501  0.00000000000E+00  0.00000000000E+00  0.23123129428E+04  0.23123129428E+04  0.50400001928E-02 0.  1.
        1   -1    0    0  501    0  0.00000000000E+00  0.00000000000E+00 -0.17186048718E+04  0.17186048718E+04  0.50400001928E-02 0. -1.
    10030    2    1    2    0    0  0.00000000000E+00  0.00000000000E+00  0.59370807100E+03  0.40309178146E+04  0.39869548724E+04 0.  0.
        5    1    3    3  502    0  0.20914328277E+03  0.13640396865E+04 -0.11576142623E+04  0.18012323696E+04  0.46999998093E+01 0. -1.
       -5    1    3    3    0  502 -0.20914328277E+03 -0.13640396865E+04  0.17513223333E+04  0.22296854451E+04  0.46999998093E+01 0.  1.
</event>
<event>
 5   0  0.1073271E-07  0.3976099E+04  0.7818609E-02  0.8009386E-01
        2   -1    0    0  501    0  0.00000000000E+00  0.00000000000E+00  0.17002092949E+04  0.17002092949E+04  0.25500000920E-02 0.  1.
       -2   -1    0    0    0  501  0.00000000000E+00  0.00000000000E+00 -0.23246202230E+04  0.23246202230E+04  0.25500000920E-02 0. -1.
    10030    2    1    2    0    0  0.00000000000E+00  0.00000000000E+00 -0.62441092804E+03  0.40248295179E+04  0.39760990482E+04 0.  0.
        1    1    3    3  502    0 -0.31133869152E+03  0.18136920847E+03 -0.22912923295E+04  0.23194497429E+04  0.50400001928E-02 0. -1.
       -1    1    3    3    0  502  0.31133869152E+03 -0.18136920847E+03  0.16668814014E+04  0.17053797750E+04  0.50400001928E-02 0.  1.
</event>
<event>
 5   0  0.1101474E-07  0.3977516E+04  0.7818609E-02  0.8009098E-01
       -2   -1    0    0    0  501  0.00000000000E+00  0.00000000000E+00  0.15814351654E+04  0.15814351654E+04  0.25500000920E-02 0. -1.
        2   -1    0    0  501    0  0.00000000000E+00  0.00000000000E+00 -0.25009932103E+04  0.25009932103E+04  0.25500000920E-02 0.  1.
    10030    2    1    2    0    0  0.00000000000E+00  0.00000000000E+00 -0.91955804492E+03  0.40824283757E+04  0.39775161150E+04 0.  0.
        5    1    3    3  502    0  0.12726312795E+04  0.29683772496E+03  0.10789071550E+04  0.16946284984E+04  0.46999998093E+01 0. -1.
       -5    1    3    3    0  502 -0.12726312795E+04 -0.29683772496E+03 -0.19984651999E+04  0.23877998773E+04  0.46999998093E+01 0.  1.
</event>
<event>
 5   0  0.3399500E-08  0.3952791E+04  0.7818609E-02  0.8014138E-01
       -1   -1    0    0    0  501  0.00000000000E+00  0.00000000000E+00  0.12736896242E+04  0.12736896242E+04  0.50400001928E-02 0.  1.
        1   -1    0    0  501    0  0.00000000000E+00  0.00000000000E+00 -0.30667900046E+04  0.30667900046E+04  0.50400001928E-02 0. -1.
    10030    2    1    2    0    0  0.00000000000E+00  0.00000000000E+00 -0.17931003805E+04  0.43404796288E+04  0.39527907147E+04 0.  0.
        3    1    3    3  502    0  0.23738512940E+02 -0.79022051882E+02  0.12717975431E+04  0.12744712639E+04  0.10100000352E+00 0.  1.
       -3    1    3    3    0  502 -0.23738512940E+02  0.79022051882E+02 -0.30648979236E+04  0.30660083649E+04  0.10100000352E+00 0. -1.
</event>
<event>
 5   0  0.3399500E-08  0.3982832E+04  0.7818609E-02  0.8008019E-01
       -1   -1    0    0    0  501  0.00000000000E+00  0.00000000000E+00  0.13769105886E+04  0.13769105886E+04  0.50400001928E-02 0. -1.
        1   -1    0    0  501    0  0.00000000000E+00  0.00000000000E+00 -0.28801704749E+04  0.28801704749E+04  0.50400001928E-02 0.  1.
    10030    2    1    2    0    0  0.00000000000E+00  0.00000000000E+00 -0.15032598863E+04  0.42570810635E+04  0.39828317684E+04 0.  0.
        4    1    3    3  502    0  0.59195559730E+03  0.16619528404E+04  0.23568288945E+03  0.17799007585E+04  0.12699999809E+01 0. -1.
       -4    1    3    3    0  502 -0.59195559730E+03 -0.16619528404E+04 -0.17389427758E+04  0.24771803049E+04  0.12699999809E+01 0.  1.
</event>
<event>
 5   0  0.3399500E-08  0.3825456E+04  0.7818609E-02  0.8040714E-01
       -1   -1    0    0    0  501  0.00000000000E+00  0.00000000000E+00  0.15519014830E+04  0.15519014830E+04  0.50400001928E-02 0.  1.
        1   -1    0    0  501    0  0.00000000000E+00  0.00000000000E+00 -0.23574492426E+04  0.23574492426E+04  0.50400001928E-02 0. -1.
    10030    2    1    2    0    0  0.00000000000E+00  0.00000000000E+00 -0.80554775961E+03  0.39093507256E+04  0.38254563000E+04 0.  0.
        4    1    3    3  502    0 -0.99220935995E+03  0.16307716516E+04 -0.27915926713E+03  0.19292037484E+04  0.12699999809E+01 0. -1.
       -4    1    3    3    0  502  0.99220935995E+03 -0.16307716516E+04 -0.52638849249E+03  0.19801469772E+04  0.12699999809E+01 0.  1.
</event>
<event>
 5   0  0.1087688E-07  0.4024955E+04  0.7818609E-02  0.7999531E-01
        2   -1    0    0  501    0  0.00000000000E+00  0.00000000000E+00  0.16234631234E+04  0.16234631234E+04  0.25500000920E-02 0.  1.
       -2   -1    0    0    0  501  0.00000000000E+00  0.00000000000E+00 -0.24947071545E+04  0.24947071545E+04  0.25500000920E-02 0. -1.
    10030    2    1    2    0    0  0.00000000000E+00  0.00000000000E+00 -0.87124403108E+03  0.41181702779E+04  0.40249546924E+04 0.  0.
        2    1    3    3  502    0  0.67836601141E+03 -0.99005400419E+03 -0.20884845683E+04  0.24087663168E+04  0.25500000920E-02 0. -1.
       -2    1    3    3    0  502 -0.67836601141E+03  0.99005400419E+03  0.12172405373E+04  0.17094039611E+04  0.25500000920E-02 0.  1.
</event>
<event>
 5   0  0.1087688E-07  0.4164442E+04  0.7818609E-02  0.7972171E-01
       -2   -1    0    0    0  501  0.00000000000E+00  0.00000000000E+00  0.17698762017E+04  0.17698762018E+04  0.25500000920E-02 0. -1.
        2   -1    0    0  501    0  0.00000000000E+00  0.00000000000E+00 -0.24496879154E+04  0.24496879154E+04  0.25500000920E-02 0.  1.
    10030    2    1    2    0    0  0.00000000000E+00  0.00000000000E+00 -0.67981171364E+03  0.42195641171E+04  0.41644420242E+04 0.  0.
        2    1    3    3  502    0  0.63626373208E+03  0.85421417467E+03  0.14729467286E+04  0.18177143500E+04  0.25500000920E-02 0. -1.
       -2    1    3    3    0  502 -0.63626373208E+03 -0.85421417467E+03 -0.21527584423E+04  0.24018497671E+04  0.25500000920E-02 0.  1.
</event>
<event>
 5   0  0.1095109E-07  0.4022028E+04  0.7818609E-02  0.8000117E-01
       -2   -1    0    0    0  501  0.00000000000E+00  0.00000000000E+00  0.17029205407E+04  0.17029205407E+04  0.25500000920E-02 0.  1.
        2   -1    0    0  501    0  0.00000000000E+00  0.00000000000E+00 -0.23748482075E+04  0.23748482075E+04  0.25500000920E-02 0. -1.
    10030    2    1    2    0    0  0.00000000000E+00  0.00000000000E+00 -0.67192766678E+03  0.40777687482E+04  0.40220282414E+04 0.  0.
        4    1    3    3  502    0 -0.19695633539E+04 -0.35260033547E+03 -0.13150247206E+03  0.20051935854E+04  0.12699999809E+01 0.  1.
       -4    1    3    3    0  502  0.19695633539E+04  0.35260033547E+03 -0.54042519472E+03  0.20725751629E+04  0.12699999809E+01 0. -1.
</event>
<event>
 5   0  0.1101474E-07  0.4020178E+04  0.7818609E-02  0.8000488E-01
       -2   -1    0    0    0  501  0.00000000000E+00  0.00000000000E+00  0.23656232754E+04  0.23656232754E+04  0.25500000920E-02 0. -1.
        2   -1    0    0  501    0  0.00000000000E+00  0.00000000000E+00 -0.17079888698E+04  0.17079888698E+04  0.25500000920E-02 0.  1.
    10030    2    1    2    0    0  0.00000000000E+00  0.00000000000E+00  0.65763440565E+03  0.40736121452E+04  0.40201782172E+04 0.  0.
        5    1    3    3  502    0  0.10387932508E+04  0.16151919777E+03  0.20648478293E+04  0.23170667917E+04  0.46999998093E+01 0. -1.
       -5    1    3    3    0  502 -0.10387932508E+04 -0.16151919777E+03 -0.14072134236E+04  0.17565453535E+04  0.46999998093E+01 0.  1.
</event>
<event>
 5   0  0.1087688E-07  0.3988087E+04  0.7818609E-02  0.8006954E-01
        2   -1    0    0  501    0  0.00000000000E+00  0.00000000000E+00  0.27557324638E+04  0.27557324638E+04  0.25500000920E-02 0. -1.
       -2   -1    0    0    0  501  0.00000000000E+00  0.00000000000E+00 -0.14428864340E+04  0.14428864340E+04  0.25500000920E-02 0.  1.
    10030    2    1    2    0    0  0.00000000000E+00  0.00000000000E+00  0.13128460299E+04  0.41986188978E+04  0.39880867532E+04 0.  0.
        2    1    3    3  502    0 -0.52772606452E+03  0.15625294804E+04  0.18364012232E+04  0.24682711822E+04  0.25500000920E-02 0.  1.
       -2    1    3    3    0  502  0.52772606452E+03 -0.15625294804E+04 -0.52355519337E+03  0.17303477156E+04  0.25500000920E-02 0. -1.
</event>
<event>
 5   0  0.1073271E-07  0.4025934E+04  0.7818609E-02  0.7999335E-01
        2   -1    0    0  501    0  0.00000000000E+00  0.00000000000E+00  0.15892073572E+04  0.15892073572E+04  0.25500000920E-02 0. -1.
       -2   -1    0    0    0  501  0.00000000000E+00  0.00000000000E+00 -0.25497212369E+04  0.25497212369E+04  0.25500000920E-02 0.  1.
    10030    2    1    2    0    0  0.00000000000E+00  0.00000000000E+00 -0.96051387973E+03  0.41389285942E+04  0.40259338040E+04 0.  0.
        1    1    3    3  502    0 -0.36402862647E+03 -0.19412664123E+03  0.15452781454E+04  0.15994019321E+04  0.50400001928E-02 0. -1.
       -1    1    3    3    0  502  0.36402862647E+03  0.19412664123E+03 -0.25057920252E+04  0.25395266620E+04  0.50400001928E-02 0.  1.
</event>
<event>
 5   0  0.1095109E-07  0.3988688E+04  0.7818609E-02  0.8006832E-01
       -2   -1    0    0    0  501  0.00000000000E+00  0.00000000000E+00  0.12344486704E+04  0.12344486704E+04  0.25500000920E-02 0.  1.
        2   -1    0    0  501    0  0.00000000000E+00  0.00000000000E+00 -0.32220120931E+04  0.32220120931E+04  0.25500000920E-02 0. -1.
    10030    2    1    2    0    0  0.00000000000E+00  0.00000000000E+00 -0.19875634227E+04  0.44564607636E+04  0.39886882779E+04 0.  0.
        4    1    3    3  502    0 -0.65515454033E+03  0.44818532996E+03 -0.30379089102E+04  0.31399028204E+04  0.12699999809E+01 0. -1.
       -4    1    3    3    0  502  0.65515454033E+03 -0.44818532996E+03  0.10503454875E+04  0.13165579432E+04  0.12699999809E+01 0.  1.
</event>
<event>
 5   0  0.1095109E-07  0.4033288E+04  0.7818609E-02  0.7997865E-01
        2   -1    0    0  501    0  0.00000000000E+00  0.00000000000E+00  0.17901950286E+04  0.17901950286E+04  0.25500000920E-02 0. -1.
       -2   -1    0    0    0  501  0.00000000000E+00  0.00000000000E+00 -0.22717373495E+04  0.22717373495E+04  0.25500000920E-02 0.  1.
    10030    2    1    2    0    0  0.00000000000E+00  0.00000000000E+00 -0.48154232093E+03  0.40619323781E+04  0.40332879438E+04 0.  0.
        4    1    3    3  502    0 -0.16291945390E+03  0.10318372509E+04 -0.19780207880E+04  0.22369172340E+04  0.12699999809E+01 0.  1.
       -4    1    3    3    0  502  0.16291945390E+03 -0.10318372509E+04  0.14964784671E+04  0.18250151441E+04  0.12699999809E+01 0. -1.
</event>
<event>
 5   0  0.1101474E-07  0.3984357E+04  0.7818609E-02  0.8007710E-01
       -2   -1    0    0    0  501  0.00000000000E+00  0.00000000000E+00  0.13485548829E+04  0.13485548829E+04  0.25500000920E-02 0.  1.
        2   -1    0    0  501    0  0.00000000000E+00  0.00000000000E+00 -0.29429831326E+04  0.29429831326E+04  0.25500000920E-02 0. -1.
    10030    2    1    2    0    0  0.00000000000E+00  0.00000000000E+00 -0.15944282497E+04  0.42915380155E+04  0.39843565472E+04 0.  0.
        5    1    3    3  502    0 -0.15311515091E+04  0.72412393996E+03  0.33244011464E+03  0.17260703763E+04  0.46999998093E+01 0. -1.
       -5    1    3    3    0  502  0.15311515091E+04 -0.72412393996E+03 -0.19268683644E+04  0.25654676392E+04  0.46999998093E+01 0.  1.
</event>
<event>
 5   0  0.3399500E-08  0.4039543E+04  0.7818609E-02  0.7996617E-01
       -1   -1    0    0    0  501  0.00000000000E+00  0.00000000000E+00  0.16666324230E+04  0.16666324230E+04  0.50400001928E-02 0. -1.
        1   -1    0    0  501    0  0.00000000000E+00  0.00000000000E+00 -0.24477363431E+04  0.24477363431E+04  0.50400001928E-02 0.  1.
    10030    2    1    2    0    0  0.00000000000E+00  0.00000000000E+00 -0.78110392005E+03  0.41143687661E+04  0.40395429208E+04 0.  0.
        4    1    3    3  502    0  0.65373561630E+03 -0.70321341899E+03 -0.22004297613E+04  0.24007857289E+04  0.12699999809E+01 0.  1.
       -4    1    3    3    0  502 -0.65373561630E+03  0.70321341899E+03  0.14193258413E+04  0.17135830372E+04  0.12699999809E+01 0. -1.
</event>
<event>
 5   0  0.1101474E-07  0.3997920E+04  0.7818609E-02  0.8004966E-01
       -2   -1    0    0    0  501  0.00000000000E+00  0.00000000000E+00  0.24854135421E+04  0.24854135421E+04  0.25500000920E-02 0. -1.
        2   -1    0    0  501    0  0.00000000000E+00  0.00000000000E+00 -0.16077167849E+04  0.16077167849E+04  0.25500000920E-02 0.  1.
    10030    2    1    2    0    0  0.00000000000E+00  0.00000000000E+00  0.87769675718E+03  0.40931303270E+04  0.39979199937E+04 0.  0.
        5    1    3    3  502    0 -0.58607351795E+02 -0.18202977373E+04  0.12824248849E+04  0.22274546795E+04  0.46999998093E+01 0. -1.
       -5    1    3    3    0  502  0.58607351795E+02  0.18202977373E+04 -0.40472812771E+03  0.18656756474E+04  0.46999998093E+01 0.  1.
</event>
<event>
 5   0  0.1095903E-07  0.3742459E+04  0.7818609E-02  0.8058617E-01
        2   -1    0    0  501    0  0.00000000000E+00  0.00000000000E+00  0.26777152788E+04  0.26777152788E+04  0.25500000920E-02 0.  1.
       -2   -1    0    0    0  501  0.00000000000E+00  0.00000000000E+00 -0.13076444904E+04  0.13076444904E+04  0.25500000920E-02 0. -1.
    10030    2    1    2    0    0  0.00000000000E+00  0.00000000000E+00  0.13700707884E+04  0.39853597692E+04  0.37424588875E+04 0.  0.
        3    1    3    3  502    0  0.16424880574E+04  0.89614027167E+03  0.65756962543E+03  0.19832378142E+04  0.10100000352E+00 0. -1.
       -3    1    3    3    0  502 -0.16424880574E+04 -0.89614027167E+03  0.71250116300E+03  0.20021219550E+04  0.10100000352E+00 0.  1.
</event>
<event>
 5   0  0.3399500E-08  0.3972328E+04  0.7818609E-02  0.8010152E-01
       -1   -1    0    0    0  501  0.00000000000E+00  0.00000000000E+00  0.13303291782E+04  0.13303291782E+04  0.50400001928E-02 0. -1.
        1   -1    0    0  501    0  0.00000000000E+00  0.00000000000E+00 -0.29653163389E+04  0.29653163389E+04  0.50400001928E-02 0.  1.
    10030    2    1    2    0    0  0.00000000000E+00  0.00000000000E+00 -0.16349871607E+04  0.42956455171E+04  0.39723277047E+04 0.  0.
        2    1    3    3  502    0  0.66805267375E+03  0.85722222849E+03  0.98026175099E+03  0.14635700955E+04  0.25500000920E-02 0. -1.
       -2    1    3    3    0  502 -0.66805267375E+03 -0.85722222849E+03 -0.26152489117E+04  0.28320754216E+04  0.25500000920E-02 0.  1.
</event>
<event>
 5   0  0.3399500E-08  0.3984380E+04  0.7818609E-02  0.8007705E-01
        1   -1    0    0  501    0  0.00000000000E+00  0.00000000000E+00  0.26882709392E+04  0.26882709392E+04  0.50400001928E-02 0.  1.
       -1   -1    0    0    0  501  0.00000000000E+00  0.00000000000E+00 -0.14763472353E+04  0.14763472353E+04  0.50400001928E-02 0. -1.
    10030    2    1    2    0    0  0.00000000000E+00  0.00000000000E+00  0.12119237039E+04  0.41646181745E+04  0.39843801871E+04 0.  0.
        1    1    3    3  502    0  0.10814889241E+04  0.10696466545E+04  0.19506487483E+04  0.24736193721E+04  0.50400001928E-02 0.  1.
       -1    1    3    3    0  502 -0.10814889241E+04 -0.10696466545E+04 -0.73872504445E+03  0.16909988024E+04  0.50400001928E-02 0. -1.
</event>
<event>
 5   0  0.3399500E-08  0.3999548E+04  0.7818609E-02  0.8004638E-01
       -3   -1    0    0    0  501  0.00000000000E+00  0.00000000000E+00  0.19586229897E+04  0.19586229923E+04  0.10100000352E+00 0. -1.
        3   -1    0    0  501    0  0.00000000000E+00  0.00000000000E+00 -0.20417891472E+04  0.20417891497E+04  0.10100000352E+00 0.  1.
    10030    2    1    2    0    0  0.00000000000E+00  0.00000000000E+00 -0.83166157496E+02  0.40004121419E+04  0.39995475614E+04 0.  0.
        4    1    3    3  502    0 -0.58505510722E+03 -0.18395398160E+04 -0.56409178185E+03  0.20110687120E+04  0.12699999809E+01 0. -1.
       -4    1    3    3    0  502  0.58505510722E+03  0.18395398160E+04  0.48092562435E+03  0.19893434299E+04  0.12699999809E+01 0.  1.
</event>
<event>
 5   0  0.3399500E-08  0.3547599E+04  0.7818609E-02  0.8102601E-01
        1   -1    0    0  501    0  0.00000000000E+00  0.00000000000E+00  0.24302571156E+04  0.24302571156E+04  0.50400001928E-02 0.  1.
       -1   -1    0    0    0  501  0.00000000000E+00  0.00000000000E+00 -0.12946632698E+04  0.12946632698E+04  0.50400001928E-02 0. -1.
    10030    2    1    2    0    0  0.00000000000E+00  0.00000000000E+00  0.11355938459E+04  0.37249203854E+04  0.35475989761E+04 0.  0.
        5    1    3    3  502    0  0.14716789102E+04 -0.44952735207E+03 -0.35858899269E+03  0.15800385472E+04  0.46999998093E+01 0. -1.
       -5    1    3    3    0  502 -0.14716789102E+04  0.44952735207E+03  0.14941828386E+04  0.21448818382E+04  0.46999998093E+01 0.  1.
</event>
<event>
 5   0  0.1073271E-07  0.3964467E+04  0.7818609E-02  0.8011753E-01
        2   -1    0    0  501    0  0.00000000000E+00  0.00000000000E+00  0.26351452778E+04  0.26351452778E+04  0.25500000920E-02 0.  1.
       -2   -1    0    0    0  501  0.00000000000E+00  0.00000000000E+00 -0.14910937543E+04  0.14910937543E+04  0.25500000920E-02 0. -1.
    10030    2    1    2    0    0  0.00000000000E+00  0.00000000000E+00  0.11440515235E+04  0.41262390322E+04  0.39644665041E+04 0.  0.
        1    1    3    3  502    0 -0.97884835542E+03  0.10898322455E+04  0.19619476289E+04  0.24484927863E+04  0.50400001928E-02 0.  1.
       -1    1    3    3    0  502  0.97884835542E+03 -0.10898322455E+04 -0.81789610539E+03  0.16777462458E+04  0.50400001928E-02 0. -1.
</event>
<event>
 5   0  0.1073271E-07  0.4038800E+04  0.7818609E-02  0.7996765E-01
        2   -1    0    0  501    0  0.00000000000E+00  0.00000000000E+00  0.18946142732E+04  0.18946142732E+04  0.25500000920E-02 0. -1.
       -2   -1    0    0    0  501  0.00000000000E+00  0.00000000000E+00 -0.21524042129E+04  0.21524042129E+04  0.25500000920E-02 0.  1.
    10030    2    1    2    0    0  0.00000000000E+00  0.00000000000E+00 -0.25778993968E+03  0.40470184862E+04  0.40387996947E+04 0.  0.
        1    1    3    3  502    0 -0.95381055587E+02 -0.15614865425E+04  0.11506679596E+04  0.19420027089E+04  0.50400001928E-02 0. -1.
       -1    1    3    3    0  502  0.95381055587E+02  0.15614865425E+04 -0.14084578993E+04  0.21050157772E+04  0.50400001928E-02 0.  1.
</event>
<event>
 5   0  0.3399500E-08  0.4017565E+04  0.7818609E-02  0.8001012E-01
        1   -1    0    0  501    0  0.00000000000E+00  0.00000000000E+00  0.18879784750E+04  0.18879784750E+04  0.50400001928E-02 0.  1.
       -1   -1    0    0    0  501  0.00000000000E+00  0.00000000000E+00 -0.21373164484E+04  0.21373164484E+04  0.50400001928E-02 0. -1.
    10030    2    1    2    0    0  0.00000000000E+00  0.00000000000E+00 -0.24933797345E+03  0.40252949234E+04  0.40175651576E+04 0.  0.
        1    1    3    3  502    0  0.13478045266E+04  0.13398680013E+04  0.52726267321E+03  0.19722649998E+04  0.50400001928E-02 0.  1.
       -1    1    3    3    0  502 -0.13478045266E+04 -0.13398680013E+04 -0.77660064666E+03  0.20530299236E+04  0.50400001928E-02 0. -1.
</event>
<event>
 5   0  0.1087688E-07  0.3990403E+04  0.7818609E-02  0.8006485E-01
        2   -1    0    0  501    0  0.00000000000E+00  0.00000000000E+00  0.16725282513E+04  0.16725282513E+04  0.25500000920E-02 0.  1.
       -2   -1    0    0    0  501  0.00000000000E+00  0.00000000000E+00 -0.23801264375E+04  0.23801264375E+04  0.25500000920E-02 0. -1.
    10030    2    1    2    0    0  0.00000000000E+00  0.00000000000E+00 -0.70759818615E+03  0.40526546888E+04  0.39904028410E+04 0.  0.
        2    1    3    3  502    0 -0.52565482168E+03  0.90042221938E+03  0.13738430122E+04  0.17246790388E+04  0.25500000920E-02 0.  1.
       -2    1    3    3    0  502  0.52565482168E+03 -0.90042221938E+03 -0.20814411984E+04  0.23279756500E+04  0.25500000920E-02 0. -1.
</event>
<event>
 5   0  0.1101474E-07  0.3567483E+04  0.7818609E-02  0.8097981E-01
       -2   -1    0    0    0  501  0.00000000000E+00  0.00000000000E+00  0.19071707693E+04  0.19071707693E+04  0.25500000920E-02 0. -1.
        2   -1    0    0  501    0  0.00000000000E+00  0.00000000000E+00 -0.16683002182E+04  0.16683002182E+04  0.25500000920E-02 0.  1.
    10030    2    1    2    0    0  0.00000000000E+00  0.00000000000E+00  0.23887055108E+03  0.35754709875E+04  0.35674828159E+04 0.  0.
        5    1    3    3  502    0  0.92513263264E+03  0.11605931960E+04 -0.87215584252E+03  0.17214891397E+04  0.46999998093E+01 0.  1.
       -5    1    3    3    0  502 -0.92513263264E+03 -0.11605931960E+04  0.11110263936E+04  0.18539818478E+04  0.46999998093E+01 0. -1.
</event>
<event>
 5   0  0.1101474E-07  0.4014112E+04  0.7818609E-02  0.8001706E-01
       -2   -1    0    0    0  501  0.00000000000E+00  0.00000000000E+00  0.19886115906E+04  0.19886115906E+04  0.25500000920E-02 0. -1.
        2   -1    0    0  501    0  0.00000000000E+00  0.00000000000E+00 -0.20256712864E+04  0.20256712864E+04  0.25500000920E-02 0.  1.
    10030    2    1    2    0    0  0.00000000000E+00  0.00000000000E+00 -0.37059695730E+02  0.40142828770E+04  0.40141118066E+04 0.  0.
        5    1    3    3  502    0  0.15828836162E+04 -0.95567882930E+03  0.76214978270E+03  0.19999342360E+04  0.46999998093E+01 0. -1.
       -5    1    3    3    0  502 -0.15828836162E+04  0.95567882930E+03 -0.79920947843E+03  0.20143486410E+04  0.46999998093E+01 0.  1.
</event>
<event>
 5   0  0.3399500E-08  0.3986596E+04  0.7818609E-02  0.8007256E-01
       -1   -1    0    0    0  501  0.00000000000E+00  0.00000000000E+00  0.18840511471E+04  0.18840511471E+04  0.50400001928E-02 0.  1.
        1   -1    0    0  501    0  0.00000000000E+00  0.00000000000E+00 -0.21088790432E+04  0.21088790432E+04  0.50400001928E-02 0. -1.
    10030    2    1    2    0    0  0.00000000000E+00  0.00000000000E+00 -0.22482789604E+03  0.39929301903E+04  0.39865955302E+04 0.  0.
        1    1    3    3  502    0 -0.17750426943E+04 -0.36090989964E+03  0.72089572695E+03  0.19495443497E+04  0.50400001928E-02 0. -1.
       -1    1    3    3    0  502  0.17750426943E+04  0.36090989964E+03 -0.94572362298E+03  0.20433858406E+04  0.50400001928E-02 0.  1.
</event>
<event>
 5   0  0.3399500E-08  0.3978411E+04  0.7818609E-02  0.8008916E-01
        1   -1    0    0  501    0  0.00000000000E+00  0.00000000000E+00  0.21347707467E+04  0.21347707467E+04  0.50400001928E-02 0. -1.
       -1   -1    0    0    0  501  0.00000000000E+00  0.00000000000E+00 -0.18535663945E+04  0.18535663945E+04  0.50400001928E-02 0.  1.
    10030    2    1    2    0    0  0.00000000000E+00  0.00000000000E+00  0.28120435226E+03  0.39883371412E+04  0.39784113996E+04 0.  0.
        4    1    3    3  502    0  0.15408718497E+04  0.88704545858E+03 -0.75370081944E+03  0.19311142485E+04  0.12699999809E+01 0.  1.
       -4    1    3    3    0  502 -0.15408718497E+04 -0.88704545858E+03  0.10349051717E+04  0.20572228927E+04  0.12699999809E+01 0. -1.
</event>
<event>
 5   0  0.1095903E-07  0.4002315E+04  0.7818609E-02  0.8004080E-01
        2   -1    0    0  501    0  0.00000000000E+00  0.00000000000E+00  0.18528051589E+04  0.18528051589E+04  0.25500000920E-02 0. -1.
       -2   -1    0    0    0  501  0.00000000000E+00  0.00000000000E+00 -0.21613879306E+04  0.21613879306E+04  0.25500000920E-02 0.  1.
    10030    2    1    2    0    0  0.00000000000E+00  0.00000000000E+00 -0.30858277176E+03  0.40141930895E+04  0.40023146844E+04 0.  0.
        3    1    3    3  502    0 -0.28904669042E+03 -0.91433122521E+03  0.16073614229E+04  0.18716731372E+04  0.10100000352E+00 0. -1.
       -3    1    3    3    0  502  0.28904669042E+03  0.91433122521E+03 -0.19159441946E+04  0.21425199523E+04  0.10100000352E+00 0.  1.
</event>
<event>
 5   0  0.1073271E-07  0.4028421E+04  0.7818609E-02  0.7998838E-01
        2   -1    0    0  501    0  0.00000000000E+00  0.00000000000E+00  0.23351540488E+04  0.23351540488E+04  0.25500000920E-02 0.  1.
       -2   -1    0    0    0  501  0.00000000000E+00  0.00000000000E+00 -0.17373774440E+04  0.17373774440E+04  0.25500000920E-02 0. -1.
    10030    2    1    2    0    0  0.00000000000E+00  0.00000000000E+00  0.59777660480E+03  0.40725314927E+04  0.40284210170E+04 0.  0.
        1    1    3    3  502    0 -0.19220817699E+04  0.57116440296E+03  0.49180991725E+03  0.20645832752E+04  0.50400001928E-02 0. -1.
       -1    1    3    3    0  502  0.19220817699E+04 -0.57116440296E+03  0.10596668754E+03  0.20079482175E+04  0.50400001928E-02 0.  1.
</event>
<event>
 5   0  0.1101474E-07  0.3970430E+04  0.7818609E-02  0.8010539E-01
       -2   -1    0    0    0  501  0.00000000000E+00  0.00000000000E+00  0.15311808448E+04  0.15311808448E+04  0.25500000920E-02 0. -1.
        2   -1    0    0  501    0  0.00000000000E+00  0.00000000000E+00 -0.25738813628E+04  0.25738813628E+04  0.25500000920E-02 0.  1.
    10030    2    1    2    0    0  0.00000000000E+00  0.00000000000E+00 -0.10427005179E+04  0.41050622076E+04  0.39704296188E+04 0.  0.
        5    1    3    3  502    0  0.37032430840E+03  0.12040174956E+04  0.10650370414E+04  0.16495830421E+04  0.46999998093E+01 0. -1.
       -5    1    3    3    0  502 -0.37032430840E+03 -0.12040174956E+04 -0.21077375593E+04  0.24554791655E+04  0.46999998093E+01 0.  1.
</event>
<event>
 5   0  0.3399500E-08  0.3901559E+04  0.7818609E-02  0.8024705E-01
        1   -1    0    0  501    0  0.00000000000E+00  0.00000000000E+00  0.20499302429E+04  0.20499302429E+04  0.50400001928E-02 0. -1.
       -1   -1    0    0    0  501  0.00000000000E+00  0.00000000000E+00 -0.18564244867E+04  0.18564244867E+04  0.50400001928E-02 0.  1.
    10030    2    1    2    0    0  0.00000000000E+00  0.00000000000E+00  0.19350575626E+03  0.39063547296E+04  0.39015590212E+04 0.  0.
        2    1    3    3  502    0 -0.88063669356E+03 -0.13808442304E+04 -0.96440312566E+03  0.19006117866E+04  0.25500000920E-02 0.  1.
       -2    1    3    3    0  502  0.88063669356E+03  0.13808442304E+04  0.11579088819E+04  0.20057429430E+04  0.25500000920E-02 0. -1.
</event>
<event>
 5   0  0.1095903E-07  0.3991995E+04  0.7818609E-02  0.8006163E-01
        2   -1    0    0  501    0  0.00000000000E+00  0.00000000000E+00  0.19507079080E+04  0.19507079080E+04  0.25500000920E-02 0. -1.
       -2   -1    0    0    0  501  0.00000000000E+00  0.00000000000E+00 -0.20423385056E+04  0.20423385056E+04  0.25500000920E-02 0.  1.
    10030    2    1    2    0    0  0.00000000000E+00  0.00000000000E+00 -0.91630597537E+02  0.39930464136E+04  0.39919949267E+04 0.  0.
        3    1    3    3  502    0  0.29168511017E+03 -0.46517400239E+03 -0.19653149773E+04  0.20405710050E+04  0.10100000352E+00 0.  1.
       -3    1    3    3    0  502 -0.29168511017E+03  0.46517400239E+03  0.18736843798E+04  0.19524754086E+04  0.10100000352E+00 0. -1.
</event>
<event>
 5   0  0.1095109E-07  0.3984924E+04  0.7818609E-02  0.8007595E-01
       -2   -1    0    0    0  501  0.00000000000E+00  0.00000000000E+00  0.17210500398E+04  0.17210500398E+04  0.25500000920E-02 0. -1.
        2   -1    0    0  501    0  0.00000000000E+00  0.00000000000E+00 -0.23066755871E+04  0.23066755871E+04  0.25500000920E-02 0.  1.
    10030    2    1    2    0    0  0.00000000000E+00  0.00000000000E+00 -0.58562554738E+03  0.40277256269E+04  0.39849236434E+04 0.  0.
        4    1    3    3  502    0 -0.13933960667E+04  0.12242270981E+04 -0.10283780279E+04  0.21208129497E+04  0.12699999809E+01 0.  1.
       -4    1    3    3    0  502  0.13933960667E+04 -0.12242270981E+04  0.44275248051E+03  0.19069126772E+04  0.12699999809E+01 0. -1.
</event>
<event>
 5   0  0.1095903E-07  0.3987511E+04  0.7818609E-02  0.8007071E-01
       -2   -1    0    0    0  501  0.00000000000E+00  0.00000000000E+00  0.16727407478E+04  0.16727407478E+04  0.25500000920E-02 0. -1.
        2   -1    0    0  501    0  0.00000000000E+00  0.00000000000E+00 -0.23763766037E+04  0.23763766037E+04  0.25500000920E-02 0.  1.
    10030    2    1    2    0    0  0.00000000000E+00  0.00000000000E+00 -0.70363585596E+03  0.40491173515E+04  0.39875114932E+04 0.  0.
        3    1    3    3  502    0  0.20018170525E+02 -0.55278981825E+03  0.15932612376E+04  0.16865523092E+04  0.10100000352E+00 0. -1.
       -3    1    3    3    0  502 -0.20018170525E+02  0.55278981825E+03 -0.22968970936E+04  0.23625650423E+04  0.10100000352E+00 0.  1.
</event>
<event>
 5   0  0.1095109E-07  0.4002108E+04  0.7818609E-02  0.8004121E-01
        2   -1    0    0  501    0  0.00000000000E+00  0.00000000000E+00  0.22822534583E+04  0.22822534583E+04  0.25500000920E-02 0. -1.
       -2   -1    0    0    0  501  0.00000000000E+00  0.00000000000E+00 -0.17545015013E+04  0.17545015013E+04  0.25500000920E-02 0.  1.
    10030    2    1    2    0    0  0.00000000000E+00  0.00000000000E+00  0.52775195703E+03  0.40367549596E+04  0.40021080040E+04 0.  0.
        4    1    3    3  502    0  0.16534765431E+04 -0.62447919007E+03 -0.68246625035E+03  0.18946558350E+04  0.12699999809E+01 0.  1.
       -4    1    3    3    0  502 -0.16534765431E+04  0.62447919007E+03  0.12102182074E+04  0.21420991246E+04  0.12699999809E+01 0. -1.
</event>
<event>
 5   0  0.1073271E-07  0.4000910E+04  0.7818609E-02  0.8004363E-01
        2   -1    0    0  501    0  0.00000000000E+00  0.00000000000E+00  0.28059331248E+04  0.28059331248E+04  0.25500000920E-02 0. -1.
       -2   -1    0    0    0  501  0.00000000000E+00  0.00000000000E+00 -0.14261995053E+04  0.14261995053E+04  0.25500000920E-02 0.  1.
    10030    2    1    2    0    0  0.00000000000E+00  0.00000000000E+00  0.13797336195E+04  0.42321326302E+04  0.40009101138E+04 0.  0.
        1    1    3    3  502    0 -0.77478481481E+03  0.18417608232E+04  0.58705941702E+03  0.20825496868E+04  0.50400001928E-02 0. -1.
       -1    1    3    3    0  502  0.77478481481E+03 -0.18417608232E+04  0.79267420249E+03  0.21495829434E+04  0.50400001928E-02 0.  1.
</event>
<event>
 5   0  0.3399500E-08  0.4012401E+04  0.7818609E-02  0.8002050E-01
        1   -1    0    0  501    0  0.00000000000E+00  0.00000000000E+00  0.30309773718E+04  0.30309773719E+04  0.50400001928E-02 0.  1.
       -1   -1    0    0    0  501  0.00000000000E+00  0.00000000000E+00 -0.13279018796E+04  0.13279018796E+04  0.50400001928E-02 0. -1.
    10030    2    1    2    0    0  0.00000000000E+00  0.00000000000E+00  0.17030754923E+04  0.43588792514E+04  0.40124010512E+04 0.  0.
        4    1    3    3  502    0 -0.42986661189E+03 -0.18904229408E+04  0.29087627103E+03  0.19603812938E+04  0.12699999809E+01 0.  1.
       -4    1    3    3    0  502  0.42986661189E+03  0.18904229408E+04  0.14121992213E+04  0.23984979576E+04  0.12699999809E+01 0. -1.
</event>
<event>
 5   0  0.1095903E-07  0.4022207E+04  0.7818609E-02  0.8000082E-01
        2   -1    0    0  501    0  0.00000000000E+00  0.00000000000E+00  0.27072832630E+04  0.27072832630E+04  0.25500000920E-02 0.  1.
       -2   -1    0    0    0  501  0.00000000000E+00  0.00000000000E+00 -0.14939465300E+04  0.14939465300E+04  0.25500000920E-02 0. -1.
    10030    2    1    2    0    0  0.00000000000E+00  0.00000000000E+00  0.12133367331E+04  0.42012297930E+04  0.40222065767E+04 0.  0.
        3    1    3    3  502    0  0.19082562114E+04 -0.46287652024E+02 -0.54722688804E+02  0.19096017642E+04  0.10100000352E+00 0. -1.
       -3    1    3    3    0  502 -0.19082562114E+04  0.46287652024E+02  0.12680594219E+04  0.22916280288E+04  0.10100000352E+00 0.  1.
</event>
<event>
 5   0  0.1101474E-07  0.4042137E+04  0.7818609E-02  0.7996100E-01
       -2   -1    0    0    0  501  0.00000000000E+00  0.00000000000E+00  0.21761002921E+04  0.21761002921E+04  0.25500000920E-02 0.  1.
        2   -1    0    0  501    0  0.00000000000E+00  0.00000000000E+00 -0.18770815127E+04  0.18770815127E+04  0.25500000920E-02 0. -1.
    10030    2    1    2    0    0  0.00000000000E+00  0.00000000000E+00  0.29901877938E+03  0.40531818048E+04  0.40421368745E+04 0.  0.
        5    1    3    3  502    0 -0.22287315090E+03  0.11241492535E+04 -0.15197650561E+04  0.19034421192E+04  0.46999998093E+01 0. -1.
       -5    1    3    3    0  502  0.22287315090E+03 -0.11241492535E+04  0.18187838355E+04  0.21497396856E+04  0.46999998093E+01 0.  1.
</event>
<event>
 5   0  0.3399500E-08  0.4021683E+04  0.7818609E-02  0.8000187E-01
        1   -1    0    0  501    0  0.00000000000E+00  0.00000000000E+00  0.17327979894E+04  0.17327979894E+04  0.50400001928E-02 0.  1.
       -1   -1    0    0    0  501  0.00000000000E+00  0.00000000000E+00 -0.23334998210E+04  0.23334998210E+04  0.50400001928E-02 0. -1.
    10030    2    1    2    0    0  0.00000000000E+00  0.00000000000E+00 -0.60070183158E+03  0.40662978105E+04  0.40216831294E+04 0.  0.
        3    1    3    3  502    0  0.17923433869E+04  0.73665696849E+03  0.24256534189E+03  0.19529455346E+04  0.10100000352E+00 0. -1.
       -3    1    3    3    0  502 -0.17923433869E+04 -0.73665696849E+03 -0.84326717347E+03  0.21133522759E+04  0.10100000352E+00 0.  1.
</event>
<event>
 5   0  0.3399500E-08  0.3984394E+04  0.7818609E-02  0.8007702E-01
        1   -1    0    0  501    0  0.00000000000E+00  0.00000000000E+00  0.28533874216E+04  0.28533874216E+04  0.50400001928E-02 0. -1.
       -1   -1    0    0    0  501  0.00000000000E+00  0.00000000000E+00 -0.13909255550E+04  0.13909255550E+04  0.50400001928E-02 0.  1.
    10030    2    1    2    0    0  0.00000000000E+00  0.00000000000E+00  0.14624618665E+04  0.42443129766E+04  0.39843942993E+04 0.  0.
        4    1    3    3  502    0 -0.16310281449E+03  0.17221754839E+04 -0.32133522155E+03  0.17594740302E+04  0.12699999809E+01 0.  1.
       -4    1    3    3    0  502  0.16310281449E+03 -0.17221754839E+04  0.17837970881E+04  0.24848389464E+04  0.12699999809E+01 0. -1.
</event>
<event>
 5   0  0.1095109E-07  0.4052798E+04  0.7818609E-02  0.7993979E-01
       -2   -1    0    0    0  501  0.00000000000E+00  0.00000000000E+00  0.27320936778E+04  0.27320936778E+04  0.25500000920E-02 0. -1.
        2   -1    0    0  501    0  0.00000000000E+00  0.00000000000E+00 -0.15029837018E+04  0.15029837018E+04  0.25500000920E-02 0.  1.
    10030    2    1    2    0    0  0.00000000000E+00  0.00000000000E+00  0.12291099760E+04  0.42350773796E+04  0.40527976853E+04 0.  0.
        4    1    3    3  502    0 -0.15387442576E+04 -0.13069115240E+04  0.43194098380E+03  0.20645402026E+04  0.12699999809E+01 0.  1.
       -4    1    3    3    0  502  0.15387442576E+04  0.13069115240E+04  0.79716899221E+03  0.21705371770E+04  0.12699999809E+01 0. -1.
</event>
<event>
 5   0  0.3399500E-08  0.3799250E+04  0.7818609E-02  0.8046316E-01
        1   -1    0    0  501    0  0.00000000000E+00  0.00000000000E+00  0.26227089443E+04  0.26227089443E+04  0.50400001928E-02 0. -1.
       -1   -1    0    0    0  501  0.00000000000E+00  0.00000000000E+00 -0.13758958660E+04  0.13758958660E+04  0.50400001928E-02 0.  1.
    10030    2    1    2    0    0  0.00000000000E+00  0.00000000000E+00  0.12468130783E+04  0.39986048104E+04  0.37992496071E+04 0.  0.
        3    1    3    3  502    0  0.14821118907E+04  0.84390061712E+03  0.15038110483E+04  0.22738231214E+04  0.10100000352E+00 0. -1.
       -3    1    3    3    0  502 -0.14821118907E+04 -0.84390061712E+03 -0.25699796999E+03  0.17247816890E+04  0.10100000352E+00 0.  1.
</event>
<event>
 5   0  0.1101474E-07  0.3984789E+04  0.7818609E-02  0.8007622E-01
       -2   -1    0    0    0  501  0.00000000000E+00  0.00000000000E+00  0.21796654397E+04  0.21796654397E+04  0.25500000920E-02 0. -1.
        2   -1    0    0  501    0  0.00000000000E+00  0.00000000000E+00 -0.18212136248E+04  0.18212136248E+04  0.25500000920E-02 0.  1.
    10030    2    1    2    0    0  0.00000000000E+00  0.00000000000E+00  0.35845181489E+03  0.40008790644E+04  0.39847892773E+04 0.  0.
        5    1    3    3  502    0  0.13102274011E+04  0.35966080285E+03  0.16423548286E+04  0.21315260281E+04  0.46999998093E+01 0. -1.
       -5    1    3    3    0  502 -0.13102274011E+04 -0.35966080285E+03 -0.12839030137E+04  0.18693530363E+04  0.46999998093E+01 0.  1.
</event>
<event>
 5   0  0.1087688E-07  0.4003602E+04  0.7818609E-02  0.8003820E-01
        2   -1    0    0  501    0  0.00000000000E+00  0.00000000000E+00  0.16379990096E+04  0.16379990096E+04  0.25500000920E-02 0. -1.
       -2   -1    0    0    0  501  0.00000000000E+00  0.00000000000E+00 -0.24464034672E+04  0.24464034672E+04  0.25500000920E-02 0.  1.
    10030    2    1    2    0    0  0.00000000000E+00  0.00000000000E+00 -0.80840445765E+03  0.40844024768E+04  0.40036016067E+04 0.  0.
        2    1    3    3  502    0 -0.14494480065E+04  0.69544675036E+03 -0.16210278651E+04  0.22830411836E+04  0.25500000920E-02 0.  1.
       -2    1    3    3    0  502  0.14494480065E+04 -0.69544675036E+03  0.81262340750E+03  0.18013612932E+04  0.25500000920E-02 0. -1.
</event>
<event>
 5   0  0.1101474E-07  0.4007470E+04  0.7818609E-02  0.8003041E-01
       -2   -1    0    0    0  501  0.00000000000E+00  0.00000000000E+00  0.19637545115E+04  0.19637545115E+04  0.25500000920E-02 0. -1.
        2   -1    0    0  501    0  0.00000000000E+00  0.00000000000E+00 -0.20445291642E+04  0.20445291642E+04  0.25500000920E-02 0.  1.
    10030    2    1    2    0    0  0.00000000000E+00  0.00000000000E+00 -0.80774652693E+02  0.40082836757E+04  0.40074697104E+04 0.  0.
        5    1    3    3  502    0  0.13843666440E+04  0.12976328536E+04  0.60364504368E+03  0.19911633425E+04  0.46999998093E+01 0.  1.
       -5    1    3    3    0  502 -0.13843666440E+04 -0.12976328536E+04 -0.68441969638E+03  0.20171203332E+04  0.46999998093E+01 0. -1.
</event>
<event>
 5   0  0.3399500E-08  0.3977534E+04  0.7818609E-02  0.8009094E-01
        1   -1    0    0  501    0  0.00000000000E+00  0.00000000000E+00  0.23662688559E+04  0.23662688559E+04  0.50400001928E-02 0.  1.
       -1   -1    0    0    0  501  0.00000000000E+00  0.00000000000E+00 -0.16714896174E+04  0.16714896174E+04  0.50400001928E-02 0. -1.
    10030    2    1    2    0    0  0.00000000000E+00  0.00000000000E+00  0.69477923853E+03  0.40377584733E+04  0.39775338212E+04 0.  0.
        5    1    3    3  502    0  0.73892066428E+03  0.37888832311E+03 -0.14870723923E+04  0.17032223870E+04  0.46999998093E+01 0. -1.
       -5    1    3    3    0  502 -0.73892066428E+03 -0.37888832311E+03  0.21818516309E+04  0.23345360864E+04  0.46999998093E+01 0.  1.
</event>
<event>
 5   0  0.3399500E-08  0.3990768E+04  0.7818609E-02  0.8006412E-01
        1   -1    0    0  501    0  0.00000000000E+00  0.00000000000E+00  0.23814197012E+04  0.23814197012E+04  0.50400001928E-02 0. -1.
       -1   -1    0    0    0  501  0.00000000000E+00  0.00000000000E+00 -0.16719255090E+04  0.16719255090E+04  0.50400001928E-02 0.  1.
    10030    2    1    2    0    0  0.00000000000E+00  0.00000000000E+00  0.70949419220E+03  0.40533452101E+04  0.39907675181E+04 0.  0.
        4    1    3    3  502    0  0.35902765117E+03  0.10543882950E+04 -0.13267854625E+04  0.17323385372E+04  0.12699999809E+01 0.  1.
       -4    1    3    3    0  502 -0.35902765117E+03 -0.10543882950E+04  0.20362796547E+04  0.23210066730E+04  0.12699999809E+01 0. -1.
</event>
<event>
 5   0  0.1095903E-07  0.4031122E+04  0.7818609E-02  0.7998297E-01
        2   -1    0    0  501    0  0.00000000000E+00  0.00000000000E+00  0.27094542777E+04  0.27094542777E+04  0.25500000920E-02 0. -1.
       -2   -1    0    0    0  501  0.00000000000E+00  0.00000000000E+00 -0.14993746368E+04  0.14993746368E+04  0.25500000920E-02 0.  1.
    10030    2    1    2    0    0  0.00000000000E+00  0.00000000000E+00  0.12100796410E+04  0.42088289145E+04  0.40311224360E+04 0.  0.
        3    1    3    3  502    0 -0.29373331081E+03  0.19792385799E+04  0.85826486149E+03  0.21772191431E+04  0.10100000352E+00 0. -1.
       -3    1    3    3    0  502  0.29373331081E+03 -0.19792385799E+04  0.35181477947E+03  0.20316097715E+04  0.10100000352E+00 0.  1.
</event>
<event>
 5   0  0.3399500E-08  0.4009626E+04  0.7818609E-02  0.8002607E-01
       -1   -1    0    0    0  501  0.00000000000E+00  0.00000000000E+00  0.19338219454E+04  0.19338219454E+04  0.50400001928E-02 0.  1.
        1   -1    0    0  501    0  0.00000000000E+00  0.00000000000E+00 -0.20784102627E+04  0.20784102627E+04  0.50400001928E-02 0. -1.
    10030    2    1    2    0    0  0.00000000000E+00  0.00000000000E+00 -0.14458831730E+03  0.40122322082E+04  0.40096261061E+04 0.  0.
        2    1    3    3  502    0 -0.14909523223E+04  0.24054410705E+03  0.12470752742E+04  0.19585701505E+04  0.25500000920E-02 0.  1.
       -2    1    3    3    0  502  0.14909523223E+04 -0.24054410705E+03 -0.13916635915E+04  0.20536620576E+04  0.25500000920E-02 0. -1.
</event>
<event>
 5   0  0.1095109E-07  0.4022933E+04  0.7818609E-02  0.7999936E-01
       -2   -1    0    0    0  501  0.00000000000E+00  0.00000000000E+00  0.14100169480E+04  0.14100169480E+04  0.25500000920E-02 0. -1.
        2   -1    0    0  501    0  0.00000000000E+00  0.00000000000E+00 -0.28694676416E+04  0.28694676416E+04  0.25500000920E-02 0.  1.
    10030    2    1    2    0    0  0.00000000000E+00  0.00000000000E+00 -0.14594506936E+04  0.42794845897E+04  0.40229332614E+04 0.  0.
        4    1    3    3  502    0  0.54299280598E+03  0.60120598222E+02  0.13295850835E+04  0.14374469663E+04  0.12699999809E+01 0. -1.
       -4    1    3    3    0  502 -0.54299280598E+03 -0.60120598222E+02 -0.27890357771E+04  0.28420376234E+04  0.12699999809E+01 0.  1.
</event>
<event>
 5   0  0.3399500E-08  0.3790264E+04  0.7818609E-02  0.8048247E-01
       -1   -1    0    0    0  501  0.00000000000E+00  0.00000000000E+00  0.25392547077E+04  0.25392547077E+04  0.50400001928E-02 0. -1.
        1   -1    0    0  501    0  0.00000000000E+00  0.00000000000E+00 -0.14144016871E+04  0.14144016871E+04  0.50400001928E-02 0.  1.
    10030    2    1    2    0    0  0.00000000000E+00  0.00000000000E+00  0.11248530207E+04  0.39536563948E+04  0.37902644459E+04 0.  0.
        4    1    3    3  502    0  0.10017111975E+04 -0.10945986839E+04  0.17922122635E+04  0.23267139945E+04  0.12699999809E+01 0.  1.
       -4    1    3    3    0  502 -0.10017111975E+04  0.10945986839E+04 -0.66735924281E+03  0.16269424003E+04  0.12699999809E+01 0. -1.
</event>
<event>
 5   0  0.3399500E-08  0.3977358E+04  0.7818609E-02  0.8009130E-01
       -1   -1    0    0    0  501  0.00000000000E+00  0.00000000000E+00  0.13960355041E+04  0.13960355041E+04  0.50400001928E-02 0.  1.
        1   -1    0    0  501    0  0.00000000000E+00  0.00000000000E+00 -0.28329111674E+04  0.28329111674E+04  0.50400001928E-02 0. -1.
    10030    2    1    2    0    0  0.00000000000E+00  0.00000000000E+00 -0.14368756633E+04  0.42289466716E+04  0.39773582035E+04 0.  0.
        1    1    3    3  502    0  0.13891067595E+04  0.40895865035E+03  0.73086118429E+03  0.16220427977E+04  0.50400001928E-02 0.  1.
       -1    1    3    3    0  502 -0.13891067595E+04 -0.40895865035E+03 -0.21677368476E+04  0.26069038738E+04  0.50400001928E-02 0. -1.
</event>
<event>
 5   0  0.3399500E-08  0.3995518E+04  0.7818609E-02  0.8005451E-01
        1   -1    0    0  501    0  0.00000000000E+00  0.00000000000E+00  0.19727337406E+04  0.19727337406E+04  0.50400001928E-02 0. -1.
       -1   -1    0    0    0  501  0.00000000000E+00  0.00000000000E+00 -0.20231016179E+04  0.20231016179E+04  0.50400001928E-02 0.  1.
    10030    2    1    2    0    0  0.00000000000E+00  0.00000000000E+00 -0.50367877259E+02  0.39958353586E+04  0.39955179000E+04 0.  0.
        5    1    3    3  502    0  0.17776840762E+04 -0.89001276529E+03 -0.22201252063E+03  0.20003987219E+04  0.46999998093E+01 0.  1.
       -5    1    3    3    0  502 -0.17776840762E+04  0.89001276529E+03  0.17164464337E+03  0.19954366366E+04  0.46999998093E+01 0. -1.
</event>
<event>
 5   0  0.3399500E-08  0.3964760E+04  0.7818609E-02  0.8011693E-01
        1   -1    0    0  501    0  0.00000000000E+00  0.00000000000E+00  0.20297716214E+04  0.20297716214E+04  0.50400001928E-02 0.  1.
       -1   -1    0    0    0  501  0.00000000000E+00  0.00000000000E+00 -0.19360953411E+04  0.19360953411E+04  0.50400001928E-02 0. -1.
    10030    2    1    2    0    0  0.00000000000E+00  0.00000000000E+00  0.93676280242E+02  0.39658669625E+04  0.39647604617E+04 0.  0.
        3    1    3    3  502    0  0.80682873168E+03 -0.32167586581E+03 -0.17356197271E+04  0.19408307016E+04  0.10100000352E+00 0. -1.
       -3    1    3    3    0  502 -0.80682873168E+03  0.32167586581E+03  0.18292960074E+04  0.20250362609E+04  0.10100000352E+00 0.  1.
</event>
<event>
 5   0  0.1087688E-07  0.3997311E+04  0.7818609E-02  0.8005089E-01
       -2   -1    0    0    0  501  0.00000000000E+00  0.00000000000E+00  0.19351149774E+04  0.19351149774E+04  0.25500000920E-02 0. -1.
        2   -1    0    0  501    0  0.00000000000E+00  0.00000000000E+00 -0.20642828258E+04  0.20642828258E+04  0.25500000920E-02 0.  1.
    10030    2    1    2    0    0  0.00000000000E+00  0.00000000000E+00 -0.12916784840E+03  0.39993978033E+04  0.39973114034E+04 0.  0.
        2    1    3    3  502    0 -0.10878894216E+04  0.10789127265E+04  0.12194676227E+04  0.19582281144E+04  0.25500000920E-02 0. -1.
       -2    1    3    3    0  502  0.10878894216E+04 -0.10789127265E+04 -0.13486354711E+04  0.20411696889E+04  0.25500000920E-02 0.  1.
</event>
<event>
 5   0  0.3399500E-08  0.3957191E+04  0.7818609E-02  0.8013239E-01
       -1   -1    0    0    0  501  0.00000000000E+00  0.00000000000E+00  0.30508684163E+04  0.30508684163E+04  0.50400001928E-02 0. -1.
        1   -1    0    0  501    0  0.00000000000E+00  0.00000000000E+00 -0.12831885885E+04  0.12831885885E+04  0.50400001928E-02 0.  1.
    10030    2    1    2    0    0  0.00000000000E+00  0.00000000000E+00  0.17676798279E+04  0.43340570048E+04  0.39571906887E+04 0.  0.
        4    1    3    3  502    0  0.13324608268E+04 -0.10829875534E+04 -0.19290782447E+03  0.17278683218E+04  0.12699999809E+01 0.  1.
       -4    1    3    3    0  502 -0.13324608268E+04  0.10829875534E+04  0.19605876524E+04  0.26061886830E+04  0.12699999809E+01 0. -1.
</event>
<event>
 5   0  0.1095903E-07  0.3991268E+04  0.7818609E-02  0.8006310E-01
       -2   -1    0    0    0  501  0.00000000000E+00  0.00000000000E+00  0.15574595769E+04  0.15574595769E+04  0.25500000920E-02 0. -1.
        2   -1    0    0  501    0  0.00000000000E+00  0.00000000000E+00 -0.25570846014E+04  0.25570846014E+04  0.25500000920E-02 0.  1.
    10030    2    1    2    0    0  0.00000000000E+00  0.00000000000E+00 -0.99962502452E+03  0.41145441784E+04  0.39912684207E+04 0.  0.
        3    1    3    3  502    0 -0.86189122833E+03  0.16843486381E+04  0.15434890861E+03  0.18983441258E+04  0.10100000352E+00 0. -1.
       -3    1    3    3    0  502  0.86189122833E+03 -0.16843486381E+04 -0.11539739331E+04  0.22162000525E+04  0.10100000352E+00 0.  1.
</event>
<event>
 5   0  0.1095109E-07  0.4010097E+04  0.7818609E-02  0.8002513E-01
        2   -1    0    0  501    0  0.00000000000E+00  0.00000000000E+00  0.17807019034E+04  0.17807019034E+04  0.25500000920E-02 0. -1.
       -2   -1    0    0    0  501  0.00000000000E+00  0.00000000000E+00 -0.22576605741E+04  0.22576605741E+04  0.25500000920E-02 0.  1.
    10030    2    1    2    0    0  0.00000000000E+00  0.00000000000E+00 -0.47695867073E+03  0.40383624775E+04  0.40100974958E+04 0.  0.
        4    1    3    3  502    0 -0.62201013359E+03 -0.18965158387E+04 -0.45951434816E+02  0.19964423558E+04  0.12699999809E+01 0.  1.
       -4    1    3    3    0  502  0.62201013359E+03  0.18965158387E+04 -0.43100723592E+03  0.20419201216E+04  0.12699999809E+01 0. -1.
</event>
<event>
 5   0  0.3399500E-08  0.4018482E+04  0.7818609E-02  0.8000828E-01
        1   -1    0    0  501    0  0.00000000000E+00  0.00000000000E+00  0.29065097964E+04  0.29065097964E+04  0.50400001928E-02 0. -1.
       -1   -1    0    0    0  501  0.00000000000E+00  0.00000000000E+00 -0.13889682443E+04  0.13889682443E+04  0.50400001928E-02 0.  1.
    10030    2    1    2    0    0  0.00000000000E+00  0.00000000000E+00  0.15175415521E+04  0.42954780407E+04  0.40184822055E+04 0.  0.
        3    1    3    3  502    0  0.73944296704E+03  0.18526942957E+04  0.10157540733E+04  0.22385281777E+04  0.10100000352E+00 0. -1.
       -3    1    3    3    0  502 -0.73944296704E+03 -0.18526942957E+04  0.50178747879E+03  0.20569498630E+04  0.10100000352E+00 0.  1.
</event>
<event>
 5   0  0.1101474E-07  0.3969469E+04  0.7818609E-02  0.8010734E-01
       -2   -1    0    0    0  501  0.00000000000E+00  0.00000000000E+00  0.16269214880E+04  0.16269214880E+04  0.25500000920E-02 0.  1.
        2   -1    0    0  501    0  0.00000000000E+00  0.00000000000E+00 -0.24212428433E+04  0.24212428433E+04  0.25500000920E-02 0. -1.
    10030    2    1    2    0    0  0.00000000000E+00  0.00000000000E+00 -0.79432135534E+03  0.40481643313E+04  0.39694694908E+04 0.  0.
        5    1    3    3  502    0 -0.14787369315E+04 -0.55293422829E+03  0.82949457574E+03  0.17833907353E+04  0.46999998093E+01 0.  1.
       -5    1    3    3    0  502  0.14787369315E+04  0.55293422829E+03 -0.16238159311E+04  0.22647735961E+04  0.46999998093E+01 0. -1.
</event>
<event>
 5   0  0.1073271E-07  0.3989503E+04  0.7818609E-02  0.8006667E-01
        2   -1    0    0  501    0  0.00000000000E+00  0.00000000000E+00  0.20465347873E+04  0.20465347873E+04  0.25500000920E-02 0.  1.
       -2   -1    0    0    0  501  0.00000000000E+00  0.00000000000E+00 -0.19442787107E+04  0.19442787107E+04  0.25500000920E-02 0. -1.
    10030    2    1    2    0    0  0.00000000000E+00  0.00000000000E+00  0.10225607661E+03  0.39908134981E+04  0.39895032361E+04 0.  0.
        1    1    3    3  502    0 -0.82443284178E+03 -0.17746425424E+04 -0.33628245544E+03  0.19854801822E+04  0.50400001928E-02 0. -1.
       -1    1    3    3    0  502  0.82443284178E+03  0.17746425424E+04  0.43853853205E+03  0.20053333159E+04  0.50400001928E-02 0.  1.
</event>
<event>
 5   0  0.1095903E-07  0.3942752E+04  0.7818609E-02  0.8016196E-01
       -2   -1    0    0    0  501  0.00000000000E+00  0.00000000000E+00  0.23859149837E+04  0.23859149837E+04  0.25500000920E-02 0. -1.
        2   -1    0    0  501    0  0.00000000000E+00  0.00000000000E+00 -0.16288604470E+04  0.16288604470E+04  0.25500000920E-02 0.  1.
    10030    2    1    2    0    0  0.00000000000E+00  0.00000000000E+00  0.75705453673E+03  0.40147754308E+04  0.39427516011E+04 0.  0.
        3    1    3    3  502    0  0.69344847148E+03  0.18271650139E+04  0.11511315035E+03  0.19577164806E+04  0.10100000352E+00 0.  1.
       -3    1    3    3    0  502 -0.69344847148E+03 -0.18271650139E+04  0.64194138638E+03  0.20570589502E+04  0.10100000352E+00 0. -1.
</event>
<event>
 5   0  0.3399500E-08  0.3998399E+04  0.7818609E-02  0.8004870E-01
        1   -1    0    0  501    0  0.00000000000E+00  0.00000000000E+00  0.18497384172E+04  0.18497384172E+04  0.50400001928E-02 0.  1.
       -1   -1    0    0    0  501  0.00000000000E+00  0.00000000000E+00 -0.21607368469E+04  0.21607368469E+04  0.50400001928E-02 0. -1.
    10030    2    1    2    0    0  0.00000000000E+00  0.00000000000E+00 -0.31099842962E+03  0.40104752641E+04  0.39983986571E+04 0.  0.
        1    1    3    3  502    0  0.70732460551E+03  0.49279102384E+03 -0.19647341144E+04  0.21455375156E+04  0.50400001928E-02 0. -1.
       -1    1    3    3    0  502 -0.70732460551E+03 -0.49279102384E+03  0.16537356847E+04  0.18649377485E+04  0.50400001928E-02 0.  1.
</event>
<event>
 5   0  0.3399500E-08  0.3986218E+04  0.7818609E-02  0.8007333E-01
        1   -1    0    0  501    0  0.00000000000E+00  0.00000000000E+00  0.25999039380E+04  0.25999039380E+04  0.50400001928E-02 0. -1.
       -1   -1    0    0    0  501  0.00000000000E+00  0.00000000000E+00 -0.15279346308E+04  0.15279346309E+04  0.50400001928E-02 0.  1.
    10030    2    1    2    0    0  0.00000000000E+00  0.00000000000E+00  0.10719693071E+04  0.41278385688E+04  0.39862178885E+04 0.  0.
        2    1    3    3  502    0  0.18553069496E+04 -0.71759652175E+03  0.66438430467E+03  0.20972637292E+04  0.25500000920E-02 0. -1.
       -2    1    3    3    0  502 -0.18553069496E+04  0.71759652175E+03  0.40758500246E+03  0.20305748397E+04  0.25500000920E-02 0.  1.
</event>
<event>
 5   0  0.1073271E-07  0.3660410E+04  0.7818609E-02  0.8076792E-01
       -2   -1    0    0    0  501  0.00000000000E+00  0.00000000000E+00  0.24863215519E+04  0.24863215519E+04  0.25500000920E-02 0. -1.
        2   -1    0    0  501    0  0.00000000000E+00  0.00000000000E+00 -0.13472315878E+04  0.13472315878E+04  0.25500000920E-02 0.  1.
    10030    2    1    2    0    0  0.00000000000E+00  0.00000000000E+00  0.11390899641E+04  0.38335531397E+04  0.36604103224E+04 0.  0.
        1    1    3    3  502    0  0.41611646703E+03 -0.15215264154E+04 -0.40250391414E+03  0.16279450076E+04  0.50400001928E-02 0.  1.
       -1    1    3    3    0  502 -0.41611646703E+03  0.15215264154E+04  0.15415938782E+04  0.22056081321E+04  0.50400001928E-02 0. -1.
</event>
<event>
 5   0  0.1095903E-07  0.4016867E+04  0.7818609E-02  0.8001153E-01
       -2   -1    0    0    0  501  0.00000000000E+00  0.00000000000E+00  0.24842203571E+04  0.24842203571E+04  0.25500000920E-02 0.  1.
        2   -1    0    0  501    0  0.00000000000E+00  0.00000000000E+00 -0.16237709388E+04  0.16237709388E+04  0.25500000920E-02 0. -1.
    10030    2    1    2    0    0  0.00000000000E+00  0.00000000000E+00  0.86044941833E+03  0.41079912959E+04  0.40168668494E+04 0.  0.
        3    1    3    3  502    0 -0.18533153749E+04 -0.63472167739E+03  0.88316622534E+03  0.21488676270E+04  0.10100000352E+00 0. -1.
       -3    1    3    3    0  502  0.18533153749E+04  0.63472167739E+03 -0.22716807014E+02  0.19591236689E+04  0.10100000352E+00 0.  1.
</event>
<event>
 5   0  0.3399500E-08  0.4008916E+04  0.7818609E-02  0.8002750E-01
        1   -1    0    0  501    0  0.00000000000E+00  0.00000000000E+00  0.12713496038E+04  0.12713496038E+04  0.50400001928E-02 0.  1.
       -1   -1    0    0    0  501  0.00000000000E+00  0.00000000000E+00 -0.31603040978E+04  0.31603040978E+04  0.50400001928E-02 0. -1.
    10030    2    1    2    0    0  0.00000000000E+00  0.00000000000E+00 -0.18889544940E+04  0.44316537016E+04  0.40089157450E+04 0.  0.
        5    1    3    3  502    0 -0.43868658963E+03  0.22963416184E+02  0.12174766769E+04  0.12943124782E+04  0.46999998093E+01 0.  1.
       -5    1    3    3    0  502  0.43868658963E+03 -0.22963416184E+02 -0.31064311709E+04  0.31373412234E+04  0.46999998093E+01 0. -1.
</event>
<event>
 5   0  0.1095903E-07  0.4025692E+04  0.7818609E-02  0.7999384E-01
        2   -1    0    0  501    0  0.00000000000E+00  0.00000000000E+00  0.21784189025E+04  0.21784189025E+04  0.25500000920E-02 0.  1.
       -2   -1    0    0    0  501  0.00000000000E+00  0.00000000000E+00 -0.18598573093E+04  0.18598573093E+04  0.25500000920E-02 0. -1.
    10030    2    1    2    0    0  0.00000000000E+00  0.00000000000E+00  0.31856159315E+03  0.40382762118E+04  0.40256916516E+04 0.  0.
        3    1    3    3  502    0 -0.40005334846E+03 -0.16964138774E+04 -0.85068612192E+03  0.19394663218E+04  0.10100000352E+00 0. -1.
       -3    1    3    3    0  502  0.40005334846E+03  0.16964138774E+04  0.11692477151E+04  0.20988098900E+04  0.10100000352E+00 0.  1.
</event>
<event>
 5   0  0.3399500E-08  0.4042755E+04  0.7818609E-02  0.7995977E-01
       -1   -1    0    0    0  501  0.00000000000E+00  0.00000000000E+00  0.19877649814E+04  0.19877649814E+04  0.50400001928E-02 0.  1.
        1   -1    0    0  501    0  0.00000000000E+00  0.00000000000E+00 -0.20555580665E+04  0.20555580665E+04  0.50400001928E-02 0. -1.
    10030    2    1    2    0    0  0.00000000000E+00  0.00000000000E+00 -0.67793085136E+02  0.40433230479E+04  0.40427546756E+04 0.  0.
        4    1    3    3  502    0 -0.68791518090E+03  0.18422180207E+04  0.43411176029E+03  0.20138145806E+04  0.12699999809E+01 0.  1.
       -4    1    3    3    0  502  0.68791518090E+03 -0.18422180207E+04 -0.50190484542E+03  0.20295084673E+04  0.12699999809E+01 0. -1.
</event>
<event>
 5   0  0.3399500E-08  0.4109568E+04  0.7818609E-02  0.7982801E-01
        1   -1    0    0  501    0  0.00000000000E+00  0.00000000000E+00  0.18144572263E+04  0.18144572263E+04  0.50400001928E-02 0.  1.
       -1   -1    0    0    0  501  0.00000000000E+00  0.00000000000E+00 -0.23269425999E+04  0.23269425999E+04  0.50400001928E-02 0. -1.
    10030    2    1    2    0    0  0.00000000000E+00  0.00000000000E+00 -0.51248537363E+03  0.41413998263E+04  0.41095682575E+04 0.  0.
        4    1    3    3  502    0  0.48423267692E+03  0.58547305437E+03 -0.21801863675E+04  0.23087819717E+04  0.12699999809E+01 0. -1.
       -4    1    3    3    0  502 -0.48423267692E+03 -0.58547305437E+03  0.16677009939E+04  0.18326178545E+04  0.12699999809E+01 0.  1.
</event>
<event>
 5   0  0.1095903E-07  0.3996702E+04  0.7818609E-02  0.8005212E-01
        2   -1    0    0  501    0  0.00000000000E+00  0.00000000000E+00  0.27659171182E+04  0.27659171182E+04  0.25500000920E-02 0. -1.
       -2   -1    0    0    0  501  0.00000000000E+00  0.00000000000E+00 -0.14437912950E+04  0.14437912950E+04  0.25500000920E-02 0.  1.
    10030    2    1    2    0    0  0.00000000000E+00  0.00000000000E+00  0.13221258232E+04  0.42097084133E+04  0.39967021696E+04 0.  0.
        3    1    3    3  502    0 -0.14320842848E+04  0.14589580775E+03  0.21210292900E+04  0.25633798480E+04  0.10100000352E+00 0. -1.
       -3    1    3    3    0  502  0.14320842848E+04 -0.14589580775E+03 -0.79890346681E+03  0.16463285653E+04  0.10100000352E+00 0.  1.
</event>
<event>
 5   0  0.3399500E-08  0.3989364E+04  0.7818609E-02  0.8006696E-01
        1   -1    0    0  501    0  0.00000000000E+00  0.00000000000E+00  0.13598102145E+04  0.13598102145E+04  0.50400001928E-02 0.  1.
       -1   -1    0    0    0  501  0.00000000000E+00  0.00000000000E+00 -0.29259646618E+04  0.29259646618E+04  0.50400001928E-02 0. -1.
    10030    2    1    2    0    0  0.00000000000E+00  0.00000000000E+00 -0.15661544473E+04  0.42857748763E+04  0.39893641771E+04 0.  0.
        5    1    3    3  502    0 -0.98972490346E+03  0.67732012869E+03  0.92921601702E+03  0.15171626273E+04  0.46999998093E+01 0.  1.
       -5    1    3    3    0  502  0.98972490346E+03 -0.67732012869E+03 -0.24953704643E+04  0.27686122490E+04  0.46999998093E+01 0. -1.
</event>
<event>
 5   0  0.3399500E-08  0.3949293E+04  0.7818609E-02  0.8014854E-01
       -1   -1    0    0    0  501  0.00000000000E+00  0.00000000000E+00  0.15590433945E+04  0.15590433945E+04  0.50400001928E-02 0.  1.
        1   -1    0    0  501    0  0.00000000000E+00  0.00000000000E+00 -0.25010399129E+04  0.25010399129E+04  0.50400001928E-02 0. -1.
    10030    2    1    2    0    0  0.00000000000E+00  0.00000000000E+00 -0.94199651838E+03  0.40600833073E+04  0.39492934839E+04 0.  0.
        1    1    3    3  502    0  0.81079102128E+02 -0.18707627035E+04 -0.11154021013E+04  0.21795524222E+04  0.50400001928E-02 0. -1.
       -1    1    3    3    0  502 -0.81079102128E+02  0.18707627035E+04  0.17340558295E+03  0.18805308851E+04  0.50400001928E-02 0.  1.
</event>
<event>
 5   0  0.3399500E-08  0.3994106E+04  0.7818609E-02  0.8005737E-01
        1   -1    0    0  501    0  0.00000000000E+00  0.00000000000E+00  0.15138759534E+04  0.15138759534E+04  0.50400001928E-02 0.  1.
       -1   -1    0    0    0  501  0.00000000000E+00  0.00000000000E+00 -0.26344440193E+04  0.26344440193E+04  0.50400001928E-02 0. -1.
    10030    2    1    2    0    0  0.00000000000E+00  0.00000000000E+00 -0.11205680659E+04  0.41483199727E+04  0.39941063839E+04 0.  0.
        4    1    3    3  502    0 -0.79098862530E+03 -0.18330537205E+04 -0.50865673235E+03  0.20602141228E+04  0.12699999809E+01 0. -1.
       -4    1    3    3    0  502  0.79098862530E+03  0.18330537205E+04 -0.61191133358E+03  0.20881058499E+04  0.12699999809E+01 0.  1.
</event>
<event>
 5   0  0.1087688E-07  0.3954550E+04  0.7818609E-02  0.8013779E-01
       -2   -1    0    0    0  501  0.00000000000E+00  0.00000000000E+00  0.26639198951E+04  0.26639198951E+04  0.25500000920E-02 0.  1.
        2   -1    0    0  501    0  0.00000000000E+00  0.00000000000E+00 -0.14676179079E+04  0.14676179079E+04  0.25500000920E-02 0. -1.
    10030    2    1    2    0    0  0.00000000000E+00  0.00000000000E+00  0.11963019872E+04  0.41315378030E+04  0.39545500595E+04 0.  0.
        2    1    3    3  502    0 -0.13507819802E+03 -0.11358756764E+04 -0.10868413259E+04  0.15778731696E+04  0.25500000920E-02 0. -1.
       -2    1    3    3    0  502  0.13507819802E+03  0.11358756764E+04  0.22831433130E+04  0.25536646333E+04  0.25500000920E-02 0.  1.
</event>
<event>
 5   0  0.1087688E-07  0.4002181E+04  0.7818609E-02  0.8004107E-01
       -2   -1    0    0    0  501  0.00000000000E+00  0.00000000000E+00  0.21847391559E+04  0.21847391559E+04  0.25500000920E-02 0. -1.
        2   -1    0    0  501    0  0.00000000000E+00  0.00000000000E+00 -0.18328794836E+04  0.18328794836E+04  0.25500000920E-02 0.  1.
    10030    2    1    2    0    0  0.00000000000E+00  0.00000000000E+00  0.35185967229E+03  0.40176186395E+04  0.40021811932E+04 0.  0.
        2    1    3    3  502    0 -0.11683389938E+04  0.13953735332E+03 -0.14489169140E+04  0.18665066035E+04  0.25500000920E-02 0.  1.
       -2    1    3    3    0  502  0.11683389938E+04 -0.13953735332E+03  0.18007765863E+04  0.21511120359E+04  0.25500000920E-02 0. -1.
</event>
<event>
 5   0  0.1087688E-07  0.3977037E+04  0.7818609E-02  0.8009195E-01
       -2   -1    0    0    0  501  0.00000000000E+00  0.00000000000E+00  0.26748296778E+04  0.26748296778E+04  0.25500000920E-02 0. -1.
        2   -1    0    0  501    0  0.00000000000E+00  0.00000000000E+00 -0.14783018609E+04  0.14783018609E+04  0.25500000920E-02 0.  1.
    10030    2    1    2    0    0  0.00000000000E+00  0.00000000000E+00  0.11965278169E+04  0.41531315387E+04  0.39770369323E+04 0.  0.
        2    1    3    3  502    0 -0.12217121064E+04 -0.73810449527E+03  0.20440615714E+04  0.24931037733E+04  0.25500000920E-02 0. -1.
       -2    1    3    3    0  502  0.12217121064E+04  0.73810449527E+03 -0.84753375454E+03  0.16600277654E+04  0.25500000920E-02 0.  1.
</event>
<event>
 5   0  0.3399500E-08  0.3547347E+04  0.7818609E-02  0.8102660E-01
       -1   -1    0    0    0  501  0.00000000000E+00  0.00000000000E+00  0.22174925576E+04  0.22174925576E+04  0.50400001928E-02 0. -1.
        1   -1    0    0  501    0  0.00000000000E+00  0.00000000000E+00 -0.14186826713E+04  0.14186826713E+04  0.50400001928E-02 0.  1.
    10030    2    1    2    0    0  0.00000000000E+00  0.00000000000E+00  0.79880988633E+03  0.36361752289E+04  0.35473473273E+04 0.  0.
        2    1    3    3  502    0 -0.36905010067E+03 -0.56763638821E+03 -0.12810082095E+04  0.14489275616E+04  0.25500000920E-02 0.  1.
       -2    1    3    3    0  502  0.36905010067E+03  0.56763638821E+03  0.20798180958E+04  0.21872476672E+04  0.25500000920E-02 0. -1.
</event>
<event>
 5   0  0.3399500E-08  0.3509127E+04  0.7818609E-02  0.8111630E-01
       -1   -1    0    0    0  501  0.00000000000E+00  0.00000000000E+00  0.22675774678E+04  0.22675774678E+04  0.50400001928E-02 0.  1.
        1   -1    0    0  501    0  0.00000000000E+00  0.00000000000E+00 -0.13576131676E+04  0.13576131676E+04  0.50400001928E-02 0. -1.
    10030    2    1    2    0    0  0.00000000000E+00  0.00000000000E+00  0.90996430014E+03  0.36251906354E+04  0.35091269734E+04 0.  0.
        4    1    3    3  502    0 -0.34214026226E+03 -0.17156641064E+04  0.31665759774E+03  0.17778742735E+04  0.12699999809E+01 0. -1.
       -4    1    3    3    0  502  0.34214026226E+03  0.17156641064E+04  0.59330670240E+03  0.18473163620E+04  0.12699999809E+01 0.  1.
</event>
<event>
 5   0  0.3399500E-08  0.3992227E+04  0.7818609E-02  0.8006116E-01
       -1   -1    0    0    0  501  0.00000000000E+00  0.00000000000E+00  0.15835101781E+04  0.15835101781E+04  0.50400001928E-02 0.  1.
        1   -1    0    0  501    0  0.00000000000E+00  0.00000000000E+00 -0.25162257638E+04  0.25162257638E+04  0.50400001928E-02 0. -1.
    10030    2    1    2    0    0  0.00000000000E+00  0.00000000000E+00 -0.93271558571E+03  0.40997359419E+04  0.39922270012E+04 0.  0.
        3    1    3    3  502    0 -0.16583740691E+03  0.53138463754E+03  0.15021880842E+04  0.16020114634E+04  0.10100000352E+00 0.  1.
       -3    1    3    3    0  502  0.16583740691E+03 -0.53138463754E+03 -0.24349036699E+04  0.24977244785E+04  0.10100000352E+00 0. -1.
</event>
<event>
 5   0  0.1101474E-07  0.3821553E+04  0.7818609E-02  0.8041545E-01
        2   -1    0    0  501    0  0.00000000000E+00  0.00000000000E+00  0.21075423253E+04  0.21075423253E+04  0.25500000920E-02 0.  1.
       -2   -1    0    0    0  501  0.00000000000E+00  0.00000000000E+00 -0.17323812887E+04  0.17323812887E+04  0.25500000920E-02 0. -1.
    10030    2    1    2    0    0  0.00000000000E+00  0.00000000000E+00  0.37516103658E+03  0.38399236141E+04  0.38215530297E+04 0.  0.
        5    1    3    3  502    0 -0.70858116370E+02  0.52787569405E+03 -0.16562805304E+04  0.17398163427E+04  0.46999998093E+01 0. -1.
       -5    1    3    3    0  502  0.70858116370E+02 -0.52787569405E+03  0.20314415670E+04  0.21001072713E+04  0.46999998093E+01 0.  1.
</event>
<event>
 5   0  0.3399500E-08  0.3525403E+04  0.7818609E-02  0.8107796E-01
       -1   -1    0    0    0  501  0.00000000000E+00  0.00000000000E+00  0.19199854212E+04  0.19199854212E+04  0.50400001928E-02 0.  1.
        1   -1    0    0  501    0  0.00000000000E+00  0.00000000000E+00 -0.16183023259E+04  0.16183023259E+04  0.50400001928E-02 0. -1.
    10030    2    1    2    0    0  0.00000000000E+00  0.00000000000E+00  0.30168309526E+03  0.35382877471E+04  0.35254031672E+04 0.  0.
        4    1    3    3  502    0  0.27314378159E+03  0.10018801079E+04 -0.12787039454E+04  0.16472573171E+04  0.12699999809E+01 0.  1.
       -4    1    3    3    0  502 -0.27314378159E+03 -0.10018801079E+04  0.15803870406E+04  0.18910304300E+04  0.12699999809E+01 0. -1.
</event>
<event>
 5   0  0.1101474E-07  0.4009914E+04  0.7818609E-02  0.8002550E-01
       -2   -1    0    0    0  501  0.00000000000E+00  0.00000000000E+00  0.14961577057E+04  0.14961577057E+04  0.25500000920E-02 0. -1.
        2   -1    0    0  501    0  0.00000000000E+00  0.00000000000E+00 -0.26867842913E+04  0.26867842913E+04  0.25500000920E-02 0.  1.
    10030    2    1    2    0    0  0.00000000000E+00  0.00000000000E+00 -0.11906265856E+04  0.41829419970E+04  0.40099142240E+04 0.  0.
        5    1    3    3  502    0  0.45909694501E+03 -0.16645253969E+04 -0.16583113537E+04  0.23940412356E+04  0.46999998093E+01 0.  1.
       -5    1    3    3    0  502 -0.45909694501E+03  0.16645253969E+04  0.46768476803E+03  0.17889007614E+04  0.46999998093E+01 0. -1.
</event>
<event>
 5   0  0.3399500E-08  0.3965189E+04  0.7818609E-02  0.8011606E-01
       -1   -1    0    0    0  501  0.00000000000E+00  0.00000000000E+00  0.17763787026E+04  0.17763787026E+04  0.50400001928E-02 0.  1.
        1   -1    0    0  501    0  0.00000000000E+00  0.00000000000E+00 -0.22127489287E+04  0.22127489287E+04  0.50400001928E-02 0. -1.
    10030    2    1    2    0    0  0.00000000000E+00  0.00000000000E+00 -0.43637022615E+03  0.39891276313E+04  0.39651885560E+04 0.  0.
        4    1    3    3  502    0 -0.15558322707E+04  0.15398023418E+02 -0.14543537624E+04  0.21297881661E+04  0.12699999809E+01 0. -1.
       -4    1    3    3    0  502  0.15558322707E+04 -0.15398023418E+02  0.10179835362E+04  0.18593394651E+04  0.12699999809E+01 0.  1.
</event>
<event>
 5   0  0.3399500E-08  0.4020775E+04  0.7818609E-02  0.8000369E-01
       -1   -1    0    0    0  501  0.00000000000E+00  0.00000000000E+00  0.30142152348E+04  0.30142152348E+04  0.50400001928E-02 0.  1.
        1   -1    0    0  501    0  0.00000000000E+00  0.00000000000E+00 -0.13408657978E+04  0.13408657978E+04  0.50400001928E-02 0. -1.
    10030    2    1    2    0    0  0.00000000000E+00  0.00000000000E+00  0.16733494370E+04  0.43550810326E+04  0.40207751072E+04 0.  0.
        3    1    3    3  502    0 -0.20050452073E+04 -0.14233648445E+03  0.79927645663E+03  0.21631710109E+04  0.10100000352E+00 0.  1.
       -3    1    3    3    0  502  0.20050452073E+04  0.14233648445E+03  0.87407298038E+03  0.21919100217E+04  0.10100000352E+00 0. -1.
</event>
<event>
 5   0  0.3399500E-08  0.3980215E+04  0.7818609E-02  0.8008550E-01
        1   -1    0    0  501    0  0.00000000000E+00  0.00000000000E+00  0.26356593719E+04  0.26356593719E+04  0.50400001928E-02 0. -1.
       -1   -1    0    0    0  501  0.00000000000E+00  0.00000000000E+00 -0.15026703961E+04  0.15026703961E+04  0.50400001928E-02 0.  1.
    10030    2    1    2    0    0  0.00000000000E+00  0.00000000000E+00  0.11329889758E+04  0.41383297681E+04  0.39802147241E+04 0.  0.
        3    1    3    3  502    0 -0.34834154320E+03 -0.14214462222E+04 -0.83566131576E+03  0.16852836670E+04  0.10100000352E+00 0.  1.
       -3    1    3    3    0  502  0.34834154320E+03  0.14214462222E+04  0.19686502915E+04  0.24530461011E+04  0.10100000352E+00 0. -1.
</event>
<event>
 5   0  0.1095109E-07  0.4001177E+04  0.7818609E-02  0.8004309E-01
        2   -1    0    0  501    0  0.00000000000E+00  0.00000000000E+00  0.26931203801E+04  0.26931203801E+04  0.25500000920E-02 0. -1.
       -2   -1    0    0    0  501  0.00000000000E+00  0.00000000000E+00 -0.14861400767E+04  0.14861400767E+04  0.25500000920E-02 0.  1.
    10030    2    1    2    0    0  0.00000000000E+00  0.00000000000E+00  0.12069803034E+04  0.41792604568E+04  0.40011768909E+04 0.  0.
        4    1    3    3  502    0 -0.86686536448E+03 -0.11481944588E+04 -0.84854341285E+03  0.16702795011E+04  0.12699999809E+01 0.  1.
       -4    1    3    3    0  502  0.86686536448E+03  0.11481944588E+04  0.20555237162E+04  0.25089809557E+04  0.12699999809E+01 0. -1.
</event>
<event>
 5   0  0.1087688E-07  0.4032150E+04  0.7818609E-02  0.7998092E-01
        2   -1    0    0  501    0  0.00000000000E+00  0.00000000000E+00  0.15334500542E+04  0.15334500542E+04  0.25500000920E-02 0.  1.
       -2   -1    0    0    0  501  0.00000000000E+00  0.00000000000E+00 -0.26505970074E+04  0.26505970074E+04  0.25500000920E-02 0. -1.
    10030    2    1    2    0    0  0.00000000000E+00  0.00000000000E+00 -0.11171469532E+04  0.41840470616E+04  0.40321498606E+04 0.  0.
        2    1    3    3  502    0  0.19638078576E+04 -0.22696870655E+03 -0.14806712350E+03  0.19824177078E+04  0.25500000920E-02 0. -1.
       -2    1    3    3    0  502 -0.19638078576E+04  0.22696870655E+03 -0.96907982969E+03  0.22016293538E+04  0.25500000920E-02 0.  1.
</event>
<event>
 5   0  0.3399500E-08  0.3990430E+04  0.7818609E-02  0.8006480E-01
       -1   -1    0    0    0  501  0.00000000000E+00  0.00000000000E+00  0.22263996214E+04  0.22263996214E+04  0.50400001928E-02 0. -1.
        1   -1    0    0  501    0  0.00000000000E+00  0.00000000000E+00 -0.17880363790E+04  0.17880363791E+04  0.50400001928E-02 0.  1.
    10030    2    1    2    0    0  0.00000000000E+00  0.00000000000E+00  0.43836324232E+03  0.40144360004E+04  0.39904303113E+04 0.  0.
        3    1    3    3  502    0  0.90475250756E+03  0.55669430306E+03 -0.14798828515E+04  0.18216857334E+04  0.10100000352E+00 0.  1.
       -3    1    3    3    0  502 -0.90475250756E+03 -0.55669430306E+03  0.19182460938E+04  0.21927502670E+04  0.10100000352E+00 0. -1.
</event>
<event>
 5   0  0.1095903E-07  0.4016165E+04  0.7818609E-02  0.8001294E-01
       -2   -1    0    0    0  501  0.00000000000E+00  0.00000000000E+00  0.31697552412E+04  0.31697552412E+04  0.25500000920E-02 0. -1.
        2   -1    0    0  501    0  0.00000000000E+00  0.00000000000E+00 -0.12721470420E+04  0.12721470420E+04  0.25500000920E-02 0.  1.
    10030    2    1    2    0    0  0.00000000000E+00  0.00000000000E+00  0.18976081992E+04  0.44419022832E+04  0.40161647148E+04 0.  0.
        3    1    3    3  502    0 -0.91042096860E+03  0.45285133018E+03  0.28639690496E+04  0.30391214840E+04  0.10100000352E+00 0. -1.
       -3    1    3    3    0  502  0.91042096860E+03 -0.45285133018E+03 -0.96636085038E+03  0.14027807992E+04  0.10100000352E+00 0.  1.
</event>
<event>
 5   0  0.3399500E-08  0.3938023E+04  0.7818609E-02  0.8017167E-01
       -1   -1    0    0    0  501  0.00000000000E+00  0.00000000000E+00  0.13080563041E+04  0.13080563041E+04  0.50400001928E-02 0.  1.
        1   -1    0    0  501    0  0.00000000000E+00  0.00000000000E+00 -0.29639448495E+04  0.29639448495E+04  0.50400001928E-02 0. -1.
    10030    2    1    2    0    0  0.00000000000E+00  0.00000000000E+00 -0.16558885454E+04  0.42720011536E+04  0.39380232328E+04 0.  0.
        1    1    3    3  502    0  0.14078126408E+04  0.42777284221E+02 -0.23205873497E+04  0.27145703114E+04  0.50400001928E-02 0. -1.
       -1    1    3    3    0  502 -0.14078126408E+04 -0.42777284221E+02  0.66469880435E+03  0.15574308422E+04  0.50400001928E-02 0.  1.
</event>
<event>
 5   0  0.3399500E-08  0.4006163E+04  0.7818609E-02  0.8003304E-01
       -1   -1    0    0    0  501  0.00000000000E+00  0.00000000000E+00  0.28629959269E+04  0.28629959269E+04  0.50400001928E-02 0.  1.
        1   -1    0    0  501    0  0.00000000000E+00  0.00000000000E+00 -0.14014462644E+04  0.14014462644E+04  0.50400001928E-02 0. -1.
    10030    2    1    2    0    0  0.00000000000E+00  0.00000000000E+00  0.14615496625E+04  0.42644421912E+04  0.40061627259E+04 0.  0.
        4    1    3    3  502    0  0.19427446739E+04  0.44176958914E+03  0.95129268062E+03  0.22077990432E+04  0.12699999809E+01 0.  1.
       -4    1    3    3    0  502 -0.19427446739E+04 -0.44176958914E+03  0.51025698187E+03  0.20566431481E+04  0.12699999809E+01 0. -1.
</event>
<event>
 5   0  0.3399500E-08  0.3990306E+04  0.7818609E-02  0.8006505E-01
        1   -1    0    0  501    0  0.00000000000E+00  0.00000000000E+00  0.12632094508E+04  0.12632094508E+04  0.50400001928E-02 0. -1.
       -1   -1    0    0    0  501  0.00000000000E+00  0.00000000000E+00 -0.31512077459E+04  0.31512077459E+04  0.50400001928E-02 0.  1.
    10030    2    1    2    0    0  0.00000000000E+00  0.00000000000E+00 -0.18879982951E+04  0.44144171967E+04  0.39903059561E+04 0.  0.
        5    1    3    3  502    0  0.89715926736E+03  0.97681087686E+03 -0.25929059581E+04  0.29124281343E+04  0.46999998093E+01 0.  1.
       -5    1    3    3    0  502 -0.89715926736E+03 -0.97681087686E+03  0.70490766292E+03  0.15019890623E+04  0.46999998093E+01 0. -1.
</event>
<event>
 5   0  0.1095903E-07  0.4125865E+04  0.7818609E-02  0.7979626E-01
        2   -1    0    0  501    0  0.00000000000E+00  0.00000000000E+00  0.19627760328E+04  0.19627760328E+04  0.25500000920E-02 0.  1.
       -2   -1    0    0    0  501  0.00000000000E+00  0.00000000000E+00 -0.21681997055E+04  0.21681997055E+04  0.25500000920E-02 0. -1.
    10030    2    1    2    0    0  0.00000000000E+00  0.00000000000E+00 -0.20542367268E+03  0.41309757383E+04  0.41258649596E+04 0.  0.
        3    1    3    3  502    0 -0.11627759096E+03 -0.16408060665E+04  0.11437903080E+04  0.20035022598E+04  0.10100000352E+00 0.  1.
       -3    1    3    3    0  502  0.11627759096E+03  0.16408060665E+04 -0.13492139807E+04  0.21274734785E+04  0.10100000352E+00 0. -1.
</event>
<event>
 5   0  0.3399500E-08  0.3991347E+04  0.7818609E-02  0.8006294E-01
       -1   -1    0    0    0  501  0.00000000000E+00  0.00000000000E+00  0.17240207171E+04  0.17240207171E+04  0.50400001928E-02 0.  1.
        1   -1    0    0  501    0  0.00000000000E+00  0.00000000000E+00 -0.23101309004E+04  0.23101309004E+04  0.50400001928E-02 0. -1.
    10030    2    1    2    0    0  0.00000000000E+00  0.00000000000E+00 -0.58611018328E+03  0.40341516176E+04  0.39913474074E+04 0.  0.
        1    1    3    3  502    0  0.89967300783E+03 -0.17003442492E+04  0.24380167633E+03  0.19390774467E+04  0.50400001928E-02 0.  1.
       -1    1    3    3    0  502 -0.89967300783E+03  0.17003442492E+04 -0.82991185961E+03  0.20950741709E+04  0.50400001928E-02 0. -1.
</event>
<event>
 5   0  0.1073271E-07  0.3987192E+04  0.7818609E-02  0.8007135E-01
        2   -1    0    0  501    0  0.00000000000E+00  0.00000000000E+00  0.13940784584E+04  0.13940784584E+04  0.25500000920E-02 0.  1.
       -2   -1    0    0    0  501  0.00000000000E+00  0.00000000000E+00 -0.28509329831E+04  0.28509329831E+04  0.25500000920E-02 0. -1.
    10030    2    1    2    0    0  0.00000000000E+00  0.00000000000E+00 -0.14568545247E+04  0.42450114415E+04  0.39871916222E+04 0.  0.
        1    1    3    3  502    0 -0.36251012949E+03 -0.10657058163E+04 -0.24802029193E+04  0.27237013423E+04  0.50400001928E-02 0. -1.
       -1    1    3    3    0  502  0.36251012949E+03  0.10657058163E+04  0.10233483946E+04  0.15213100992E+04  0.50400001928E-02 0.  1.
</event>
<event>
 5   0  0.3399500E-08  0.4004887E+04  0.7818609E-02  0.8003561E-01
       -1   -1    0    0    0  501  0.00000000000E+00  0.00000000000E+00  0.17424135628E+04  0.17424135628E+04  0.50400001928E-02 0.  1.
        1   -1    0    0  501    0  0.00000000000E+00  0.00000000000E+00 -0.23012789357E+04  0.23012789357E+04  0.50400001928E-02 0. -1.
    10030    2    1    2    0    0  0.00000000000E+00  0.00000000000E+00 -0.55886537289E+03  0.40436924985E+04  0.40048868296E+04 0.  0.
        1    1    3    3  502    0 -0.10055817748E+04  0.50651781197E+03 -0.19513837035E+04  0.22529210723E+04  0.50400001928E-02 0. -1.
       -1    1    3    3    0  502  0.10055817748E+04 -0.50651781197E+03  0.13925183306E+04  0.17907714262E+04  0.50400001928E-02 0.  1.
</event>
<event>
 5   0  0.3399500E-08  0.3925419E+04  0.7818609E-02  0.8019763E-01
       -1   -1    0    0    0  501  0.00000000000E+00  0.00000000000E+00  0.16625376435E+04  0.16625376435E+04  0.50400001928E-02 0. -1.
        1   -1    0    0  501    0  0.00000000000E+00  0.00000000000E+00 -0.23170779342E+04  0.23170779342E+04  0.50400001928E-02 0.  1.
    10030    2    1    2    0    0  0.00000000000E+00  0.00000000000E+00 -0.65454029071E+03  0.39796155776E+04  0.39254193602E+04 0.  0.
        5    1    3    3  502    0 -0.56444710664E+02 -0.84286761136E+03 -0.21233379494E+04  0.22852128901E+04  0.46999998093E+01 0.  1.
       -5    1    3    3    0  502  0.56444710664E+02  0.84286761136E+03  0.14687976587E+04  0.16944026876E+04  0.46999998093E+01 0. -1.
</event>
<event>
 5   0  0.3399500E-08  0.4072377E+04  0.7818609E-02  0.7990103E-01
        1   -1    0    0  501    0  0.00000000000E+00  0.00000000000E+00  0.16668768186E+04  0.16668768186E+04  0.50400001928E-02 0. -1.
       -1   -1    0    0    0  501  0.00000000000E+00  0.00000000000E+00 -0.24873248367E+04  0.24873248367E+04  0.50400001928E-02 0.  1.
    10030    2    1    2    0    0  0.00000000000E+00  0.00000000000E+00 -0.82044801809E+03  0.41542016553E+04  0.40723772471E+04 0.  0.
        2    1    3    3  502    0  0.16825223056E+04  0.33246664143E+03  0.70939377045E+03  0.18559781513E+04  0.25500000920E-02 0. -1.
       -2    1    3    3    0  502 -0.16825223056E+04 -0.33246664143E+03 -0.15298417885E+04  0.22982235040E+04  0.25500000920E-02 0.  1.
</event>
<event>
 5   0  0.3399500E-08  0.4264316E+04  0.7818609E-02  0.7953250E-01
       -1   -1    0    0    0  501  0.00000000000E+00  0.00000000000E+00  0.18085164819E+04  0.18085164819E+04  0.50400001928E-02 0.  1.
        1   -1    0    0  501    0  0.00000000000E+00  0.00000000000E+00 -0.25137162100E+04  0.25137162100E+04  0.50400001928E-02 0. -1.
    10030    2    1    2    0    0  0.00000000000E+00  0.00000000000E+00 -0.70519972811E+03  0.43222326920E+04  0.42643157466E+04 0.  0.
        4    1    3    3  502    0 -0.10135751963E+04  0.18303907495E+04 -0.76857684634E+03  0.22289856339E+04  0.12699999809E+01 0. -1.
       -4    1    3    3    0  502  0.10135751963E+04 -0.18303907495E+04  0.63377118227E+02  0.20932470581E+04  0.12699999809E+01 0.  1.
</event>
<event>
 5   0  0.3399500E-08  0.4012547E+04  0.7818609E-02  0.8002020E-01
       -1   -1    0    0    0  501  0.00000000000E+00  0.00000000000E+00  0.17223256327E+04  0.17223256327E+04  0.50400001928E-02 0.  1.
        1   -1    0    0  501    0  0.00000000000E+00  0.00000000000E+00 -0.23370340284E+04  0.23370340284E+04  0.50400001928E-02 0. -1.
    10030    2    1    2    0    0  0.00000000000E+00  0.00000000000E+00 -0.61470839568E+03  0.40593596612E+04  0.40125471271E+04 0.  0.
        5    1    3    3  502    0  0.16285828523E+04  0.10157433084E+04 -0.89820118876E+03  0.21191517267E+04  0.46999998093E+01 0. -1.
       -5    1    3    3    0  502 -0.16285828523E+04 -0.10157433084E+04  0.28349279307E+03  0.19402079345E+04  0.46999998093E+01 0.  1.
</event>
<event>
 5   0  0.1087688E-07  0.4004113E+04  0.7818609E-02  0.8003717E-01
        2   -1    0    0  501    0  0.00000000000E+00  0.00000000000E+00  0.21461915407E+04  0.21461915407E+04  0.25500000920E-02 0. -1.
       -2   -1    0    0    0  501  0.00000000000E+00  0.00000000000E+00 -0.18676015526E+04  0.18676015526E+04  0.25500000920E-02 0.  1.
    10030    2    1    2    0    0  0.00000000000E+00  0.00000000000E+00  0.27858998809E+03  0.40137930932E+04  0.40041132119E+04 0.  0.
        2    1    3    3  502    0  0.71230123234E+03 -0.17527685271E+04  0.79559916267E+03  0.20524494105E+04  0.25500000920E-02 0.  1.
       -2    1    3    3    0  502 -0.71230123234E+03  0.17527685271E+04 -0.51700917458E+03  0.19613436827E+04  0.25500000920E-02 0. -1.
</event>
<event>
 5   0  0.3399500E-08  0.3933856E+04  0.7818609E-02  0.8018024E-01
        1   -1    0    0  501    0  0.00000000000E+00  0.00000000000E+00  0.23542141921E+04  0.23542141922E+04  0.50400001928E-02 0.  1.
       -1   -1    0    0    0  501  0.00000000000E+00  0.00000000000E+00 -0.16433533874E+04  0.16433533874E+04  0.50400001928E-02 0. -1.
    10030    2    1    2    0    0  0.00000000000E+00  0.00000000000E+00  0.71086080471E+03  0.39975675796E+04  0.39338560561E+04 0.  0.
        1    1    3    3  502    0 -0.18214013724E+04  0.64149232844E+03 -0.24510613869E+02  0.19312214106E+04  0.50400001928E-02 0.  1.
       -1    1    3    3    0  502  0.18214013724E+04 -0.64149232844E+03  0.73537141858E+03  0.20663461690E+04  0.50400001928E-02 0. -1.
</event>
<event>
 5   0  0.3399500E-08  0.3955281E+04  0.7818609E-02  0.8013629E-01
       -1   -1    0    0    0  501  0.00000000000E+00  0.00000000000E+00  0.15802373093E+04  0.15802373093E+04  0.50400001928E-02 0. -1.
        1   -1    0    0  501    0  0.00000000000E+00  0.00000000000E+00 -0.24749838501E+04  0.24749838502E+04  0.50400001928E-02 0.  1.
    10030    2    1    2    0    0  0.00000000000E+00  0.00000000000E+00 -0.89474654087E+03  0.40552211594E+04  0.39552809356E+04 0.  0.
        1    1    3    3  502    0  0.90309215038E+03  0.58211742178E+03 -0.21496341098E+04  0.24031984793E+04  0.50400001928E-02 0.  1.
       -1    1    3    3    0  502 -0.90309215038E+03 -0.58211742178E+03  0.12548875690E+04  0.16520226801E+04  0.50400001928E-02 0. -1.
</event>
<event>
 5   0  0.3399500E-08  0.3897760E+04  0.7818609E-02  0.8025495E-01
       -1   -1    0    0    0  501  0.00000000000E+00  0.00000000000E+00  0.24637170947E+04  0.24637170947E+04  0.50400001928E-02 0.  1.
        1   -1    0    0  501    0  0.00000000000E+00  0.00000000000E+00 -0.15416270685E+04  0.15416270686E+04  0.50400001928E-02 0. -1.
    10030    2    1    2    0    0  0.00000000000E+00  0.00000000000E+00  0.92209002618E+03  0.40053441633E+04  0.38977598502E+04 0.  0.
        3    1    3    3  502    0  0.83352742460E+03  0.11877909990E+03  0.22671864098E+04  0.24184727969E+04  0.10100000352E+00 0.  1.
       -3    1    3    3    0  502 -0.83352742460E+03 -0.11877909990E+03 -0.13450963836E+04  0.15868713664E+04  0.10100000352E+00 0. -1.
</event>
<event>
 5   0  0.1095109E-07  0.3995112E+04  0.7818609E-02  0.8005533E-01
       -2   -1    0    0    0  501  0.00000000000E+00  0.00000000000E+00  0.23475749980E+04  0.23475749980E+04  0.25500000920E-02 0.  1.
        2   -1    0    0  501    0  0.00000000000E+00  0.00000000000E+00 -0.16997240163E+04  0.16997240163E+04  0.25500000920E-02 0. -1.
    10030    2    1    2    0    0  0.00000000000E+00  0.00000000000E+00  0.64785098176E+03  0.40472990143E+04  0.39951118153E+04 0.  0.
        4    1    3    3  502    0 -0.10891624060E+04 -0.17001378996E+03  0.20115337636E+04  0.22937848919E+04  0.12699999809E+01 0.  1.
       -4    1    3    3    0  502  0.10891624060E+04  0.17001378996E+03 -0.13636827818E+04  0.17535141225E+04  0.12699999809E+01 0. -1.
</event>
<event>
 5   0  0.3399500E-08  0.3969344E+04  0.7818609E-02  0.8010759E-01
        1   -1    0    0  501    0  0.00000000000E+00  0.00000000000E+00  0.19422684055E+04  0.19422684055E+04  0.50400001928E-02 0. -1.
       -1   -1    0    0    0  501  0.00000000000E+00  0.00000000000E+00 -0.20280017939E+04  0.20280017939E+04  0.50400001928E-02 0.  1.
    10030    2    1    2    0    0  0.00000000000E+00  0.00000000000E+00 -0.85733388385E+02  0.39702701995E+04  0.39693444349E+04 0.  0.
        3    1    3    3  502    0  0.15885538665E+04  0.32258017550E+03  0.11025477329E+04  0.19604012013E+04  0.10100000352E+00 0. -1.
       -3    1    3    3    0  502 -0.15885538665E+04 -0.32258017550E+03 -0.11882811213E+04  0.20098689982E+04  0.10100000352E+00 0.  1.
</event>
<event>
 5   0  0.1095109E-07  0.3985504E+04  0.7818609E-02  0.8007477E-01
       -2   -1    0    0    0  501  0.00000000000E+00  0.00000000000E+00  0.28123879086E+04  0.28123879086E+04  0.25500000920E-02 0.  1.
        2   -1    0    0  501    0  0.00000000000E+00  0.00000000000E+00 -0.14119891569E+04  0.14119891569E+04  0.25500000920E-02 0. -1.
    10030    2    1    2    0    0  0.00000000000E+00  0.00000000000E+00  0.14003987516E+04  0.42243770655E+04  0.39855043505E+04 0.  0.
        4    1    3    3  502    0  0.68909349103E+03  0.15249388347E+04 -0.44667388684E+03  0.17319952261E+04  0.12699999809E+01 0. -1.
       -4    1    3    3    0  502 -0.68909349103E+03 -0.15249388347E+04  0.18470726385E+04  0.24923818395E+04  0.12699999809E+01 0.  1.
</event>
<event>
 5   0  0.1095903E-07  0.3991130E+04  0.7818609E-02  0.8006338E-01
        2   -1    0    0  501    0  0.00000000000E+00  0.00000000000E+00  0.30415730430E+04  0.30415730430E+04  0.25500000920E-02 0.  1.
       -2   -1    0    0    0  501  0.00000000000E+00  0.00000000000E+00 -0.13092827862E+04  0.13092827862E+04  0.25500000920E-02 0. -1.
    10030    2    1    2    0    0  0.00000000000E+00  0.00000000000E+00  0.17322902568E+04  0.43508558292E+04  0.39911297790E+04 0.  0.
        3    1    3    3  502    0  0.55672785107E+03 -0.17118351260E+04 -0.72858520893E+02  0.18015642573E+04  0.10100000352E+00 0. -1.
       -3    1    3    3    0  502 -0.55672785107E+03  0.17118351260E+04  0.18051487777E+04  0.25492915719E+04  0.10100000352E+00 0.  1.
</event>
<event>
 5   0  0.1073271E-07  0.4006052E+04  0.7818609E-02  0.8003327E-01
        2   -1    0    0  501    0  0.00000000000E+00  0.00000000000E+00  0.25468069945E+04  0.25468069945E+04  0.25500000920E-02 0. -1.
       -2   -1    0    0    0  501  0.00000000000E+00  0.00000000000E+00 -0.15753505137E+04  0.15753505137E+04  0.25500000920E-02 0.  1.
    10030    2    1    2    0    0  0.00000000000E+00  0.00000000000E+00  0.97145648086E+03  0.41221575082E+04  0.40060522748E+04 0.  0.
        1    1    3    3  502    0  0.20013343188E+03  0.15637749616E+04 -0.78566617028E+03  0.17614530514E+04  0.50400001928E-02 0.  1.
       -1    1    3    3    0  502 -0.20013343188E+03 -0.15637749616E+04  0.17571226511E+04  0.23607044568E+04  0.50400001928E-02 0. -1.
</event>
<event>
 5   0  0.1095109E-07  0.3930192E+04  0.7818609E-02  0.8018779E-01
        2   -1    0    0  501    0  0.00000000000E+00  0.00000000000E+00  0.20596731218E+04  0.20596731218E+04  0.25500000920E-02 0.  1.
       -2   -1    0    0    0  501  0.00000000000E+00  0.00000000000E+00 -0.18748615975E+04  0.18748615975E+04  0.25500000920E-02 0. -1.
    10030    2    1    2    0    0  0.00000000000E+00  0.00000000000E+00  0.18481152430E+03  0.39345347194E+04  0.39301918730E+04 0.  0.
        4    1    3    3  502    0  0.14344959547E+04 -0.86779541909E+03 -0.93378931282E+03  0.19190653003E+04  0.12699999809E+01 0. -1.
       -4    1    3    3    0  502 -0.14344959547E+04  0.86779541909E+03  0.11186008371E+04  0.20154694190E+04  0.12699999809E+01 0.  1.
</event>
<event>
 5   0  0.3399500E-08  0.4005239E+04  0.7818609E-02  0.8003490E-01
        1   -1    0    0  501    0  0.00000000000E+00  0.00000000000E+00  0.19393438203E+04  0.19393438203E+04  0.50400001928E-02 0. -1.
       -1   -1    0    0    0  501  0.00000000000E+00  0.00000000000E+00 -0.20679600213E+04  0.20679600213E+04  0.50400001928E-02 0.  1.
    10030    2    1    2    0    0  0.00000000000E+00  0.00000000000E+00 -0.12861620101E+03  0.40073038416E+04  0.40052393127E+04 0.  0.
        3    1    3    3  502    0 -0.16363003340E+04  0.97924075512E+03 -0.67625580796E+03  0.20232926549E+04  0.10100000352E+00 0.  1.
       -3    1    3    3    0  502  0.16363003340E+04 -0.97924075512E+03  0.54763960695E+03  0.19840111867E+04  0.10100000352E+00 0. -1.
</event>
<event>
 5   0  0.1095903E-07  0.4017967E+04  0.7818609E-02  0.8000932E-01
       -2   -1    0    0    0  501  0.00000000000E+00  0.00000000000E+00  0.13974242226E+04  0.13974242226E+04  0.25500000920E-02 0.  1.
        2   -1    0    0  501    0  0.00000000000E+00  0.00000000000E+00 -0.28881812209E+04  0.28881812209E+04  0.25500000920E-02 0. -1.
    10030    2    1    2    0    0  0.00000000000E+00  0.00000000000E+00 -0.14907569983E+04  0.42856054435E+04  0.40179668477E+04 0.  0.
        3    1    3    3  502    0 -0.13151111328E+04  0.12863824576E+04 -0.16064425346E+04  0.24423256838E+04  0.10100000352E+00 0. -1.
       -3    1    3    3    0  502  0.13151111328E+04 -0.12863824576E+04  0.11568553627E+03  0.18432797596E+04  0.10100000352E+00 0.  1.
</event>
<event>
 5   0  0.3399500E-08  0.4003078E+04  0.7818609E-02  0.8003926E-01
        1   -1    0    0  501    0  0.00000000000E+00  0.00000000000E+00  0.12985084354E+04  0.12985084354E+04  0.50400001928E-02 0. -1.
       -1   -1    0    0    0  501  0.00000000000E+00  0.00000000000E+00 -0.30852006372E+04  0.30852006372E+04  0.50400001928E-02 0.  1.
    10030    2    1    2    0    0  0.00000000000E+00  0.00000000000E+00 -0.17866922019E+04  0.43837090726E+04  0.40030783416E+04 0.  0.
        3    1    3    3  502    0 -0.15948398509E+04 -0.10871780214E+01  0.43104699672E+03  0.16520644224E+04  0.10100000352E+00 0. -1.
       -3    1    3    3    0  502  0.15948398509E+04  0.10871780214E+01 -0.22177391986E+04  0.27316446502E+04  0.10100000352E+00 0.  1.
</event>
<event>
 5   0  0.1095109E-07  0.4012530E+04  0.7818609E-02  0.8002024E-01
        2   -1    0    0  501    0  0.00000000000E+00  0.00000000000E+00  0.21407604640E+04  0.21407604640E+04  0.25500000920E-02 0. -1.
       -2   -1    0    0    0  501  0.00000000000E+00  0.00000000000E+00 -0.18802193129E+04  0.18802193129E+04  0.25500000920E-02 0.  1.
    10030    2    1    2    0    0  0.00000000000E+00  0.00000000000E+00  0.26054115102E+03  0.40209797769E+04  0.40125299594E+04 0.  0.
        4    1    3    3  502    0  0.69823343087E+03  0.65039180659E+03  0.18987980915E+04  0.21250824057E+04  0.12699999809E+01 0. -1.
       -4    1    3    3    0  502 -0.69823343087E+03 -0.65039180659E+03 -0.16382569405E+04  0.18958973712E+04  0.12699999809E+01 0.  1.
</event>
<event>
 5   0  0.1087688E-07  0.3993095E+04  0.7818609E-02  0.8005941E-01
       -2   -1    0    0    0  501  0.00000000000E+00  0.00000000000E+00  0.19471239795E+04  0.19471239795E+04  0.25500000920E-02 0.  1.
        2   -1    0    0  501    0  0.00000000000E+00  0.00000000000E+00 -0.20472257444E+04  0.20472257444E+04  0.25500000920E-02 0. -1.
    10030    2    1    2    0    0  0.00000000000E+00  0.00000000000E+00 -0.10010176491E+03  0.39943497239E+04  0.39930952097E+04 0.  0.
        2    1    3    3  502    0 -0.81514284204E+03 -0.96246159908E+03 -0.15982490383E+04  0.20359740104E+04  0.25500000920E-02 0. -1.
       -2    1    3    3    0  502  0.81514284204E+03  0.96246159908E+03  0.14981472734E+04  0.19583757135E+04  0.25500000920E-02 0.  1.
</event>
<event>
 5   0  0.1073271E-07  0.3977552E+04  0.7818609E-02  0.8009090E-01
        2   -1    0    0  501    0  0.00000000000E+00  0.00000000000E+00  0.11822254838E+04  0.11822254838E+04  0.25500000920E-02 0. -1.
       -2   -1    0    0    0  501  0.00000000000E+00  0.00000000000E+00 -0.33455796741E+04  0.33455796741E+04  0.25500000920E-02 0.  1.
    10030    2    1    2    0    0  0.00000000000E+00  0.00000000000E+00 -0.21633541903E+04  0.45278051579E+04  0.39775517841E+04 0.  0.
        1    1    3    3  502    0 -0.11387463306E+04  0.70417452377E+03 -0.27557040828E+04  0.30637411701E+04  0.50400001928E-02 0.  1.
       -1    1    3    3    0  502  0.11387463306E+04 -0.70417452377E+03  0.59234989251E+03  0.14640639878E+04  0.50400001928E-02 0. -1.
</event>
<event>
 5   0  0.1095903E-07  0.3978925E+04  0.7818609E-02  0.8008812E-01
        2   -1    0    0  501    0  0.00000000000E+00  0.00000000000E+00  0.29269007271E+04  0.29269007271E+04  0.25500000920E-02 0.  1.
       -2   -1    0    0    0  501  0.00000000000E+00  0.00000000000E+00 -0.13522702933E+04  0.13522702933E+04  0.25500000920E-02 0. -1.
    10030    2    1    2    0    0  0.00000000000E+00  0.00000000000E+00  0.15746304339E+04  0.42791710204E+04  0.39789249325E+04 0.  0.
        3    1    3    3  502    0  0.91683270808E+03 -0.25133159860E+03  0.26668199519E+04  0.28311973533E+04  0.10100000352E+00 0.  1.
       -3    1    3    3    0  502 -0.91683270808E+03  0.25133159860E+03 -0.10921895181E+04  0.14479736671E+04  0.10100000352E+00 0. -1.
</event>
<event>
 5   0  0.1087688E-07  0.3969905E+04  0.7818609E-02  0.8010645E-01
       -2   -1    0    0    0  501  0.00000000000E+00  0.00000000000E+00  0.24734327649E+04  0.24734327649E+04  0.25500000920E-02 0. -1.
        2   -1    0    0  501    0  0.00000000000E+00  0.00000000000E+00 -0.15929426605E+04  0.15929426605E+04  0.25500000920E-02 0.  1.
    10030    2    1    2    0    0  0.00000000000E+00  0.00000000000E+00  0.88049010440E+03  0.40663754254E+04  0.39699050715E+04 0.  0.
        2    1    3    3  502    0  0.13642282253E+04 -0.14086414918E+04  0.75536865155E+03  0.21014212578E+04  0.25500000920E-02 0. -1.
       -2    1    3    3    0  502 -0.13642282253E+04  0.14086414918E+04  0.12512145285E+03  0.19649541676E+04  0.25500000920E-02 0.  1.
</event>
<event>
 5   0  0.3399500E-08  0.3990088E+04  0.7818609E-02  0.8006549E-01
        1   -1    0    0  501    0  0.00000000000E+00  0.00000000000E+00  0.13751105681E+04  0.13751105681E+04  0.50400001928E-02 0. -1.
       -1   -1    0    0    0  501  0.00000000000E+00  0.00000000000E+00 -0.28944588267E+04  0.28944588268E+04  0.50400001928E-02 0.  1.
    10030    2    1    2    0    0  0.00000000000E+00  0.00000000000E+00 -0.15193482586E+04  0.42695693949E+04  0.39900881803E+04 0.  0.
        4    1    3    3  502    0 -0.48212971558E+03  0.76143216463E+03  0.11448750988E+04  0.14570410457E+04  0.12699999809E+01 0. -1.
       -4    1    3    3    0  502  0.48212971558E+03 -0.76143216463E+03 -0.26642233574E+04  0.28125283492E+04  0.12699999809E+01 0.  1.
</event>
<event>
 5   0  0.3399500E-08  0.4004096E+04  0.7818609E-02  0.8003721E-01
        1   -1    0    0  501    0  0.00000000000E+00  0.00000000000E+00  0.17584116768E+04  0.17584116768E+04  0.50400001928E-02 0. -1.
       -1   -1    0    0    0  501  0.00000000000E+00  0.00000000000E+00 -0.22794411487E+04  0.22794411487E+04  0.50400001928E-02 0.  1.
    10030    2    1    2    0    0  0.00000000000E+00  0.00000000000E+00 -0.52102947187E+03  0.40378528255E+04  0.40040958692E+04 0.  0.
        2    1    3    3  502    0  0.58739610557E+03 -0.17959988653E+04  0.40653739320E+03  0.19328524934E+04  0.25500000920E-02 0.  1.
       -2    1    3    3    0  502 -0.58739610557E+03  0.17959988653E+04 -0.92756686507E+03  0.21050003321E+04  0.25500000920E-02 0. -1.
</event>
<event>
 5   0  0.3399500E-08  0.3750334E+04  0.7818609E-02  0.8056898E-01
        1   -1    0    0  501    0  0.00000000000E+00  0.00000000000E+00  0.18941511670E+04  0.18941511670E+04  0.50400001928E-02 0. -1.
       -1   -1    0    0    0  501  0.00000000000E+00  0.00000000000E+00 -0.18563734902E+04  0.18563734902E+04  0.50400001928E-02 0.  1.
    10030    2    1    2    0    0  0.00000000000E+00  0.00000000000E+00  0.37777676787E+02  0.37505246572E+04  0.37503343920E+04 0.  0.
        4    1    3    3  502    0  0.14130524183E+04  0.61486154856E+03 -0.10495653550E+04  0.18645001764E+04  0.12699999809E+01 0.  1.
       -4    1    3    3    0  502 -0.14130524183E+04 -0.61486154856E+03  0.10873430318E+04  0.18860244808E+04  0.12699999809E+01 0. -1.
</event>
<event>
 5   0  0.3399500E-08  0.3990461E+04  0.7818609E-02  0.8006474E-01
       -3   -1    0    0    0  501  0.00000000000E+00  0.00000000000E+00  0.23652850640E+04  0.23652850661E+04  0.10100000352E+00 0. -1.
        3   -1    0    0  501    0  0.00000000000E+00  0.00000000000E+00 -0.16830720202E+04  0.16830720232E+04  0.10100000352E+00 0.  1.
    10030    2    1    2    0    0  0.00000000000E+00  0.00000000000E+00  0.68221304374E+03  0.40483570894E+04  0.39904611871E+04 0.  0.
        2    1    3    3  502    0  0.10877817815E+04 -0.15179423849E+04  0.10538136578E+04  0.21442811181E+04  0.25500000920E-02 0. -1.
       -2    1    3    3    0  502 -0.10877817815E+04  0.15179423849E+04 -0.37160061407E+03  0.19040759713E+04  0.25500000920E-02 0.  1.
</event>
<event>
 5   0  0.3399500E-08  0.3987242E+04  0.7818609E-02  0.8007125E-01
        1   -1    0    0  501    0  0.00000000000E+00  0.00000000000E+00  0.22108228781E+04  0.22108228781E+04  0.50400001928E-02 0.  1.
       -1   -1    0    0    0  501  0.00000000000E+00  0.00000000000E+00 -0.17977577075E+04  0.17977577075E+04  0.50400001928E-02 0. -1.
    10030    2    1    2    0    0  0.00000000000E+00  0.00000000000E+00  0.41306517064E+03  0.40085805856E+04  0.39872415874E+04 0.  0.
        5    1    3    3  502    0 -0.12565641004E+04  0.15467581559E+04  0.15066859623E+03  0.19985337743E+04  0.46999998093E+01 0. -1.
       -5    1    3    3    0  502  0.12565641004E+04 -0.15467581559E+04  0.26239657441E+03  0.20100468113E+04  0.46999998093E+01 0.  1.
</event>
<event>
 5   0  0.1095903E-07  0.4022079E+04  0.7818609E-02  0.8000107E-01
        2   -1    0    0  501    0  0.00000000000E+00  0.00000000000E+00  0.18963048123E+04  0.18963048123E+04  0.25500000920E-02 0.  1.
       -2   -1    0    0    0  501  0.00000000000E+00  0.00000000000E+00 -0.21327163703E+04  0.21327163703E+04  0.25500000920E-02 0. -1.
    10030    2    1    2    0    0  0.00000000000E+00  0.00000000000E+00 -0.23641155796E+03  0.40290211826E+04  0.40220792216E+04 0.  0.
        3    1    3    3  502    0 -0.18626173751E+04 -0.66711985483E+03  0.24281592399E+03  0.19933268597E+04  0.10100000352E+00 0.  1.
       -3    1    3    3    0  502  0.18626173751E+04  0.66711985483E+03 -0.47922748195E+03  0.20356943229E+04  0.10100000352E+00 0. -1.
</event>
<event>
 5   0  0.1095903E-07  0.4003586E+04  0.7818609E-02  0.8003824E-01
        2   -1    0    0  501    0  0.00000000000E+00  0.00000000000E+00  0.18919862117E+04  0.18919862117E+04  0.25500000920E-02 0. -1.
       -2   -1    0    0    0  501  0.00000000000E+00  0.00000000000E+00 -0.21179722462E+04  0.21179722462E+04  0.25500000920E-02 0.  1.
    10030    2    1    2    0    0  0.00000000000E+00  0.00000000000E+00 -0.22598603452E+03  0.40099584579E+04  0.40035855363E+04 0.  0.
        3    1    3    3  502    0  0.17331764228E+04  0.94347779095E+03 -0.44986665660E+03  0.20239641483E+04  0.10100000352E+00 0.  1.
       -3    1    3    3    0  502 -0.17331764228E+04 -0.94347779095E+03  0.22388062208E+03  0.19859943096E+04  0.10100000352E+00 0. -1.
</event>
<event>
 5   0  0.1073271E-07  0.3956971E+04  0.7818609E-02  0.8013284E-01
        2   -1    0    0  501    0  0.00000000000E+00  0.00000000000E+00  0.14303243166E+04  0.14303243166E+04  0.25500000920E-02 0. -1.
       -2   -1    0    0    0  501  0.00000000000E+00  0.00000000000E+00 -0.27367249529E+04  0.27367249529E+04  0.25500000920E-02 0.  1.
    10030    2    1    2    0    0  0.00000000000E+00  0.00000000000E+00 -0.13064006362E+04  0.41670492695E+04  0.39569706837E+04 0.  0.
        1    1    3    3  502    0  0.16965220334E+04 -0.87103995718E+03 -0.98443708402E+02  0.19096043518E+04  0.50400001928E-02 0. -1.
       -1    1    3    3    0  502 -0.16965220334E+04  0.87103995718E+03 -0.12079569278E+04  0.22574449177E+04  0.50400001928E-02 0.  1.
</event>
<event>
 5   0  0.3399500E-08  0.3998439E+04  0.7818609E-02  0.8004862E-01
        1   -1    0    0  501    0  0.00000000000E+00  0.00000000000E+00  0.26081214731E+04  0.26081214732E+04  0.50400001928E-02 0.  1.
       -1   -1    0    0    0  501  0.00000000000E+00  0.00000000000E+00 -0.15324740950E+04  0.15324740950E+04  0.50400001928E-02 0. -1.
    10030    2    1    2    0    0  0.00000000000E+00  0.00000000000E+00  0.10756473782E+04  0.41405955681E+04  0.39984389925E+04 0.  0.
        2    1    3    3  502    0  0.64126529400E+03 -0.71530123889E+03  0.23534412737E+04  0.25419604380E+04  0.25500000920E-02 0.  1.
       -2    1    3    3    0  502 -0.64126529400E+03  0.71530123889E+03 -0.12777938956E+04  0.15986351301E+04  0.25500000920E-02 0. -1.
</event>
<event>
 5   0  0.1095903E-07  0.3988092E+04  0.7818609E-02  0.8006953E-01
        2   -1    0    0  501    0  0.00000000000E+00  0.00000000000E+00  0.16462863979E+04  0.16462863979E+04  0.25500000920E-02 0. -1.
       -2   -1    0    0    0  501  0.00000000000E+00  0.00000000000E+00 -0.24152660969E+04  0.24152660969E+04  0.25500000920E-02 0.  1.
    10030    2    1    2    0    0  0.00000000000E+00  0.00000000000E+00 -0.76897969891E+03  0.40615524948E+04  0.39880921367E+04 0.  0.
        3    1    3    3  502    0  0.18059003950E+04  0.13622615391E+03 -0.12343586291E+04  0.21916831516E+04  0.10100000352E+00 0.  1.
       -3    1    3    3    0  502 -0.18059003950E+04 -0.13622615391E+03  0.46537893020E+03  0.18698693432E+04  0.10100000352E+00 0. -1.
</event>
<event>
 5   0  0.1095109E-07  0.4056902E+04  0.7818609E-02  0.7993165E-01
       -2   -1    0    0    0  501  0.00000000000E+00  0.00000000000E+00  0.23933380525E+04  0.23933380525E+04  0.25500000920E-02 0. -1.
        2   -1    0    0  501    0  0.00000000000E+00  0.00000000000E+00 -0.17191945728E+04  0.17191945728E+04  0.25500000920E-02 0.  1.
    10030    2    1    2    0    0  0.00000000000E+00  0.00000000000E+00  0.67414347971E+03  0.41125326253E+04  0.40569021634E+04 0.  0.
        4    1    3    3  502    0  0.14725190722E+04 -0.10327961741E+04 -0.61367597062E+03  0.19004157874E+04  0.12699999809E+01 0.  1.
       -4    1    3    3    0  502 -0.14725190722E+04  0.10327961741E+04  0.12878194503E+04  0.22121168379E+04  0.12699999809E+01 0. -1.
</event>
<event>
 5   0  0.1101474E-07  0.4006411E+04  0.7818609E-02  0.8003254E-01
        2   -1    0    0  501    0  0.00000000000E+00  0.00000000000E+00  0.19783931465E+04  0.19783931465E+04  0.25500000920E-02 0. -1.
       -2   -1    0    0    0  501  0.00000000000E+00  0.00000000000E+00 -0.20283293535E+04  0.20283293535E+04  0.25500000920E-02 0.  1.
    10030    2    1    2    0    0  0.00000000000E+00  0.00000000000E+00 -0.49936206916E+02  0.40067225000E+04  0.40064113078E+04 0.  0.
        5    1    3    3  502    0  0.19026752981E+04  0.52508675747E+03 -0.36693238950E+03  0.20076231871E+04  0.46999998093E+01 0. -1.
       -5    1    3    3    0  502 -0.19026752981E+04 -0.52508675747E+03  0.31699618259E+03  0.19990993129E+04  0.46999998093E+01 0.  1.
</event>
<event>
 5   0  0.3399500E-08  0.3825180E+04  0.7818609E-02  0.8040773E-01
       -1   -1    0    0    0  501  0.00000000000E+00  0.00000000000E+00  0.15943416066E+04  0.15943416066E+04  0.50400001928E-02 0.  1.
        1   -1    0    0  501    0  0.00000000000E+00  0.00000000000E+00 -0.22943643820E+04  0.22943643820E+04  0.50400001928E-02 0. -1.
    10030    2    1    2    0    0  0.00000000000E+00  0.00000000000E+00 -0.70002277542E+03  0.38887059886E+04  0.38251800454E+04 0.  0.
        1    1    3    3  502    0  0.77174036430E+03  0.98313071298E+03  0.11217436928E+04  0.16794160000E+04  0.50400001928E-02 0.  1.
       -1    1    3    3    0  502 -0.77174036430E+03 -0.98313071298E+03 -0.18217664682E+04  0.22092899886E+04  0.50400001928E-02 0. -1.
</event>
<event>
 5   0  0.3399500E-08  0.4008424E+04  0.7818609E-02  0.8002849E-01
       -1   -1    0    0    0  501  0.00000000000E+00  0.00000000000E+00  0.13645830465E+04  0.13645830465E+04  0.50400001928E-02 0. -1.
        1   -1    0    0  501    0  0.00000000000E+00  0.00000000000E+00 -0.29436574168E+04  0.29436574168E+04  0.50400001928E-02 0.  1.
    10030    2    1    2    0    0  0.00000000000E+00  0.00000000000E+00 -0.15790743703E+04  0.43082404633E+04  0.40084236331E+04 0.  0.
        3    1    3    3  502    0 -0.42771742891E+03 -0.19157694725E+04 -0.12244649582E+04  0.23135317838E+04  0.10100000352E+00 0.  1.
       -3    1    3    3    0  502  0.42771742891E+03  0.19157694725E+04 -0.35460941208E+03  0.19947086795E+04  0.10100000352E+00 0. -1.
</event>
<event>
 5   0  0.3399500E-08  0.3909615E+04  0.7818609E-02  0.8023032E-01
        1   -1    0    0  501    0  0.00000000000E+00  0.00000000000E+00  0.15575061436E+04  0.15575061437E+04  0.50400001928E-02 0.  1.
       -1   -1    0    0    0  501  0.00000000000E+00  0.00000000000E+00 -0.24534561882E+04  0.24534561882E+04  0.50400001928E-02 0. -1.
    10030    2    1    2    0    0  0.00000000000E+00  0.00000000000E+00 -0.89595004454E+03  0.40109623319E+04  0.39096153705E+04 0.  0.
        4    1    3    3  502    0  0.19461176188E+04  0.37839920761E+02 -0.63282856937E+03  0.20467728885E+04  0.12699999809E+01 0. -1.
       -4    1    3    3    0  502 -0.19461176188E+04 -0.37839920761E+02 -0.26312147518E+03  0.19641894434E+04  0.12699999809E+01 0.  1.
</event>
<event>
 5   0  0.3399500E-08  0.3995904E+04  0.7818609E-02  0.8005373E-01
        1   -1    0    0  501    0  0.00000000000E+00  0.00000000000E+00  0.13762523323E+04  0.13762523323E+04  0.50400001928E-02 0.  1.
       -1   -1    0    0    0  501  0.00000000000E+00  0.00000000000E+00 -0.29004947217E+04  0.29004947217E+04  0.50400001928E-02 0. -1.
    10030    2    1    2    0    0  0.00000000000E+00  0.00000000000E+00 -0.15242423895E+04  0.42767470540E+04  0.39959042158E+04 0.  0.
        5    1    3    3  502    0 -0.14898276762E+04  0.88973197700E+03 -0.18219610358E+04  0.25161028599E+04  0.46999998093E+01 0. -1.
       -5    1    3    3    0  502  0.14898276762E+04 -0.88973197700E+03  0.29771864631E+03  0.17606441941E+04  0.46999998093E+01 0.  1.
</event>
<event>
 5   0  0.1095903E-07  0.3981648E+04  0.7818609E-02  0.8008259E-01
        2   -1    0    0  501    0  0.00000000000E+00  0.00000000000E+00  0.27194508756E+04  0.27194508756E+04  0.25500000920E-02 0. -1.
       -2   -1    0    0    0  501  0.00000000000E+00  0.00000000000E+00 -0.14574190968E+04  0.14574190968E+04  0.25500000920E-02 0.  1.
    10030    2    1    2    0    0  0.00000000000E+00  0.00000000000E+00  0.12620317788E+04  0.41768699724E+04  0.39816477187E+04 0.  0.
        3    1    3    3  502    0  0.97423408045E+03 -0.10289332760E+04 -0.83595639198E+03  0.16451926420E+04  0.10100000352E+00 0.  1.
       -3    1    3    3    0  502 -0.97423408045E+03  0.10289332760E+04  0.20979881708E+04  0.25316773303E+04  0.10100000352E+00 0. -1.
</event>
<event>
 5   0  0.3399500E-08  0.4002492E+04  0.7818609E-02  0.8004044E-01
        1   -1    0    0  501    0  0.00000000000E+00  0.00000000000E+00  0.19115403618E+04  0.19115403618E+04  0.50400001928E-02 0. -1.
       -1   -1    0    0    0  501  0.00000000000E+00  0.00000000000E+00 -0.20951616027E+04  0.20951616027E+04  0.50400001928E-02 0.  1.
    10030    2    1    2    0    0  0.00000000000E+00  0.00000000000E+00 -0.18362124090E+03  0.40067019644E+04  0.40024922076E+04 0.  0.
        2    1    3    3  502    0  0.16655941136E+04  0.75408971839E+03 -0.90638074211E+03  0.20406815294E+04  0.25500000920E-02 0. -1.
       -2    1    3    3    0  502 -0.16655941136E+04 -0.75408971839E+03  0.72275950121E+03  0.19660204351E+04  0.25500000920E-02 0.  1.
</event>
<event>
 5   0  0.3399500E-08  0.3983136E+04  0.7818609E-02  0.8007957E-01
        1   -1    0    0  501    0  0.00000000000E+00  0.00000000000E+00  0.15089425614E+04  0.15089425614E+04  0.50400001928E-02 0. -1.
       -1   -1    0    0    0  501  0.00000000000E+00  0.00000000000E+00 -0.26285581646E+04  0.26285581646E+04  0.50400001928E-02 0.  1.
    10030    2    1    2    0    0  0.00000000000E+00  0.00000000000E+00 -0.11196156032E+04  0.41375007261E+04  0.39831360960E+04 0.  0.
        4    1    3    3  502    0 -0.60565264171E+03 -0.99662473104E+03 -0.22367661719E+04  0.25225385027E+04  0.12699999809E+01 0.  1.
       -4    1    3    3    0  502  0.60565264171E+03  0.99662473104E+03  0.11171505687E+04  0.16149622234E+04  0.12699999809E+01 0. -1.
</event>
<event>
 5   0  0.3399500E-08  0.3977231E+04  0.7818609E-02  0.8009156E-01
       -1   -1    0    0    0  501  0.00000000000E+00  0.00000000000E+00  0.14575026165E+04  0.14575026165E+04  0.50400001928E-02 0.  1.
        1   -1    0    0  501    0  0.00000000000E+00  0.00000000000E+00 -0.27132656710E+04  0.27132656710E+04  0.50400001928E-02 0. -1.
    10030    2    1    2    0    0  0.00000000000E+00  0.00000000000E+00 -0.12557630545E+04  0.41707682875E+04  0.39772311045E+04 0.  0.
        3    1    3    3  502    0 -0.10871441932E+04 -0.29835410050E+02 -0.23737747592E+04  0.26110494568E+04  0.10100000352E+00 0. -1.
       -3    1    3    3    0  502  0.10871441932E+04  0.29835410050E+02  0.11180117047E+04  0.15597188306E+04  0.10100000352E+00 0.  1.
</event>
<event>
 5   0  0.3399500E-08  0.3969257E+04  0.7818609E-02  0.8010777E-01
        1   -1    0    0  501    0  0.00000000000E+00  0.00000000000E+00  0.11778924131E+04  0.11778924131E+04  0.50400001928E-02 0. -1.
       -1   -1    0    0    0  501  0.00000000000E+00  0.00000000000E+00 -0.33438963671E+04  0.33438963671E+04  0.50400001928E-02 0.  1.
    10030    2    1    2    0    0  0.00000000000E+00  0.00000000000E+00 -0.21660039541E+04  0.45217887802E+04  0.39692569385E+04 0.  0.
        4    1    3    3  502    0 -0.16904238587E+04  0.10300071861E+04 -0.92068686855E+03  0.21831430435E+04  0.12699999809E+01 0.  1.
       -4    1    3    3    0  502  0.16904238587E+04 -0.10300071861E+04 -0.12453170855E+04  0.23386457367E+04  0.12699999809E+01 0. -1.
</event>
<event>
 5   0  0.1087688E-07  0.3965356E+04  0.7818609E-02  0.8011572E-01
       -2   -1    0    0    0  501  0.00000000000E+00  0.00000000000E+00  0.20367515395E+04  0.20367515395E+04  0.25500000920E-02 0.  1.
        2   -1    0    0  501    0  0.00000000000E+00  0.00000000000E+00 -0.19300399117E+04  0.19300399117E+04  0.25500000920E-02 0. -1.
    10030    2    1    2    0    0  0.00000000000E+00  0.00000000000E+00  0.10671162776E+03  0.39667914512E+04  0.39653558536E+04 0.  0.
        2    1    3    3  502    0  0.14422478167E+04  0.14399980810E+03 -0.12999817207E+04  0.19469892613E+04  0.25500000920E-02 0. -1.
       -2    1    3    3    0  502 -0.14422478167E+04 -0.14399980810E+03  0.14066933485E+04  0.20198021899E+04  0.25500000920E-02 0.  1.
</event>
<event>
 5   0  0.1101474E-07  0.4017565E+04  0.7818609E-02  0.8001013E-01
        2   -1    0    0  501    0  0.00000000000E+00  0.00000000000E+00  0.26073045129E+04  0.26073045129E+04  0.25500000920E-02 0. -1.
       -2   -1    0    0    0  501  0.00000000000E+00  0.00000000000E+00 -0.15476546533E+04  0.15476546533E+04  0.25500000920E-02 0.  1.
    10030    2    1    2    0    0  0.00000000000E+00  0.00000000000E+00  0.10596498596E+04  0.41549591661E+04  0.40175649151E+04 0.  0.
        5    1    3    3  502    0  0.13634423381E+04  0.14560435883E+04  0.28476806650E+03  0.20149821046E+04  0.46999998093E+01 0.  1.
       -5    1    3    3    0  502 -0.13634423381E+04 -0.14560435883E+04  0.77488179312E+03  0.21399770615E+04  0.46999998093E+01 0. -1.
</event>
<event>
 5   0  0.1095903E-07  0.4020304E+04  0.7818609E-02  0.8000463E-01
       -2   -1    0    0    0  501  0.00000000000E+00  0.00000000000E+00  0.17812418206E+04  0.17812418206E+04  0.25500000920E-02 0.  1.
        2   -1    0    0  501    0  0.00000000000E+00  0.00000000000E+00 -0.22684802281E+04  0.22684802281E+04  0.25500000920E-02 0. -1.
    10030    2    1    2    0    0  0.00000000000E+00  0.00000000000E+00 -0.48723840754E+03  0.40497220487E+04  0.40203043922E+04 0.  0.
        3    1    3    3  502    0  0.24302458269E+03  0.13922536580E+04 -0.16835124372E+04  0.21981003918E+04  0.10100000352E+00 0. -1.
       -3    1    3    3    0  502 -0.24302458269E+03 -0.13922536580E+04  0.11962740297E+04  0.18516216569E+04  0.10100000352E+00 0.  1.
</event>
<event>
 5   0  0.1101474E-07  0.3998306E+04  0.7818609E-02  0.8004888E-01
       -2   -1    0    0    0  501  0.00000000000E+00  0.00000000000E+00  0.31775248537E+04  0.31775248537E+04  0.25500000920E-02 0.  1.
        2   -1    0    0  501    0  0.00000000000E+00  0.00000000000E+00 -0.12577752306E+04  0.12577752306E+04  0.25500000920E-02 0. -1.
    10030    2    1    2    0    0  0.00000000000E+00  0.00000000000E+00  0.19197496231E+04  0.44353000843E+04  0.39983056690E+04 0.  0.
        5    1    3    3  502    0 -0.13536203733E+04 -0.52609616097E+03 -0.56415455488E+03  0.15579979902E+04  0.46999998093E+01 0. -1.
       -5    1    3    3    0  502  0.13536203733E+04  0.52609616097E+03  0.24839041780E+04  0.28773020942E+04  0.46999998093E+01 0.  1.
</event>
<event>
 5   0  0.3399500E-08  0.4003125E+04  0.7818609E-02  0.8003916E-01
        1   -1    0    0  501    0  0.00000000000E+00  0.00000000000E+00  0.23119436344E+04  0.23119436344E+04  0.50400001928E-02 0.  1.
       -1   -1    0    0    0  501  0.00000000000E+00  0.00000000000E+00 -0.17328506419E+04  0.17328506419E+04  0.50400001928E-02 0. -1.
    10030    2    1    2    0    0  0.00000000000E+00  0.00000000000E+00  0.57909299245E+03  0.40447942763E+04  0.40031252845E+04 0.  0.
        4    1    3    3  502    0 -0.16044330604E+04  0.10497699576E+04 -0.29091484326E+03  0.19392925175E+04  0.12699999809E+01 0. -1.
       -4    1    3    3    0  502  0.16044330604E+04 -0.10497699576E+04  0.87000783571E+03  0.21055017588E+04  0.12699999809E+01 0.  1.
</event>
<event>
 5   0  0.3399500E-08  0.4026076E+04  0.7818609E-02  0.7999307E-01
       -1   -1    0    0    0  501  0.00000000000E+00  0.00000000000E+00  0.15425385732E+04  0.15425385732E+04  0.50400001928E-02 0.  1.
        1   -1    0    0  501    0  0.00000000000E+00  0.00000000000E+00 -0.26270478812E+04  0.26270478812E+04  0.50400001928E-02 0. -1.
    10030    2    1    2    0    0  0.00000000000E+00  0.00000000000E+00 -0.10845093080E+04  0.41695864544E+04  0.40260763482E+04 0.  0.
        5    1    3    3  502    0  0.48372915445E+02 -0.25421273468E+03  0.15252356321E+04  0.15470390676E+04  0.46999998093E+01 0.  1.
       -5    1    3    3    0  502 -0.48372915445E+02  0.25421273468E+03 -0.26097449401E+04  0.26225473868E+04  0.46999998093E+01 0. -1.
</event>
<event>
 5   0  0.3399500E-08  0.3986121E+04  0.7818609E-02  0.8007352E-01
       -1   -1    0    0    0  501  0.00000000000E+00  0.00000000000E+00  0.29264394118E+04  0.29264394118E+04  0.50400001928E-02 0.  1.
        1   -1    0    0  501    0  0.00000000000E+00  0.00000000000E+00 -0.13573796775E+04  0.13573796775E+04  0.50400001928E-02 0. -1.
    10030    2    1    2    0    0  0.00000000000E+00  0.00000000000E+00  0.15690597343E+04  0.42838190894E+04  0.39861206129E+04 0.  0.
        3    1    3    3  502    0  0.40768623161E+03  0.18330309906E+04  0.66758005559E+02  0.18790070031E+04  0.10100000352E+00 0. -1.
       -3    1    3    3    0  502 -0.40768623161E+03 -0.18330309906E+04  0.15023017287E+04  0.24048120863E+04  0.10100000352E+00 0.  1.
</event>
<event>
 5   0  0.3399500E-08  0.3817388E+04  0.7818609E-02  0.8042434E-01
       -1   -1    0    0    0  501  0.00000000000E+00  0.00000000000E+00  0.25666447287E+04  0.25666447287E+04  0.50400001928E-02 0.  1.
        1   -1    0    0  501    0  0.00000000000E+00  0.00000000000E+00 -0.14194063917E+04  0.14194063917E+04  0.50400001928E-02 0. -1.
    10030    2    1    2    0    0  0.00000000000E+00  0.00000000000E+00  0.11472383370E+04  0.39860511204E+04  0.38173875534E+04 0.  0.
        5    1    3    3  502    0  0.13756811992E+04 -0.95544299582E+03  0.15293288634E+04  0.22680914758E+04  0.46999998093E+01 0.  1.
       -5    1    3    3    0  502 -0.13756811992E+04  0.95544299582E+03 -0.38209052646E+03  0.17179596446E+04  0.46999998093E+01 0. -1.
</event>
<event>
 5   0  0.1087688E-07  0.3955767E+04  0.7818609E-02  0.8013530E-01
        2   -1    0    0  501    0  0.00000000000E+00  0.00000000000E+00  0.19066377819E+04  0.19066377819E+04  0.25500000920E-02 0. -1.
       -2   -1    0    0    0  501  0.00000000000E+00  0.00000000000E+00 -0.20517909869E+04  0.20517909869E+04  0.25500000920E-02 0.  1.
    10030    2    1    2    0    0  0.00000000000E+00  0.00000000000E+00 -0.14515320503E+03  0.39584287689E+04  0.39557665332E+04 0.  0.
        2    1    3    3  502    0 -0.11458122101E+04  0.53268668741E+03 -0.15952384318E+04  0.20350494790E+04  0.25500000920E-02 0.  1.
       -2    1    3    3    0  502  0.11458122101E+04 -0.53268668741E+03  0.14500852268E+04  0.19233792899E+04  0.25500000920E-02 0. -1.
</event>
<event>
 5   0  0.1095903E-07  0.3963894E+04  0.7818609E-02  0.8011870E-01
       -2   -1    0    0    0  501  0.00000000000E+00  0.00000000000E+00  0.19065953032E+04  0.19065953033E+04  0.25500000920E-02 0.  1.
        2   -1    0    0  501    0  0.00000000000E+00  0.00000000000E+00 -0.20602763064E+04  0.20602763064E+04  0.25500000920E-02 0. -1.
    10030    2    1    2    0    0  0.00000000000E+00  0.00000000000E+00 -0.15368100313E+03  0.39668716096E+04  0.39638936056E+04 0.  0.
        3    1    3    3  502    0  0.10572969041E+04  0.15349605914E+04  0.59755921530E+03  0.19573088123E+04  0.10100000352E+00 0. -1.
       -3    1    3    3    0  502 -0.10572969041E+04 -0.15349605914E+04 -0.75124021843E+03  0.20095627974E+04  0.10100000352E+00 0.  1.
</event>
<event>
 5   0  0.1095903E-07  0.3873575E+04  0.7818609E-02  0.8030548E-01
        2   -1    0    0  501    0  0.00000000000E+00  0.00000000000E+00  0.19504001553E+04  0.19504001553E+04  0.25500000920E-02 0. -1.
       -2   -1    0    0    0  501  0.00000000000E+00  0.00000000000E+00 -0.19232699872E+04  0.19232699872E+04  0.25500000920E-02 0.  1.
    10030    2    1    2    0    0  0.00000000000E+00  0.00000000000E+00  0.27130168090E+02  0.38736701425E+04  0.38735751350E+04 0.  0.
        3    1    3    3  502    0 -0.38266353580E+03 -0.17666797577E+04  0.70896500084E+03  0.19417054696E+04  0.10100000352E+00 0. -1.
       -3    1    3    3    0  502  0.38266353580E+03  0.17666797577E+04 -0.68183483275E+03  0.19319646729E+04  0.10100000352E+00 0.  1.
</event>
<event>
 5   0  0.3399500E-08  0.4005604E+04  0.7818609E-02  0.8003417E-01
       -1   -1    0    0    0  501  0.00000000000E+00  0.00000000000E+00  0.21720007981E+04  0.21720007981E+04  0.50400001928E-02 0.  1.
        1   -1    0    0  501    0  0.00000000000E+00  0.00000000000E+00 -0.18467840669E+04  0.18467840669E+04  0.50400001928E-02 0. -1.
    10030    2    1    2    0    0  0.00000000000E+00  0.00000000000E+00  0.32521673118E+03  0.40187848650E+04  0.40056043075E+04 0.  0.
        2    1    3    3  502    0 -0.18257889332E+04  0.59851775692E+03 -0.40448400769E+03  0.19635009668E+04  0.25500000920E-02 0.  1.
       -2    1    3    3    0  502  0.18257889332E+04 -0.59851775692E+03  0.72970073887E+03  0.20552838982E+04  0.25500000920E-02 0. -1.
</event>
<event>
 5   0  0.1095109E-07  0.4009221E+04  0.7818609E-02  0.8002689E-01
        2   -1    0    0  501    0  0.00000000000E+00  0.00000000000E+00  0.11931626756E+04  0.11931626756E+04  0.25500000920E-02 0.  1.
       -2   -1    0    0    0  501  0.00000000000E+00  0.00000000000E+00 -0.33679090458E+04  0.33679090458E+04  0.25500000920E-02 0. -1.
    10030    2    1    2    0    0  0.00000000000E+00  0.00000000000E+00 -0.21747463701E+04  0.45610717214E+04  0.40092210557E+04 0.  0.
        4    1    3    3  502    0 -0.12890679230E+04  0.75922747652E+03 -0.26053260507E+04  0.30043048970E+04  0.12699999809E+01 0. -1.
       -4    1    3    3    0  502  0.12890679230E+04 -0.75922747652E+03  0.43057968054E+03  0.15567668244E+04  0.12699999809E+01 0.  1.
</event>
<event>
 5   0  0.1095903E-07  0.4035912E+04  0.7818609E-02  0.7997341E-01
        2   -1    0    0  501    0  0.00000000000E+00  0.00000000000E+00  0.19105234746E+04  0.19105234746E+04  0.25500000920E-02 0. -1.
       -2   -1    0    0    0  501  0.00000000000E+00  0.00000000000E+00 -0.21314300307E+04  0.21314300307E+04  0.25500000920E-02 0.  1.
    10030    2    1    2    0    0  0.00000000000E+00  0.00000000000E+00 -0.22090655611E+03  0.40419535053E+04  0.40359123420E+04 0.  0.
        3    1    3    3  502    0 -0.19157620399E+04  0.14324933051E+03 -0.72902052111E+03  0.20547835639E+04  0.10100000352E+00 0. -1.
       -3    1    3    3    0  502  0.19157620399E+04 -0.14324933051E+03  0.50811396499E+03  0.19871699413E+04  0.10100000352E+00 0.  1.
</event>
<event>
 5   0  0.1095903E-07  0.3983803E+04  0.7818609E-02  0.8007822E-01
        2   -1    0    0  501    0  0.00000000000E+00  0.00000000000E+00  0.16423582393E+04  0.16423582393E+04  0.25500000920E-02 0. -1.
       -2   -1    0    0    0  501  0.00000000000E+00  0.00000000000E+00 -0.24158382014E+04  0.24158382014E+04  0.25500000920E-02 0.  1.
    10030    2    1    2    0    0  0.00000000000E+00  0.00000000000E+00 -0.77347996218E+03  0.40581964407E+04  0.39838030950E+04 0.  0.
        3    1    3    3  502    0 -0.17364408652E+04 -0.16860138782E+03 -0.13659492695E+04  0.22157325478E+04  0.10100000352E+00 0. -1.
       -3    1    3    3    0  502  0.17364408652E+04  0.16860138782E+03  0.59246930730E+03  0.18424638929E+04  0.10100000352E+00 0.  1.
</event>
<event>
 5   0  0.1095903E-07  0.3993636E+04  0.7818609E-02  0.8005832E-01
        2   -1    0    0  501    0  0.00000000000E+00  0.00000000000E+00  0.25047726027E+04  0.25047726027E+04  0.25500000920E-02 0.  1.
       -2   -1    0    0    0  501  0.00000000000E+00  0.00000000000E+00 -0.15918741829E+04  0.15918741829E+04  0.25500000920E-02 0. -1.
    10030    2    1    2    0    0  0.00000000000E+00  0.00000000000E+00  0.91289841981E+03  0.40966467856E+04  0.39936363582E+04 0.  0.
        3    1    3    3  502    0 -0.97522314712E+03 -0.68418400117E+03  0.21003182945E+04  0.24146438418E+04  0.10100000352E+00 0.  1.
       -3    1    3    3    0  502  0.97522314712E+03  0.68418400117E+03 -0.11874198747E+04  0.16820029439E+04  0.10100000352E+00 0. -1.
</event>
<event>
 5   0  0.1101474E-07  0.3888235E+04  0.7818609E-02  0.8027481E-01
        2   -1    0    0  501    0  0.00000000000E+00  0.00000000000E+00  0.22223338392E+04  0.22223338392E+04  0.25500000920E-02 0.  1.
       -2   -1    0    0    0  501  0.00000000000E+00  0.00000000000E+00 -0.17007310493E+04  0.17007310493E+04  0.25500000920E-02 0. -1.
    10030    2    1    2    0    0  0.00000000000E+00  0.00000000000E+00  0.52160278994E+03  0.39230648885E+04  0.38882346442E+04 0.  0.
        5    1    3    3  502    0  0.32110550079E+03 -0.88600529714E+03 -0.14548589595E+04  0.17334217061E+04  0.46999998093E+01 0. -1.
       -5    1    3    3    0  502 -0.32110550079E+03  0.88600529714E+03  0.19764617494E+04  0.21896431824E+04  0.46999998093E+01 0.  1.
</event>
<event>
 5   0  0.3399500E-08  0.3989169E+04  0.7818609E-02  0.8006735E-01
        1   -1    0    0  501    0  0.00000000000E+00  0.00000000000E+00  0.14365123239E+04  0.14365123239E+04  0.50400001928E-02 0.  1.
       -1   -1    0    0    0  501  0.00000000000E+00  0.00000000000E+00 -0.27694631562E+04  0.27694631563E+04  0.50400001928E-02 0. -1.
    10030    2    1    2    0    0  0.00000000000E+00  0.00000000000E+00 -0.13329508324E+04  0.42059754801E+04  0.39891693143E+04 0.  0.
        5    1    3    3  502    0  0.91858550278E+02  0.17607680078E+04 -0.16496825132E+04  0.24145841164E+04  0.46999998093E+01 0. -1.
       -5    1    3    3    0  502 -0.91858550278E+02 -0.17607680078E+04  0.31673168083E+03  0.17913913638E+04  0.46999998093E+01 0.  1.
</event>
<event>
 5   0  0.3399500E-08  0.4022749E+04  0.7818609E-02  0.7999973E-01
       -1   -1    0    0    0  501  0.00000000000E+00  0.00000000000E+00  0.24543177859E+04  0.24543177859E+04  0.50400001928E-02 0.  1.
        1   -1    0    0  501    0  0.00000000000E+00  0.00000000000E+00 -0.16483714030E+04  0.16483714030E+04  0.50400001928E-02 0. -1.
    10030    2    1    2    0    0  0.00000000000E+00  0.00000000000E+00  0.80594638285E+03  0.41026891889E+04  0.40227489369E+04 0.  0.
        2    1    3    3  502    0 -0.19879795793E+04 -0.25580384415E+03  0.23192377999E+03  0.20177430595E+04  0.25500000920E-02 0. -1.
       -2    1    3    3    0  502  0.19879795793E+04  0.25580384415E+03  0.57402260286E+03  0.20849461295E+04  0.25500000920E-02 0.  1.
</event>
<event>
 5   0  0.3399500E-08  0.3914569E+04  0.7818609E-02  0.8022006E-01
       -1   -1    0    0    0  501  0.00000000000E+00  0.00000000000E+00  0.21294658460E+04  0.21294658460E+04  0.50400001928E-02 0. -1.
        1   -1    0    0  501    0  0.00000000000E+00  0.00000000000E+00 -0.17990248983E+04  0.17990248983E+04  0.50400001928E-02 0.  1.
    10030    2    1    2    0    0  0.00000000000E+00  0.00000000000E+00  0.33044094775E+03  0.39284907443E+04  0.39145687257E+04 0.  0.
        4    1    3    3  502    0  0.34512758940E+03 -0.17196420060E+04 -0.70659160574E+03  0.18909137981E+04  0.12699999809E+01 0.  1.
       -4    1    3    3    0  502 -0.34512758940E+03  0.17196420060E+04  0.10370325535E+04  0.20375769462E+04  0.12699999809E+01 0. -1.
</event>
<event>
 5   0  0.1095903E-07  0.4013782E+04  0.7818609E-02  0.8001772E-01
        2   -1    0    0  501    0  0.00000000000E+00  0.00000000000E+00  0.29474771187E+04  0.29474771187E+04  0.25500000920E-02 0. -1.
       -2   -1    0    0    0  501  0.00000000000E+00  0.00000000000E+00 -0.13664606274E+04  0.13664606274E+04  0.25500000920E-02 0.  1.
    10030    2    1    2    0    0  0.00000000000E+00  0.00000000000E+00  0.15810164913E+04  0.43139377461E+04  0.40137819736E+04 0.  0.
        3    1    3    3  502    0  0.38203392432E+03  0.84777891484E+03 -0.11209510379E+04  0.14564375192E+04  0.10100000352E+00 0.  1.
       -3    1    3    3    0  502 -0.38203392432E+03 -0.84777891484E+03  0.27019675292E+04  0.28575002269E+04  0.10100000352E+00 0. -1.
</event>
<event>
 5   0  0.1095903E-07  0.3992866E+04  0.7818609E-02  0.8005987E-01
       -2   -1    0    0    0  501  0.00000000000E+00  0.00000000000E+00  0.23200080809E+04  0.23200080809E+04  0.25500000920E-02 0. -1.
        2   -1    0    0  501    0  0.00000000000E+00  0.00000000000E+00 -0.17179878422E+04  0.17179878422E+04  0.25500000920E-02 0.  1.
    10030    2    1    2    0    0  0.00000000000E+00  0.00000000000E+00  0.60202023877E+03  0.40379959231E+04  0.39928664775E+04 0.  0.
        3    1    3    3  502    0  0.12446219099E+04  0.10584167734E+04  0.14613297731E+04  0.21919887045E+04  0.10100000352E+00 0. -1.
       -3    1    3    3    0  502 -0.12446219099E+04 -0.10584167734E+04 -0.85930953432E+03  0.18460072185E+04  0.10100000352E+00 0.  1.
</event>
<event>
 5   0  0.1073271E-07  0.4010210E+04  0.7818609E-02  0.8002490E-01
       -2   -1    0    0    0  501  0.00000000000E+00  0.00000000000E+00  0.11952990749E+04  0.11952990749E+04  0.25500000920E-02 0.  1.
        2   -1    0    0  501    0  0.00000000000E+00  0.00000000000E+00 -0.33635476516E+04  0.33635476516E+04  0.25500000920E-02 0. -1.
    10030    2    1    2    0    0  0.00000000000E+00  0.00000000000E+00 -0.21682485767E+04  0.45588467265E+04  0.40102096685E+04 0.  0.
        1    1    3    3  502    0  0.43730382914E+02 -0.16961056724E+04  0.13059256380E+03  0.17016877551E+04  0.50400001928E-02 0.  1.
       -1    1    3    3    0  502 -0.43730382914E+02  0.16961056724E+04 -0.22988411405E+04  0.28571589713E+04  0.50400001928E-02 0. -1.
</event>
<event>
 5   0  0.3399500E-08  0.3995725E+04  0.7818609E-02  0.8005410E-01
       -1   -1    0    0    0  501  0.00000000000E+00  0.00000000000E+00  0.15490426417E+04  0.15490426417E+04  0.50400001928E-02 0.  1.
        1   -1    0    0  501    0  0.00000000000E+00  0.00000000000E+00 -0.25767230812E+04  0.25767230812E+04  0.50400001928E-02 0. -1.
    10030    2    1    2    0    0  0.00000000000E+00  0.00000000000E+00 -0.10276804395E+04  0.41257657228E+04  0.39957246795E+04 0.  0.
        1    1    3    3  502    0  0.83483146367E+03 -0.14674861322E+04  0.58909712361E+03  0.17881539481E+04  0.50400001928E-02 0.  1.
       -1    1    3    3    0  502 -0.83483146367E+03  0.14674861322E+04 -0.16167775631E+04  0.23376117748E+04  0.50400001928E-02 0. -1.
</event>
<event>
 5   0  0.1087688E-07  0.3994880E+04  0.7818609E-02  0.8005580E-01
       -2   -1    0    0    0  501  0.00000000000E+00  0.00000000000E+00  0.17072063653E+04  0.17072063653E+04  0.25500000920E-02 0.  1.
        2   -1    0    0  501    0  0.00000000000E+00  0.00000000000E+00 -0.23370147929E+04  0.23370147929E+04  0.25500000920E-02 0. -1.
    10030    2    1    2    0    0  0.00000000000E+00  0.00000000000E+00 -0.62980842759E+03  0.40442211582E+04  0.39948799883E+04 0.  0.
        2    1    3    3  502    0 -0.15454855140E+04 -0.14882380385E+03  0.95723590719E+03  0.18239996109E+04  0.25500000920E-02 0.  1.
       -2    1    3    3    0  502  0.15454855140E+04  0.14882380385E+03 -0.15870443348E+04  0.22202215473E+04  0.25500000920E-02 0. -1.
</event>
<event>
 5   0  0.1095903E-07  0.3968009E+04  0.7818609E-02  0.8011031E-01
        2   -1    0    0  501    0  0.00000000000E+00  0.00000000000E+00  0.14313119367E+04  0.14313119367E+04  0.25500000920E-02 0.  1.
       -2   -1    0    0    0  501  0.00000000000E+00  0.00000000000E+00 -0.27501156529E+04  0.27501156529E+04  0.25500000920E-02 0. -1.
    10030    2    1    2    0    0  0.00000000000E+00  0.00000000000E+00 -0.13188037162E+04  0.41814275897E+04  0.39680087507E+04 0.  0.
        3    1    3    3  502    0 -0.17660523982E+04  0.82937918212E+03 -0.28024067408E+03  0.19711280391E+04  0.10100000352E+00 0. -1.
       -3    1    3    3    0  502  0.17660523982E+04 -0.82937918212E+03 -0.10385630421E+04  0.22102995506E+04  0.10100000352E+00 0.  1.
</event>
<event>
 5   0  0.3399500E-08  0.4023367E+04  0.7818609E-02  0.7999849E-01
       -1   -1    0    0    0  501  0.00000000000E+00  0.00000000000E+00  0.15820259728E+04  0.15820259728E+04  0.50400001928E-02 0. -1.
        1   -1    0    0  501    0  0.00000000000E+00  0.00000000000E+00 -0.25580307575E+04  0.25580307575E+04  0.50400001928E-02 0.  1.
    10030    2    1    2    0    0  0.00000000000E+00  0.00000000000E+00 -0.97600478467E+03  0.41400567304E+04  0.40233672950E+04 0.  0.
        1    1    3    3  502    0  0.58703192741E+03  0.94769331554E+03 -0.22111267102E+04  0.24762492670E+04  0.50400001928E-02 0.  1.
       -1    1    3    3    0  502 -0.58703192741E+03 -0.94769331554E+03  0.12351219255E+04  0.16638074633E+04  0.50400001928E-02 0. -1.
</event>
<event>
 5   0  0.1095109E-07  0.3743335E+04  0.7818609E-02  0.8058426E-01
        2   -1    0    0  501    0  0.00000000000E+00  0.00000000000E+00  0.20148370982E+04  0.20148370982E+04  0.25500000920E-02 0.  1.
       -2   -1    0    0    0  501  0.00000000000E+00  0.00000000000E+00 -0.17386711603E+04  0.17386711603E+04  0.25500000920E-02 0. -1.
    10030    2    1    2    0    0  0.00000000000E+00  0.00000000000E+00  0.27616593786E+03  0.37535082585E+04  0.37433349598E+04 0.  0.
        4    1    3    3  502    0 -0.82284918188E+03 -0.36324433873E+02  0.18233460934E+04  0.20007480675E+04  0.12699999809E+01 0.  1.
       -4    1    3    3    0  502  0.82284918188E+03  0.36324433873E+02 -0.15471801555E+04  0.17527601910E+04  0.12699999809E+01 0. -1.
</event>
<event>
 5   0  0.1101474E-07  0.3995492E+04  0.7818609E-02  0.8005457E-01
       -2   -1    0    0    0  501  0.00000000000E+00  0.00000000000E+00  0.20991986538E+04  0.20991986538E+04  0.25500000920E-02 0. -1.
        2   -1    0    0  501    0  0.00000000000E+00  0.00000000000E+00 -0.19011963116E+04  0.19011963116E+04  0.25500000920E-02 0.  1.
    10030    2    1    2    0    0  0.00000000000E+00  0.00000000000E+00  0.19800234220E+03  0.40003949655E+04  0.39954918286E+04 0.  0.
        5    1    3    3  502    0  0.21870594961E+03 -0.19854507967E+04  0.65501338812E+02  0.19985393851E+04  0.46999998093E+01 0. -1.
       -5    1    3    3    0  502 -0.21870594961E+03  0.19854507967E+04  0.13250100339E+03  0.20018555803E+04  0.46999998093E+01 0.  1.
</event>
<event>
 5   0  0.1095109E-07  0.4014571E+04  0.7818609E-02  0.8001614E-01
        2   -1    0    0  501    0  0.00000000000E+00  0.00000000000E+00  0.27613944858E+04  0.27613944858E+04  0.25500000920E-02 0. -1.
       -2   -1    0    0    0  501  0.00000000000E+00  0.00000000000E+00 -0.14591160749E+04  0.14591160749E+04  0.25500000920E-02 0.  1.
    10030    2    1    2    0    0  0.00000000000E+00  0.00000000000E+00  0.13022784109E+04  0.42205105608E+04  0.40145710025E+04 0.  0.
        4    1    3    3  502    0  0.15007496049E+04 -0.96375957773E+03  0.16193108120E+04  0.24089937773E+04  0.12699999809E+01 0. -1.
       -4    1    3    3    0  502 -0.15007496049E+04  0.96375957773E+03 -0.31703240111E+03  0.18115167834E+04  0.12699999809E+01 0.  1.
</event>
<event>
 5   0  0.1095903E-07  0.4006038E+04  0.7818609E-02  0.8003330E-01
        2   -1    0    0  501    0  0.00000000000E+00  0.00000000000E+00  0.20317591316E+04  0.20317591316E+04  0.25500000920E-02 0. -1.
       -2   -1    0    0    0  501  0.00000000000E+00  0.00000000000E+00 -0.19746851407E+04  0.19746851407E+04  0.25500000920E-02 0.  1.
    10030    2    1    2    0    0  0.00000000000E+00  0.00000000000E+00  0.57073990847E+02  0.40064442723E+04  0.40060377266E+04 0.  0.
        3    1    3    3  502    0 -0.11390153207E+04  0.38652317552E+03  0.16303638252E+04  0.20260410358E+04  0.10100000352E+00 0. -1.
       -3    1    3    3    0  502  0.11390153207E+04 -0.38652317552E+03 -0.15732898344E+04  0.19804032365E+04  0.10100000352E+00 0.  1.
</event>
<event>
 5   0  0.1095903E-07  0.3988176E+04  0.7818609E-02  0.8006936E-01
        2   -1    0    0  501    0  0.00000000000E+00  0.00000000000E+00  0.14601163088E+04  0.14601163088E+04  0.25500000920E-02 0. -1.
       -2   -1    0    0    0  501  0.00000000000E+00  0.00000000000E+00 -0.27233357016E+04  0.27233357016E+04  0.25500000920E-02 0.  1.
    10030    2    1    2    0    0  0.00000000000E+00  0.00000000000E+00 -0.12632193928E+04  0.41834520104E+04  0.39881759602E+04 0.  0.
        3    1    3    3  502    0 -0.17012107666E+04 -0.36172161088E+03 -0.16547802868E+04  0.24006787382E+04  0.10100000352E+00 0.  1.
       -3    1    3    3    0  502  0.17012107666E+04  0.36172161088E+03  0.39156089402E+03  0.17827732722E+04  0.10100000352E+00 0. -1.
</event>
<event>
 5   0  0.1095109E-07  0.3983219E+04  0.7818609E-02  0.8007940E-01
       -2   -1    0    0    0  501  0.00000000000E+00  0.00000000000E+00  0.27612531126E+04  0.27612531126E+04  0.25500000920E-02 0.  1.
        2   -1    0    0  501    0  0.00000000000E+00  0.00000000000E+00 -0.14364888228E+04  0.14364888228E+04  0.25500000920E-02 0. -1.
    10030    2    1    2    0    0  0.00000000000E+00  0.00000000000E+00  0.13247642898E+04  0.41977419354E+04  0.39832194181E+04 0.  0.
        4    1    3    3  502    0 -0.45300669659E+03  0.16048019751E+04 -0.48525902940E+03  0.17366871869E+04  0.12699999809E+01 0. -1.
       -4    1    3    3    0  502  0.45300669659E+03 -0.16048019751E+04  0.18100233192E+04  0.24610547486E+04  0.12699999809E+01 0.  1.
</event>
<event>
 5   0  0.1095903E-07  0.3938925E+04  0.7818609E-02  0.8016982E-01
        2   -1    0    0  501    0  0.00000000000E+00  0.00000000000E+00  0.19873562688E+04  0.19873562688E+04  0.25500000920E-02 0.  1.
       -2   -1    0    0    0  501  0.00000000000E+00  0.00000000000E+00 -0.19517295236E+04  0.19517295236E+04  0.25500000920E-02 0. -1.
    10030    2    1    2    0    0  0.00000000000E+00  0.00000000000E+00  0.35626745233E+02  0.39390857925E+04  0.39389246775E+04 0.  0.
        3    1    3    3  502    0  0.18402626555E+04 -0.64663122971E+03 -0.25438024584E+03  0.19670810629E+04  0.10100000352E+00 0. -1.
       -3    1    3    3    0  502 -0.18402626555E+04  0.64663122971E+03  0.29000699107E+03  0.19720047296E+04  0.10100000352E+00 0.  1.
</event>
<event>
 5   0  0.3399500E-08  0.3885533E+04  0.7818609E-02  0.8028045E-01
        1   -1    0    0  501    0  0.00000000000E+00  0.00000000000E+00  0.28974132483E+04  0.28974132483E+04  0.50400001928E-02 0. -1.
       -1   -1    0    0    0  501  0.00000000000E+00  0.00000000000E+00 -0.13026591035E+04  0.13026591036E+04  0.50400001928E-02 0.  1.
    10030    2    1    2    0    0  0.00000000000E+00  0.00000000000E+00  0.15947541447E+04  0.42000723518E+04  0.38855330366E+04 0.  0.
        5    1    3    3  502    0 -0.16314404754E+04  0.37696759264E+03 -0.26757515683E+03  0.16956771937E+04  0.46999998093E+01 0.  1.
       -5    1    3    3    0  502  0.16314404754E+04 -0.37696759264E+03  0.18623293016E+04  0.25043951582E+04  0.46999998093E+01 0. -1.
</event>
<event>
 5   0  0.1073271E-07  0.4007547E+04  0.7818609E-02  0.8003026E-01
       -2   -1    0    0    0  501  0.00000000000E+00  0.00000000000E+00  0.19241101102E+04  0.19241101102E+04  0.25500000920E-02 0.  1.
        2   -1    0    0  501    0  0.00000000000E+00  0.00000000000E+00 -0.20867346508E+04  0.20867346508E+04  0.25500000920E-02 0. -1.
    10030    2    1    2    0    0  0.00000000000E+00  0.00000000000E+00 -0.16262454061E+03  0.40108447611E+04  0.40075465008E+04 0.  0.
        1    1    3    3  502    0 -0.18703684126E+04  0.71853966091E+03 -0.10435285696E+03  0.20063565889E+04  0.50400001928E-02 0. -1.
       -1    1    3    3    0  502  0.18703684126E+04 -0.71853966091E+03 -0.58271683657E+02  0.20044881721E+04  0.50400001928E-02 0.  1.
</event>
<event>
 5   0  0.3399500E-08  0.4003852E+04  0.7818609E-02  0.8003770E-01
        1   -1    0    0  501    0  0.00000000000E+00  0.00000000000E+00  0.27739181446E+04  0.27739181446E+04  0.50400001928E-02 0.  1.
       -1   -1    0    0    0  501  0.00000000000E+00  0.00000000000E+00 -0.14447825548E+04  0.14447825549E+04  0.50400001928E-02 0. -1.
    10030    2    1    2    0    0  0.00000000000E+00  0.00000000000E+00  0.13291355898E+04  0.42187006995E+04  0.40038524168E+04 0.  0.
        3    1    3    3  502    0  0.19709095852E+04  0.28564640104E+03  0.44958473154E+03  0.20416182064E+04  0.10100000352E+00 0.  1.
       -3    1    3    3    0  502 -0.19709095852E+04 -0.28564640104E+03  0.87955085825E+03  0.21770824931E+04  0.10100000352E+00 0. -1.
</event>
<event>
 5   0  0.1095109E-07  0.3954700E+04  0.7818609E-02  0.8013748E-01
        2   -1    0    0  501    0  0.00000000000E+00  0.00000000000E+00  0.21709703014E+04  0.21709703014E+04  0.25500000920E-02 0.  1.
       -2   -1    0    0    0  501  0.00000000000E+00  0.00000000000E+00 -0.18009979133E+04  0.18009979133E+04  0.25500000920E-02 0. -1.
    10030    2    1    2    0    0  0.00000000000E+00  0.00000000000E+00  0.36997238805E+03  0.39719682147E+04  0.39546999798E+04 0.  0.
        4    1    3    3  502    0  0.10325676373E+04 -0.78926389095E+03  0.16817207706E+04  0.21253987340E+04  0.12699999809E+01 0. -1.
       -4    1    3    3    0  502 -0.10325676373E+04  0.78926389095E+03 -0.13117483826E+04  0.18465694807E+04  0.12699999809E+01 0.  1.
</event>
<event>
 5   0  0.1095109E-07  0.3972193E+04  0.7818609E-02  0.8010180E-01
        2   -1    0    0  501    0  0.00000000000E+00  0.00000000000E+00  0.23990883370E+04  0.23990883370E+04  0.25500000920E-02 0. -1.
       -2   -1    0    0    0  501  0.00000000000E+00  0.00000000000E+00 -0.16441995387E+04  0.16441995387E+04  0.25500000920E-02 0.  1.
    10030    2    1    2    0    0  0.00000000000E+00  0.00000000000E+00  0.75488879826E+03  0.40432878757E+04  0.39721933170E+04 0.  0.
        4    1    3    3  502    0 -0.35976167975E+03  0.17517324113E+04  0.12569598164E+04  0.21858509784E+04  0.12699999809E+01 0. -1.
       -4    1    3    3    0  502  0.35976167975E+03 -0.17517324113E+04 -0.50207101818E+03  0.18574368972E+04  0.12699999809E+01 0.  1.
</event>
<event>
 5   0  0.1095109E-07  0.4090580E+04  0.7818609E-02  0.7986519E-01
       -2   -1    0    0    0  501  0.00000000000E+00  0.00000000000E+00  0.21208303136E+04  0.21208303136E+04  0.25500000920E-02 0. -1.
        2   -1    0    0  501    0  0.00000000000E+00  0.00000000000E+00 -0.19724400118E+04  0.19724400118E+04  0.25500000920E-02 0.  1.
    10030    2    1    2    0    0  0.00000000000E+00  0.00000000000E+00  0.14839030181E+03  0.40932703254E+04  0.40905796991E+04 0.  0.
        4    1    3    3  502    0  0.19451316707E+04 -0.33600356934E+03 -0.46166931116E+03  0.20272088646E+04  0.12699999809E+01 0. -1.
       -4    1    3    3    0  502 -0.19451316707E+04  0.33600356934E+03  0.61005961297E+03  0.20660614607E+04  0.12699999809E+01 0.  1.
</event>
<event>
 5   0  0.1073271E-07  0.3885582E+04  0.7818609E-02  0.8028035E-01
       -2   -1    0    0    0  501  0.00000000000E+00  0.00000000000E+00  0.19831220423E+04  0.19831220423E+04  0.25500000920E-02 0.  1.
        2   -1    0    0  501    0  0.00000000000E+00  0.00000000000E+00 -0.19032802581E+04  0.19032802581E+04  0.25500000920E-02 0. -1.
    10030    2    1    2    0    0  0.00000000000E+00  0.00000000000E+00  0.79841784225E+02  0.38864023004E+04  0.38855820838E+04 0.  0.
        1    1    3    3  502    0  0.10426525119E+04  0.14531407891E+04  0.79882648190E+03  0.19587920159E+04  0.50400001928E-02 0.  1.
       -1    1    3    3    0  502 -0.10426525119E+04 -0.14531407891E+04 -0.71898469767E+03  0.19276102845E+04  0.50400001928E-02 0. -1.
</event>
<event>
 5   0  0.3399500E-08  0.3959695E+04  0.7818609E-02  0.8012727E-01
       -1   -1    0    0    0  501  0.00000000000E+00  0.00000000000E+00  0.12731650825E+04  0.12731650825E+04  0.50400001928E-02 0.  1.
        1   -1    0    0  501    0  0.00000000000E+00  0.00000000000E+00 -0.30787803652E+04  0.30787803652E+04  0.50400001928E-02 0. -1.
    10030    2    1    2    0    0  0.00000000000E+00  0.00000000000E+00 -0.18056152827E+04  0.43519454477E+04  0.39596947648E+04 0.  0.
        1    1    3    3  502    0 -0.13453969064E+04 -0.10803449719E+04  0.16422001168E+03  0.17332646383E+04  0.50400001928E-02 0.  1.
       -1    1    3    3    0  502  0.13453969064E+04  0.10803449719E+04 -0.19698352944E+04  0.26186808093E+04  0.50400001928E-02 0. -1.
</event>
<event>
 5   0  0.3399500E-08  0.4023449E+04  0.7818609E-02  0.7999833E-01
       -1   -1    0    0    0  501  0.00000000000E+00  0.00000000000E+00  0.16394978204E+04  0.16394978204E+04  0.50400001928E-02 0.  1.
        1   -1    0    0  501    0  0.00000000000E+00  0.00000000000E+00 -0.24684600536E+04  0.24684600536E+04  0.50400001928E-02 0. -1.
    10030    2    1    2    0    0  0.00000000000E+00  0.00000000000E+00 -0.82896223316E+03  0.41079578740E+04  0.40234487086E+04 0.  0.
        5    1    3    3  502    0  0.28528196498E+03 -0.25989989254E+03  0.16013439079E+04  0.16471970602E+04  0.46999998093E+01 0.  1.
       -5    1    3    3    0  502 -0.28528196498E+03  0.25989989254E+03 -0.24303061410E+04  0.24607608138E+04  0.46999998093E+01 0. -1.
</event>
<event>
 5   0  0.1095109E-07  0.4011236E+04  0.7818609E-02  0.8002284E-01
       -2   -1    0    0    0  501  0.00000000000E+00  0.00000000000E+00  0.19877683573E+04  0.19877683573E+04  0.25500000920E-02 0.  1.
        2   -1    0    0  501    0  0.00000000000E+00  0.00000000000E+00 -0.20236283104E+04  0.20236283104E+04  0.25500000920E-02 0. -1.
    10030    2    1    2    0    0  0.00000000000E+00  0.00000000000E+00 -0.35859953091E+02  0.40113966677E+04  0.40112363791E+04 0.  0.
        4    1    3    3  502    0 -0.16788611130E+04 -0.26229265517E+03  0.10475376940E+04  0.19961735663E+04  0.12699999809E+01 0.  1.
       -4    1    3    3    0  502  0.16788611130E+04  0.26229265517E+03 -0.10833976471E+04  0.20152231013E+04  0.12699999809E+01 0. -1.
</event>
<event>
 5   0  0.1073271E-07  0.3991613E+04  0.7818609E-02  0.8006241E-01
       -2   -1    0    0    0  501  0.00000000000E+00  0.00000000000E+00  0.16929269277E+04  0.16929269277E+04  0.25500000920E-02 0.  1.
        2   -1    0    0  501    0  0.00000000000E+00  0.00000000000E+00 -0.23528741316E+04  0.23528741316E+04  0.25500000920E-02 0. -1.
    10030    2    1    2    0    0  0.00000000000E+00  0.00000000000E+00 -0.65994720388E+03  0.40458010592E+04  0.39916131951E+04 0.  0.
        1    1    3    3  502    0  0.11324578781E+04  0.84529544083E+03  0.10985058101E+04  0.17898883325E+04  0.50400001928E-02 0.  1.
       -1    1    3    3    0  502 -0.11324578781E+04 -0.84529544083E+03 -0.17584530140E+04  0.22559127267E+04  0.50400001928E-02 0. -1.
</event>
<event>
 5   0  0.1087688E-07  0.4003179E+04  0.7818609E-02  0.8003906E-01
        2   -1    0    0  501    0  0.00000000000E+00  0.00000000000E+00  0.21475937334E+04  0.21475937334E+04  0.25500000920E-02 0. -1.
       -2   -1    0    0    0  501  0.00000000000E+00  0.00000000000E+00 -0.18655114787E+04  0.18655114787E+04  0.25500000920E-02 0.  1.
    10030    2    1    2    0    0  0.00000000000E+00  0.00000000000E+00  0.28208225467E+03  0.40131052120E+04  0.40031791172E+04 0.  0.
        2    1    3    3  502    0  0.87575930478E+03  0.15745501475E+04  0.10150965098E+04  0.20679901961E+04  0.25500000920E-02 0. -1.
       -2    1    3    3    0  502 -0.87575930478E+03 -0.15745501475E+04 -0.73301425510E+03  0.19451150159E+04  0.25500000920E-02 0.  1.
</event>
<event>
 5   0  0.1101474E-07  0.4029100E+04  0.7818609E-02  0.7998702E-01
        2   -1    0    0  501    0  0.00000000000E+00  0.00000000000E+00  0.16625349585E+04  0.16625349585E+04  0.25500000920E-02 0. -1.
       -2   -1    0    0    0  501  0.00000000000E+00  0.00000000000E+00 -0.24410989386E+04  0.24410989386E+04  0.25500000920E-02 0.  1.
    10030    2    1    2    0    0  0.00000000000E+00  0.00000000000E+00 -0.77856398010E+03  0.41036338970E+04  0.40291003077E+04 0.  0.
        5    1    3    3  502    0 -0.52539711662E+01  0.61284492227E+03 -0.23438403252E+04  0.24226464998E+04  0.46999998093E+01 0.  1.
       -5    1    3    3    0  502  0.52539711662E+01 -0.61284492227E+03  0.15652763451E+04  0.16809873972E+04  0.46999998093E+01 0. -1.
</event>
<event>
 5   0  0.1087688E-07  0.3982148E+04  0.7818609E-02  0.8008158E-01
       -2   -1    0    0    0  501  0.00000000000E+00  0.00000000000E+00  0.33022451452E+04  0.33022451452E+04  0.25500000920E-02 0. -1.
        2   -1    0    0  501    0  0.00000000000E+00  0.00000000000E+00 -0.12005093553E+04  0.12005093553E+04  0.25500000920E-02 0.  1.
    10030    2    1    2    0    0  0.00000000000E+00  0.00000000000E+00  0.21017357899E+04  0.45027545005E+04  0.39821482596E+04 0.  0.
        2    1    3    3  502    0  0.16433596382E+04  0.19752453453E+02 -0.22006777258E+03  0.16581468224E+04  0.25500000920E-02 0.  1.
       -2    1    3    3    0  502 -0.16433596382E+04 -0.19752453453E+02  0.23218035625E+04  0.28446076782E+04  0.25500000920E-02 0. -1.
</event>
<event>
 5   0  0.3399500E-08  0.3992585E+04  0.7818609E-02  0.8006044E-01
        1   -1    0    0  501    0  0.00000000000E+00  0.00000000000E+00  0.24616951437E+04  0.24616951437E+04  0.50400001928E-02 0.  1.
       -1   -1    0    0    0  501  0.00000000000E+00  0.00000000000E+00 -0.16188774764E+04  0.16188774764E+04  0.50400001928E-02 0. -1.
    10030    2    1    2    0    0  0.00000000000E+00  0.00000000000E+00  0.84281766730E+03  0.40805726201E+04  0.39925845373E+04 0.  0.
        3    1    3    3  502    0  0.35733374589E+03  0.51238304773E+03  0.23592311930E+04  0.24405318326E+04  0.10100000352E+00 0.  1.
       -3    1    3    3    0  502 -0.35733374589E+03 -0.51238304773E+03 -0.15164135257E+04  0.16400407875E+04  0.10100000352E+00 0. -1.
</event>
<event>
 5   0  0.1073271E-07  0.4009611E+04  0.7818609E-02  0.8002610E-01
       -2   -1    0    0    0  501  0.00000000000E+00  0.00000000000E+00  0.21745240644E+04  0.21745240644E+04  0.25500000920E-02 0.  1.
        2   -1    0    0  501    0  0.00000000000E+00  0.00000000000E+00 -0.18483335424E+04  0.18483335424E+04  0.25500000920E-02 0. -1.
    10030    2    1    2    0    0  0.00000000000E+00  0.00000000000E+00  0.32619052204E+03  0.40228576068E+04  0.40096113362E+04 0.  0.
        1    1    3    3  502    0 -0.12960706471E+04 -0.21764417237E+03 -0.13558672222E+04  0.18882648205E+04  0.50400001928E-02 0.  1.
       -1    1    3    3    0  502  0.12960706471E+04  0.21764417237E+03  0.16820577442E+04  0.21345927862E+04  0.50400001928E-02 0. -1.
</event>
<event>
 5   0  0.3399500E-08  0.3650036E+04  0.7818609E-02  0.8079126E-01
       -1   -1    0    0    0  501  0.00000000000E+00  0.00000000000E+00  0.17388549247E+04  0.17388549247E+04  0.50400001928E-02 0.  1.
        1   -1    0    0  501    0  0.00000000000E+00  0.00000000000E+00 -0.19154505090E+04  0.19154505090E+04  0.50400001928E-02 0. -1.
    10030    2    1    2    0    0  0.00000000000E+00  0.00000000000E+00 -0.17659558434E+03  0.36543054337E+04  0.36500359180E+04 0.  0.
        4    1    3    3  502    0 -0.77132387089E+03  0.13288698882E+04  0.89766543354E+03  0.17795057002E+04  0.12699999809E+01 0.  1.
       -4    1    3    3    0  502  0.77132387089E+03 -0.13288698882E+04 -0.10742610179E+04  0.18747997335E+04  0.12699999809E+01 0. -1.
</event>
<event>
 5   0  0.3399500E-08  0.4003944E+04  0.7818609E-02  0.8003751E-01
        1   -1    0    0  501    0  0.00000000000E+00  0.00000000000E+00  0.26820845133E+04  0.26820845133E+04  0.50400001928E-02 0. -1.
       -1   -1    0    0    0  501  0.00000000000E+00  0.00000000000E+00 -0.14943194614E+04  0.14943194614E+04  0.50400001928E-02 0.  1.
    10030    2    1    2    0    0  0.00000000000E+00  0.00000000000E+00  0.11877650519E+04  0.41764039747E+04  0.40039435987E+04 0.  0.
        4    1    3    3  502    0 -0.13542989854E+04 -0.86092758145E+03  0.18423352054E+04  0.24432606624E+04  0.12699999809E+01 0. -1.
       -4    1    3    3    0  502  0.13542989854E+04  0.86092758145E+03 -0.65457015348E+03  0.17331433123E+04  0.12699999809E+01 0.  1.
</event>
<event>
 5   0  0.1095903E-07  0.4006177E+04  0.7818609E-02  0.8003302E-01
       -2   -1    0    0    0  501  0.00000000000E+00  0.00000000000E+00  0.18786911191E+04  0.18786911191E+04  0.25500000920E-02 0. -1.
        2   -1    0    0  501    0  0.00000000000E+00  0.00000000000E+00 -0.21357229735E+04  0.21357229735E+04  0.25500000920E-02 0.  1.
    10030    2    1    2    0    0  0.00000000000E+00  0.00000000000E+00 -0.25703185442E+03  0.40144140925E+04  0.40061771219E+04 0.  0.
        3    1    3    3  502    0  0.47149798500E+03  0.13060069479E+03 -0.20749300415E+04  0.21318305698E+04  0.10100000352E+00 0.  1.
       -3    1    3    3    0  502 -0.47149798500E+03 -0.13060069479E+03  0.18178981870E+04  0.18825835227E+04  0.10100000352E+00 0. -1.
</event>
<event>
 5   0  0.1101474E-07  0.4043640E+04  0.7818609E-02  0.7995800E-01
       -2   -1    0    0    0  501  0.00000000000E+00  0.00000000000E+00  0.13519552806E+04  0.13519552806E+04  0.25500000920E-02 0.  1.
        2   -1    0    0  501    0  0.00000000000E+00  0.00000000000E+00 -0.30235884302E+04  0.30235884302E+04  0.25500000920E-02 0. -1.
    10030    2    1    2    0    0  0.00000000000E+00  0.00000000000E+00 -0.16716331496E+04  0.43755437107E+04  0.40436401148E+04 0.  0.
        5    1    3    3  502    0 -0.41322813082E+03  0.13256403270E+04 -0.24260162802E+04  0.27952919072E+04  0.46999998093E+01 0. -1.
       -5    1    3    3    0  502  0.41322813082E+03 -0.13256403270E+04  0.75438313060E+03  0.15802518035E+04  0.46999998093E+01 0.  1.
</event>
<event>
 5   0  0.1101474E-07  0.3996992E+04  0.7818609E-02  0.8005154E-01
        2   -1    0    0  501    0  0.00000000000E+00  0.00000000000E+00  0.29165390688E+04  0.29165390688E+04  0.25500000920E-02 0. -1.
       -2   -1    0    0    0  501  0.00000000000E+00  0.00000000000E+00 -0.13694269601E+04  0.13694269601E+04  0.25500000920E-02 0.  1.
    10030    2    1    2    0    0  0.00000000000E+00  0.00000000000E+00  0.15471121087E+04  0.42859660289E+04  0.39969924848E+04 0.  0.
        5    1    3    3  502    0  0.17312362606E+04 -0.47654673506E+03  0.17143036875E+04  0.24825662133E+04  0.46999998093E+01 0. -1.
       -5    1    3    3    0  502 -0.17312362606E+04  0.47654673506E+03 -0.16719157875E+03  0.18033998155E+04  0.46999998093E+01 0.  1.
</event>
<event>
 5   0  0.1073271E-07  0.3999727E+04  0.7818609E-02  0.8004602E-01
        2   -1    0    0  501    0  0.00000000000E+00  0.00000000000E+00  0.21746561605E+04  0.21746561605E+04  0.25500000920E-02 0.  1.
       -2   -1    0    0    0  501  0.00000000000E+00  0.00000000000E+00 -0.18391204303E+04  0.18391204303E+04  0.25500000920E-02 0. -1.
    10030    2    1    2    0    0  0.00000000000E+00  0.00000000000E+00  0.33553573022E+03  0.40137765908E+04  0.39997272775E+04 0.  0.
        1    1    3    3  502    0  0.18762395188E+03  0.12885602559E+04  0.16909479850E+04  0.21342200844E+04  0.50400001928E-02 0.  1.
       -1    1    3    3    0  502 -0.18762395188E+03 -0.12885602559E+04 -0.13554122548E+04  0.18795565064E+04  0.50400001928E-02 0. -1.
</event>
<event>
 5   0  0.3399500E-08  0.4027801E+04  0.7818609E-02  0.7998962E-01
        1   -1    0    0  501    0  0.00000000000E+00  0.00000000000E+00  0.21775497781E+04  0.21775497781E+04  0.50400001928E-02 0.  1.
       -1   -1    0    0    0  501  0.00000000000E+00  0.00000000000E+00 -0.18625495897E+04  0.18625495897E+04  0.50400001928E-02 0. -1.
    10030    2    1    2    0    0  0.00000000000E+00  0.00000000000E+00  0.31500018840E+03  0.40400993678E+04  0.40278006136E+04 0.  0.
        1    1    3    3  502    0 -0.10271904339E+04 -0.94507553357E+03  0.16136582397E+04  0.21335840424E+04  0.50400001928E-02 0.  1.
       -1    1    3    3    0  502  0.10271904339E+04  0.94507553357E+03 -0.12986580513E+04  0.19065153253E+04  0.50400001928E-02 0. -1.
</event>
<event>
 5   0  0.1101474E-07  0.3991577E+04  0.7818609E-02  0.8006248E-01
       -2   -1    0    0    0  501  0.00000000000E+00  0.00000000000E+00  0.16330061942E+04  0.16330061942E+04  0.25500000920E-02 0. -1.
        2   -1    0    0  501    0  0.00000000000E+00  0.00000000000E+00 -0.24391654009E+04  0.24391654009E+04  0.25500000920E-02 0.  1.
    10030    2    1    2    0    0  0.00000000000E+00  0.00000000000E+00 -0.80615920671E+03  0.40721715951E+04  0.39915772363E+04 0.  0.
        5    1    3    3  502    0  0.13905497146E+03  0.70292148517E+03 -0.23034070831E+04  0.24122896136E+04  0.46999998093E+01 0.  1.
       -5    1    3    3    0  502 -0.13905497146E+03 -0.70292148517E+03  0.14972478764E+04  0.16598819816E+04  0.46999998093E+01 0. -1.
</event>
<event>
 5   0  0.1087688E-07  0.4188999E+04  0.7818609E-02  0.7967468E-01
        2   -1    0    0  501    0  0.00000000000E+00  0.00000000000E+00  0.16431112491E+04  0.16431112491E+04  0.25500000920E-02 0. -1.
       -2   -1    0    0    0  501  0.00000000000E+00  0.00000000000E+00 -0.26698907105E+04  0.26698907105E+04  0.25500000920E-02 0.  1.
    10030    2    1    2    0    0  0.00000000000E+00  0.00000000000E+00 -0.10267794614E+04  0.43130019597E+04  0.41889986681E+04 0.  0.
        2    1    3    3  502    0  0.62037800767E+03 -0.17425549866E+03  0.15385155172E+04  0.16680119448E+04  0.25500000920E-02 0. -1.
       -2    1    3    3    0  502 -0.62037800767E+03  0.17425549866E+03 -0.25652949786E+04  0.26449900149E+04  0.25500000920E-02 0.  1.
</event>
<event>
 5   0  0.1095903E-07  0.3989307E+04  0.7818609E-02  0.8006707E-01
       -2   -1    0    0    0  501  0.00000000000E+00  0.00000000000E+00  0.17835492719E+04  0.17835492719E+04  0.25500000920E-02 0. -1.
        2   -1    0    0  501    0  0.00000000000E+00  0.00000000000E+00 -0.22307440025E+04  0.22307440025E+04  0.25500000920E-02 0.  1.
    10030    2    1    2    0    0  0.00000000000E+00  0.00000000000E+00 -0.44719473063E+03  0.40142932743E+04  0.39893066271E+04 0.  0.
        3    1    3    3  502    0 -0.17008669711E+03 -0.10791728353E+04 -0.19029115115E+04  0.21942232621E+04  0.10100000352E+00 0.  1.
       -3    1    3    3    0  502  0.17008669711E+03  0.10791728353E+04  0.14557167809E+04  0.18200700122E+04  0.10100000352E+00 0. -1.
</event>
<event>
 5   0  0.3399500E-08  0.3812418E+04  0.7818609E-02  0.8043495E-01
       -1   -1    0    0    0  501  0.00000000000E+00  0.00000000000E+00  0.14395154925E+04  0.14395154925E+04  0.50400001928E-02 0.  1.
        1   -1    0    0  501    0  0.00000000000E+00  0.00000000000E+00 -0.25242048486E+04  0.25242048487E+04  0.50400001928E-02 0. -1.
    10030    2    1    2    0    0  0.00000000000E+00  0.00000000000E+00 -0.10846893562E+04  0.39637203411E+04  0.38124175982E+04 0.  0.
        1    1    3    3  502    0 -0.11021152932E+04 -0.11117150694E+03 -0.21552386842E+04  0.24232356488E+04  0.50400001928E-02 0. -1.
       -1    1    3    3    0  502  0.11021152932E+04  0.11117150694E+03  0.10705493281E+04  0.15404846923E+04  0.50400001928E-02 0.  1.
</event>
<event>
 5   0  0.1095903E-07  0.4007334E+04  0.7818609E-02  0.8003069E-01
        2   -1    0    0  501    0  0.00000000000E+00  0.00000000000E+00  0.19370606657E+04  0.19370606657E+04  0.25500000920E-02 0. -1.
       -2   -1    0    0    0  501  0.00000000000E+00  0.00000000000E+00 -0.20725639979E+04  0.20725639979E+04  0.25500000920E-02 0.  1.
    10030    2    1    2    0    0  0.00000000000E+00  0.00000000000E+00 -0.13550333215E+03  0.40096246636E+04  0.40073343746E+04 0.  0.
        3    1    3    3  502    0 -0.48374570130E+03  0.99516088805E+03  0.16036302417E+04  0.19483287861E+04  0.10100000352E+00 0. -1.
       -3    1    3    3    0  502  0.48374570130E+03 -0.99516088805E+03 -0.17391335738E+04  0.20612958775E+04  0.10100000352E+00 0.  1.
</event>
<event>
 5   0  0.1101474E-07  0.3995562E+04  0.7818609E-02  0.8005443E-01
        2   -1    0    0  501    0  0.00000000000E+00  0.00000000000E+00  0.18994840814E+04  0.18994840814E+04  0.25500000920E-02 0. -1.
       -2   -1    0    0    0  501  0.00000000000E+00  0.00000000000E+00 -0.21011642943E+04  0.21011642943E+04  0.25500000920E-02 0.  1.
    10030    2    1    2    0    0  0.00000000000E+00  0.00000000000E+00 -0.20168021291E+03  0.40006483757E+04  0.39955616023E+04 0.  0.
        5    1    3    3  502    0  0.13842228568E+04  0.11856334690E+04  0.71831291966E+03  0.19590291423E+04  0.46999998093E+01 0. -1.
       -5    1    3    3    0  502 -0.13842228568E+04 -0.11856334690E+04 -0.91999313257E+03  0.20416192333E+04  0.46999998093E+01 0.  1.
</event>
<event>
 5   0  0.3399500E-08  0.3899705E+04  0.7818609E-02  0.8025090E-01
        1   -1    0    0  501    0  0.00000000000E+00  0.00000000000E+00  0.25356883670E+04  0.25356883670E+04  0.50400001928E-02 0. -1.
       -1   -1    0    0    0  501  0.00000000000E+00  0.00000000000E+00 -0.14993661814E+04  0.14993661814E+04  0.50400001928E-02 0.  1.
    10030    2    1    2    0    0  0.00000000000E+00  0.00000000000E+00  0.10363221857E+04  0.40350545484E+04  0.38997053140E+04 0.  0.
        1    1    3    3  502    0  0.98357007135E+03 -0.32232603148E+03  0.22279730542E+04  0.24566579099E+04  0.50400001928E-02 0. -1.
       -1    1    3    3    0  502 -0.98357007135E+03  0.32232603148E+03 -0.11916508686E+04  0.15783966385E+04  0.50400001928E-02 0.  1.
</event>
<event>
 5   0  0.3399500E-08  0.3834025E+04  0.7818609E-02  0.8038892E-01
       -1   -1    0    0    0  501  0.00000000000E+00  0.00000000000E+00  0.18431326162E+04  0.18431326162E+04  0.50400001928E-02 0.  1.
        1   -1    0    0  501    0  0.00000000000E+00  0.00000000000E+00 -0.19938533844E+04  0.19938533844E+04  0.50400001928E-02 0. -1.
    10030    2    1    2    0    0  0.00000000000E+00  0.00000000000E+00 -0.15072076824E+03  0.38369860006E+04  0.38340246242E+04 0.  0.
        2    1    3    3  502    0 -0.15063256792E+04  0.11019683043E+04 -0.51340271251E+03  0.19356997548E+04  0.25500000920E-02 0. -1.
       -2    1    3    3    0  502  0.15063256792E+04 -0.11019683043E+04  0.36268194427E+03  0.19012862458E+04  0.25500000920E-02 0.  1.
</event>
<event>
 5   0  0.1095109E-07  0.4023055E+04  0.7818609E-02  0.7999912E-01
        2   -1    0    0  501    0  0.00000000000E+00  0.00000000000E+00  0.18588590250E+04  0.18588590250E+04  0.25500000920E-02 0.  1.
       -2   -1    0    0    0  501  0.00000000000E+00  0.00000000000E+00 -0.21767344432E+04  0.21767344432E+04  0.25500000920E-02 0. -1.
    10030    2    1    2    0    0  0.00000000000E+00  0.00000000000E+00 -0.31787541819E+03  0.40355934681E+04  0.40230547919E+04 0.  0.
        4    1    3    3  502    0  0.45781587339E+03  0.13186537582E+04  0.12939540818E+04  0.19033554284E+04  0.12699999809E+01 0.  1.
       -4    1    3    3    0  502 -0.45781587339E+03 -0.13186537582E+04 -0.16118295000E+04  0.21322380397E+04  0.12699999809E+01 0. -1.
</event>
<event>
 5   0  0.1095109E-07  0.3995563E+04  0.7818609E-02  0.8005442E-01
       -2   -1    0    0    0  501  0.00000000000E+00  0.00000000000E+00  0.20728071986E+04  0.20728071986E+04  0.25500000920E-02 0. -1.
        2   -1    0    0  501    0  0.00000000000E+00  0.00000000000E+00 -0.19254715769E+04  0.19254715769E+04  0.25500000920E-02 0.  1.
    10030    2    1    2    0    0  0.00000000000E+00  0.00000000000E+00  0.14733562168E+03  0.39982787754E+04  0.39955632120E+04 0.  0.
        4    1    3    3  502    0  0.11329349249E+04 -0.54110858112E+03 -0.14813476892E+04  0.19418374365E+04  0.12699999809E+01 0.  1.
       -4    1    3    3    0  502 -0.11329349249E+04  0.54110858112E+03  0.16286833109E+04  0.20564413390E+04  0.12699999809E+01 0. -1.
</event>
<event>
 5   0  0.1087688E-07  0.4007594E+04  0.7818609E-02  0.8003016E-01
        2   -1    0    0  501    0  0.00000000000E+00  0.00000000000E+00  0.17734705834E+04  0.17734705834E+04  0.25500000920E-02 0. -1.
       -2   -1    0    0    0  501  0.00000000000E+00  0.00000000000E+00 -0.22640368954E+04  0.22640368954E+04  0.25500000920E-02 0.  1.
    10030    2    1    2    0    0  0.00000000000E+00  0.00000000000E+00 -0.49056631199E+03  0.40375074787E+04  0.40075942078E+04 0.  0.
        2    1    3    3  502    0 -0.19481438140E+03 -0.19771408846E+04 -0.50831449342E+03  0.20507126432E+04  0.25500000920E-02 0.  1.
       -2    1    3    3    0  502  0.19481438140E+03  0.19771408846E+04  0.17748181429E+02  0.19867948356E+04  0.25500000920E-02 0. -1.
</event>
<event>
 5   0  0.1073271E-07  0.4039431E+04  0.7818609E-02  0.7996639E-01
       -2   -1    0    0    0  501  0.00000000000E+00  0.00000000000E+00  0.25786426077E+04  0.25786426077E+04  0.25500000920E-02 0. -1.
        2   -1    0    0  501    0  0.00000000000E+00  0.00000000000E+00 -0.15819370166E+04  0.15819370166E+04  0.25500000920E-02 0.  1.
    10030    2    1    2    0    0  0.00000000000E+00  0.00000000000E+00  0.99670559114E+03  0.41605796243E+04  0.40394307489E+04 0.  0.
        1    1    3    3  502    0 -0.14836975043E+04  0.51883538436E+03 -0.80803296607E+03  0.17673329383E+04  0.50400001928E-02 0.  1.
       -1    1    3    3    0  502  0.14836975043E+04 -0.51883538436E+03  0.18047385572E+04  0.23932466861E+04  0.50400001928E-02 0. -1.
</event>
<event>
 5   0  0.1095109E-07  0.4015700E+04  0.7818609E-02  0.8001387E-01
       -2   -1    0    0    0  501  0.00000000000E+00  0.00000000000E+00  0.14496187439E+04  0.14496187439E+04  0.25500000920E-02 0. -1.
        2   -1    0    0  501    0  0.00000000000E+00  0.00000000000E+00 -0.27810499950E+04  0.27810499950E+04  0.25500000920E-02 0.  1.
    10030    2    1    2    0    0  0.00000000000E+00  0.00000000000E+00 -0.13314312511E+04  0.42306687389E+04  0.40157002879E+04 0.  0.
        4    1    3    3  502    0 -0.25251866874E+03  0.18637511947E+04  0.74855467260E+02  0.18822696798E+04  0.12699999809E+01 0. -1.
       -4    1    3    3    0  502  0.25251866874E+03 -0.18637511947E+04 -0.14062867183E+04  0.23483990591E+04  0.12699999809E+01 0.  1.
</event>
<event>
 5   0  0.1095903E-07  0.3974289E+04  0.7818609E-02  0.8009753E-01
        2   -1    0    0  501    0  0.00000000000E+00  0.00000000000E+00  0.21566009895E+04  0.21566009895E+04  0.25500000920E-02 0.  1.
       -2   -1    0    0    0  501  0.00000000000E+00  0.00000000000E+00 -0.18310029817E+04  0.18310029817E+04  0.25500000920E-02 0. -1.
    10030    2    1    2    0    0  0.00000000000E+00  0.00000000000E+00  0.32559800783E+03  0.39876039713E+04  0.39742887878E+04 0.  0.
        3    1    3    3  502    0 -0.18854031951E+04  0.43341411191E+03 -0.29275942921E+03  0.19566044807E+04  0.10100000352E+00 0. -1.
       -3    1    3    3    0  502  0.18854031951E+04 -0.43341411191E+03  0.61835743704E+03  0.20309994905E+04  0.10100000352E+00 0.  1.
</event>
<event>
 5   0  0.3399500E-08  0.4068075E+04  0.7818609E-02  0.7990953E-01
       -1   -1    0    0    0  501  0.00000000000E+00  0.00000000000E+00  0.30150186273E+04  0.30150186273E+04  0.50400001928E-02 0.  1.
        1   -1    0    0  501    0  0.00000000000E+00  0.00000000000E+00 -0.13722333390E+04  0.13722333390E+04  0.50400001928E-02 0. -1.
    10030    2    1    2    0    0  0.00000000000E+00  0.00000000000E+00  0.16427852883E+04  0.43872519663E+04  0.40680752589E+04 0.  0.
        3    1    3    3  502    0  0.15542576392E+04  0.89048917797E+03 -0.21786425203E+03  0.18044812627E+04  0.10100000352E+00 0. -1.
       -3    1    3    3    0  502 -0.15542576392E+04 -0.89048917797E+03  0.18606495404E+04  0.25827707036E+04  0.10100000352E+00 0.  1.
</event>
<event>
 5   0  0.3399500E-08  0.3992243E+04  0.7818609E-02  0.8006113E-01
        1   -1    0    0  501    0  0.00000000000E+00  0.00000000000E+00  0.27797388266E+04  0.27797388266E+04  0.50400001928E-02 0.  1.
       -1   -1    0    0    0  501  0.00000000000E+00  0.00000000000E+00 -0.14334083871E+04  0.14334083871E+04  0.50400001928E-02 0. -1.
    10030    2    1    2    0    0  0.00000000000E+00  0.00000000000E+00  0.13463304395E+04  0.42131472137E+04  0.39922429525E+04 0.  0.
        3    1    3    3  502    0  0.79945935975E+03 -0.14255836428E+04  0.18824671882E+04  0.24930115754E+04  0.10100000352E+00 0.  1.
       -3    1    3    3    0  502 -0.79945935975E+03  0.14255836428E+04 -0.53613674868E+03  0.17201356382E+04  0.10100000352E+00 0. -1.
</event>
<event>
 5   0  0.3399500E-08  0.4055254E+04  0.7818609E-02  0.7993492E-01
        1   -1    0    0  501    0  0.00000000000E+00  0.00000000000E+00  0.26973624891E+04  0.26973624891E+04  0.50400001928E-02 0.  1.
       -1   -1    0    0    0  501  0.00000000000E+00  0.00000000000E+00 -0.15241818506E+04  0.15241818506E+04  0.50400001928E-02 0. -1.
    10030    2    1    2    0    0  0.00000000000E+00  0.00000000000E+00  0.11731806385E+04  0.42215443396E+04  0.40552538516E+04 0.  0.
        4    1    3    3  502    0  0.10004999835E+04 -0.38753650751E+02  0.24220608472E+04  0.26208552846E+04  0.12699999809E+01 0.  1.
       -4    1    3    3    0  502 -0.10004999835E+04  0.38753650751E+02 -0.12488802087E+04  0.16006890550E+04  0.12699999809E+01 0. -1.
</event>
<event>
 5   0  0.3399500E-08  0.3999786E+04  0.7818609E-02  0.8004590E-01
       -1   -1    0    0    0  501  0.00000000000E+00  0.00000000000E+00  0.32848964793E+04  0.32848964793E+04  0.50400001928E-02 0.  1.
        1   -1    0    0  501    0  0.00000000000E+00  0.00000000000E+00 -0.12175640766E+04  0.12175640766E+04  0.50400001928E-02 0. -1.
    10030    2    1    2    0    0  0.00000000000E+00  0.00000000000E+00  0.20673324027E+04  0.45024605559E+04  0.39997859686E+04 0.  0.
        3    1    3    3  502    0  0.66124534811E+03 -0.15978153077E+03  0.31506532137E+04  0.32232578598E+04  0.10100000352E+00 0.  1.
       -3    1    3    3    0  502 -0.66124534811E+03  0.15978153077E+03 -0.10833208110E+04  0.12792026961E+04  0.10100000352E+00 0. -1.
</event>
<event>
 5   0  0.1073271E-07  0.3986299E+04  0.7818609E-02  0.8007316E-01
        2   -1    0    0  501    0  0.00000000000E+00  0.00000000000E+00  0.25596615352E+04  0.25596615352E+04  0.25500000920E-02 0. -1.
       -2   -1    0    0    0  501  0.00000000000E+00  0.00000000000E+00 -0.15520195129E+04  0.15520195129E+04  0.25500000920E-02 0.  1.
    10030    2    1    2    0    0  0.00000000000E+00  0.00000000000E+00  0.10076420224E+04  0.41116810481E+04  0.39862988594E+04 0.  0.
        1    1    3    3  502    0 -0.31269174961E+03  0.13329540530E+04 -0.99022118302E+03  0.16896983840E+04  0.50400001928E-02 0.  1.
       -1    1    3    3    0  502  0.31269174961E+03 -0.13329540530E+04  0.19978632054E+04  0.24219826641E+04  0.50400001928E-02 0. -1.
</event>
<event>
 5   0  0.1095109E-07  0.4033826E+04  0.7818609E-02  0.7997757E-01
       -2   -1    0    0    0  501  0.00000000000E+00  0.00000000000E+00  0.15349057304E+04  0.15349057304E+04  0.25500000920E-02 0. -1.
        2   -1    0    0  501    0  0.00000000000E+00  0.00000000000E+00 -0.26502848424E+04  0.26502848424E+04  0.25500000920E-02 0.  1.
    10030    2    1    2    0    0  0.00000000000E+00  0.00000000000E+00 -0.11153791120E+04  0.41851905728E+04  0.40338256739E+04 0.  0.
        4    1    3    3  502    0 -0.20146746702E+04  0.87695505304E+02 -0.51983414189E+03  0.20825065850E+04  0.12699999809E+01 0. -1.
       -4    1    3    3    0  502  0.20146746702E+04 -0.87695505304E+02 -0.59554497010E+03  0.21026839878E+04  0.12699999809E+01 0.  1.
</event>
<event>
 5   0  0.1087688E-07  0.4007373E+04  0.7818609E-02  0.8003061E-01
       -2   -1    0    0    0  501  0.00000000000E+00  0.00000000000E+00  0.34153593139E+04  0.34153593139E+04  0.25500000920E-02 0. -1.
        2   -1    0    0  501    0  0.00000000000E+00  0.00000000000E+00 -0.11755013510E+04  0.11755013510E+04  0.25500000920E-02 0.  1.
    10030    2    1    2    0    0  0.00000000000E+00  0.00000000000E+00  0.22398579628E+04  0.45908606649E+04  0.40073729488E+04 0.  0.
        2    1    3    3  502    0  0.10827388195E+04  0.48479021065E+03  0.29697912541E+04  0.31979688855E+04  0.25500000920E-02 0. -1.
       -2    1    3    3    0  502 -0.10827388195E+04 -0.48479021065E+03 -0.72993329126E+03  0.13928917794E+04  0.25500000920E-02 0.  1.
</event>
<event>
 5   0  0.3399500E-08  0.3985223E+04  0.7818609E-02  0.8007534E-01
       -1   -1    0    0    0  501  0.00000000000E+00  0.00000000000E+00  0.19159850815E+04  0.19159850815E+04  0.50400001928E-02 0.  1.
        1   -1    0    0  501    0  0.00000000000E+00  0.00000000000E+00 -0.20723022095E+04  0.20723022095E+04  0.50400001928E-02 0. -1.
    10030    2    1    2    0    0  0.00000000000E+00  0.00000000000E+00 -0.15631712800E+03  0.39882872910E+04  0.39852227630E+04 0.  0.
        3    1    3    3  502    0 -0.11281626324E+04 -0.80185907768E+03 -0.15127081599E+04  0.20503694528E+04  0.10100000352E+00 0. -1.
       -3    1    3    3    0  502  0.11281626324E+04  0.80185907768E+03  0.13563910319E+04  0.19379178381E+04  0.10100000352E+00 0.  1.
</event>
<event>
 5   0  0.1073271E-07  0.3985380E+04  0.7818609E-02  0.8007502E-01
       -2   -1    0    0    0  501  0.00000000000E+00  0.00000000000E+00  0.12803293776E+04  0.12803293776E+04  0.25500000920E-02 0.  1.
        2   -1    0    0  501    0  0.00000000000E+00  0.00000000000E+00 -0.31014004825E+04  0.31014004825E+04  0.25500000920E-02 0. -1.
    10030    2    1    2    0    0  0.00000000000E+00  0.00000000000E+00 -0.18210711049E+04  0.43817298601E+04  0.39853803579E+04 0.  0.
        1    1    3    3  502    0  0.20604667201E+03 -0.83746988694E+03 -0.28855738206E+04  0.30117017310E+04  0.50400001928E-02 0. -1.
       -1    1    3    3    0  502 -0.20604667201E+03  0.83746988694E+03  0.10645027157E+04  0.13700281290E+04  0.50400001928E-02 0.  1.
</event>
<event>
 5   0  0.3399500E-08  0.4130029E+04  0.7818609E-02  0.7978817E-01
        1   -1    0    0  501    0  0.00000000000E+00  0.00000000000E+00  0.20526972466E+04  0.20526972466E+04  0.50400001928E-02 0.  1.
       -1   -1    0    0    0  501  0.00000000000E+00  0.00000000000E+00 -0.20774061625E+04  0.20774061625E+04  0.50400001928E-02 0. -1.
    10030    2    1    2    0    0  0.00000000000E+00  0.00000000000E+00 -0.24708915836E+02  0.41301034091E+04  0.41300294962E+04 0.  0.
        4    1    3    3  502    0 -0.98468340756E+03  0.17094368700E+04 -0.62270010153E+03  0.20687031819E+04  0.12699999809E+01 0. -1.
       -4    1    3    3    0  502  0.98468340756E+03 -0.17094368700E+04  0.59799118569E+03  0.20614002272E+04  0.12699999809E+01 0.  1.
</event>
<event>
 5   0  0.3399500E-08  0.4035831E+04  0.7818609E-02  0.7997357E-01
       -1   -1    0    0    0  501  0.00000000000E+00  0.00000000000E+00  0.26510511660E+04  0.26510511660E+04  0.50400001928E-02 0.  1.
        1   -1    0    0  501    0  0.00000000000E+00  0.00000000000E+00 -0.15359884338E+04  0.15359884338E+04  0.50400001928E-02 0. -1.
    10030    2    1    2    0    0  0.00000000000E+00  0.00000000000E+00  0.11150627322E+04  0.41870395998E+04  0.40358314773E+04 0.  0.
        3    1    3    3  502    0 -0.49224320113E+03 -0.64419929746E+03 -0.13595897353E+04  0.15829656858E+04  0.10100000352E+00 0. -1.
       -3    1    3    3    0  502  0.49224320113E+03  0.64419929746E+03  0.24746524676E+04  0.26040739139E+04  0.10100000352E+00 0.  1.
</event>
<event>
 5   0  0.3399500E-08  0.4004432E+04  0.7818609E-02  0.8003653E-01
       -1   -1    0    0    0  501  0.00000000000E+00  0.00000000000E+00  0.26005040299E+04  0.26005040299E+04  0.50400001928E-02 0.  1.
        1   -1    0    0  501    0  0.00000000000E+00  0.00000000000E+00 -0.15415737231E+04  0.15415737231E+04  0.50400001928E-02 0. -1.
    10030    2    1    2    0    0  0.00000000000E+00  0.00000000000E+00  0.10589303068E+04  0.41420777530E+04  0.40044318845E+04 0.  0.
        1    1    3    3  502    0  0.76478858971E+03  0.12353240897E+04  0.19544778890E+04  0.24353461791E+04  0.50400001928E-02 0.  1.
       -1    1    3    3    0  502 -0.76478858971E+03 -0.12353240897E+04 -0.89554758218E+03  0.17067315739E+04  0.50400001928E-02 0. -1.
</event>
<event>
 5   0  0.3399500E-08  0.3945441E+04  0.7818609E-02  0.8015644E-01
       -1   -1    0    0    0  501  0.00000000000E+00  0.00000000000E+00  0.23923393967E+04  0.23923393968E+04  0.50400001928E-02 0. -1.
        1   -1    0    0  501    0  0.00000000000E+00  0.00000000000E+00 -0.16267029112E+04  0.16267029112E+04  0.50400001928E-02 0.  1.
    10030    2    1    2    0    0  0.00000000000E+00  0.00000000000E+00  0.76563648555E+03  0.40190423080E+04  0.39454406402E+04 0.  0.
        3    1    3    3  502    0 -0.40248535738E+03 -0.15701413141E+04  0.15281991567E+04  0.22277187619E+04  0.10100000352E+00 0. -1.
       -3    1    3    3    0  502  0.40248535738E+03  0.15701413141E+04 -0.76256267115E+03  0.17913235461E+04  0.10100000352E+00 0.  1.
</event>
<event>
 5   0  0.1095109E-07  0.4016413E+04  0.7818609E-02  0.8001244E-01
       -2   -1    0    0    0  501  0.00000000000E+00  0.00000000000E+00  0.24146211874E+04  0.24146211874E+04  0.25500000920E-02 0.  1.
        2   -1    0    0  501    0  0.00000000000E+00  0.00000000000E+00 -0.16701974964E+04  0.16701974964E+04  0.25500000920E-02 0. -1.
    10030    2    1    2    0    0  0.00000000000E+00  0.00000000000E+00  0.74442369105E+03  0.40848186838E+04  0.40164134557E+04 0.  0.
        4    1    3    3  502    0  0.19336233611E+04 -0.53897954851E+03  0.31209167230E+03  0.20314529483E+04  0.12699999809E+01 0.  1.
       -4    1    3    3    0  502 -0.19336233611E+04  0.53897954851E+03  0.43233201875E+03  0.20533657355E+04  0.12699999809E+01 0. -1.
</event>
<event>
 5   0  0.1073271E-07  0.4024638E+04  0.7818609E-02  0.7999595E-01
        2   -1    0    0  501    0  0.00000000000E+00  0.00000000000E+00  0.17069671508E+04  0.17069671508E+04  0.25500000920E-02 0.  1.
       -2   -1    0    0    0  501  0.00000000000E+00  0.00000000000E+00 -0.23722937748E+04  0.23722937748E+04  0.25500000920E-02 0. -1.
    10030    2    1    2    0    0  0.00000000000E+00  0.00000000000E+00 -0.66532662401E+03  0.40792609257E+04  0.40246378946E+04 0.  0.
        1    1    3    3  502    0  0.14299555372E+04  0.81750465574E+03  0.83902822950E+03  0.18485278117E+04  0.50400001928E-02 0. -1.
       -1    1    3    3    0  502 -0.14299555372E+04 -0.81750465574E+03 -0.15043548535E+04  0.22307331140E+04  0.50400001928E-02 0.  1.
</event>
<event>
 5   0  0.3399500E-08  0.4055355E+04  0.7818609E-02  0.7993472E-01
       -1   -1    0    0    0  501  0.00000000000E+00  0.00000000000E+00  0.14157511547E+04  0.14157511547E+04  0.50400001928E-02 0. -1.
        1   -1    0    0  501    0  0.00000000000E+00  0.00000000000E+00 -0.29040951499E+04  0.29040951499E+04  0.50400001928E-02 0.  1.
    10030    2    1    2    0    0  0.00000000000E+00  0.00000000000E+00 -0.14883439952E+04  0.43198463047E+04  0.40553550089E+04 0.  0.
        4    1    3    3  502    0  0.32325447864E+03 -0.29833771732E+03 -0.28526558534E+04  0.28863724434E+04  0.12699999809E+01 0.  1.
       -4    1    3    3    0  502 -0.32325447864E+03  0.29833771732E+03  0.13643118582E+04  0.14334738612E+04  0.12699999809E+01 0. -1.
</event>
<event>
 5   0  0.1101474E-07  0.3811848E+04  0.7818609E-02  0.8043617E-01
        2   -1    0    0  501    0  0.00000000000E+00  0.00000000000E+00  0.27447683370E+04  0.27447683370E+04  0.25500000920E-02 0. -1.
       -2   -1    0    0    0  501  0.00000000000E+00  0.00000000000E+00 -0.13234433908E+04  0.13234433908E+04  0.25500000920E-02 0.  1.
    10030    2    1    2    0    0  0.00000000000E+00  0.00000000000E+00  0.14213249462E+04  0.40682117278E+04  0.38118475913E+04 0.  0.
        5    1    3    3  502    0  0.10983179622E+04 -0.13828732542E+04 -0.54405449485E+02  0.17668114857E+04  0.46999998093E+01 0.  1.
       -5    1    3    3    0  502 -0.10983179622E+04  0.13828732542E+04  0.14757303957E+04  0.23014002420E+04  0.46999998093E+01 0. -1.
</event>
<event>
 5   0  0.3399500E-08  0.3988355E+04  0.7818609E-02  0.8006900E-01
       -1   -1    0    0    0  501  0.00000000000E+00  0.00000000000E+00  0.15568003805E+04  0.15568003805E+04  0.50400001928E-02 0.  1.
        1   -1    0    0  501    0  0.00000000000E+00  0.00000000000E+00 -0.25544343470E+04  0.25544343470E+04  0.50400001928E-02 0. -1.
    10030    2    1    2    0    0  0.00000000000E+00  0.00000000000E+00 -0.99763396657E+03  0.41112347275E+04  0.39883552316E+04 0.  0.
        4    1    3    3  502    0  0.41696008018E+03 -0.15679700880E+04 -0.16940036012E+04  0.23456418565E+04  0.12699999809E+01 0. -1.
       -4    1    3    3    0  502 -0.41696008018E+03  0.15679700880E+04  0.69636963460E+03  0.17655928710E+04  0.12699999809E+01 0.  1.
</event>
<event>
 5   0  0.3399500E-08  0.3995691E+04  0.7818609E-02  0.8005416E-01
       -1   -1    0    0    0  501  0.00000000000E+00  0.00000000000E+00  0.21048414881E+04  0.21048414881E+04  0.50400001928E-02 0. -1.
        1   -1    0    0  501    0  0.00000000000E+00  0.00000000000E+00 -0.18962881372E+04  0.18962881372E+04  0.50400001928E-02 0.  1.
    10030    2    1    2    0    0  0.00000000000E+00  0.00000000000E+00  0.20855335094E+03  0.40011296253E+04  0.39956906510E+04 0.  0.
        1    1    3    3  502    0  0.68192121880E+03 -0.10969398695E+04  0.16305207767E+04  0.20801181767E+04  0.50400001928E-02 0. -1.
       -1    1    3    3    0  502 -0.68192121880E+03  0.10969398695E+04 -0.14219674257E+04  0.19210114486E+04  0.50400001928E-02 0.  1.
</event>
<event>
 5   0  0.3399500E-08  0.4033336E+04  0.7818609E-02  0.7997855E-01
       -1   -1    0    0    0  501  0.00000000000E+00  0.00000000000E+00  0.33688773317E+04  0.33688773317E+04  0.50400001928E-02 0. -1.
        1   -1    0    0  501    0  0.00000000000E+00  0.00000000000E+00 -0.12072123773E+04  0.12072123773E+04  0.50400001928E-02 0.  1.
    10030    2    1    2    0    0  0.00000000000E+00  0.00000000000E+00  0.21616649544E+04  0.45760897090E+04  0.40333362927E+04 0.  0.
        3    1    3    3  502    0  0.18376124471E+04  0.82941278730E+03  0.11341127404E+04  0.23132135214E+04  0.10100000352E+00 0. -1.
       -3    1    3    3    0  502 -0.18376124471E+04 -0.82941278730E+03  0.10275522140E+04  0.22628761876E+04  0.10100000352E+00 0.  1.
</event>
<event>
 5   0  0.3399500E-08  0.4003723E+04  0.7818609E-02  0.8003796E-01
       -1   -1    0    0    0  501  0.00000000000E+00  0.00000000000E+00  0.17425993683E+04  0.17425993683E+04  0.50400001928E-02 0. -1.
        1   -1    0    0  501    0  0.00000000000E+00  0.00000000000E+00 -0.22996963638E+04  0.22996963638E+04  0.50400001928E-02 0.  1.
    10030    2    1    2    0    0  0.00000000000E+00  0.00000000000E+00 -0.55709699551E+03  0.40422957321E+04  0.40037229828E+04 0.  0.
        3    1    3    3  502    0 -0.13359220430E+04 -0.11655933023E+04  0.66000628380E+03  0.18917990792E+04  0.10100000352E+00 0. -1.
       -3    1    3    3    0  502  0.13359220430E+04  0.11655933023E+04 -0.12171032793E+04  0.21504966529E+04  0.10100000352E+00 0.  1.
</event>
<event>
 5   0  0.1101474E-07  0.4090161E+04  0.7818609E-02  0.7986601E-01
       -2   -1    0    0    0  501  0.00000000000E+00  0.00000000000E+00  0.14356863839E+04  0.14356863839E+04  0.25500000920E-02 0.  1.
        2   -1    0    0  501    0  0.00000000000E+00  0.00000000000E+00 -0.29131397683E+04  0.29131397683E+04  0.25500000920E-02 0. -1.
    10030    2    1    2    0    0  0.00000000000E+00  0.00000000000E+00 -0.14774533844E+04  0.43488261522E+04  0.40901614147E+04 0.  0.
        5    1    3    3  502    0  0.18778218280E+02 -0.20411841191E+04 -0.87130296218E+03  0.22194540255E+04  0.46999998093E+01 0. -1.
       -5    1    3    3    0  502 -0.18778218280E+02  0.20411841191E+04 -0.60615042221E+03  0.21293721267E+04  0.46999998093E+01 0.  1.
</event>
<event>
 5   0  0.1073271E-07  0.4014194E+04  0.7818609E-02  0.8001689E-01
        2   -1    0    0  501    0  0.00000000000E+00  0.00000000000E+00  0.21835693893E+04  0.21835693893E+04  0.25500000920E-02 0.  1.
       -2   -1    0    0    0  501  0.00000000000E+00  0.00000000000E+00 -0.18448866423E+04  0.18448866423E+04  0.25500000920E-02 0. -1.
    10030    2    1    2    0    0  0.00000000000E+00  0.00000000000E+00  0.33868274692E+03  0.40284560316E+04  0.40141938164E+04 0.  0.
        1    1    3    3  502    0 -0.57973381873E+03 -0.14492037029E+04  0.14356308779E+04  0.21206882587E+04  0.50400001928E-02 0.  1.
       -1    1    3    3    0  502  0.57973381873E+03  0.14492037029E+04 -0.10969481310E+04  0.19077677729E+04  0.50400001928E-02 0. -1.
</event>
<event>
 5   0  0.3399500E-08  0.3602749E+04  0.7818609E-02  0.8089862E-01
       -1   -1    0    0    0  501  0.00000000000E+00  0.00000000000E+00  0.21550631963E+04  0.21550631963E+04  0.50400001928E-02 0.  1.
        1   -1    0    0  501    0  0.00000000000E+00  0.00000000000E+00 -0.15057335388E+04  0.15057335388E+04  0.50400001928E-02 0. -1.
    10030    2    1    2    0    0  0.00000000000E+00  0.00000000000E+00  0.64932965754E+03  0.36607967351E+04  0.36027494683E+04 0.  0.
        4    1    3    3  502    0 -0.13444704238E+04  0.30656814972E+03  0.15023751944E+04  0.20392934043E+04  0.12699999809E+01 0.  1.
       -4    1    3    3    0  502  0.13444704238E+04 -0.30656814972E+03 -0.85304553690E+03  0.16215033308E+04  0.12699999809E+01 0. -1.
</event>
<event>
 5   0  0.3399500E-08  0.4129462E+04  0.7818609E-02  0.7978927E-01
        1   -1    0    0  501    0  0.00000000000E+00  0.00000000000E+00  0.25637923254E+04  0.25637923254E+04  0.50400001928E-02 0. -1.
       -1   -1    0    0    0  501  0.00000000000E+00  0.00000000000E+00 -0.16628157123E+04  0.16628157123E+04  0.50400001928E-02 0.  1.
    10030    2    1    2    0    0  0.00000000000E+00  0.00000000000E+00  0.90097661305E+03  0.42266080377E+04  0.41294620288E+04 0.  0.
        5    1    3    3  502    0 -0.16737372411E+04  0.24952406477E+03 -0.76031786090E+03  0.18551991674E+04  0.46999998093E+01 0.  1.
       -5    1    3    3    0  502  0.16737372411E+04 -0.24952406477E+03  0.16612944739E+04  0.23714088703E+04  0.46999998093E+01 0. -1.
</event>
<event>
 5   0  0.1101474E-07  0.3731941E+04  0.7818609E-02  0.8060920E-01
        2   -1    0    0  501    0  0.00000000000E+00  0.00000000000E+00  0.15372227011E+04  0.15372227011E+04  0.25500000920E-02 0.  1.
       -2   -1    0    0    0  501  0.00000000000E+00  0.00000000000E+00 -0.22650237773E+04  0.22650237773E+04  0.25500000920E-02 0. -1.
    10030    2    1    2    0    0  0.00000000000E+00  0.00000000000E+00 -0.72780107616E+03  0.38022464783E+04  0.37319410332E+04 0.  0.
        5    1    3    3  502    0 -0.11107659913E+04 -0.39001005543E+03 -0.18389015587E+04  0.21834582578E+04  0.46999998093E+01 0. -1.
       -5    1    3    3    0  502  0.11107659913E+04  0.39001005543E+03  0.11111004826E+04  0.16187882206E+04  0.46999998093E+01 0.  1.
</event>
<event>
 5   0  0.3399500E-08  0.4020971E+04  0.7818609E-02  0.8000329E-01
        1   -1    0    0  501    0  0.00000000000E+00  0.00000000000E+00  0.27303450980E+04  0.27303450980E+04  0.50400001928E-02 0. -1.
       -1   -1    0    0    0  501  0.00000000000E+00  0.00000000000E+00 -0.14804180702E+04  0.14804180703E+04  0.50400001928E-02 0.  1.
    10030    2    1    2    0    0  0.00000000000E+00  0.00000000000E+00  0.12499270278E+04  0.42107631683E+04  0.40209711370E+04 0.  0.
        5    1    3    3  502    0 -0.46893971505E+01 -0.19392110084E+04  0.69385571506E+02  0.19404632882E+04  0.46999998093E+01 0.  1.
       -5    1    3    3    0  502  0.46893971505E+01  0.19392110084E+04  0.11805414563E+04  0.22702998800E+04  0.46999998093E+01 0. -1.
</event>
<event>
 5   0  0.3399500E-08  0.3979725E+04  0.7818609E-02  0.8008649E-01
       -1   -1    0    0    0  501  0.00000000000E+00  0.00000000000E+00  0.19571444495E+04  0.19571444495E+04  0.50400001928E-02 0.  1.
        1   -1    0    0  501    0  0.00000000000E+00  0.00000000000E+00 -0.20231272134E+04  0.20231272134E+04  0.50400001928E-02 0. -1.
    10030    2    1    2    0    0  0.00000000000E+00  0.00000000000E+00 -0.65982763890E+02  0.39802716629E+04  0.39797247123E+04 0.  0.
        3    1    3    3  502    0  0.16061580796E+04  0.21007842456E+03  0.11228817190E+04  0.19709744002E+04  0.10100000352E+00 0.  1.
       -3    1    3    3    0  502 -0.16061580796E+04 -0.21007842456E+03 -0.11888644829E+04  0.20092972627E+04  0.10100000352E+00 0. -1.
</event>
<event>
 5   0  0.1095109E-07  0.3990102E+04  0.7818609E-02  0.8006546E-01
        2   -1    0    0  501    0  0.00000000000E+00  0.00000000000E+00  0.29896864440E+04  0.29896864440E+04  0.25500000920E-02 0.  1.
       -2   -1    0    0    0  501  0.00000000000E+00  0.00000000000E+00 -0.13313196499E+04  0.13313196499E+04  0.25500000920E-02 0. -1.
    10030    2    1    2    0    0  0.00000000000E+00  0.00000000000E+00  0.16583667941E+04  0.43210060939E+04  0.39901019084E+04 0.  0.
        4    1    3    3  502    0 -0.15773896426E+04 -0.12100537738E+04  0.10098690318E+04  0.22298487156E+04  0.12699999809E+01 0.  1.
       -4    1    3    3    0  502  0.15773896426E+04  0.12100537738E+04  0.64849776237E+03  0.20911573783E+04  0.12699999809E+01 0. -1.
</event>
<event>
 5   0  0.1087688E-07  0.4041465E+04  0.7818609E-02  0.7996234E-01
        2   -1    0    0  501    0  0.00000000000E+00  0.00000000000E+00  0.15087631738E+04  0.15087631738E+04  0.25500000920E-02 0.  1.
       -2   -1    0    0    0  501  0.00000000000E+00  0.00000000000E+00 -0.27064281482E+04  0.27064281482E+04  0.25500000920E-02 0. -1.
    10030    2    1    2    0    0  0.00000000000E+00  0.00000000000E+00 -0.11976649745E+04  0.42151913220E+04  0.40414646467E+04 0.  0.
        2    1    3    3  502    0  0.21729488355E+03  0.89062369010E+03 -0.24770565272E+04  0.26412566446E+04  0.25500000920E-02 0. -1.
       -2    1    3    3    0  502 -0.21729488355E+03 -0.89062369010E+03  0.12793915527E+04  0.15739346775E+04  0.25500000920E-02 0.  1.
</event>
<event>
 5   0  0.3399500E-08  0.3989351E+04  0.7818609E-02  0.8006698E-01
       -1   -1    0    0    0  501  0.00000000000E+00  0.00000000000E+00  0.13542129359E+04  0.13542129360E+04  0.50400001928E-02 0. -1.
        1   -1    0    0  501    0  0.00000000000E+00  0.00000000000E+00 -0.29380387650E+04  0.29380387650E+04  0.50400001928E-02 0.  1.
    10030    2    1    2    0    0  0.00000000000E+00  0.00000000000E+00 -0.15838258291E+04  0.42922517010E+04  0.39893508755E+04 0.  0.
        2    1    3    3  502    0  0.11227188609E+04  0.10717339045E+04  0.55605655394E+03  0.16487298426E+04  0.25500000920E-02 0. -1.
       -2    1    3    3    0  502 -0.11227188609E+04 -0.10717339045E+04 -0.21398823830E+04  0.26435218584E+04  0.25500000920E-02 0.  1.
</event>
<event>
 5   0  0.1087688E-07  0.3955519E+04  0.7818609E-02  0.8013580E-01
       -2   -1    0    0    0  501  0.00000000000E+00  0.00000000000E+00  0.22572526874E+04  0.22572526874E+04  0.25500000920E-02 0.  1.
        2   -1    0    0  501    0  0.00000000000E+00  0.00000000000E+00 -0.17328731986E+04  0.17328731986E+04  0.25500000920E-02 0. -1.
    10030    2    1    2    0    0  0.00000000000E+00  0.00000000000E+00  0.52437948880E+03  0.39901258861E+04  0.39555190226E+04 0.  0.
        2    1    3    3  502    0  0.48889545473E+03 -0.18206148692E+04 -0.34127104106E+03  0.19157565584E+04  0.25500000920E-02 0. -1.
       -2    1    3    3    0  502 -0.48889545473E+03  0.18206148692E+04  0.86565052986E+03  0.20743693277E+04  0.25500000920E-02 0.  1.
</event>
<event>
 5   0  0.3399500E-08  0.3976695E+04  0.7818609E-02  0.8009264E-01
       -1   -1    0    0    0  501  0.00000000000E+00  0.00000000000E+00  0.15698399544E+04  0.15698399544E+04  0.50400001928E-02 0. -1.
        1   -1    0    0  501    0  0.00000000000E+00  0.00000000000E+00 -0.25184258533E+04  0.25184258533E+04  0.50400001928E-02 0.  1.
    10030    2    1    2    0    0  0.00000000000E+00  0.00000000000E+00 -0.94858589897E+03  0.40882658077E+04  0.39766948722E+04 0.  0.
        2    1    3    3  502    0 -0.75267379155E+03  0.12795074466E+04  0.88564642357E+03  0.17285909667E+04  0.25500000920E-02 0. -1.
       -2    1    3    3    0  502  0.75267379155E+03 -0.12795074466E+04 -0.18342323225E+04  0.23596748411E+04  0.25500000920E-02 0.  1.
</event>
<event>
 5   0  0.3399500E-08  0.3997520E+04  0.7818609E-02  0.8005047E-01
        1   -1    0    0  501    0  0.00000000000E+00  0.00000000000E+00  0.23866765299E+04  0.23866765299E+04  0.50400001928E-02 0. -1.
       -1   -1    0    0    0  501  0.00000000000E+00  0.00000000000E+00 -0.16738934520E+04  0.16738934520E+04  0.50400001928E-02 0.  1.
    10030    2    1    2    0    0  0.00000000000E+00  0.00000000000E+00  0.71278307791E+03  0.40605699819E+04  0.39975203391E+04 0.  0.
        3    1    3    3  502    0  0.25639197974E+02  0.15032025993E+04 -0.98148755200E+03  0.17954367848E+04  0.10100000352E+00 0.  1.
       -3    1    3    3    0  502 -0.25639197974E+02 -0.15032025993E+04  0.16942706299E+04  0.22651331971E+04  0.10100000352E+00 0. -1.
</event>
<event>
 5   0  0.1087688E-07  0.4018510E+04  0.7818609E-02  0.8000823E-01
        2   -1    0    0  501    0  0.00000000000E+00  0.00000000000E+00  0.24269845799E+04  0.24269845799E+04  0.25500000920E-02 0.  1.
       -2   -1    0    0    0  501  0.00000000000E+00  0.00000000000E+00 -0.16634241811E+04  0.16634241811E+04  0.25500000920E-02 0. -1.
    10030    2    1    2    0    0  0.00000000000E+00  0.00000000000E+00  0.76356039881E+03  0.40904087609E+04  0.40185095930E+04 0.  0.
        2    1    3    3  502    0 -0.82840827700E+03  0.17829325286E+04  0.80392464442E+03  0.21240064757E+04  0.25500000920E-02 0.  1.
       -2    1    3    3    0  502  0.82840827700E+03 -0.17829325286E+04 -0.40364245608E+02  0.19664022852E+04  0.25500000920E-02 0. -1.
</event>
<event>
 5   0  0.1095109E-07  0.4000880E+04  0.7818609E-02  0.8004369E-01
        2   -1    0    0  501    0  0.00000000000E+00  0.00000000000E+00  0.12174468207E+04  0.12174468207E+04  0.25500000920E-02 0. -1.
       -2   -1    0    0    0  501  0.00000000000E+00  0.00000000000E+00 -0.32870108945E+04  0.32870108945E+04  0.25500000920E-02 0.  1.
    10030    2    1    2    0    0  0.00000000000E+00  0.00000000000E+00 -0.20695640738E+04  0.45044577152E+04  0.40008803847E+04 0.  0.
        4    1    3    3  502    0  0.23405799177E+02  0.17435444699E+04  0.69063564078E+02  0.17450692075E+04  0.12699999809E+01 0.  1.
       -4    1    3    3    0  502 -0.23405799177E+02 -0.17435444699E+04 -0.21386276379E+04  0.27593885077E+04  0.12699999809E+01 0. -1.
</event>
<event>
 5   0  0.1073271E-07  0.3974413E+04  0.7818609E-02  0.8009728E-01
       -2   -1    0    0    0  501  0.00000000000E+00  0.00000000000E+00  0.18523792972E+04  0.18523792972E+04  0.25500000920E-02 0.  1.
        2   -1    0    0  501    0  0.00000000000E+00  0.00000000000E+00 -0.21318468133E+04  0.21318468133E+04  0.25500000920E-02 0. -1.
    10030    2    1    2    0    0  0.00000000000E+00  0.00000000000E+00 -0.27946751607E+03  0.39842261104E+04  0.39744126115E+04 0.  0.
        1    1    3    3  502    0 -0.86635433833E+03  0.54799994363E+02  0.16522527243E+04  0.18664168730E+04  0.50400001928E-02 0.  1.
       -1    1    3    3    0  502  0.86635433833E+03 -0.54799994363E+02 -0.19317202404E+04  0.21178092374E+04  0.50400001928E-02 0. -1.
</event>
<event>
 5   0  0.1073271E-07  0.4041092E+04  0.7818609E-02  0.7996308E-01
        2   -1    0    0  501    0  0.00000000000E+00  0.00000000000E+00  0.29543697175E+04  0.29543697175E+04  0.25500000920E-02 0.  1.
       -2   -1    0    0    0  501  0.00000000000E+00  0.00000000000E+00 -0.13818876098E+04  0.13818876098E+04  0.25500000920E-02 0. -1.
    10030    2    1    2    0    0  0.00000000000E+00  0.00000000000E+00  0.15724821076E+04  0.43362573273E+04  0.40410923808E+04 0.  0.
        1    1    3    3  502    0 -0.25289834594E+03 -0.66827410632E+03  0.28142766945E+04  0.29035669732E+04  0.50400001928E-02 0.  1.
       -1    1    3    3    0  502  0.25289834594E+03  0.66827410632E+03 -0.12417945869E+04  0.14326903541E+04  0.50400001928E-02 0. -1.
</event>
<event>
 5   0  0.3399500E-08  0.4000449E+04  0.7818609E-02  0.8004456E-01
       -1   -1    0    0    0  501  0.00000000000E+00  0.00000000000E+00  0.28713931629E+04  0.28713931629E+04  0.50400001928E-02 0. -1.
        1   -1    0    0  501    0  0.00000000000E+00  0.00000000000E+00 -0.13933646706E+04  0.13933646706E+04  0.50400001928E-02 0.  1.
    10030    2    1    2    0    0  0.00000000000E+00  0.00000000000E+00  0.14780284923E+04  0.42647578335E+04  0.40004488691E+04 0.  0.
        2    1    3    3  502    0  0.57894907229E+02  0.18964720351E+04  0.14140475968E+04  0.23663238591E+04  0.25500000920E-02 0.  1.
       -2    1    3    3    0  502 -0.57894907229E+02 -0.18964720351E+04  0.63980895515E+02  0.18984339744E+04  0.25500000920E-02 0. -1.
</event>
<event>
 5   0  0.3399500E-08  0.4004303E+04  0.7818609E-02  0.8003679E-01
       -1   -1    0    0    0  501  0.00000000000E+00  0.00000000000E+00  0.13650079765E+04  0.13650079765E+04  0.50400001928E-02 0.  1.
        1   -1    0    0  501    0  0.00000000000E+00  0.00000000000E+00 -0.29366935974E+04  0.29366935974E+04  0.50400001928E-02 0. -1.
    10030    2    1    2    0    0  0.00000000000E+00  0.00000000000E+00 -0.15716856208E+04  0.43017015739E+04  0.40043027783E+04 0.  0.
        2    1    3    3  502    0  0.83688343836E+03  0.13413530339E+04 -0.21054941078E+04  0.26330034730E+04  0.25500000920E-02 0. -1.
       -2    1    3    3    0  502 -0.83688343836E+03 -0.13413530339E+04  0.53380848696E+03  0.16686981008E+04  0.25500000920E-02 0.  1.
</event>
<event>
 5   0  0.1073271E-07  0.3927595E+04  0.7818609E-02  0.8019314E-01
        2   -1    0    0  501    0  0.00000000000E+00  0.00000000000E+00  0.32675441550E+04  0.32675441550E+04  0.25500000920E-02 0. -1.
       -2   -1    0    0    0  501  0.00000000000E+00  0.00000000000E+00 -0.11802445299E+04  0.11802445299E+04  0.25500000920E-02 0.  1.
    10030    2    1    2    0    0  0.00000000000E+00  0.00000000000E+00  0.20872996252E+04  0.44477886849E+04  0.39275952515E+04 0.  0.
        1    1    3    3  502    0 -0.79953248851E+03 -0.84771121240E+03 -0.74641516403E+03  0.13838360080E+04  0.50400001928E-02 0.  1.
       -1    1    3    3    0  502  0.79953248851E+03  0.84771121240E+03  0.28337147892E+04  0.30639526769E+04  0.50400001928E-02 0. -1.
</event>
<event>
 5   0  0.1101474E-07  0.4030402E+04  0.7818609E-02  0.7998441E-01
       -2   -1    0    0    0  501  0.00000000000E+00  0.00000000000E+00  0.17935245083E+04  0.17935245083E+04  0.25500000920E-02 0.  1.
        2   -1    0    0  501    0  0.00000000000E+00  0.00000000000E+00 -0.22642760825E+04  0.22642760825E+04  0.25500000920E-02 0. -1.
    10030    2    1    2    0    0  0.00000000000E+00  0.00000000000E+00 -0.47075157417E+03  0.40578005909E+04  0.40304017902E+04 0.  0.
        5    1    3    3  502    0  0.13646233759E+04  0.46009262368E+03  0.11838632206E+04  0.18642522350E+04  0.46999998093E+01 0.  1.
       -5    1    3    3    0  502 -0.13646233759E+04 -0.46009262368E+03 -0.16546147948E+04  0.21935483559E+04  0.46999998093E+01 0. -1.
</event>
<event>
 5   0  0.1095109E-07  0.4072226E+04  0.7818609E-02  0.7990133E-01
        2   -1    0    0  501    0  0.00000000000E+00  0.00000000000E+00  0.17192515304E+04  0.17192515304E+04  0.25500000920E-02 0.  1.
       -2   -1    0    0    0  501  0.00000000000E+00  0.00000000000E+00 -0.24113721764E+04  0.24113721764E+04  0.25500000920E-02 0. -1.
    10030    2    1    2    0    0  0.00000000000E+00  0.00000000000E+00 -0.69212064602E+03  0.41306237067E+04  0.40722255853E+04 0.  0.
        4    1    3    3  502    0 -0.75032788090E+03 -0.12173111292E+04 -0.18162998178E+04  0.23116628118E+04  0.12699999809E+01 0. -1.
       -4    1    3    3    0  502  0.75032788090E+03  0.12173111292E+04  0.11241791718E+04  0.18189608950E+04  0.12699999809E+01 0.  1.
</event>
<event>
 5   0  0.3399500E-08  0.4021587E+04  0.7818609E-02  0.8000206E-01
       -1   -1    0    0    0  501  0.00000000000E+00  0.00000000000E+00  0.14693180839E+04  0.14693180839E+04  0.50400001928E-02 0. -1.
        1   -1    0    0  501    0  0.00000000000E+00  0.00000000000E+00 -0.27518148382E+04  0.27518148382E+04  0.50400001928E-02 0.  1.
    10030    2    1    2    0    0  0.00000000000E+00  0.00000000000E+00 -0.12824967543E+04  0.42211329221E+04  0.40215874006E+04 0.  0.
        3    1    3    3  502    0  0.15105304603E+03  0.42838757857E+03 -0.26972576039E+04  0.27352388437E+04  0.10100000352E+00 0.  1.
       -3    1    3    3    0  502 -0.15105304603E+03 -0.42838757857E+03  0.14147608496E+04  0.14858940783E+04  0.10100000352E+00 0. -1.
</event>
<event>
 5   0  0.1095903E-07  0.4003663E+04  0.7818609E-02  0.8003808E-01
       -2   -1    0    0    0  501  0.00000000000E+00  0.00000000000E+00  0.29527936477E+04  0.29527936477E+04  0.25500000920E-02 0. -1.
        2   -1    0    0  501    0  0.00000000000E+00  0.00000000000E+00 -0.13571316244E+04  0.13571316244E+04  0.25500000920E-02 0.  1.
    10030    2    1    2    0    0  0.00000000000E+00  0.00000000000E+00  0.15956620233E+04  0.43099252721E+04  0.40036631425E+04 0.  0.
        3    1    3    3  502    0 -0.41129562785E+03 -0.57876811673E+03 -0.12170260538E+04  0.14090028575E+04  0.10100000352E+00 0.  1.
       -3    1    3    3    0  502  0.41129562785E+03  0.57876811673E+03  0.28126880771E+04  0.29009224146E+04  0.10100000352E+00 0. -1.
</event>
<event>
 5   0  0.1073271E-07  0.3940900E+04  0.7818609E-02  0.8016576E-01
       -2   -1    0    0    0  501  0.00000000000E+00  0.00000000000E+00  0.14557803138E+04  0.14557803138E+04  0.25500000920E-02 0.  1.
        2   -1    0    0  501    0  0.00000000000E+00  0.00000000000E+00 -0.26670739495E+04  0.26670739495E+04  0.25500000920E-02 0. -1.
    10030    2    1    2    0    0  0.00000000000E+00  0.00000000000E+00 -0.12112936356E+04  0.41228542633E+04  0.39409002785E+04 0.  0.
        1    1    3    3  502    0 -0.15242594454E+04 -0.10989261206E+04 -0.12260430247E+04  0.22436993947E+04  0.50400001928E-02 0. -1.
       -1    1    3    3    0  502  0.15242594454E+04  0.10989261206E+04  0.14749389123E+02  0.18791548685E+04  0.50400001928E-02 0.  1.
</event>
<event>
 5   0  0.3399500E-08  0.4007934E+04  0.7818609E-02  0.8002948E-01
        1   -1    0    0  501    0  0.00000000000E+00  0.00000000000E+00  0.21122954782E+04  0.21122954782E+04  0.50400001928E-02 0.  1.
       -1   -1    0    0    0  501  0.00000000000E+00  0.00000000000E+00 -0.19011942283E+04  0.19011942283E+04  0.50400001928E-02 0. -1.
    10030    2    1    2    0    0  0.00000000000E+00  0.00000000000E+00  0.21110124993E+03  0.40134897065E+04  0.40079341170E+04 0.  0.
        4    1    3    3  502    0 -0.76272381317E+03  0.17937937153E+04  0.57142539223E+03  0.20312489016E+04  0.12699999809E+01 0.  1.
       -4    1    3    3    0  502  0.76272381317E+03 -0.17937937153E+04 -0.36032414229E+03  0.19822408049E+04  0.12699999809E+01 0. -1.
</event>
<event>
 5   0  0.1095903E-07  0.4016325E+04  0.7818609E-02  0.8001261E-01
        2   -1    0    0  501    0  0.00000000000E+00  0.00000000000E+00  0.17331723005E+04  0.17331723005E+04  0.25500000920E-02 0. -1.
       -2   -1    0    0    0  501  0.00000000000E+00  0.00000000000E+00 -0.23267839232E+04  0.23267839232E+04  0.25500000920E-02 0.  1.
    10030    2    1    2    0    0  0.00000000000E+00  0.00000000000E+00 -0.59361162266E+03  0.40599562237E+04  0.40163254076E+04 0.  0.
        3    1    3    3  502    0  0.45482887455E+03 -0.45263706389E+03  0.16267499954E+04  0.17487324479E+04  0.10100000352E+00 0. -1.
       -3    1    3    3    0  502 -0.45482887455E+03  0.45263706389E+03 -0.22203616180E+04  0.23112237758E+04  0.10100000352E+00 0.  1.
</event>
<event>
 5   0  0.1073271E-07  0.3984538E+04  0.7818609E-02  0.8007673E-01
       -2   -1    0    0    0  501  0.00000000000E+00  0.00000000000E+00  0.18416526790E+04  0.18416526790E+04  0.25500000920E-02 0. -1.
        2   -1    0    0  501    0  0.00000000000E+00  0.00000000000E+00 -0.21552034593E+04  0.21552034593E+04  0.25500000920E-02 0.  1.
    10030    2    1    2    0    0  0.00000000000E+00  0.00000000000E+00 -0.31355078033E+03  0.39968561383E+04  0.39845382290E+04 0.  0.
        1    1    3    3  502    0  0.13471081130E+04  0.49535121718E+03 -0.15427352856E+04  0.21071557270E+04  0.50400001928E-02 0.  1.
       -1    1    3    3    0  502 -0.13471081130E+04 -0.49535121718E+03  0.12291845052E+04  0.18897004113E+04  0.50400001928E-02 0. -1.
</event>
<event>
 5   0  0.3399500E-08  0.3936437E+04  0.7818609E-02  0.8017493E-01
       -1   -1    0    0    0  501  0.00000000000E+00  0.00000000000E+00  0.12782837002E+04  0.12782837002E+04  0.50400001928E-02 0.  1.
        1   -1    0    0  501    0  0.00000000000E+00  0.00000000000E+00 -0.30305348335E+04  0.30305348335E+04  0.50400001928E-02 0. -1.
    10030    2    1    2    0    0  0.00000000000E+00  0.00000000000E+00 -0.17522511333E+04  0.43088185337E+04  0.39364366020E+04 0.  0.
        2    1    3    3  502    0 -0.62277995494E+03 -0.16675345707E+03 -0.29116736147E+04  0.29821979858E+04  0.25500000920E-02 0. -1.
       -2    1    3    3    0  502  0.62277995494E+03  0.16675345707E+03  0.11594224814E+04  0.13266205479E+04  0.25500000920E-02 0.  1.
</event>
<event>
 5   0  0.1101474E-07  0.3966639E+04  0.7818609E-02  0.8011311E-01
       -2   -1    0    0    0  501  0.00000000000E+00  0.00000000000E+00  0.17293267171E+04  0.17293267171E+04  0.25500000920E-02 0. -1.
        2   -1    0    0  501    0  0.00000000000E+00  0.00000000000E+00 -0.22746166628E+04  0.22746166628E+04  0.25500000920E-02 0.  1.
    10030    2    1    2    0    0  0.00000000000E+00  0.00000000000E+00 -0.54528994564E+03  0.40039433799E+04  0.39666385599E+04 0.  0.
        5    1    3    3  502    0  0.73398675298E+03 -0.35803419179E+03 -0.20970187646E+04  0.22504299201E+04  0.46999998093E+01 0.  1.
       -5    1    3    3    0  502 -0.73398675298E+03  0.35803419179E+03  0.15517288190E+04  0.17535134598E+04  0.46999998093E+01 0. -1.
</event>
<event>
 5   0  0.3399500E-08  0.3988083E+04  0.7818609E-02  0.8006955E-01
       -1   -1    0    0    0  501  0.00000000000E+00  0.00000000000E+00  0.15068238122E+04  0.15068238122E+04  0.50400001928E-02 0.  1.
        1   -1    0    0  501    0  0.00000000000E+00  0.00000000000E+00 -0.26387960948E+04  0.26387960948E+04  0.50400001928E-02 0. -1.
    10030    2    1    2    0    0  0.00000000000E+00  0.00000000000E+00 -0.11319722826E+04  0.41456199071E+04  0.39880826427E+04 0.  0.
        3    1    3    3  502    0 -0.12328847611E+04 -0.15615159148E+04 -0.42705019421E+03  0.20348731323E+04  0.10100000352E+00 0.  1.
       -3    1    3    3    0  502  0.12328847611E+04  0.15615159148E+04 -0.70492208836E+03  0.21107467747E+04  0.10100000352E+00 0. -1.
</event>
<event>
 5   0  0.1073271E-07  0.3909148E+04  0.7818609E-02  0.8023129E-01
       -2   -1    0    0    0  501  0.00000000000E+00  0.00000000000E+00  0.20964580529E+04  0.20964580529E+04  0.25500000920E-02 0.  1.
        2   -1    0    0  501    0  0.00000000000E+00  0.00000000000E+00 -0.18222926593E+04  0.18222926593E+04  0.25500000920E-02 0. -1.
    10030    2    1    2    0    0  0.00000000000E+00  0.00000000000E+00  0.27416539359E+03  0.39187507122E+04  0.39091483064E+04 0.  0.
        1    1    3    3  502    0 -0.62476512205E+03 -0.16084521876E+04 -0.78327394433E+03  0.18949849523E+04  0.50400001928E-02 0.  1.
       -1    1    3    3    0  502  0.62476512205E+03  0.16084521876E+04  0.10574393379E+04  0.20237657599E+04  0.50400001928E-02 0. -1.
</event>
<event>
 5   0  0.1087688E-07  0.3992757E+04  0.7818609E-02  0.8006009E-01
       -2   -1    0    0    0  501  0.00000000000E+00  0.00000000000E+00  0.23154467621E+04  0.23154467621E+04  0.25500000920E-02 0. -1.
        2   -1    0    0  501    0  0.00000000000E+00  0.00000000000E+00 -0.17212780552E+04  0.17212780552E+04  0.25500000920E-02 0.  1.
    10030    2    1    2    0    0  0.00000000000E+00  0.00000000000E+00  0.59416870694E+03  0.40367248173E+04  0.39927572926E+04 0.  0.
        2    1    3    3  502    0  0.13730484195E+04 -0.27114279995E+03  0.17363999673E+04  0.22302164081E+04  0.25500000920E-02 0. -1.
       -2    1    3    3    0  502 -0.13730484195E+04  0.27114279995E+03 -0.11422312604E+04  0.18065084092E+04  0.25500000920E-02 0.  1.
</event>
<event>
 5   0  0.3399500E-08  0.3997456E+04  0.7818609E-02  0.8005060E-01
       -1   -1    0    0    0  501  0.00000000000E+00  0.00000000000E+00  0.16969024502E+04  0.16969024502E+04  0.50400001928E-02 0. -1.
        1   -1    0    0  501    0  0.00000000000E+00  0.00000000000E+00 -0.23542385819E+04  0.23542385819E+04  0.50400001928E-02 0.  1.
    10030    2    1    2    0    0  0.00000000000E+00  0.00000000000E+00 -0.65733613166E+03  0.40511410321E+04  0.39974557999E+04 0.  0.
        5    1    3    3  502    0 -0.12383670894E+04 -0.14018317995E+04 -0.10425469897E+04  0.21414041557E+04  0.46999998093E+01 0. -1.
       -5    1    3    3    0  502  0.12383670894E+04  0.14018317995E+04  0.38521085803E+03  0.19097368765E+04  0.46999998093E+01 0.  1.
</event>
<event>
 5   0  0.1095903E-07  0.3967367E+04  0.7818609E-02  0.8011162E-01
        2   -1    0    0  501    0  0.00000000000E+00  0.00000000000E+00  0.23777085910E+04  0.23777085910E+04  0.25500000920E-02 0.  1.
       -2   -1    0    0    0  501  0.00000000000E+00  0.00000000000E+00 -0.16549544065E+04  0.16549544065E+04  0.25500000920E-02 0. -1.
    10030    2    1    2    0    0  0.00000000000E+00  0.00000000000E+00  0.72275418458E+03  0.40326629975E+04  0.39673665371E+04 0.  0.
        3    1    3    3  502    0  0.46675310930E+03  0.18458510786E+04  0.92729401369E+03  0.21177579813E+04  0.10100000352E+00 0.  1.
       -3    1    3    3    0  502 -0.46675310930E+03 -0.18458510786E+04 -0.20453982911E+03  0.19149050162E+04  0.10100000352E+00 0. -1.
</event>
<event>
 5   0  0.1101474E-07  0.3997527E+04  0.7818609E-02  0.8005046E-01
       -2   -1    0    0    0  501  0.00000000000E+00  0.00000000000E+00  0.16775829117E+04  0.16775829117E+04  0.25500000920E-02 0. -1.
        2   -1    0    0  501    0  0.00000000000E+00  0.00000000000E+00 -0.23814359273E+04  0.23814359273E+04  0.25500000920E-02 0.  1.
    10030    2    1    2    0    0  0.00000000000E+00  0.00000000000E+00 -0.70385301559E+03  0.40590188390E+04  0.39975273443E+04 0.  0.
        5    1    3    3  502    0  0.80288984234E+03  0.97797523724E+03  0.12191186011E+04  0.17570827860E+04  0.46999998093E+01 0. -1.
       -5    1    3    3    0  502 -0.80288984234E+03 -0.97797523724E+03 -0.19229716166E+04  0.23019360530E+04  0.46999998093E+01 0.  1.
</event>
<event>
 5   0  0.1073271E-07  0.3894081E+04  0.7818609E-02  0.8026261E-01
       -2   -1    0    0    0  501  0.00000000000E+00  0.00000000000E+00  0.21975112600E+04  0.21975112600E+04  0.25500000920E-02 0.  1.
        2   -1    0    0  501    0  0.00000000000E+00  0.00000000000E+00 -0.17251181478E+04  0.17251181478E+04  0.25500000920E-02 0. -1.
    10030    2    1    2    0    0  0.00000000000E+00  0.00000000000E+00  0.47239311221E+03  0.39226294078E+04  0.38940809209E+04 0.  0.
        1    1    3    3  502    0  0.38665929347E+03 -0.64691737757E+03 -0.15722251106E+04  0.17435306997E+04  0.50400001928E-02 0. -1.
       -1    1    3    3    0  502 -0.38665929347E+03  0.64691737757E+03  0.20446182228E+04  0.21790987081E+04  0.50400001928E-02 0.  1.
</event>
<event>
 5   0  0.3399500E-08  0.3962902E+04  0.7818609E-02  0.8012072E-01
       -1   -1    0    0    0  501  0.00000000000E+00  0.00000000000E+00  0.18810315942E+04  0.18810315942E+04  0.50400001928E-02 0. -1.
        1   -1    0    0  501    0  0.00000000000E+00  0.00000000000E+00 -0.20872315986E+04  0.20872315986E+04  0.50400001928E-02 0.  1.
    10030    2    1    2    0    0  0.00000000000E+00  0.00000000000E+00 -0.20620000442E+03  0.39682631929E+04  0.39629022605E+04 0.  0.
        1    1    3    3  502    0  0.14601729489E+04  0.53123898928E+03 -0.13343277574E+04  0.20481089982E+04  0.50400001928E-02 0.  1.
       -1    1    3    3    0  502 -0.14601729489E+04 -0.53123898928E+03  0.11281277530E+04  0.19201541947E+04  0.50400001928E-02 0. -1.
</event>
<event>
 5   0  0.1095903E-07  0.3881356E+04  0.7818609E-02  0.8028918E-01
        2   -1    0    0  501    0  0.00000000000E+00  0.00000000000E+00  0.11761048468E+04  0.11761048468E+04  0.25500000920E-02 0.  1.
       -2   -1    0    0    0  501  0.00000000000E+00  0.00000000000E+00 -0.32022927139E+04  0.32022927139E+04  0.25500000920E-02 0. -1.
    10030    2    1    2    0    0  0.00000000000E+00  0.00000000000E+00 -0.20261878671E+04  0.43783975608E+04  0.38813564546E+04 0.  0.
        3    1    3    3  502    0 -0.54292014816E+03  0.18619210192E+04 -0.93559538311E+03  0.21533348324E+04  0.10100000352E+00 0.  1.
       -3    1    3    3    0  502  0.54292014816E+03 -0.18619210192E+04 -0.10905924840E+04  0.22250627284E+04  0.10100000352E+00 0. -1.
</event>
<event>
 5   0  0.1095109E-07  0.3985558E+04  0.7818609E-02  0.8007466E-01
        2   -1    0    0  501    0  0.00000000000E+00  0.00000000000E+00  0.18576724196E+04  0.18576724196E+04  0.25500000920E-02 0.  1.
       -2   -1    0    0    0  501  0.00000000000E+00  0.00000000000E+00 -0.21377117197E+04  0.21377117197E+04  0.25500000920E-02 0. -1.
    10030    2    1    2    0    0  0.00000000000E+00  0.00000000000E+00 -0.28003930002E+03  0.39953841393E+04  0.39855579799E+04 0.  0.
        4    1    3    3  502    0  0.76864779081E+03  0.66927056228E+03  0.15766344331E+04  0.18773705709E+04  0.12699999809E+01 0.  1.
       -4    1    3    3    0  502 -0.76864779081E+03 -0.66927056228E+03 -0.18566737331E+04  0.21180135684E+04  0.12699999809E+01 0. -1.
</event>
<event>
 5   0  0.1087688E-07  0.3995200E+04  0.7818609E-02  0.8005516E-01
       -2   -1    0    0    0  501  0.00000000000E+00  0.00000000000E+00  0.12494549886E+04  0.12494549886E+04  0.25500000920E-02 0. -1.
        2   -1    0    0  501    0  0.00000000000E+00  0.00000000000E+00 -0.31937174905E+04  0.31937174905E+04  0.25500000920E-02 0.  1.
    10030    2    1    2    0    0  0.00000000000E+00  0.00000000000E+00 -0.19442625019E+04  0.44431724791E+04  0.39952002456E+04 0.  0.
        2    1    3    3  502    0 -0.16267480819E+04  0.11115060866E+04 -0.60554870682E+03  0.20611754750E+04  0.25500000920E-02 0. -1.
       -2    1    3    3    0  502  0.16267480819E+04 -0.11115060866E+04 -0.13387137951E+04  0.23819970041E+04  0.25500000920E-02 0.  1.
</event>
<event>
 5   0  0.1087688E-07  0.3949499E+04  0.7818609E-02  0.8014812E-01
       -2   -1    0    0    0  501  0.00000000000E+00  0.00000000000E+00  0.20621788611E+04  0.20621788611E+04  0.25500000920E-02 0. -1.
        2   -1    0    0  501    0  0.00000000000E+00  0.00000000000E+00 -0.18910264700E+04  0.18910264700E+04  0.25500000920E-02 0.  1.
    10030    2    1    2    0    0  0.00000000000E+00  0.00000000000E+00  0.17115239108E+03  0.39532053310E+04  0.39494986072E+04 0.  0.
        2    1    3    3  502    0  0.11954941085E+04 -0.66855963231E+03  0.15093938101E+04  0.20382462607E+04  0.25500000920E-02 0. -1.
       -2    1    3    3    0  502 -0.11954941085E+04  0.66855963231E+03 -0.13382414190E+04  0.19149590703E+04  0.25500000920E-02 0.  1.
</event>
<event>
 5   0  0.1073271E-07  0.3978944E+04  0.7818609E-02  0.8008808E-01
        2   -1    0    0  501    0  0.00000000000E+00  0.00000000000E+00  0.27784198220E+04  0.27784198220E+04  0.25500000920E-02 0.  1.
       -2   -1    0    0    0  501  0.00000000000E+00  0.00000000000E+00 -0.14245501659E+04  0.14245501659E+04  0.25500000920E-02 0. -1.
    10030    2    1    2    0    0  0.00000000000E+00  0.00000000000E+00  0.13538696561E+04  0.42029699879E+04  0.39789437887E+04 0.  0.
        1    1    3    3  502    0  0.15248647910E+03 -0.15275395674E+04  0.20136356512E+04  0.25320659138E+04  0.50400001928E-02 0. -1.
       -1    1    3    3    0  502 -0.15248647910E+03  0.15275395674E+04 -0.65976599515E+03  0.16709040740E+04  0.50400001928E-02 0.  1.
</event>
<event>
 5   0  0.3399500E-08  0.3992226E+04  0.7818609E-02  0.8006117E-01
       -1   -1    0    0    0  501  0.00000000000E+00  0.00000000000E+00  0.32530514617E+04  0.32530514617E+04  0.50400001928E-02 0. -1.
        1   -1    0    0  501    0  0.00000000000E+00  0.00000000000E+00 -0.12248400401E+04  0.12248400401E+04  0.50400001928E-02 0.  1.
    10030    2    1    2    0    0  0.00000000000E+00  0.00000000000E+00  0.20282114216E+04  0.44778915018E+04  0.39922262876E+04 0.  0.
        1    1    3    3  502    0  0.12834079294E+04  0.49743310653E+03  0.26356183790E+04  0.29733919769E+04  0.50400001928E-02 0. -1.
       -1    1    3    3    0  502 -0.12834079294E+04 -0.49743310653E+03 -0.60740695733E+03  0.15044995249E+04  0.50400001928E-02 0.  1.
</event>
<event>
 5   0  0.1073271E-07  0.3997567E+04  0.7818609E-02  0.8005038E-01
       -2   -1    0    0    0  501  0.00000000000E+00  0.00000000000E+00  0.11796413697E+04  0.11796413697E+04  0.25500000920E-02 0. -1.
        2   -1    0    0  501    0  0.00000000000E+00  0.00000000000E+00 -0.33867365807E+04  0.33867365807E+04  0.25500000920E-02 0.  1.
    10030    2    1    2    0    0  0.00000000000E+00  0.00000000000E+00 -0.22070952110E+04  0.45663779504E+04  0.39975665492E+04 0.  0.
        1    1    3    3  502    0  0.21628391038E+03  0.73350266755E+03  0.10059271609E+04  0.12636037141E+04  0.50400001928E-02 0. -1.
       -1    1    3    3    0  502 -0.21628391038E+03 -0.73350266755E+03 -0.32130223720E+04  0.33027742363E+04  0.50400001928E-02 0.  1.
</event>
<event>
 5   0  0.3399500E-08  0.4071734E+04  0.7818609E-02  0.7990230E-01
        1   -1    0    0  501    0  0.00000000000E+00  0.00000000000E+00  0.13756466968E+04  0.13756466968E+04  0.50400001928E-02 0. -1.
       -1   -1    0    0    0  501  0.00000000000E+00  0.00000000000E+00 -0.30129503293E+04  0.30129503293E+04  0.50400001928E-02 0.  1.
    10030    2    1    2    0    0  0.00000000000E+00  0.00000000000E+00 -0.16373036326E+04  0.43885970261E+04  0.40717343568E+04 0.  0.
        2    1    3    3  502    0  0.11824056697E+04  0.15854248552E+04 -0.13390280236E+04  0.23884411626E+04  0.25500000920E-02 0.  1.
       -2    1    3    3    0  502 -0.11824056697E+04 -0.15854248552E+04 -0.29827560892E+03  0.20001558635E+04  0.25500000920E-02 0. -1.
</event>
<event>
 5   0  0.3399500E-08  0.3992211E+04  0.7818609E-02  0.8006120E-01
        1   -1    0    0  501    0  0.00000000000E+00  0.00000000000E+00  0.27803646689E+04  0.27803646689E+04  0.50400001928E-02 0. -1.
       -1   -1    0    0    0  501  0.00000000000E+00  0.00000000000E+00 -0.14330625763E+04  0.14330625763E+04  0.50400001928E-02 0.  1.
    10030    2    1    2    0    0  0.00000000000E+00  0.00000000000E+00  0.13473020926E+04  0.42134272452E+04  0.39922106935E+04 0.  0.
        5    1    3    3  502    0 -0.15528396272E+04  0.54937498945E+03  0.18636442386E+04  0.24872305331E+04  0.46999998093E+01 0. -1.
       -5    1    3    3    0  502  0.15528396272E+04 -0.54937498945E+03 -0.51634214608E+03  0.17261967120E+04  0.46999998093E+01 0.  1.
</event>
<event>
 5   0  0.3399500E-08  0.4020169E+04  0.7818609E-02  0.8000490E-01
        1   -1    0    0  501    0  0.00000000000E+00  0.00000000000E+00  0.19128716939E+04  0.19128716939E+04  0.50400001928E-02 0. -1.
       -1   -1    0    0    0  501  0.00000000000E+00  0.00000000000E+00 -0.21122378315E+04  0.21122378315E+04  0.50400001928E-02 0.  1.
    10030    2    1    2    0    0  0.00000000000E+00  0.00000000000E+00 -0.19936613765E+03  0.40251095254E+04  0.40201691301E+04 0.  0.
        4    1    3    3  502    0 -0.24788408053E+03  0.19876181563E+04 -0.26831181463E+03  0.20209070477E+04  0.12699999809E+01 0. -1.
       -4    1    3    3    0  502  0.24788408053E+03 -0.19876181563E+04  0.68945676978E+02  0.20042024778E+04  0.12699999809E+01 0.  1.
</event>
<event>
 5   0  0.1073271E-07  0.3961125E+04  0.7818609E-02  0.8012435E-01
        2   -1    0    0  501    0  0.00000000000E+00  0.00000000000E+00  0.23271825152E+04  0.23271825152E+04  0.25500000920E-02 0. -1.
       -2   -1    0    0    0  501  0.00000000000E+00  0.00000000000E+00 -0.16855696315E+04  0.16855696315E+04  0.25500000920E-02 0.  1.
    10030    2    1    2    0    0  0.00000000000E+00  0.00000000000E+00  0.64161288369E+03  0.40127521467E+04  0.39611251808E+04 0.  0.
        1    1    3    3  502    0 -0.13488866961E+04 -0.10278941662E+04  0.13571581563E+04  0.21720819499E+04  0.50400001928E-02 0. -1.
       -1    1    3    3    0  502  0.13488866961E+04  0.10278941662E+04 -0.71554527262E+03  0.18406701967E+04  0.50400001928E-02 0.  1.
</event>
<event>
 5   0  0.3399500E-08  0.4030909E+04  0.7818609E-02  0.7998340E-01
       -1   -1    0    0    0  501  0.00000000000E+00  0.00000000000E+00  0.21500740340E+04  0.21500740340E+04  0.50400001928E-02 0.  1.
        1   -1    0    0  501    0  0.00000000000E+00  0.00000000000E+00 -0.18892634477E+04  0.18892634477E+04  0.50400001928E-02 0. -1.
    10030    2    1    2    0    0  0.00000000000E+00  0.00000000000E+00  0.26081058626E+03  0.40393374817E+04  0.40309087225E+04 0.  0.
        2    1    3    3  502    0 -0.17782615453E+04 -0.81070254442E+03  0.62398323805E+03  0.20515379159E+04  0.25500000920E-02 0.  1.
       -2    1    3    3    0  502  0.17782615453E+04  0.81070254442E+03 -0.36317265179E+03  0.19877995658E+04  0.25500000920E-02 0. -1.
</event>
<event>
 5   0  0.3399500E-08  0.4024932E+04  0.7818609E-02  0.7999536E-01
       -1   -1    0    0    0  501  0.00000000000E+00  0.00000000000E+00  0.16461685363E+04  0.16461685363E+04  0.50400001928E-02 0.  1.
        1   -1    0    0  501    0  0.00000000000E+00  0.00000000000E+00 -0.24602705748E+04  0.24602705748E+04  0.50400001928E-02 0. -1.
    10030    2    1    2    0    0  0.00000000000E+00  0.00000000000E+00 -0.81410203850E+03  0.41064391111E+04  0.40249323030E+04 0.  0.
        5    1    3    3  502    0  0.12577854493E+04  0.58353614547E+03  0.10810671960E+04  0.17581999437E+04  0.46999998093E+01 0.  1.
       -5    1    3    3    0  502 -0.12577854493E+04 -0.58353614547E+03 -0.18951692345E+04  0.23482391674E+04  0.46999998093E+01 0. -1.
</event>
<event>
 5   0  0.3399500E-08  0.4104294E+04  0.7818609E-02  0.7983831E-01
       -3   -1    0    0    0  501  0.00000000000E+00  0.00000000000E+00  0.18920451585E+04  0.18920451612E+04  0.10100000352E+00 0. -1.
        3   -1    0    0  501    0  0.00000000000E+00  0.00000000000E+00 -0.22257964256E+04  0.22257964278E+04  0.10100000352E+00 0.  1.
    10030    2    1    2    0    0  0.00000000000E+00  0.00000000000E+00 -0.33375126708E+03  0.41178415890E+04  0.41042940250E+04 0.  0.
        2    1    3    3  502    0 -0.18535068354E+04 -0.88013274261E+03 -0.20142951417E+03  0.20617213883E+04  0.25500000920E-02 0. -1.
       -2    1    3    3    0  502  0.18535068354E+04  0.88013274261E+03 -0.13232175292E+03  0.20561202007E+04  0.25500000920E-02 0.  1.
</event>
<event>
 5   0  0.1073271E-07  0.4005680E+04  0.7818609E-02  0.8003402E-01
        2   -1    0    0  501    0  0.00000000000E+00  0.00000000000E+00  0.27695693600E+04  0.27695693600E+04  0.25500000920E-02 0.  1.
       -2   -1    0    0    0  501  0.00000000000E+00  0.00000000000E+00 -0.14483723488E+04  0.14483723488E+04  0.25500000920E-02 0. -1.
    10030    2    1    2    0    0  0.00000000000E+00  0.00000000000E+00  0.13211970112E+04  0.42179417088E+04  0.40056798070E+04 0.  0.
        1    1    3    3  502    0  0.13848297550E+04 -0.13879476251E+04  0.10911873385E+04  0.22438453307E+04  0.50400001928E-02 0.  1.
       -1    1    3    3    0  502 -0.13848297550E+04  0.13879476251E+04  0.23000967268E+03  0.19740963781E+04  0.50400001928E-02 0. -1.
</event>
<event>
 5   0  0.3399500E-08  0.3994143E+04  0.7818609E-02  0.8005729E-01
        1   -1    0    0  501    0  0.00000000000E+00  0.00000000000E+00  0.15203430971E+04  0.15203430971E+04  0.50400001928E-02 0.  1.
       -1   -1    0    0    0  501  0.00000000000E+00  0.00000000000E+00 -0.26232855511E+04  0.26232855511E+04  0.50400001928E-02 0. -1.
    10030    2    1    2    0    0  0.00000000000E+00  0.00000000000E+00 -0.11029424540E+04  0.41436286483E+04  0.39941427513E+04 0.  0.
        5    1    3    3  502    0  0.66068148845E+03 -0.13896163014E+04 -0.18722002398E+04  0.24233632254E+04  0.46999998093E+01 0.  1.
       -5    1    3    3    0  502 -0.66068148845E+03  0.13896163014E+04  0.76925778578E+03  0.17202654229E+04  0.46999998093E+01 0. -1.
</event>
<event>
 5   0  0.1087688E-07  0.3993655E+04  0.7818609E-02  0.8005828E-01
       -2   -1    0    0    0  501  0.00000000000E+00  0.00000000000E+00  0.10935935342E+04  0.10935935342E+04  0.25500000920E-02 0.  1.
        2   -1    0    0  501    0  0.00000000000E+00  0.00000000000E+00 -0.36460722497E+04  0.36460722497E+04  0.25500000920E-02 0. -1.
    10030    2    1    2    0    0  0.00000000000E+00  0.00000000000E+00 -0.25524787155E+04  0.47396657839E+04  0.39936554872E+04 0.  0.
        2    1    3    3  502    0 -0.19723667810E+04 -0.96385896728E+02 -0.92457806292E+03  0.21804507686E+04  0.25500000920E-02 0.  1.
       -2    1    3    3    0  502  0.19723667810E+04  0.96385896728E+02 -0.16279006525E+04  0.25592150153E+04  0.25500000920E-02 0. -1.
</event>
<event>
 5   0  0.3399500E-08  0.4075583E+04  0.7818609E-02  0.7989470E-01
       -1   -1    0    0    0  501  0.00000000000E+00  0.00000000000E+00  0.18693378401E+04  0.18693378401E+04  0.50400001928E-02 0.  1.
        1   -1    0    0  501    0  0.00000000000E+00  0.00000000000E+00 -0.22214256604E+04  0.22214256604E+04  0.50400001928E-02 0. -1.
    10030    2    1    2    0    0  0.00000000000E+00  0.00000000000E+00 -0.35208782035E+03  0.40907635005E+04  0.40755834164E+04 0.  0.
        2    1    3    3  502    0  0.18970114690E+04 -0.72390472655E+03 -0.34961712534E+03  0.20603210189E+04  0.25500000920E-02 0.  1.
       -2    1    3    3    0  502 -0.18970114690E+04  0.72390472655E+03 -0.24706950132E+01  0.20304424816E+04  0.25500000920E-02 0. -1.
</event>
<event>
 5   0  0.1101474E-07  0.4020092E+04  0.7818609E-02  0.8000506E-01
       -2   -1    0    0    0  501  0.00000000000E+00  0.00000000000E+00  0.17514623283E+04  0.17514623283E+04  0.25500000920E-02 0. -1.
        2   -1    0    0  501    0  0.00000000000E+00  0.00000000000E+00 -0.23068062406E+04  0.23068062406E+04  0.25500000920E-02 0.  1.
    10030    2    1    2    0    0  0.00000000000E+00  0.00000000000E+00 -0.55534391236E+03  0.40582685689E+04  0.40200916552E+04 0.  0.
        5    1    3    3  502    0  0.27668966738E+03  0.45826061418E+03 -0.22335183145E+04  0.22967773322E+04  0.46999998093E+01 0.  1.
       -5    1    3    3    0  502 -0.27668966738E+03 -0.45826061418E+03  0.16781744022E+04  0.17614912366E+04  0.46999998093E+01 0. -1.
</event>
<event>
 5   0  0.1095109E-07  0.4021902E+04  0.7818609E-02  0.8000143E-01
        2   -1    0    0  501    0  0.00000000000E+00  0.00000000000E+00  0.12965798829E+04  0.12965798829E+04  0.25500000920E-02 0. -1.
       -2   -1    0    0    0  501  0.00000000000E+00  0.00000000000E+00 -0.31189160458E+04  0.31189160458E+04  0.25500000920E-02 0.  1.
    10030    2    1    2    0    0  0.00000000000E+00  0.00000000000E+00 -0.18223361629E+04  0.44154959287E+04  0.40219019388E+04 0.  0.
        4    1    3    3  502    0 -0.16149631980E+04 -0.10619130578E+04 -0.15206121144E+04  0.24592739352E+04  0.12699999809E+01 0.  1.
       -4    1    3    3    0  502  0.16149631980E+04  0.10619130578E+04 -0.30172404855E+03  0.19562219934E+04  0.12699999809E+01 0. -1.
</event>
<event>
 5   0  0.1095109E-07  0.3994374E+04  0.7818609E-02  0.8005682E-01
       -2   -1    0    0    0  501  0.00000000000E+00  0.00000000000E+00  0.15334392880E+04  0.15334392880E+04  0.25500000920E-02 0.  1.
        2   -1    0    0  501    0  0.00000000000E+00  0.00000000000E+00 -0.26011833409E+04  0.26011833409E+04  0.25500000920E-02 0. -1.
    10030    2    1    2    0    0  0.00000000000E+00  0.00000000000E+00 -0.10677440529E+04  0.41346226289E+04  0.39943744092E+04 0.  0.
        4    1    3    3  502    0 -0.16582970442E+04  0.76948832421E+03  0.29853634292E+03  0.18523463307E+04  0.12699999809E+01 0.  1.
       -4    1    3    3    0  502  0.16582970442E+04 -0.76948832421E+03 -0.13662803958E+04  0.22822762981E+04  0.12699999809E+01 0. -1.
</event>
<event>
 5   0  0.3399500E-08  0.3926369E+04  0.7818609E-02  0.8019567E-01
       -3   -1    0    0    0  501  0.00000000000E+00  0.00000000000E+00  0.13668729955E+04  0.13668729992E+04  0.10100000352E+00 0. -1.
        3   -1    0    0  501    0  0.00000000000E+00  0.00000000000E+00 -0.28196424703E+04  0.28196424721E+04  0.10100000352E+00 0.  1.
    10030    2    1    2    0    0  0.00000000000E+00  0.00000000000E+00 -0.14527694749E+04  0.41865154713E+04  0.39263688880E+04 0.  0.
        3    1    3    3  502    0  0.36426423176E+03 -0.19192683115E+04 -0.51904279759E+03  0.20213076753E+04  0.10100000352E+00 0. -1.
       -3    1    3    3    0  502 -0.36426423176E+03  0.19192683115E+04 -0.93372667728E+03  0.21652077961E+04  0.10100000352E+00 0.  1.
</event>
<event>
 5   0  0.1095109E-07  0.3993029E+04  0.7818609E-02  0.8005954E-01
        2   -1    0    0  501    0  0.00000000000E+00  0.00000000000E+00  0.14030399121E+04  0.14030399121E+04  0.25500000920E-02 0. -1.
       -2   -1    0    0    0  501  0.00000000000E+00  0.00000000000E+00 -0.28410235869E+04  0.28410235869E+04  0.25500000920E-02 0.  1.
    10030    2    1    2    0    0  0.00000000000E+00  0.00000000000E+00 -0.14379836747E+04  0.42440634990E+04  0.39930286669E+04 0.  0.
        4    1    3    3  502    0 -0.12157719568E+04 -0.12517154802E+04  0.31214092211E+03  0.17726608989E+04  0.12699999809E+01 0.  1.
       -4    1    3    3    0  502  0.12157719568E+04  0.12517154802E+04 -0.17501245969E+04  0.24714026001E+04  0.12699999809E+01 0. -1.
</event>
<event>
 5   0  0.1101474E-07  0.3998586E+04  0.7818609E-02  0.8004832E-01
       -2   -1    0    0    0  501  0.00000000000E+00  0.00000000000E+00  0.19488983870E+04  0.19488983870E+04  0.25500000920E-02 0. -1.
        2   -1    0    0  501    0  0.00000000000E+00  0.00000000000E+00 -0.20509906427E+04  0.20509906427E+04  0.25500000920E-02 0.  1.
    10030    2    1    2    0    0  0.00000000000E+00  0.00000000000E+00 -0.10209225570E+03  0.39998890298E+04  0.39985859278E+04 0.  0.
        5    1    3    3  502    0 -0.18141504119E+04  0.43381688777E+03  0.66877955316E+03  0.19815718483E+04  0.46999998093E+01 0.  1.
       -5    1    3    3    0  502  0.18141504119E+04 -0.43381688777E+03 -0.77087180886E+03  0.20183171815E+04  0.46999998093E+01 0. -1.
</event>
<event>
 5   0  0.3399500E-08  0.3998517E+04  0.7818609E-02  0.8004846E-01
        1   -1    0    0  501    0  0.00000000000E+00  0.00000000000E+00  0.22558034866E+04  0.22558034866E+04  0.50400001928E-02 0. -1.
       -1   -1    0    0    0  501  0.00000000000E+00  0.00000000000E+00 -0.17718892235E+04  0.17718892235E+04  0.50400001928E-02 0.  1.
    10030    2    1    2    0    0  0.00000000000E+00  0.00000000000E+00  0.48391426310E+03  0.40276927101E+04  0.39985166690E+04 0.  0.
        5    1    3    3  502    0  0.39453720988E+03  0.38213383953E+03 -0.16943925662E+04  0.17812001964E+04  0.46999998093E+01 0.  1.
       -5    1    3    3    0  502 -0.39453720988E+03 -0.38213383953E+03  0.21783068293E+04  0.22464925136E+04  0.46999998093E+01 0. -1.
</event>
<event>
 5   0  0.1095109E-07  0.3898128E+04  0.7818609E-02  0.8025419E-01
       -2   -1    0    0    0  501  0.00000000000E+00  0.00000000000E+00  0.21374083231E+04  0.21374083231E+04  0.25500000920E-02 0. -1.
        2   -1    0    0  501    0  0.00000000000E+00  0.00000000000E+00 -0.17773163021E+04  0.17773163021E+04  0.25500000920E-02 0.  1.
    10030    2    1    2    0    0  0.00000000000E+00  0.00000000000E+00  0.36009202100E+03  0.39147246253E+04  0.38981280928E+04 0.  0.
        4    1    3    3  502    0 -0.11931974318E+04  0.30070023822E+03 -0.13379145624E+04  0.18177342308E+04  0.12699999809E+01 0.  1.
       -4    1    3    3    0  502  0.11931974318E+04 -0.30070023822E+03  0.16980065834E+04  0.20969903945E+04  0.12699999809E+01 0. -1.
</event>
<event>
 5   0  0.1073271E-07  0.4012604E+04  0.7818609E-02  0.8002009E-01
        2   -1    0    0  501    0  0.00000000000E+00  0.00000000000E+00  0.21637121225E+04  0.21637121225E+04  0.25500000920E-02 0. -1.
       -2   -1    0    0    0  501  0.00000000000E+00  0.00000000000E+00 -0.18603434827E+04  0.18603434827E+04  0.25500000920E-02 0.  1.
    10030    2    1    2    0    0  0.00000000000E+00  0.00000000000E+00  0.30336863972E+03  0.40240556052E+04  0.40126040151E+04 0.  0.
        1    1    3    3  502    0 -0.18653381935E+04 -0.33962706892E+03 -0.50624793633E+03  0.19624270930E+04  0.50400001928E-02 0.  1.
       -1    1    3    3    0  502  0.18653381935E+04  0.33962706892E+03  0.80961657605E+03  0.20616285122E+04  0.50400001928E-02 0. -1.
</event>
<event>
 5   0  0.3399500E-08  0.3929915E+04  0.7818609E-02  0.8018836E-01
       -1   -1    0    0    0  501  0.00000000000E+00  0.00000000000E+00  0.15158793569E+04  0.15158793569E+04  0.50400001928E-02 0. -1.
        1   -1    0    0  501    0  0.00000000000E+00  0.00000000000E+00 -0.25470751177E+04  0.25470751177E+04  0.50400001928E-02 0.  1.
    10030    2    1    2    0    0  0.00000000000E+00  0.00000000000E+00 -0.10311957609E+04  0.40629544746E+04  0.39299153128E+04 0.  0.
        3    1    3    3  502    0 -0.10196885658E+04 -0.26396690182E+03 -0.22305524549E+04  0.24667402702E+04  0.10100000352E+00 0.  1.
       -3    1    3    3    0  502  0.10196885658E+04  0.26396690182E+03  0.11993566941E+04  0.15962142044E+04  0.10100000352E+00 0. -1.
</event>
<event>
 5   0  0.1095903E-07  0.4006754E+04  0.7818609E-02  0.8003186E-01
        2   -1    0    0  501    0  0.00000000000E+00  0.00000000000E+00  0.18201539612E+04  0.18201539612E+04  0.25500000920E-02 0.  1.
       -2   -1    0    0    0  501  0.00000000000E+00  0.00000000000E+00 -0.22050435645E+04  0.22050435645E+04  0.25500000920E-02 0. -1.
    10030    2    1    2    0    0  0.00000000000E+00  0.00000000000E+00 -0.38488960331E+03  0.40251975256E+04  0.40067536877E+04 0.  0.
        3    1    3    3  502    0 -0.79710486961E+03 -0.17934991378E+04 -0.59616961037E+03  0.20512029507E+04  0.10100000352E+00 0. -1.
       -3    1    3    3    0  502  0.79710486961E+03  0.17934991378E+04  0.21128000706E+03  0.19739945749E+04  0.10100000352E+00 0.  1.
</event>
<event>
 5   0  0.3399500E-08  0.4026379E+04  0.7818609E-02  0.7999246E-01
       -1   -1    0    0    0  501  0.00000000000E+00  0.00000000000E+00  0.14657037569E+04  0.14657037569E+04  0.50400001928E-02 0. -1.
        1   -1    0    0  501    0  0.00000000000E+00  0.00000000000E+00 -0.27651776444E+04  0.27651776444E+04  0.50400001928E-02 0.  1.
    10030    2    1    2    0    0  0.00000000000E+00  0.00000000000E+00 -0.12994738875E+04  0.42308814013E+04  0.40263786518E+04 0.  0.
        3    1    3    3  502    0 -0.50849949369E+03  0.13069692215E+04  0.86798868385E+03  0.16492861020E+04  0.10100000352E+00 0. -1.
       -3    1    3    3    0  502  0.50849949369E+03 -0.13069692215E+04 -0.21674625713E+04  0.25815952993E+04  0.10100000352E+00 0.  1.
</event>
<event>
 5   0  0.3399500E-08  0.4010801E+04  0.7818609E-02  0.8002371E-01
        1   -1    0    0  501    0  0.00000000000E+00  0.00000000000E+00  0.20875353443E+04  0.20875353443E+04  0.50400001928E-02 0. -1.
       -1   -1    0    0    0  501  0.00000000000E+00  0.00000000000E+00 -0.19264975771E+04  0.19264975772E+04  0.50400001928E-02 0.  1.
    10030    2    1    2    0    0  0.00000000000E+00  0.00000000000E+00  0.16103776719E+03  0.40140329215E+04  0.40108013080E+04 0.  0.
        5    1    3    3  502    0  0.63969829593E+03  0.69030387838E+03  0.18527862729E+04  0.20781175177E+04  0.46999998093E+01 0. -1.
       -5    1    3    3    0  502 -0.63969829593E+03 -0.69030387838E+03 -0.16917485057E+04  0.19359154038E+04  0.46999998093E+01 0.  1.
</event>
<event>
 5   0  0.3399500E-08  0.3995231E+04  0.7818609E-02  0.8005509E-01
       -1   -1    0    0    0  501  0.00000000000E+00  0.00000000000E+00  0.26594277482E+04  0.26594277482E+04  0.50400001928E-02 0.  1.
        1   -1    0    0  501    0  0.00000000000E+00  0.00000000000E+00 -0.15004985923E+04  0.15004985923E+04  0.50400001928E-02 0. -1.
    10030    2    1    2    0    0  0.00000000000E+00  0.00000000000E+00  0.11589291559E+04  0.41599263405E+04  0.39952309533E+04 0.  0.
        1    1    3    3  502    0 -0.21770217728E+03  0.19028551551E+04  0.11705048059E+04  0.22446232379E+04  0.50400001928E-02 0.  1.
       -1    1    3    3    0  502  0.21770217728E+03 -0.19028551551E+04 -0.11575649994E+02  0.19153031027E+04  0.50400001928E-02 0. -1.
</event>
<event>
 5   0  0.3399500E-08  0.3983903E+04  0.7818609E-02  0.8007802E-01
       -1   -1    0    0    0  501  0.00000000000E+00  0.00000000000E+00  0.21337772940E+04  0.21337772940E+04  0.50400001928E-02 0. -1.
        1   -1    0    0  501    0  0.00000000000E+00  0.00000000000E+00 -0.18595521695E+04  0.18595521695E+04  0.50400001928E-02 0.  1.
    10030    2    1    2    0    0  0.00000000000E+00  0.00000000000E+00  0.27422512455E+03  0.39933294635E+04  0.39839027078E+04 0.  0.
        1    1    3    3  502    0 -0.92586500398E+03  0.11053473332E+04 -0.12404943783E+04  0.19020633626E+04  0.50400001928E-02 0.  1.
       -1    1    3    3    0  502  0.92586500398E+03 -0.11053473332E+04  0.15147195029E+04  0.20912661010E+04  0.50400001928E-02 0. -1.
</event>
<event>
 5   0  0.1095903E-07  0.4019880E+04  0.7818609E-02  0.8000548E-01
       -2   -1    0    0    0  501  0.00000000000E+00  0.00000000000E+00  0.19326474274E+04  0.19326474274E+04  0.25500000920E-02 0.  1.
        2   -1    0    0  501    0  0.00000000000E+00  0.00000000000E+00 -0.20903239089E+04  0.20903239089E+04  0.25500000920E-02 0. -1.
    10030    2    1    2    0    0  0.00000000000E+00  0.00000000000E+00 -0.15767648155E+03  0.40229713363E+04  0.40198801599E+04 0.  0.
        3    1    3    3  502    0  0.14604252230E+03  0.19029545955E+04  0.55195947311E+03  0.19867621601E+04  0.10100000352E+00 0. -1.
       -3    1    3    3    0  502 -0.14604252230E+03 -0.19029545955E+04 -0.70963595467E+03  0.20362091762E+04  0.10100000352E+00 0.  1.
</event>
<event>
 5   0  0.3399500E-08  0.3981869E+04  0.7818609E-02  0.8008214E-01
       -1   -1    0    0    0  501  0.00000000000E+00  0.00000000000E+00  0.18464221074E+04  0.18464221075E+04  0.50400001928E-02 0. -1.
        1   -1    0    0  501    0  0.00000000000E+00  0.00000000000E+00 -0.21467570336E+04  0.21467570336E+04  0.50400001928E-02 0.  1.
    10030    2    1    2    0    0  0.00000000000E+00  0.00000000000E+00 -0.30033492615E+03  0.39931791411E+04  0.39818687302E+04 0.  0.
        3    1    3    3  502    0 -0.15975556863E+04 -0.51510798415E+03  0.92352735112E+03  0.19158348532E+04  0.10100000352E+00 0. -1.
       -3    1    3    3    0  502  0.15975556863E+04  0.51510798415E+03 -0.12238622773E+04  0.20773442878E+04  0.10100000352E+00 0.  1.
</event>
<event>
 5   0  0.3399500E-08  0.4006170E+04  0.7818609E-02  0.8003303E-01
       -1   -1    0    0    0  501  0.00000000000E+00  0.00000000000E+00  0.32181748632E+04  0.32181748632E+04  0.50400001928E-02 0.  1.
        1   -1    0    0  501    0  0.00000000000E+00  0.00000000000E+00 -0.12467781547E+04  0.12467781547E+04  0.50400001928E-02 0. -1.
    10030    2    1    2    0    0  0.00000000000E+00  0.00000000000E+00  0.19713967085E+04  0.44649530180E+04  0.40061702997E+04 0.  0.
        2    1    3    3  502    0 -0.19746111083E+04  0.33538267764E+03  0.10168161550E+04  0.22462158540E+04  0.25500000920E-02 0.  1.
       -2    1    3    3    0  502  0.19746111083E+04 -0.33538267764E+03  0.95458055352E+03  0.22187371640E+04  0.25500000920E-02 0. -1.
</event>
<event>
 5   0  0.3399500E-08  0.3992250E+04  0.7818609E-02  0.8006112E-01
        1   -1    0    0  501    0  0.00000000000E+00  0.00000000000E+00  0.11506448780E+04  0.11506448780E+04  0.50400001928E-02 0. -1.
       -1   -1    0    0    0  501  0.00000000000E+00  0.00000000000E+00 -0.34628529615E+04  0.34628529615E+04  0.50400001928E-02 0.  1.
    10030    2    1    2    0    0  0.00000000000E+00  0.00000000000E+00 -0.23122080835E+04  0.46134978395E+04  0.39922495030E+04 0.  0.
        5    1    3    3  502    0  0.26929394191E+03 -0.97912140577E+03 -0.31420434143E+04  0.33020685732E+04  0.46999998093E+01 0.  1.
       -5    1    3    3    0  502 -0.26929394191E+03  0.97912140577E+03  0.82983533082E+03  0.13114292664E+04  0.46999998093E+01 0. -1.
</event>
<event>
 5   0  0.1095109E-07  0.4006980E+04  0.7818609E-02  0.8003140E-01
        2   -1    0    0  501    0  0.00000000000E+00  0.00000000000E+00  0.24392618141E+04  0.24392618141E+04  0.25500000920E-02 0. -1.
       -2   -1    0    0    0  501  0.00000000000E+00  0.00000000000E+00 -0.16455684867E+04  0.16455684867E+04  0.25500000920E-02 0.  1.
    10030    2    1    2    0    0  0.00000000000E+00  0.00000000000E+00  0.79369332738E+03  0.40848303008E+04  0.40069800958E+04 0.  0.
        4    1    3    3  502    0  0.16011793382E+04 -0.91873817277E+03 -0.39681350485E+03  0.18882048813E+04  0.12699999809E+01 0.  1.
       -4    1    3    3    0  502 -0.16011793382E+04  0.91873817277E+03  0.11905068322E+04  0.21966254195E+04  0.12699999809E+01 0. -1.
</event>
<event>
 5   0  0.1095903E-07  0.3983016E+04  0.7818609E-02  0.8007982E-01
        2   -1    0    0  501    0  0.00000000000E+00  0.00000000000E+00  0.13911170027E+04  0.13911170027E+04  0.25500000920E-02 0. -1.
       -2   -1    0    0    0  501  0.00000000000E+00  0.00000000000E+00 -0.28510206060E+04  0.28510206060E+04  0.25500000920E-02 0.  1.
    10030    2    1    2    0    0  0.00000000000E+00  0.00000000000E+00 -0.14599036033E+04  0.42421376087E+04  0.39830155612E+04 0.  0.
        3    1    3    3  502    0 -0.15180443298E+04  0.11875925639E+04 -0.19607406407E+03  0.19373383117E+04  0.10100000352E+00 0. -1.
       -3    1    3    3    0  502  0.15180443298E+04 -0.11875925639E+04 -0.12638295393E+04  0.23047992970E+04  0.10100000352E+00 0.  1.
</event>
<event>
 5   0  0.3399500E-08  0.4045715E+04  0.7818609E-02  0.7995387E-01
        1   -1    0    0  501    0  0.00000000000E+00  0.00000000000E+00  0.14103164286E+04  0.14103164286E+04  0.50400001928E-02 0. -1.
       -1   -1    0    0    0  501  0.00000000000E+00  0.00000000000E+00 -0.29014427948E+04  0.29014427948E+04  0.50400001928E-02 0.  1.
    10030    2    1    2    0    0  0.00000000000E+00  0.00000000000E+00 -0.14911263662E+04  0.43117592234E+04  0.40457149876E+04 0.  0.
        1    1    3    3  502    0  0.16911501457E+04  0.10007875270E+04 -0.12571143710E+04  0.23327882526E+04  0.50400001928E-02 0.  1.
       -1    1    3    3    0  502 -0.16911501457E+04 -0.10007875270E+04 -0.23401199518E+03  0.19789709708E+04  0.50400001928E-02 0. -1.
</event>
<event>
 5   0  0.3399500E-08  0.3912310E+04  0.7818609E-02  0.8022474E-01
       -1   -1    0    0    0  501  0.00000000000E+00  0.00000000000E+00  0.24813273616E+04  0.24813273616E+04  0.50400001928E-02 0.  1.
        1   -1    0    0  501    0  0.00000000000E+00  0.00000000000E+00 -0.15421349994E+04  0.15421349994E+04  0.50400001928E-02 0. -1.
    10030    2    1    2    0    0  0.00000000000E+00  0.00000000000E+00  0.93919236220E+03  0.40234623611E+04  0.39123096858E+04 0.  0.
        2    1    3    3  502    0 -0.89686826002E+03  0.24574583857E+03 -0.13002803690E+04  0.15985908579E+04  0.25500000920E-02 0. -1.
       -2    1    3    3    0  502  0.89686826002E+03 -0.24574583857E+03  0.22394727312E+04  0.24248715032E+04  0.25500000920E-02 0.  1.
</event>
<event>
 5   0  0.3399500E-08  0.4001545E+04  0.7818609E-02  0.8004235E-01
       -1   -1    0    0    0  501  0.00000000000E+00  0.00000000000E+00  0.14743255869E+04  0.14743255869E+04  0.50400001928E-02 0. -1.
        1   -1    0    0  501    0  0.00000000000E+00  0.00000000000E+00 -0.27152007045E+04  0.27152007045E+04  0.50400001928E-02 0.  1.
    10030    2    1    2    0    0  0.00000000000E+00  0.00000000000E+00 -0.12408751176E+04  0.41895262914E+04  0.40015446379E+04 0.  0.
        4    1    3    3  502    0  0.12359397170E+04  0.13870477030E+04 -0.13980534147E+04  0.23250813487E+04  0.12699999809E+01 0.  1.
       -4    1    3    3    0  502 -0.12359397170E+04 -0.13870477030E+04  0.15717829713E+03  0.18644449427E+04  0.12699999809E+01 0. -1.
</event>
<event>
 5   0  0.3399500E-08  0.3965152E+04  0.7818609E-02  0.8011614E-01
        1   -1    0    0  501    0  0.00000000000E+00  0.00000000000E+00  0.33147532526E+04  0.33147532526E+04  0.50400001928E-02 0.  1.
       -1   -1    0    0    0  501  0.00000000000E+00  0.00000000000E+00 -0.11857921291E+04  0.11857921291E+04  0.50400001928E-02 0. -1.
    10030    2    1    2    0    0  0.00000000000E+00  0.00000000000E+00  0.21289611235E+04  0.45005453816E+04  0.39651523636E+04 0.  0.
        3    1    3    3  502    0 -0.12396417540E+04 -0.88135014366E+03  0.25078456453E+04  0.29330495299E+04  0.10100000352E+00 0.  1.
       -3    1    3    3    0  502  0.12396417540E+04  0.88135014366E+03 -0.37888452182E+03  0.15674958517E+04  0.10100000352E+00 0. -1.
</event>
<event>
 5   0  0.3399500E-08  0.4003764E+04  0.7818609E-02  0.8003788E-01
       -1   -1    0    0    0  501  0.00000000000E+00  0.00000000000E+00  0.17255928371E+04  0.17255928371E+04  0.50400001928E-02 0.  1.
        1   -1    0    0  501    0  0.00000000000E+00  0.00000000000E+00 -0.23224090960E+04  0.23224090960E+04  0.50400001928E-02 0. -1.
    10030    2    1    2    0    0  0.00000000000E+00  0.00000000000E+00 -0.59681625890E+03  0.40480019330E+04  0.40037644790E+04 0.  0.
        1    1    3    3  502    0 -0.14009316604E+03 -0.97546777822E+03 -0.20601791613E+04  0.22837472843E+04  0.50400001928E-02 0. -1.
       -1    1    3    3    0  502  0.14009316604E+03  0.97546777822E+03  0.14633629024E+04  0.17642546488E+04  0.50400001928E-02 0.  1.
</event>
<event>
 5   0  0.1095109E-07  0.3992233E+04  0.7818609E-02  0.8006115E-01
        2   -1    0    0  501    0  0.00000000000E+00  0.00000000000E+00  0.19642611151E+04  0.19642611151E+04  0.25500000920E-02 0.  1.
       -2   -1    0    0    0  501  0.00000000000E+00  0.00000000000E+00 -0.20284882413E+04  0.20284882413E+04  0.25500000920E-02 0. -1.
    10030    2    1    2    0    0  0.00000000000E+00  0.00000000000E+00 -0.64227126171E+02  0.39927493564E+04  0.39922327462E+04 0.  0.
        4    1    3    3  502    0  0.50959444329E+03 -0.33424956258E+03 -0.19331671778E+04  0.20269549124E+04  0.12699999809E+01 0. -1.
       -4    1    3    3    0  502 -0.50959444329E+03  0.33424956258E+03  0.18689400516E+04  0.19657944440E+04  0.12699999809E+01 0.  1.
</event>
<event>
 5   0  0.1095109E-07  0.4023538E+04  0.7818609E-02  0.7999815E-01
       -2   -1    0    0    0  501  0.00000000000E+00  0.00000000000E+00  0.15511955048E+04  0.15511955048E+04  0.25500000920E-02 0. -1.
        2   -1    0    0  501    0  0.00000000000E+00  0.00000000000E+00 -0.26090938980E+04  0.26090938980E+04  0.25500000920E-02 0.  1.
    10030    2    1    2    0    0  0.00000000000E+00  0.00000000000E+00 -0.10578983932E+04  0.41602894027E+04  0.40235381077E+04 0.  0.
        4    1    3    3  502    0  0.14062166858E+04 -0.71861443729E+03 -0.18176485994E+04  0.24078413819E+04  0.12699999809E+01 0.  1.
       -4    1    3    3    0  502 -0.14062166858E+04  0.71861443729E+03  0.75975020613E+03  0.17524480208E+04  0.12699999809E+01 0. -1.
</event>
<event>
 5   0  0.3399500E-08  0.4132992E+04  0.7818609E-02  0.7978242E-01
       -1   -1    0    0    0  501  0.00000000000E+00  0.00000000000E+00  0.13672579329E+04  0.13672579330E+04  0.50400001928E-02 0.  1.
        1   -1    0    0  501    0  0.00000000000E+00  0.00000000000E+00 -0.31233359681E+04  0.31233359681E+04  0.50400001928E-02 0. -1.
    10030    2    1    2    0    0  0.00000000000E+00  0.00000000000E+00 -0.17560780352E+04  0.44905939011E+04  0.41329920782E+04 0.  0.
        3    1    3    3  502    0  0.20977362097E+03 -0.17872223554E+04  0.22585899610E+03  0.18136099404E+04  0.10100000352E+00 0.  1.
       -3    1    3    3    0  502 -0.20977362097E+03  0.17872223554E+04 -0.19819370313E+04  0.26769839607E+04  0.10100000352E+00 0. -1.
</event>
<event>
 5   0  0.3399500E-08  0.3986907E+04  0.7818609E-02  0.8007193E-01
       -1   -1    0    0    0  501  0.00000000000E+00  0.00000000000E+00  0.13127816542E+04  0.13127816542E+04  0.50400001928E-02 0.  1.
        1   -1    0    0  501    0  0.00000000000E+00  0.00000000000E+00 -0.30270512711E+04  0.30270512711E+04  0.50400001928E-02 0. -1.
    10030    2    1    2    0    0  0.00000000000E+00  0.00000000000E+00 -0.17142696169E+04  0.43398329253E+04  0.39869072601E+04 0.  0.
        4    1    3    3  502    0  0.19594160953E+03  0.10332260473E+04 -0.27005339344E+04  0.28980742438E+04  0.12699999809E+01 0. -1.
       -4    1    3    3    0  502 -0.19594160953E+03 -0.10332260473E+04  0.98626431742E+03  0.14417586815E+04  0.12699999809E+01 0.  1.
</event>
<event>
 5   0  0.1095109E-07  0.3992071E+04  0.7818609E-02  0.8006148E-01
       -2   -1    0    0    0  501  0.00000000000E+00  0.00000000000E+00  0.16012460165E+04  0.16012460165E+04  0.25500000920E-02 0. -1.
        2   -1    0    0  501    0  0.00000000000E+00  0.00000000000E+00 -0.24881613859E+04  0.24881613859E+04  0.25500000920E-02 0.  1.
    10030    2    1    2    0    0  0.00000000000E+00  0.00000000000E+00 -0.88691536940E+03  0.40894074024E+04  0.39920713959E+04 0.  0.
        4    1    3    3  502    0  0.10546922310E+04  0.16398502008E+04 -0.56345775669E+01  0.19497481234E+04  0.12699999809E+01 0.  1.
       -4    1    3    3    0  502 -0.10546922310E+04 -0.16398502008E+04 -0.88128079183E+03  0.21396592790E+04  0.12699999809E+01 0. -1.
</event>
<event>
 5   0  0.1095109E-07  0.3960989E+04  0.7818609E-02  0.8012463E-01
       -2   -1    0    0    0  501  0.00000000000E+00  0.00000000000E+00  0.25462964116E+04  0.25462964116E+04  0.25500000920E-02 0.  1.
        2   -1    0    0  501    0  0.00000000000E+00  0.00000000000E+00 -0.15404167277E+04  0.15404167277E+04  0.25500000920E-02 0. -1.
    10030    2    1    2    0    0  0.00000000000E+00  0.00000000000E+00  0.10058796839E+04  0.40867131393E+04  0.39609885565E+04 0.  0.
        4    1    3    3  502    0 -0.15866280251E+04 -0.96163328863E+03 -0.21204150747E+03  0.18673752396E+04  0.12699999809E+01 0. -1.
       -4    1    3    3    0  502  0.15866280251E+04  0.96163328863E+03  0.12179211913E+04  0.22193378997E+04  0.12699999809E+01 0.  1.
</event>
<event>
 5   0  0.1101474E-07  0.3998030E+04  0.7818609E-02  0.8004944E-01
       -2   -1    0    0    0  501  0.00000000000E+00  0.00000000000E+00  0.24416049626E+04  0.24416049626E+04  0.25500000920E-02 0. -1.
        2   -1    0    0  501    0  0.00000000000E+00  0.00000000000E+00 -0.16366531333E+04  0.16366531333E+04  0.25500000920E-02 0.  1.
    10030    2    1    2    0    0  0.00000000000E+00  0.00000000000E+00  0.80495182929E+03  0.40782580960E+04  0.39980297210E+04 0.  0.
        5    1    3    3  502    0 -0.11908521338E+04 -0.78246606980E+03  0.18326288686E+04  0.23214074642E+04  0.46999998093E+01 0. -1.
       -5    1    3    3    0  502  0.11908521338E+04  0.78246606980E+03 -0.10276770393E+04  0.17568506317E+04  0.46999998093E+01 0.  1.
</event>
<event>
 5   0  0.1073271E-07  0.4020512E+04  0.7818609E-02  0.8000421E-01
        2   -1    0    0  501    0  0.00000000000E+00  0.00000000000E+00  0.22538520679E+04  0.22538520679E+04  0.25500000920E-02 0. -1.
       -2   -1    0    0    0  501  0.00000000000E+00  0.00000000000E+00 -0.17929876758E+04  0.17929876758E+04  0.25500000920E-02 0.  1.
    10030    2    1    2    0    0  0.00000000000E+00  0.00000000000E+00  0.46086439214E+03  0.40468397437E+04  0.40205118981E+04 0.  0.
        1    1    3    3  502    0 -0.35600284413E+03  0.15072721431E+03  0.22160825811E+04  0.22495507828E+04  0.50400001928E-02 0. -1.
       -1    1    3    3    0  502  0.35600284413E+03 -0.15072721431E+03 -0.17552181889E+04  0.17972889609E+04  0.50400001928E-02 0.  1.
</event>
<event>
 5   0  0.1101474E-07  0.4004993E+04  0.7818609E-02  0.8003540E-01
       -2   -1    0    0    0  501  0.00000000000E+00  0.00000000000E+00  0.15812956225E+04  0.15812956225E+04  0.25500000920E-02 0.  1.
        2   -1    0    0  501    0  0.00000000000E+00  0.00000000000E+00 -0.25358898666E+04  0.25358898666E+04  0.25500000920E-02 0. -1.
    10030    2    1    2    0    0  0.00000000000E+00  0.00000000000E+00 -0.95459424415E+03  0.41171854891E+04  0.40049926568E+04 0.  0.
        5    1    3    3  502    0  0.14692660811E+02 -0.19331649735E+04  0.59466352454E+02  0.19341409013E+04  0.46999998093E+01 0.  1.
       -5    1    3    3    0  502 -0.14692660811E+02  0.19331649735E+04 -0.10140605966E+04  0.21830445878E+04  0.46999998093E+01 0. -1.
</event>
<event>
 5   0  0.3399500E-08  0.3968702E+04  0.7818609E-02  0.8010890E-01
        1   -1    0    0  501    0  0.00000000000E+00  0.00000000000E+00  0.28108404109E+04  0.28108404109E+04  0.50400001928E-02 0. -1.
       -1   -1    0    0    0  501  0.00000000000E+00  0.00000000000E+00 -0.14008794392E+04  0.14008794392E+04  0.50400001928E-02 0.  1.
    10030    2    1    2    0    0  0.00000000000E+00  0.00000000000E+00  0.14099609716E+04  0.42117198501E+04  0.39687018223E+04 0.  0.
        2    1    3    3  502    0  0.52685829409E+03  0.89265611795E+03  0.25007037996E+04  0.27070157185E+04  0.25500000920E-02 0. -1.
       -2    1    3    3    0  502 -0.52685829409E+03 -0.89265611795E+03 -0.10907428279E+04  0.15047041316E+04  0.25500000920E-02 0.  1.
</event>
<event>
 5   0  0.1101474E-07  0.4045281E+04  0.7818609E-02  0.7995474E-01
       -2   -1    0    0    0  501  0.00000000000E+00  0.00000000000E+00  0.15655458057E+04  0.15655458057E+04  0.25500000920E-02 0.  1.
        2   -1    0    0  501    0  0.00000000000E+00  0.00000000000E+00 -0.26131936628E+04  0.26131936628E+04  0.25500000920E-02 0. -1.
    10030    2    1    2    0    0  0.00000000000E+00  0.00000000000E+00 -0.10476478571E+04  0.41787394684E+04  0.40452808941E+04 0.  0.
        5    1    3    3  502    0  0.18569349730E+04 -0.31063248389E+03  0.23971815950E+03  0.18979428127E+04  0.46999998093E+01 0.  1.
       -5    1    3    3    0  502 -0.18569349730E+04  0.31063248389E+03 -0.12873660166E+04  0.22807966557E+04  0.46999998093E+01 0. -1.
</event>
<event>
 5   0  0.3399500E-08  0.4021832E+04  0.7818609E-02  0.8000157E-01
       -1   -1    0    0    0  501  0.00000000000E+00  0.00000000000E+00  0.33089799950E+04  0.33089799950E+04  0.50400001928E-02 0. -1.
        1   -1    0    0  501    0  0.00000000000E+00  0.00000000000E+00 -0.12220632187E+04  0.12220632187E+04  0.50400001928E-02 0.  1.
    10030    2    1    2    0    0  0.00000000000E+00  0.00000000000E+00  0.20869167763E+04  0.45310432137E+04  0.40218317933E+04 0.  0.
        3    1    3    3  502    0  0.51650836172E+03  0.59587498262E+03  0.31275181555E+04  0.32254019448E+04  0.10100000352E+00 0. -1.
       -3    1    3    3    0  502 -0.51650836172E+03 -0.59587498262E+03 -0.10406013791E+04  0.13056412689E+04  0.10100000352E+00 0.  1.
</event>
<event>
 5   0  0.3399500E-08  0.3978680E+04  0.7818609E-02  0.8008861E-01
       -1   -1    0    0    0  501  0.00000000000E+00  0.00000000000E+00  0.23638266137E+04  0.23638266137E+04  0.50400001928E-02 0.  1.
        1   -1    0    0  501    0  0.00000000000E+00  0.00000000000E+00 -0.16741814023E+04  0.16741814023E+04  0.50400001928E-02 0. -1.
    10030    2    1    2    0    0  0.00000000000E+00  0.00000000000E+00  0.68964521139E+03  0.40380080161E+04  0.39786804622E+04 0.  0.
        4    1    3    3  502    0  0.10762224896E+03  0.15421353490E+04 -0.92592949294E+03  0.18019742012E+04  0.12699999809E+01 0. -1.
       -4    1    3    3    0  502 -0.10762224896E+03 -0.15421353490E+04  0.16155747043E+04  0.22360338149E+04  0.12699999809E+01 0.  1.
</event>
<event>
 5   0  0.3399500E-08  0.4013169E+04  0.7818609E-02  0.8001895E-01
       -1   -1    0    0    0  501  0.00000000000E+00  0.00000000000E+00  0.13767992464E+04  0.13767992464E+04  0.50400001928E-02 0. -1.
        1   -1    0    0  501    0  0.00000000000E+00  0.00000000000E+00 -0.29244498857E+04  0.29244498857E+04  0.50400001928E-02 0.  1.
    10030    2    1    2    0    0  0.00000000000E+00  0.00000000000E+00 -0.15476506393E+04  0.43012491321E+04  0.40131685231E+04 0.  0.
        5    1    3    3  502    0 -0.15732981783E+04 -0.49724277856E+03 -0.19976507667E+04  0.25909743755E+04  0.46999998093E+01 0.  1.
       -5    1    3    3    0  502  0.15732981783E+04  0.49724277856E+03  0.45000012744E+03  0.17102747566E+04  0.46999998093E+01 0. -1.
</event>
<event>
 5   0  0.3399500E-08  0.3982864E+04  0.7818609E-02  0.8008012E-01
       -1   -1    0    0    0  501  0.00000000000E+00  0.00000000000E+00  0.24997159613E+04  0.24997159613E+04  0.50400001928E-02 0. -1.
        1   -1    0    0  501    0  0.00000000000E+00  0.00000000000E+00 -0.15865006717E+04  0.15865006717E+04  0.50400001928E-02 0.  1.
    10030    2    1    2    0    0  0.00000000000E+00  0.00000000000E+00  0.91321528954E+03  0.40862166330E+04  0.39828638198E+04 0.  0.
        3    1    3    3  502    0  0.14396687895E+04 -0.10184824787E+04 -0.49251932782E+03  0.18309910107E+04  0.10100000352E+00 0.  1.
       -3    1    3    3    0  502 -0.14396687895E+04  0.10184824787E+04  0.14057346174E+04  0.22552256223E+04  0.10100000352E+00 0. -1.
</event>
<event>
 5   0  0.1087688E-07  0.4031230E+04  0.7818609E-02  0.7998276E-01
       -2   -1    0    0    0  501  0.00000000000E+00  0.00000000000E+00  0.23444643908E+04  0.23444643908E+04  0.25500000920E-02 0. -1.
        2   -1    0    0  501    0  0.00000000000E+00  0.00000000000E+00 -0.17328921947E+04  0.17328921947E+04  0.25500000920E-02 0.  1.
    10030    2    1    2    0    0  0.00000000000E+00  0.00000000000E+00  0.61157219611E+03  0.40773565854E+04  0.40312301068E+04 0.  0.
        2    1    3    3  502    0  0.11017134241E+04 -0.12186691438E+04  0.14869571674E+04  0.22158448882E+04  0.25500000920E-02 0. -1.
       -2    1    3    3    0  502 -0.11017134241E+04  0.12186691438E+04 -0.87538497128E+03  0.18615116972E+04  0.25500000920E-02 0.  1.
</event>
<event>
 5   0  0.3399500E-08  0.4006333E+04  0.7818609E-02  0.8003270E-01
        1   -1    0    0  501    0  0.00000000000E+00  0.00000000000E+00  0.11614514133E+04  0.11614514133E+04  0.50400001928E-02 0. -1.
       -1   -1    0    0    0  501  0.00000000000E+00  0.00000000000E+00 -0.34548812249E+04  0.34548812249E+04  0.50400001928E-02 0.  1.
    10030    2    1    2    0    0  0.00000000000E+00  0.00000000000E+00 -0.22934298116E+04  0.46163326382E+04  0.40063333268E+04 0.  0.
        5    1    3    3  502    0  0.13435655593E+04  0.73942054382E+03 -0.26316288585E+04  0.30458830726E+04  0.46999998093E+01 0.  1.
       -5    1    3    3    0  502 -0.13435655593E+04 -0.73942054382E+03  0.33819904689E+03  0.15704495656E+04  0.46999998093E+01 0. -1.
</event>
<event>
 5   0  0.3399500E-08  0.3762340E+04  0.7818609E-02  0.8054285E-01
        1   -1    0    0  501    0  0.00000000000E+00  0.00000000000E+00  0.22002996787E+04  0.22002996787E+04  0.50400001928E-02 0. -1.
       -1   -1    0    0    0  501  0.00000000000E+00  0.00000000000E+00 -0.16083268247E+04  0.16083268247E+04  0.50400001928E-02 0.  1.
    10030    2    1    2    0    0  0.00000000000E+00  0.00000000000E+00  0.59197285402E+03  0.38086265034E+04  0.37623402268E+04 0.  0.
        2    1    3    3  502    0  0.41973524654E+03 -0.17876153733E+04  0.70973788087E+03  0.19686224269E+04  0.25500000920E-02 0. -1.
       -2    1    3    3    0  502 -0.41973524654E+03  0.17876153733E+04 -0.11776502685E+03  0.18400040765E+04  0.25500000920E-02 0.  1.
</event>
<event>
 5   0  0.3399500E-08  0.3575410E+04  0.7818609E-02  0.8096148E-01
       -1   -1    0    0    0  501  0.00000000000E+00  0.00000000000E+00  0.11759786663E+04  0.11759786663E+04  0.50400001928E-02 0.  1.
        1   -1    0    0  501    0  0.00000000000E+00  0.00000000000E+00 -0.27176423710E+04  0.27176423710E+04  0.50400001928E-02 0. -1.
    10030    2    1    2    0    0  0.00000000000E+00  0.00000000000E+00 -0.15416637047E+04  0.38936210373E+04  0.35754101589E+04 0.  0.
        3    1    3    3  502    0 -0.58611913680E+03 -0.14780975317E+04 -0.16606063451E+04  0.22991131767E+04  0.10100000352E+00 0. -1.
       -3    1    3    3    0  502  0.58611913680E+03  0.14780975317E+04  0.11894264039E+03  0.15945078606E+04  0.10100000352E+00 0.  1.
</event>
<event>
 5   0  0.1073271E-07  0.4148862E+04  0.7818609E-02  0.7975172E-01
       -2   -1    0    0    0  501  0.00000000000E+00  0.00000000000E+00  0.19821254074E+04  0.19821254074E+04  0.25500000920E-02 0.  1.
        2   -1    0    0  501    0  0.00000000000E+00  0.00000000000E+00 -0.21710354901E+04  0.21710354901E+04  0.25500000920E-02 0. -1.
    10030    2    1    2    0    0  0.00000000000E+00  0.00000000000E+00 -0.18891008269E+03  0.41531608976E+04  0.41488623045E+04 0.  0.
        1    1    3    3  502    0  0.92768128883E+03 -0.88227104910E+03 -0.17284053258E+04  0.21509020778E+04  0.50400001928E-02 0. -1.
       -1    1    3    3    0  502 -0.92768128883E+03  0.88227104910E+03  0.15394952432E+04  0.20022588198E+04  0.50400001928E-02 0.  1.
</event>
<event>
 5   0  0.1087688E-07  0.4023226E+04  0.7818609E-02  0.7999877E-01
       -2   -1    0    0    0  501  0.00000000000E+00  0.00000000000E+00  0.26775520930E+04  0.26775520930E+04  0.25500000920E-02 0.  1.
        2   -1    0    0  501    0  0.00000000000E+00  0.00000000000E+00 -0.15113010638E+04  0.15113010638E+04  0.25500000920E-02 0. -1.
    10030    2    1    2    0    0  0.00000000000E+00  0.00000000000E+00  0.11662510293E+04  0.41888531568E+04  0.40232262310E+04 0.  0.
        2    1    3    3  502    0 -0.21599819206E+03 -0.19999290748E+04  0.59842052468E+03  0.20986849805E+04  0.25500000920E-02 0.  1.
       -2    1    3    3    0  502  0.21599819206E+03  0.19999290748E+04  0.56783050458E+03  0.20901681763E+04  0.25500000920E-02 0. -1.
</event>
<event>
 5   0  0.3399500E-08  0.3855267E+04  0.7818609E-02  0.8034398E-01
       -1   -1    0    0    0  501  0.00000000000E+00  0.00000000000E+00  0.12704333395E+04  0.12704333396E+04  0.50400001928E-02 0.  1.
        1   -1    0    0  501    0  0.00000000000E+00  0.00000000000E+00 -0.29248058682E+04  0.29248058682E+04  0.50400001928E-02 0. -1.
    10030    2    1    2    0    0  0.00000000000E+00  0.00000000000E+00 -0.16543725286E+04  0.41952392077E+04  0.38552669877E+04 0.  0.
        5    1    3    3  502    0  0.47958725399E+03 -0.83735076239E+02 -0.28567973978E+04  0.28979870529E+04  0.46999998093E+01 0. -1.
       -5    1    3    3    0  502 -0.47958725399E+03  0.83735076239E+02  0.12024248691E+04  0.12972521548E+04  0.46999998093E+01 0.  1.
</event>
<event>
 5   0  0.1073271E-07  0.4018797E+04  0.7818609E-02  0.8000765E-01
       -2   -1    0    0    0  501  0.00000000000E+00  0.00000000000E+00  0.17246493696E+04  0.17246493696E+04  0.25500000920E-02 0. -1.
        2   -1    0    0  501    0  0.00000000000E+00  0.00000000000E+00 -0.23411616400E+04  0.23411616400E+04  0.25500000920E-02 0.  1.
    10030    2    1    2    0    0  0.00000000000E+00  0.00000000000E+00 -0.61651227038E+03  0.40658110096E+04  0.40187973059E+04 0.  0.
        1    1    3    3  502    0  0.22154459825E+03  0.23488266668E+03 -0.23147454766E+04  0.23371560704E+04  0.50400001928E-02 0.  1.
       -1    1    3    3    0  502 -0.22154459825E+03 -0.23488266668E+03  0.16982332062E+04  0.17286549392E+04  0.50400001928E-02 0. -1.
</event>
<event>
 5   0  0.3399500E-08  0.3798796E+04  0.7818609E-02  0.8046413E-01
       -1   -1    0    0    0  501  0.00000000000E+00  0.00000000000E+00  0.16430962323E+04  0.16430962323E+04  0.50400001928E-02 0.  1.
        1   -1    0    0  501    0  0.00000000000E+00  0.00000000000E+00 -0.21956792042E+04  0.21956792042E+04  0.50400001928E-02 0. -1.
    10030    2    1    2    0    0  0.00000000000E+00  0.00000000000E+00 -0.55258297187E+03  0.38387754365E+04  0.37987957185E+04 0.  0.
        1    1    3    3  502    0 -0.87098125307E+03  0.53828371106E+03 -0.18929265431E+04  0.21520986489E+04  0.50400001928E-02 0. -1.
       -1    1    3    3    0  502  0.87098125307E+03 -0.53828371106E+03  0.13403435713E+04  0.16866767876E+04  0.50400001928E-02 0.  1.
</event>
<event>
 5   0  0.3399500E-08  0.4009567E+04  0.7818609E-02  0.8002619E-01
        1   -1    0    0  501    0  0.00000000000E+00  0.00000000000E+00  0.26266844939E+04  0.26266844939E+04  0.50400001928E-02 0. -1.
       -1   -1    0    0    0  501  0.00000000000E+00  0.00000000000E+00 -0.15301251900E+04  0.15301251900E+04  0.50400001928E-02 0.  1.
    10030    2    1    2    0    0  0.00000000000E+00  0.00000000000E+00  0.10965593039E+04  0.41568096839E+04  0.40095666151E+04 0.  0.
        3    1    3    3  502    0 -0.11027269121E+03 -0.64952329737E+03 -0.14146931621E+04  0.15605759621E+04  0.10100000352E+00 0.  1.
       -3    1    3    3    0  502  0.11027269121E+03  0.64952329737E+03  0.25112524660E+04  0.25962337218E+04  0.10100000352E+00 0. -1.
</event>
<event>
 5   0  0.1095109E-07  0.3996515E+04  0.7818609E-02  0.8005250E-01
       -2   -1    0    0    0  501  0.00000000000E+00  0.00000000000E+00  0.16448359358E+04  0.16448359358E+04  0.25500000920E-02 0. -1.
        2   -1    0    0  501    0  0.00000000000E+00  0.00000000000E+00 -0.24276174438E+04  0.24276174438E+04  0.25500000920E-02 0.  1.
    10030    2    1    2    0    0  0.00000000000E+00  0.00000000000E+00 -0.78278150801E+03  0.40724533797E+04  0.39965146866E+04 0.  0.
        4    1    3    3  502    0  0.44028097512E+03  0.31270123121E+03  0.15690684102E+04  0.16593994955E+04  0.12699999809E+01 0. -1.
       -4    1    3    3    0  502 -0.44028097512E+03 -0.31270123121E+03 -0.23518499182E+04  0.24130538841E+04  0.12699999809E+01 0.  1.
</event>
<event>
 5   0  0.1101474E-07  0.4008326E+04  0.7818609E-02  0.8002869E-01
        2   -1    0    0  501    0  0.00000000000E+00  0.00000000000E+00  0.22225603912E+04  0.22225603912E+04  0.25500000920E-02 0.  1.
       -2   -1    0    0    0  501  0.00000000000E+00  0.00000000000E+00 -0.18072257540E+04  0.18072257540E+04  0.25500000920E-02 0. -1.
    10030    2    1    2    0    0  0.00000000000E+00  0.00000000000E+00  0.41533463715E+03  0.40297861452E+04  0.40083255251E+04 0.  0.
        5    1    3    3  502    0 -0.93799509871E+03  0.54095583061E+03  0.19031658670E+04  0.21896416198E+04  0.46999998093E+01 0.  1.
       -5    1    3    3    0  502  0.93799509871E+03 -0.54095583061E+03 -0.14878312298E+04  0.18401445254E+04  0.46999998093E+01 0. -1.
</event>
<event>
 5   0  0.1073271E-07  0.3988843E+04  0.7818609E-02  0.8006801E-01
       -2   -1    0    0    0  501  0.00000000000E+00  0.00000000000E+00  0.20441018712E+04  0.20441018712E+04  0.25500000920E-02 0.  1.
        2   -1    0    0  501    0  0.00000000000E+00  0.00000000000E+00 -0.19459485290E+04  0.19459485290E+04  0.25500000920E-02 0. -1.
    10030    2    1    2    0    0  0.00000000000E+00  0.00000000000E+00  0.98153342140E+02  0.39900504002E+04  0.39888429548E+04 0.  0.
        1    1    3    3  502    0 -0.15455140341E+04 -0.12362307475E+04  0.29580278594E+03  0.20010945452E+04  0.50400001928E-02 0. -1.
       -1    1    3    3    0  502  0.15455140341E+04  0.12362307475E+04 -0.19764944380E+03  0.19889558550E+04  0.50400001928E-02 0.  1.
</event>
<event>
 5   0  0.1101474E-07  0.3995939E+04  0.7818609E-02  0.8005366E-01
        2   -1    0    0  501    0  0.00000000000E+00  0.00000000000E+00  0.25548279952E+04  0.25548279952E+04  0.25500000920E-02 0.  1.
       -2   -1    0    0    0  501  0.00000000000E+00  0.00000000000E+00 -0.15624854461E+04  0.15624854461E+04  0.25500000920E-02 0. -1.
    10030    2    1    2    0    0  0.00000000000E+00  0.00000000000E+00  0.99234254902E+03  0.41173134413E+04  0.39959387182E+04 0.  0.
        5    1    3    3  502    0  0.92163971228E+03  0.15264189236E+04 -0.43258718270E+03  0.18348101401E+04  0.46999998093E+01 0. -1.
       -5    1    3    3    0  502 -0.92163971228E+03 -0.15264189236E+04  0.14249297317E+04  0.22825033012E+04  0.46999998093E+01 0.  1.
</event>
<event>
 5   0  0.1095109E-07  0.3988117E+04  0.7818609E-02  0.8006948E-01
        2   -1    0    0  501    0  0.00000000000E+00  0.00000000000E+00  0.21583899549E+04  0.21583899549E+04  0.25500000920E-02 0. -1.
       -2   -1    0    0    0  501  0.00000000000E+00  0.00000000000E+00 -0.18422386493E+04  0.18422386493E+04  0.25500000920E-02 0.  1.
    10030    2    1    2    0    0  0.00000000000E+00  0.00000000000E+00  0.31615130559E+03  0.40006286042E+04  0.39881170470E+04 0.  0.
        4    1    3    3  502    0  0.59136620363E+03 -0.17230350156E+04 -0.65545819070E+03  0.19360244586E+04  0.12699999809E+01 0.  1.
       -4    1    3    3    0  502 -0.59136620363E+03  0.17230350156E+04  0.97160949630E+03  0.20646041456E+04  0.12699999809E+01 0. -1.
</event>
<event>
 5   0  0.3399500E-08  0.4014479E+04  0.7818609E-02  0.8001632E-01
       -1   -1    0    0    0  501  0.00000000000E+00  0.00000000000E+00  0.14958439402E+04  0.14958439402E+04  0.50400001928E-02 0.  1.
        1   -1    0    0  501    0  0.00000000000E+00  0.00000000000E+00 -0.26934693797E+04  0.26934693797E+04  0.50400001928E-02 0. -1.
    10030    2    1    2    0    0  0.00000000000E+00  0.00000000000E+00 -0.11976254396E+04  0.41893133199E+04  0.40144787207E+04 0.  0.
        3    1    3    3  502    0 -0.11721912160E+04  0.10909589256E+04 -0.18618053155E+04  0.24557163246E+04  0.10100000352E+00 0. -1.
       -3    1    3    3    0  502  0.11721912160E+04 -0.10909589256E+04  0.66417987594E+03  0.17335969953E+04  0.10100000352E+00 0.  1.
</event>
<event>
 5   0  0.3399500E-08  0.4017139E+04  0.7818609E-02  0.8001098E-01
       -1   -1    0    0    0  501  0.00000000000E+00  0.00000000000E+00  0.16742475625E+04  0.16742475625E+04  0.50400001928E-02 0.  1.
        1   -1    0    0  501    0  0.00000000000E+00  0.00000000000E+00 -0.24096505936E+04  0.24096505936E+04  0.50400001928E-02 0. -1.
    10030    2    1    2    0    0  0.00000000000E+00  0.00000000000E+00 -0.73540303111E+03  0.40838981561E+04  0.40171390979E+04 0.  0.
        3    1    3    3  502    0 -0.13027661419E+04 -0.13824852012E+04 -0.10311467167E+04  0.21614181719E+04  0.10100000352E+00 0. -1.
       -3    1    3    3    0  502  0.13027661419E+04  0.13824852012E+04  0.29574368561E+03  0.19224799843E+04  0.10100000352E+00 0.  1.
</event>
<event>
 5   0  0.1095903E-07  0.4010222E+04  0.7818609E-02  0.8002488E-01
        2   -1    0    0  501    0  0.00000000000E+00  0.00000000000E+00  0.13687869465E+04  0.13687869465E+04  0.25500000920E-02 0.  1.
       -2   -1    0    0    0  501  0.00000000000E+00  0.00000000000E+00 -0.29372510464E+04  0.29372510464E+04  0.25500000920E-02 0. -1.
    10030    2    1    2    0    0  0.00000000000E+00  0.00000000000E+00 -0.15684640999E+04  0.43060379930E+04  0.40102223834E+04 0.  0.
        3    1    3    3  502    0 -0.10867895575E+04  0.97710126323E+03  0.68985365328E+03  0.16160867842E+04  0.10100000352E+00 0.  1.
       -3    1    3    3    0  502  0.10867895575E+04 -0.97710126323E+03 -0.22583177532E+04  0.26899512088E+04  0.10100000352E+00 0. -1.
</event>
<event>
 5   0  0.1095109E-07  0.3970121E+04  0.7818609E-02  0.8010601E-01
        2   -1    0    0  501    0  0.00000000000E+00  0.00000000000E+00  0.12609857915E+04  0.12609857915E+04  0.25500000920E-02 0. -1.
       -2   -1    0    0    0  501  0.00000000000E+00  0.00000000000E+00 -0.31249082630E+04  0.31249082630E+04  0.25500000920E-02 0.  1.
    10030    2    1    2    0    0  0.00000000000E+00  0.00000000000E+00 -0.18639224715E+04  0.43858940545E+04  0.39701208643E+04 0.  0.
        4    1    3    3  502    0  0.57413552647E+03 -0.96908670996E+03 -0.27376731729E+04  0.29603406339E+04  0.12699999809E+01 0.  1.
       -4    1    3    3    0  502 -0.57413552647E+03  0.96908670996E+03  0.87375070132E+03  0.14255534207E+04  0.12699999809E+01 0. -1.
</event>
<event>
 5   0  0.3399500E-08  0.3996006E+04  0.7818609E-02  0.8005353E-01
        1   -1    0    0  501    0  0.00000000000E+00  0.00000000000E+00  0.15723916980E+04  0.15723916980E+04  0.50400001928E-02 0.  1.
       -1   -1    0    0    0  501  0.00000000000E+00  0.00000000000E+00 -0.25388181064E+04  0.25388181064E+04  0.50400001928E-02 0. -1.
    10030    2    1    2    0    0  0.00000000000E+00  0.00000000000E+00 -0.96642640832E+03  0.41112098044E+04  0.39960062629E+04 0.  0.
        4    1    3    3  502    0  0.56526479392E+03  0.16596587125E+04  0.50254499110E+03  0.18238816875E+04  0.12699999809E+01 0.  1.
       -4    1    3    3    0  502 -0.56526479392E+03 -0.16596587125E+04 -0.14689713994E+04  0.22873281169E+04  0.12699999809E+01 0. -1.
</event>
<event>
 5   0  0.3399500E-08  0.3993556E+04  0.7818609E-02  0.8005848E-01
        1   -1    0    0  501    0  0.00000000000E+00  0.00000000000E+00  0.11834406966E+04  0.11834406966E+04  0.50400001928E-02 0.  1.
       -1   -1    0    0    0  501  0.00000000000E+00  0.00000000000E+00 -0.33690926853E+04  0.33690926853E+04  0.50400001928E-02 0. -1.
    10030    2    1    2    0    0  0.00000000000E+00  0.00000000000E+00 -0.21856519887E+04  0.45525333819E+04  0.39935555057E+04 0.  0.
        1    1    3    3  502    0  0.17319670162E+04 -0.34955450930E+03 -0.32455790561E+02  0.17671874486E+04  0.50400001928E-02 0.  1.
       -1    1    3    3    0  502 -0.17319670162E+04  0.34955450930E+03 -0.21531961982E+04  0.27853459333E+04  0.50400001928E-02 0. -1.
</event>
<event>
 5   0  0.3399500E-08  0.3991341E+04  0.7818609E-02  0.8006296E-01
        1   -1    0    0  501    0  0.00000000000E+00  0.00000000000E+00  0.27378176800E+04  0.27378176800E+04  0.50400001928E-02 0.  1.
       -1   -1    0    0    0  501  0.00000000000E+00  0.00000000000E+00 -0.14546986908E+04  0.14546986908E+04  0.50400001928E-02 0. -1.
    10030    2    1    2    0    0  0.00000000000E+00  0.00000000000E+00  0.12831189892E+04  0.41925163707E+04  0.39913405240E+04 0.  0.
        2    1    3    3  502    0 -0.30905543345E+03  0.95836274542E+03 -0.11682839055E+04  0.15423558917E+04  0.25500000920E-02 0. -1.
       -2    1    3    3    0  502  0.30905543345E+03 -0.95836274542E+03  0.24514028947E+04  0.26501604791E+04  0.25500000920E-02 0.  1.
</event>
<event>
 5   0  0.1095109E-07  0.4022105E+04  0.7818609E-02  0.8000102E-01
        2   -1    0    0  501    0  0.00000000000E+00  0.00000000000E+00  0.21775276227E+04  0.21775276227E+04  0.25500000920E-02 0. -1.
       -2   -1    0    0    0  501  0.00000000000E+00  0.00000000000E+00 -0.18573045230E+04  0.18573045230E+04  0.25500000920E-02 0.  1.
    10030    2    1    2    0    0  0.00000000000E+00  0.00000000000E+00  0.32022309977E+03  0.40348321457E+04  0.40221048731E+04 0.  0.
        4    1    3    3  502    0 -0.85712209512E+03  0.56655486424E+03 -0.15741410012E+04  0.18797777009E+04  0.12699999809E+01 0.  1.
       -4    1    3    3    0  502  0.85712209512E+03 -0.56655486424E+03  0.18943641010E+04  0.21550544448E+04  0.12699999809E+01 0. -1.
</event>
<event>
 5   0  0.1095109E-07  0.3956060E+04  0.7818609E-02  0.8013470E-01
       -2   -1    0    0    0  501  0.00000000000E+00  0.00000000000E+00  0.13252015223E+04  0.13252015223E+04  0.25500000920E-02 0.  1.
        2   -1    0    0  501    0  0.00000000000E+00  0.00000000000E+00 -0.29524579079E+04  0.29524579079E+04  0.25500000920E-02 0. -1.
    10030    2    1    2    0    0  0.00000000000E+00  0.00000000000E+00 -0.16272563856E+04  0.42776594302E+04  0.39560595112E+04 0.  0.
        4    1    3    3  502    0 -0.66987320778E+03  0.30065413149E+03 -0.27996420329E+04  0.28943255081E+04  0.12699999809E+01 0. -1.
       -4    1    3    3    0  502  0.66987320778E+03 -0.30065413149E+03  0.11723856473E+04  0.13833339221E+04  0.12699999809E+01 0.  1.
</event>
<event>
 5   0  0.1101474E-07  0.3977008E+04  0.7818609E-02  0.8009201E-01
       -2   -1    0    0    0  501  0.00000000000E+00  0.00000000000E+00  0.29153511269E+04  0.29153511269E+04  0.25500000920E-02 0.  1.
        2   -1    0    0  501    0  0.00000000000E+00  0.00000000000E+00 -0.13563197410E+04  0.13563197410E+04  0.25500000920E-02 0. -1.
    10030    2    1    2    0    0  0.00000000000E+00  0.00000000000E+00  0.15590313859E+04  0.42716708679E+04  0.39770080640E+04 0.  0.
        5    1    3    3  502    0  0.13690366292E+04  0.50608087780E+03  0.22300353291E+04  0.26652314732E+04  0.46999998093E+01 0.  1.
       -5    1    3    3    0  502 -0.13690366292E+04 -0.50608087780E+03 -0.67100394320E+03  0.16064393947E+04  0.46999998093E+01 0. -1.
</event>
<event>
 5   0  0.3399500E-08  0.3994991E+04  0.7818609E-02  0.8005558E-01
        1   -1    0    0  501    0  0.00000000000E+00  0.00000000000E+00  0.28866547129E+04  0.28866547129E+04  0.50400001928E-02 0. -1.
       -1   -1    0    0    0  501  0.00000000000E+00  0.00000000000E+00 -0.13822186024E+04  0.13822186024E+04  0.50400001928E-02 0.  1.
    10030    2    1    2    0    0  0.00000000000E+00  0.00000000000E+00  0.15044361105E+04  0.42688733152E+04  0.39949907848E+04 0.  0.
        5    1    3    3  502    0 -0.48971838305E+03  0.16132379775E+04 -0.39248720664E+03  0.17310196891E+04  0.46999998093E+01 0.  1.
       -5    1    3    3    0  502  0.48971838305E+03 -0.16132379775E+04  0.18969233171E+04  0.25378536262E+04  0.46999998093E+01 0. -1.
</event>
<event>
 5   0  0.3399500E-08  0.4027486E+04  0.7818609E-02  0.7999025E-01
       -1   -1    0    0    0  501  0.00000000000E+00  0.00000000000E+00  0.13822918664E+04  0.13822918664E+04  0.50400001928E-02 0. -1.
        1   -1    0    0  501    0  0.00000000000E+00  0.00000000000E+00 -0.29336507872E+04  0.29336507872E+04  0.50400001928E-02 0.  1.
    10030    2    1    2    0    0  0.00000000000E+00  0.00000000000E+00 -0.15513589209E+04  0.43159426536E+04  0.40274863734E+04 0.  0.
        2    1    3    3  502    0 -0.11513115401E+04 -0.35340365844E+02 -0.25457687001E+04  0.27942271701E+04  0.25500000920E-02 0.  1.
       -2    1    3    3    0  502  0.11513115401E+04  0.35340365844E+02  0.99440977923E+03  0.15217154835E+04  0.25500000920E-02 0. -1.
</event>
<event>
 5   0  0.1073271E-07  0.3969964E+04  0.7818609E-02  0.8010633E-01
        2   -1    0    0  501    0  0.00000000000E+00  0.00000000000E+00  0.11787496755E+04  0.11787496755E+04  0.25500000920E-02 0.  1.
       -2   -1    0    0    0  501  0.00000000000E+00  0.00000000000E+00 -0.33426556356E+04  0.33426556356E+04  0.25500000920E-02 0. -1.
    10030    2    1    2    0    0  0.00000000000E+00  0.00000000000E+00 -0.21639059601E+04  0.45214053111E+04  0.39699643554E+04 0.  0.
        1    1    3    3  502    0 -0.75575212248E+03  0.18338999371E+04 -0.11687191400E+04  0.23022281985E+04  0.50400001928E-02 0. -1.
       -1    1    3    3    0  502  0.75575212248E+03 -0.18338999371E+04 -0.99518682015E+03  0.22191771126E+04  0.50400001928E-02 0.  1.
</event>
<event>
 5   0  0.3399500E-08  0.3511667E+04  0.7818609E-02  0.8111031E-01
       -1   -1    0    0    0  501  0.00000000000E+00  0.00000000000E+00  0.30790291431E+04  0.30790291431E+04  0.50400001928E-02 0. -1.
        1   -1    0    0  501    0  0.00000000000E+00  0.00000000000E+00 -0.10012737802E+04  0.10012737802E+04  0.50400001928E-02 0.  1.
    10030    2    1    2    0    0  0.00000000000E+00  0.00000000000E+00  0.20777553629E+04  0.40803029233E+04  0.35116669258E+04 0.  0.
        4    1    3    3  502    0 -0.17606295426E+03  0.12594083877E+04 -0.36789087587E+03  0.13238024628E+04  0.12699999809E+01 0.  1.
       -4    1    3    3    0  502  0.17606295426E+03 -0.12594083877E+04  0.24456462388E+04  0.27565004606E+04  0.12699999809E+01 0. -1.
</event>
<event>
 5   0  0.1095109E-07  0.3887907E+04  0.7818609E-02  0.8027549E-01
       -2   -1    0    0    0  501  0.00000000000E+00  0.00000000000E+00  0.19684553895E+04  0.19684553895E+04  0.25500000920E-02 0.  1.
        2   -1    0    0  501    0  0.00000000000E+00  0.00000000000E+00 -0.19197569547E+04  0.19197569547E+04  0.25500000920E-02 0. -1.
    10030    2    1    2    0    0  0.00000000000E+00  0.00000000000E+00  0.48698434782E+02  0.38882123441E+04  0.38879073671E+04 0.  0.
        4    1    3    3  502    0  0.10723511276E+04  0.21796335405E+03 -0.15824844274E+04  0.19239811695E+04  0.12699999809E+01 0. -1.
       -4    1    3    3    0  502 -0.10723511276E+04 -0.21796335405E+03  0.16311828622E+04  0.19642311746E+04  0.12699999809E+01 0.  1.
</event>
<event>
 5   0  0.1087688E-07  0.4001160E+04  0.7818609E-02  0.8004313E-01
        2   -1    0    0  501    0  0.00000000000E+00  0.00000000000E+00  0.14712784570E+04  0.14712784570E+04  0.25500000920E-02 0. -1.
       -2   -1    0    0    0  501  0.00000000000E+00  0.00000000000E+00 -0.27203006996E+04  0.27203006996E+04  0.25500000920E-02 0.  1.
    10030    2    1    2    0    0  0.00000000000E+00  0.00000000000E+00 -0.12490222426E+04  0.41915791566E+04  0.40011597398E+04 0.  0.
        2    1    3    3  502    0 -0.61769240307E+03 -0.17916872817E+04 -0.12958139728E+04  0.22958268821E+04  0.25500000920E-02 0.  1.
       -2    1    3    3    0  502  0.61769240307E+03  0.17916872817E+04  0.46791730160E+02  0.18957522745E+04  0.25500000920E-02 0. -1.
</event>
<event>
 5   0  0.3399500E-08  0.3996997E+04  0.7818609E-02  0.8005153E-01
        1   -1    0    0  501    0  0.00000000000E+00  0.00000000000E+00  0.20066505935E+04  0.20066505935E+04  0.50400001928E-02 0.  1.
       -1   -1    0    0    0  501  0.00000000000E+00  0.00000000000E+00 -0.19903793556E+04  0.19903793556E+04  0.50400001928E-02 0. -1.
    10030    2    1    2    0    0  0.00000000000E+00  0.00000000000E+00  0.16271237819E+02  0.39970299491E+04  0.39969968302E+04 0.  0.
        1    1    3    3  502    0  0.47009270404E+03  0.16657999687E+04  0.10072030689E+04  0.20025820104E+04  0.50400001928E-02 0.  1.
       -1    1    3    3    0  502 -0.47009270404E+03 -0.16657999687E+04 -0.99093183113E+03  0.19944479387E+04  0.50400001928E-02 0. -1.
</event>
<event>
 5   0  0.1095109E-07  0.3971522E+04  0.7818609E-02  0.8010316E-01
        2   -1    0    0  501    0  0.00000000000E+00  0.00000000000E+00  0.14903489481E+04  0.14903489481E+04  0.25500000920E-02 0.  1.
       -2   -1    0    0    0  501  0.00000000000E+00  0.00000000000E+00 -0.26458552684E+04  0.26458552684E+04  0.25500000920E-02 0. -1.
    10030    2    1    2    0    0  0.00000000000E+00  0.00000000000E+00 -0.11555063203E+04  0.41362042166E+04  0.39715224367E+04 0.  0.
        4    1    3    3  502    0 -0.37659837994E+03 -0.71174479222E+01 -0.26083091417E+04  0.26353662344E+04  0.12699999809E+01 0. -1.
       -4    1    3    3    0  502  0.37659837994E+03  0.71174479222E+01  0.14528028214E+04  0.15008379821E+04  0.12699999809E+01 0.  1.
</event>
<event>
 5   0  0.3399500E-08  0.3989639E+04  0.7818609E-02  0.8006640E-01
       -1   -1    0    0    0  501  0.00000000000E+00  0.00000000000E+00  0.14024347465E+04  0.14024347465E+04  0.50400001928E-02 0. -1.
        1   -1    0    0  501    0  0.00000000000E+00  0.00000000000E+00 -0.28374255785E+04  0.28374255785E+04  0.50400001928E-02 0.  1.
    10030    2    1    2    0    0  0.00000000000E+00  0.00000000000E+00 -0.14349908320E+04  0.42398603250E+04  0.39896386914E+04 0.  0.
        5    1    3    3  502    0 -0.10568289339E+03 -0.19817067968E+04 -0.50243894457E+03  0.20471437872E+04  0.46999998093E+01 0.  1.
       -5    1    3    3    0  502  0.10568289339E+03  0.19817067968E+04 -0.93255188745E+03  0.21927165378E+04  0.46999998093E+01 0. -1.
</event>
<event>
 5   0  0.1101474E-07  0.4033979E+04  0.7818609E-02  0.7997727E-01
        2   -1    0    0  501    0  0.00000000000E+00  0.00000000000E+00  0.25501742689E+04  0.25501742689E+04  0.25500000920E-02 0. -1.
       -2   -1    0    0    0  501  0.00000000000E+00  0.00000000000E+00 -0.15952816013E+04  0.15952816013E+04  0.25500000920E-02 0.  1.
    10030    2    1    2    0    0  0.00000000000E+00  0.00000000000E+00  0.95489266761E+03  0.41454558703E+04  0.40339787265E+04 0.  0.
        5    1    3    3  502    0  0.32687083026E+03  0.19550082016E+04  0.93872338784E+02  0.19843728768E+04  0.46999998093E+01 0.  1.
       -5    1    3    3    0  502 -0.32687083026E+03 -0.19550082016E+04  0.86102032883E+03  0.21610829935E+04  0.46999998093E+01 0. -1.
</event>
<event>
 5   0  0.1101474E-07  0.4007849E+04  0.7818609E-02  0.8002965E-01
       -2   -1    0    0    0  501  0.00000000000E+00  0.00000000000E+00  0.27812870284E+04  0.27812870284E+04  0.25500000920E-02 0. -1.
        2   -1    0    0  501    0  0.00000000000E+00  0.00000000000E+00 -0.14438330203E+04  0.14438330203E+04  0.25500000920E-02 0.  1.
    10030    2    1    2    0    0  0.00000000000E+00  0.00000000000E+00  0.13374540081E+04  0.42251200487E+04  0.40078493238E+04 0.  0.
        5    1    3    3  502    0  0.12165968518E+04  0.13918328742E+04 -0.14676203745E+03  0.18544184628E+04  0.46999998093E+01 0.  1.
       -5    1    3    3    0  502 -0.12165968518E+04 -0.13918328742E+04  0.14842160455E+04  0.23707015859E+04  0.46999998093E+01 0. -1.
</event>
<event>
 5   0  0.1073271E-07  0.4011412E+04  0.7818609E-02  0.8002248E-01
        2   -1    0    0  501    0  0.00000000000E+00  0.00000000000E+00  0.24716010075E+04  0.24716010075E+04  0.25500000920E-02 0. -1.
       -2   -1    0    0    0  501  0.00000000000E+00  0.00000000000E+00 -0.16276322134E+04  0.16276322134E+04  0.25500000920E-02 0.  1.
    10030    2    1    2    0    0  0.00000000000E+00  0.00000000000E+00  0.84396879407E+03  0.40992332209E+04  0.40114124288E+04 0.  0.
        1    1    3    3  502    0 -0.16178072120E+04 -0.81006762054E+03 -0.46261573394E+03  0.18674911090E+04  0.50400001928E-02 0.  1.
       -1    1    3    3    0  502  0.16178072120E+04  0.81006762054E+03  0.13065845280E+04  0.22317421118E+04  0.50400001928E-02 0. -1.
</event>
<event>
 5   0  0.3399500E-08  0.3976528E+04  0.7818609E-02  0.8009298E-01
        1   -1    0    0  501    0  0.00000000000E+00  0.00000000000E+00  0.16485012629E+04  0.16485012630E+04  0.50400001928E-02 0. -1.
       -1   -1    0    0    0  501  0.00000000000E+00  0.00000000000E+00 -0.23980536562E+04  0.23980536562E+04  0.50400001928E-02 0.  1.
    10030    2    1    2    0    0  0.00000000000E+00  0.00000000000E+00 -0.74955239325E+03  0.40465549192E+04  0.39765283758E+04 0.  0.
        4    1    3    3  502    0 -0.40016632098E+03 -0.14402818244E+04  0.95928216079E+03  0.17761668545E+04  0.12699999809E+01 0. -1.
       -4    1    3    3    0  502  0.40016632098E+03  0.14402818244E+04 -0.17088345540E+04  0.22703880647E+04  0.12699999809E+01 0.  1.
</event>
<event>
 5   0  0.3399500E-08  0.3862768E+04  0.7818609E-02  0.8032818E-01
        1   -1    0    0  501    0  0.00000000000E+00  0.00000000000E+00  0.12938238702E+04  0.12938238702E+04  0.50400001928E-02 0.  1.
       -1   -1    0    0    0  501  0.00000000000E+00  0.00000000000E+00 -0.28831164686E+04  0.28831164686E+04  0.50400001928E-02 0. -1.
    10030    2    1    2    0    0  0.00000000000E+00  0.00000000000E+00 -0.15892925984E+04  0.41769403388E+04  0.38627683895E+04 0.  0.
        3    1    3    3  502    0  0.71341482858E+03  0.43174863496E+03 -0.26784262557E+04  0.28052334696E+04  0.10100000352E+00 0. -1.
       -3    1    3    3    0  502 -0.71341482858E+03 -0.43174863496E+03  0.10891336573E+04  0.13717068692E+04  0.10100000352E+00 0.  1.
</event>
<event>
 5   0  0.3399500E-08  0.3996204E+04  0.7818609E-02  0.8005313E-01
        1   -1    0    0  501    0  0.00000000000E+00  0.00000000000E+00  0.25688573731E+04  0.25688573732E+04  0.50400001928E-02 0. -1.
       -1   -1    0    0    0  501  0.00000000000E+00  0.00000000000E+00 -0.15541588455E+04  0.15541588455E+04  0.50400001928E-02 0.  1.
    10030    2    1    2    0    0  0.00000000000E+00  0.00000000000E+00  0.10146985276E+04  0.41230162187E+04  0.39962044039E+04 0.  0.
        3    1    3    3  502    0 -0.74075329944E+02  0.11563010689E+04 -0.11721566015E+04  0.16481718433E+04  0.10100000352E+00 0.  1.
       -3    1    3    3    0  502  0.74075329944E+02 -0.11563010689E+04  0.21868551291E+04  0.24748443754E+04  0.10100000352E+00 0. -1.
</event>
<event>
 5   0  0.1095109E-07  0.4002786E+04  0.7818609E-02  0.8003985E-01
       -2   -1    0    0    0  501  0.00000000000E+00  0.00000000000E+00  0.18402628848E+04  0.18402628849E+04  0.25500000920E-02 0.  1.
        2   -1    0    0  501    0  0.00000000000E+00  0.00000000000E+00 -0.21766316876E+04  0.21766316876E+04  0.25500000920E-02 0. -1.
    10030    2    1    2    0    0  0.00000000000E+00  0.00000000000E+00 -0.33636880278E+03  0.40168945725E+04  0.40027862839E+04 0.  0.
        4    1    3    3  502    0 -0.19653958186E+03 -0.18028467072E+04 -0.10177430218E+04  0.20795880670E+04  0.12699999809E+01 0. -1.
       -4    1    3    3    0  502  0.19653958186E+03  0.18028467072E+04  0.68137421902E+03  0.19373065055E+04  0.12699999809E+01 0.  1.
</event>
<event>
 5   0  0.3399500E-08  0.4015679E+04  0.7818609E-02  0.8001391E-01
        3   -1    0    0  501    0  0.00000000000E+00  0.00000000000E+00  0.16270565057E+04  0.16270565088E+04  0.10100000352E+00 0.  1.
       -3   -1    0    0    0  501  0.00000000000E+00  0.00000000000E+00 -0.24777378490E+04  0.24777378511E+04  0.10100000352E+00 0. -1.
    10030    2    1    2    0    0  0.00000000000E+00  0.00000000000E+00 -0.85068134334E+03  0.41047943599E+04  0.40156790197E+04 0.  0.
        3    1    3    3  502    0  0.91602763383E+03  0.71968604610E+03  0.12462992781E+04  0.17059649855E+04  0.10100000352E+00 0.  1.
       -3    1    3    3    0  502 -0.91602763383E+03 -0.71968604610E+03 -0.20969806214E+04  0.23988293744E+04  0.10100000352E+00 0. -1.
</event>
<event>
 5   0  0.3399500E-08  0.3994897E+04  0.7818609E-02  0.8005577E-01
       -1   -1    0    0    0  501  0.00000000000E+00  0.00000000000E+00  0.12853741195E+04  0.12853741195E+04  0.50400001928E-02 0. -1.
        1   -1    0    0  501    0  0.00000000000E+00  0.00000000000E+00 -0.31039994110E+04  0.31039994110E+04  0.50400001928E-02 0.  1.
    10030    2    1    2    0    0  0.00000000000E+00  0.00000000000E+00 -0.18186252915E+04  0.43893735306E+04  0.39948969999E+04 0.  0.
        1    1    3    3  502    0 -0.11973484859E+04 -0.11600089732E+04  0.29957478365E+03  0.16938150034E+04  0.50400001928E-02 0. -1.
       -1    1    3    3    0  502  0.11973484859E+04  0.11600089732E+04 -0.21182000752E+04  0.26955585271E+04  0.50400001928E-02 0.  1.
</event>
<event>
 5   0  0.3399500E-08  0.3993170E+04  0.7818609E-02  0.8005926E-01
        1   -1    0    0  501    0  0.00000000000E+00  0.00000000000E+00  0.23531741597E+04  0.23531741597E+04  0.50400001928E-02 0. -1.
       -1   -1    0    0    0  501  0.00000000000E+00  0.00000000000E+00 -0.16940314641E+04  0.16940314641E+04  0.50400001928E-02 0.  1.
    10030    2    1    2    0    0  0.00000000000E+00  0.00000000000E+00  0.65914269566E+03  0.40472056238E+04  0.39931697019E+04 0.  0.
        2    1    3    3  502    0 -0.16665750782E+04  0.51395502496E+02  0.14427217297E+04  0.22048945504E+04  0.25500000920E-02 0. -1.
       -2    1    3    3    0  502  0.16665750782E+04 -0.51395502496E+02 -0.78357903404E+03  0.18423110735E+04  0.25500000920E-02 0.  1.
</event>
<event>
 5   0  0.1095903E-07  0.4016799E+04  0.7818609E-02  0.8001166E-01
       -2   -1    0    0    0  501  0.00000000000E+00  0.00000000000E+00  0.20143399297E+04  0.20143399297E+04  0.25500000920E-02 0.  1.
        2   -1    0    0  501    0  0.00000000000E+00  0.00000000000E+00 -0.20024764986E+04  0.20024764986E+04  0.25500000920E-02 0. -1.
    10030    2    1    2    0    0  0.00000000000E+00  0.00000000000E+00  0.11863431176E+02  0.40168164283E+04  0.40167989093E+04 0.  0.
        3    1    3    3  502    0  0.65949523906E+03  0.14249868391E+03 -0.18857500040E+04  0.20028212434E+04  0.10100000352E+00 0. -1.
       -3    1    3    3    0  502 -0.65949523906E+03 -0.14249868391E+03  0.18976134352E+04  0.20139951849E+04  0.10100000352E+00 0.  1.
</event>
<event>
 5   0  0.1095109E-07  0.3969734E+04  0.7818609E-02  0.8010680E-01
       -2   -1    0    0    0  501  0.00000000000E+00  0.00000000000E+00  0.18144515506E+04  0.18144515506E+04  0.25500000920E-02 0.  1.
        2   -1    0    0  501    0  0.00000000000E+00  0.00000000000E+00 -0.21712885449E+04  0.21712885449E+04  0.25500000920E-02 0. -1.
    10030    2    1    2    0    0  0.00000000000E+00  0.00000000000E+00 -0.35683699430E+03  0.39857400955E+04  0.39697344330E+04 0.  0.
        4    1    3    3  502    0  0.15760707350E+04  0.11974113261E+04 -0.32701321601E+03  0.20061734975E+04  0.12699999809E+01 0. -1.
       -4    1    3    3    0  502 -0.15760707350E+04 -0.11974113261E+04 -0.29823778297E+02  0.19795665981E+04  0.12699999809E+01 0.  1.
</event>
<event>
 5   0  0.1073271E-07  0.3975292E+04  0.7818609E-02  0.8009550E-01
       -2   -1    0    0    0  501  0.00000000000E+00  0.00000000000E+00  0.31618075694E+04  0.31618075694E+04  0.25500000920E-02 0. -1.
        2   -1    0    0  501    0  0.00000000000E+00  0.00000000000E+00 -0.12495181448E+04  0.12495181448E+04  0.25500000920E-02 0.  1.
    10030    2    1    2    0    0  0.00000000000E+00  0.00000000000E+00  0.19122894246E+04  0.44113257141E+04  0.39752916513E+04 0.  0.
        1    1    3    3  502    0  0.18152538157E+04 -0.58196307388E+03  0.15808383290E+04  0.24764646691E+04  0.50400001928E-02 0. -1.
       -1    1    3    3    0  502 -0.18152538157E+04  0.58196307388E+03  0.33145109557E+03  0.19348610450E+04  0.50400001928E-02 0.  1.
</event>
<event>
 5   0  0.1095903E-07  0.4146080E+04  0.7818609E-02  0.7975709E-01
        2   -1    0    0  501    0  0.00000000000E+00  0.00000000000E+00  0.21891284696E+04  0.21891284696E+04  0.25500000920E-02 0.  1.
       -2   -1    0    0    0  501  0.00000000000E+00  0.00000000000E+00 -0.19631078280E+04  0.19631078280E+04  0.25500000920E-02 0. -1.
    10030    2    1    2    0    0  0.00000000000E+00  0.00000000000E+00  0.22602064158E+03  0.41522362976E+04  0.41460801898E+04 0.  0.
        3    1    3    3  502    0  0.16217235177E+04 -0.52425883060E+03 -0.10688523854E+04  0.20117852573E+04  0.10100000352E+00 0. -1.
       -3    1    3    3    0  502 -0.16217235177E+04  0.52425883060E+03  0.12948730270E+04  0.21404510403E+04  0.10100000352E+00 0.  1.
</event>
<event>
 5   0  0.3399500E-08  0.4005279E+04  0.7818609E-02  0.8003482E-01
        3   -1    0    0  501    0  0.00000000000E+00  0.00000000000E+00  0.21098434229E+04  0.21098434254E+04  0.10100000352E+00 0.  1.
       -3   -1    0    0    0  501  0.00000000000E+00  0.00000000000E+00 -0.19008831104E+04  0.19008831131E+04  0.10100000352E+00 0. -1.
    10030    2    1    2    0    0  0.00000000000E+00  0.00000000000E+00  0.20896031255E+03  0.40107265384E+04  0.40052793853E+04 0.  0.
        4    1    3    3  502    0  0.13052141711E+04 -0.69802157544E+03 -0.12463340514E+04  0.19349853573E+04  0.12699999809E+01 0. -1.
       -4    1    3    3    0  502 -0.13052141711E+04  0.69802157544E+03  0.14552943640E+04  0.20757411811E+04  0.12699999809E+01 0.  1.
</event>
<event>
 5   0  0.3399500E-08  0.3996496E+04  0.7818609E-02  0.8005254E-01
       -1   -1    0    0    0  501  0.00000000000E+00  0.00000000000E+00  0.23296853048E+04  0.23296853048E+04  0.50400001928E-02 0.  1.
        1   -1    0    0  501    0  0.00000000000E+00  0.00000000000E+00 -0.17139635391E+04  0.17139635392E+04  0.50400001928E-02 0. -1.
    10030    2    1    2    0    0  0.00000000000E+00  0.00000000000E+00  0.61572176569E+03  0.40436488440E+04  0.39964963006E+04 0.  0.
        4    1    3    3  502    0  0.13617857232E+04  0.34402443738E+02 -0.11713560135E+04  0.17965857640E+04  0.12699999809E+01 0. -1.
       -4    1    3    3    0  502 -0.13617857232E+04 -0.34402443738E+02  0.17870777792E+04  0.22470630800E+04  0.12699999809E+01 0.  1.
</event>
<event>
 5   0  0.3399500E-08  0.3855821E+04  0.7818609E-02  0.8034281E-01
        1   -1    0    0  501    0  0.00000000000E+00  0.00000000000E+00  0.26384266086E+04  0.26384266086E+04  0.50400001928E-02 0.  1.
       -1   -1    0    0    0  501  0.00000000000E+00  0.00000000000E+00 -0.14087334501E+04  0.14087334501E+04  0.50400001928E-02 0. -1.
    10030    2    1    2    0    0  0.00000000000E+00  0.00000000000E+00  0.12296931585E+04  0.40471600587E+04  0.38558214789E+04 0.  0.
        5    1    3    3  502    0 -0.12835832345E+04 -0.11471045749E+04 -0.29620159561E+03  0.17467662411E+04  0.46999998093E+01 0. -1.
       -5    1    3    3    0  502  0.12835832345E+04  0.11471045749E+04  0.15258947541E+04  0.23003938177E+04  0.46999998093E+01 0.  1.
</event>
<event>
 5   0  0.3399500E-08  0.3957971E+04  0.7818609E-02  0.8013079E-01
       -1   -1    0    0    0  501  0.00000000000E+00  0.00000000000E+00  0.18637489744E+04  0.18637489744E+04  0.50400001928E-02 0. -1.
        1   -1    0    0  501    0  0.00000000000E+00  0.00000000000E+00 -0.21013472560E+04  0.21013472560E+04  0.50400001928E-02 0.  1.
    10030    2    1    2    0    0  0.00000000000E+00  0.00000000000E+00 -0.23759828165E+03  0.39650962304E+04  0.39579710930E+04 0.  0.
        3    1    3    3  502    0  0.14477487215E+04  0.33391446900E+03  0.11908064641E+04  0.19040733385E+04  0.10100000352E+00 0. -1.
       -3    1    3    3    0  502 -0.14477487215E+04 -0.33391446900E+03 -0.14284047458E+04  0.20610228919E+04  0.10100000352E+00 0.  1.
</event>
<event>
 5   0  0.1095109E-07  0.3844844E+04  0.7818609E-02  0.8036599E-01
        2   -1    0    0  501    0  0.00000000000E+00  0.00000000000E+00  0.28432545061E+04  0.28432545061E+04  0.25500000920E-02 0. -1.
       -2   -1    0    0    0  501  0.00000000000E+00  0.00000000000E+00 -0.12998155219E+04  0.12998155219E+04  0.25500000920E-02 0.  1.
    10030    2    1    2    0    0  0.00000000000E+00  0.00000000000E+00  0.15434389842E+04  0.41430700279E+04  0.38448439966E+04 0.  0.
        4    1    3    3  502    0  0.15732990152E+04 -0.63996282779E+03 -0.19861734448E+03  0.17100504889E+04  0.12699999809E+01 0.  1.
       -4    1    3    3    0  502 -0.15732990152E+04  0.63996282779E+03  0.17420563287E+04  0.24330195390E+04  0.12699999809E+01 0. -1.
</event>
<event>
 5   0  0.1073271E-07  0.3960239E+04  0.7818609E-02  0.8012616E-01
       -2   -1    0    0    0  501  0.00000000000E+00  0.00000000000E+00  0.19554770115E+04  0.19554770115E+04  0.25500000920E-02 0.  1.
        2   -1    0    0  501    0  0.00000000000E+00  0.00000000000E+00 -0.20050720490E+04  0.20050720490E+04  0.25500000920E-02 0. -1.
    10030    2    1    2    0    0  0.00000000000E+00  0.00000000000E+00 -0.49595037461E+02  0.39605490605E+04  0.39602385273E+04 0.  0.
        1    1    3    3  502    0 -0.90750157240E+03 -0.12762443777E+03 -0.17802200888E+04  0.20022563936E+04  0.50400001928E-02 0. -1.
       -1    1    3    3    0  502  0.90750157240E+03  0.12762443777E+03  0.17306250513E+04  0.19582926669E+04  0.50400001928E-02 0.  1.
</event>
<event>
 5   0  0.1087688E-07  0.4010149E+04  0.7818609E-02  0.8002502E-01
       -2   -1    0    0    0  501  0.00000000000E+00  0.00000000000E+00  0.22346934335E+04  0.22346934335E+04  0.25500000920E-02 0.  1.
        2   -1    0    0  501    0  0.00000000000E+00  0.00000000000E+00 -0.17990495553E+04  0.17990495553E+04  0.25500000920E-02 0. -1.
    10030    2    1    2    0    0  0.00000000000E+00  0.00000000000E+00  0.43564387820E+03  0.40337429887E+04  0.40101492379E+04 0.  0.
        2    1    3    3  502    0 -0.13707511488E+04 -0.13301419135E+04  0.83140099045E+03  0.20831379764E+04  0.25500000920E-02 0. -1.
       -2    1    3    3    0  502  0.13707511488E+04  0.13301419135E+04 -0.39575711225E+03  0.19506050123E+04  0.25500000920E-02 0.  1.
</event>
<event>
 5   0  0.3399500E-08  0.4002729E+04  0.7818609E-02  0.8003996E-01
       -1   -1    0    0    0  501  0.00000000000E+00  0.00000000000E+00  0.30193669274E+04  0.30193669274E+04  0.50400001928E-02 0. -1.
        1   -1    0    0  501    0  0.00000000000E+00  0.00000000000E+00 -0.13265893836E+04  0.13265893836E+04  0.50400001928E-02 0.  1.
    10030    2    1    2    0    0  0.00000000000E+00  0.00000000000E+00  0.16927775437E+04  0.43459563110E+04  0.40027291245E+04 0.  0.
        3    1    3    3  502    0 -0.13819383683E+03 -0.19788808751E+04  0.11344561208E+04  0.22851822147E+04  0.10100000352E+00 0. -1.
       -3    1    3    3    0  502  0.13819383683E+03  0.19788808751E+04  0.55832142292E+03  0.20607740963E+04  0.10100000352E+00 0.  1.
</event>
<event>
 5   0  0.1095903E-07  0.3994558E+04  0.7818609E-02  0.8005645E-01
        2   -1    0    0  501    0  0.00000000000E+00  0.00000000000E+00  0.17790725095E+04  0.17790725095E+04  0.25500000920E-02 0.  1.
       -2   -1    0    0    0  501  0.00000000000E+00  0.00000000000E+00 -0.22422492244E+04  0.22422492244E+04  0.25500000920E-02 0. -1.
    10030    2    1    2    0    0  0.00000000000E+00  0.00000000000E+00 -0.46317671491E+03  0.40213217339E+04  0.39945582757E+04 0.  0.
        3    1    3    3  502    0  0.76121480210E+03 -0.18088524521E+04  0.14201640478E+03  0.19676289889E+04  0.10100000352E+00 0. -1.
       -3    1    3    3    0  502 -0.76121480210E+03  0.18088524521E+04 -0.60519311969E+03  0.20536927450E+04  0.10100000352E+00 0.  1.
</event>
<event>
 5   0  0.1101474E-07  0.4017442E+04  0.7818609E-02  0.8001037E-01
        2   -1    0    0  501    0  0.00000000000E+00  0.00000000000E+00  0.31359525459E+04  0.31359525459E+04  0.25500000920E-02 0. -1.
       -2   -1    0    0    0  501  0.00000000000E+00  0.00000000000E+00 -0.12866775529E+04  0.12866775529E+04  0.25500000920E-02 0.  1.
    10030    2    1    2    0    0  0.00000000000E+00  0.00000000000E+00  0.18492749931E+04  0.44226300988E+04  0.40174418466E+04 0.  0.
        5    1    3    3  502    0  0.12841797920E+04  0.14661197629E+04  0.38948863619E+03  0.19875483353E+04  0.46999998093E+01 0.  1.
       -5    1    3    3    0  502 -0.12841797920E+04 -0.14661197629E+04  0.14597863569E+04  0.24350817635E+04  0.46999998093E+01 0. -1.
</event>
<event>
 5   0  0.1073271E-07  0.3945623E+04  0.7818609E-02  0.8015607E-01
        2   -1    0    0  501    0  0.00000000000E+00  0.00000000000E+00  0.22124049740E+04  0.22124049740E+04  0.25500000920E-02 0.  1.
       -2   -1    0    0    0  501  0.00000000000E+00  0.00000000000E+00 -0.17591647042E+04  0.17591647042E+04  0.25500000920E-02 0. -1.
    10030    2    1    2    0    0  0.00000000000E+00  0.00000000000E+00  0.45324026985E+03  0.39715696782E+04  0.39456227603E+04 0.  0.
        1    1    3    3  502    0 -0.12788454000E+04  0.56874690166E+03  0.16261107283E+04  0.21454963752E+04  0.50400001928E-02 0.  1.
       -1    1    3    3    0  502  0.12788454000E+04 -0.56874690166E+03 -0.11728704585E+04  0.18260733029E+04  0.50400001928E-02 0. -1.
</event>
<event>
 5   0  0.3399500E-08  0.3995329E+04  0.7818609E-02  0.8005490E-01
       -1   -1    0    0    0  501  0.00000000000E+00  0.00000000000E+00  0.13736074485E+04  0.13736074485E+04  0.50400001928E-02 0. -1.
        1   -1    0    0  501    0  0.00000000000E+00  0.00000000000E+00 -0.29052423731E+04  0.29052423731E+04  0.50400001928E-02 0.  1.
    10030    2    1    2    0    0  0.00000000000E+00  0.00000000000E+00 -0.15316349246E+04  0.42788498216E+04  0.39953285539E+04 0.  0.
        3    1    3    3  502    0  0.10358695359E+04  0.12825508891E+04 -0.19740139800E+04  0.25719046798E+04  0.10100000352E+00 0.  1.
       -3    1    3    3    0  502 -0.10358695359E+04 -0.12825508891E+04  0.44237905532E+03  0.17069451419E+04  0.10100000352E+00 0. -1.
</event>
<event>
 5   0  0.3399500E-08  0.3990846E+04  0.7818609E-02  0.8006396E-01
        1   -1    0    0  501    0  0.00000000000E+00  0.00000000000E+00  0.23490722466E+04  0.23490722466E+04  0.50400001928E-02 0. -1.
       -1   -1    0    0    0  501  0.00000000000E+00  0.00000000000E+00 -0.16950151028E+04  0.16950151028E+04  0.50400001928E-02 0.  1.
    10030    2    1    2    0    0  0.00000000000E+00  0.00000000000E+00  0.65405714380E+03  0.40440873494E+04  0.39908459933E+04 0.  0.
        4    1    3    3  502    0 -0.14600555753E+04  0.11908477473E+04  0.99293361968E+03  0.21297416337E+04  0.12699999809E+01 0. -1.
       -4    1    3    3    0  502  0.14600555753E+04 -0.11908477473E+04 -0.33887647588E+03  0.19143457157E+04  0.12699999809E+01 0.  1.
</event>
<event>
 5   0  0.3399500E-08  0.4015016E+04  0.7818609E-02  0.8001524E-01
        1   -1    0    0  501    0  0.00000000000E+00  0.00000000000E+00  0.24421020496E+04  0.24421020496E+04  0.50400001928E-02 0.  1.
       -1   -1    0    0    0  501  0.00000000000E+00  0.00000000000E+00 -0.16502535686E+04  0.16502535686E+04  0.50400001928E-02 0. -1.
    10030    2    1    2    0    0  0.00000000000E+00  0.00000000000E+00  0.79184848102E+03  0.40923556183E+04  0.40150156275E+04 0.  0.
        5    1    3    3  502    0 -0.91870579543E+02  0.12786204830E+04  0.19705960247E+04  0.23508682067E+04  0.46999998093E+01 0.  1.
       -5    1    3    3    0  502  0.91870579543E+02 -0.12786204830E+04 -0.11787475437E+04  0.17414874115E+04  0.46999998093E+01 0. -1.
</event>
<event>
 5   0  0.1095109E-07  0.3998151E+04  0.7818609E-02  0.8004920E-01
        2   -1    0    0  501    0  0.00000000000E+00  0.00000000000E+00  0.24035705405E+04  0.24035705405E+04  0.25500000920E-02 0. -1.
       -2   -1    0    0    0  501  0.00000000000E+00  0.00000000000E+00 -0.16626528113E+04  0.16626528113E+04  0.25500000920E-02 0.  1.
    10030    2    1    2    0    0  0.00000000000E+00  0.00000000000E+00  0.74091772922E+03  0.40662233518E+04  0.39981512309E+04 0.  0.
        4    1    3    3  502    0  0.11926596039E+04 -0.13484758936E+04 -0.51352185070E+03  0.18720391210E+04  0.12699999809E+01 0.  1.
       -4    1    3    3    0  502 -0.11926596039E+04  0.13484758936E+04  0.12544395799E+04  0.21941842309E+04  0.12699999809E+01 0. -1.
</event>
<event>
 5   0  0.1101474E-07  0.4002062E+04  0.7818609E-02  0.8004131E-01
        2   -1    0    0  501    0  0.00000000000E+00  0.00000000000E+00  0.18893267220E+04  0.18893267220E+04  0.25500000920E-02 0. -1.
       -2   -1    0    0    0  501  0.00000000000E+00  0.00000000000E+00 -0.21193391654E+04  0.21193391654E+04  0.25500000920E-02 0.  1.
    10030    2    1    2    0    0  0.00000000000E+00  0.00000000000E+00 -0.23001244342E+03  0.40086658874E+04  0.40020615279E+04 0.  0.
        5    1    3    3  502    0 -0.10230078947E+03 -0.16438962592E+04 -0.12532095857E+04  0.20696416884E+04  0.46999998093E+01 0.  1.
       -5    1    3    3    0  502  0.10230078947E+03  0.16438962592E+04  0.10231971422E+04  0.19390241991E+04  0.46999998093E+01 0. -1.
</event>
<event>
 5   0  0.1087688E-07  0.4043743E+04  0.7818609E-02  0.7995780E-01
       -2   -1    0    0    0  501  0.00000000000E+00  0.00000000000E+00  0.12763586147E+04  0.12763586147E+04  0.25500000920E-02 0.  1.
        2   -1    0    0  501    0  0.00000000000E+00  0.00000000000E+00 -0.32028342758E+04  0.32028342758E+04  0.25500000920E-02 0. -1.
    10030    2    1    2    0    0  0.00000000000E+00  0.00000000000E+00 -0.19264756611E+04  0.44791928904E+04  0.40437433742E+04 0.  0.
        2    1    3    3  502    0 -0.81039592267E+03 -0.98595994117E+03 -0.27002579672E+04  0.29866790331E+04  0.25500000920E-02 0. -1.
       -2    1    3    3    0  502  0.81039592267E+03  0.98595994117E+03  0.77378230612E+03  0.14925138573E+04  0.25500000920E-02 0.  1.
</event>
<event>
 5   0  0.1095903E-07  0.4003076E+04  0.7818609E-02  0.8003926E-01
        2   -1    0    0  501    0  0.00000000000E+00  0.00000000000E+00  0.28496517525E+04  0.28496517525E+04  0.25500000920E-02 0.  1.
       -2   -1    0    0    0  501  0.00000000000E+00  0.00000000000E+00 -0.14058397834E+04  0.14058397834E+04  0.25500000920E-02 0. -1.
    10030    2    1    2    0    0  0.00000000000E+00  0.00000000000E+00  0.14438119691E+04  0.42554915359E+04  0.40030757187E+04 0.  0.
        3    1    3    3  502    0  0.12989843131E+04 -0.64385653776E+03  0.21888617921E+04  0.26254575681E+04  0.10100000352E+00 0.  1.
       -3    1    3    3    0  502 -0.12989843131E+04  0.64385653776E+03 -0.74504982301E+03  0.16300339677E+04  0.10100000352E+00 0. -1.
</event>
<event>
 5   0  0.1087688E-07  0.3993308E+04  0.7818609E-02  0.8005898E-01
        2   -1    0    0  501    0  0.00000000000E+00  0.00000000000E+00  0.15516551562E+04  0.15516551562E+04  0.25500000920E-02 0. -1.
       -2   -1    0    0    0  501  0.00000000000E+00  0.00000000000E+00 -0.25692735359E+04  0.25692735359E+04  0.25500000920E-02 0.  1.
    10030    2    1    2    0    0  0.00000000000E+00  0.00000000000E+00 -0.10176183797E+04  0.41209286921E+04  0.39933076664E+04 0.  0.
        2    1    3    3  502    0 -0.12012246345E+04  0.14122576150E+04  0.25596506610E+03  0.18716116875E+04  0.25500000920E-02 0. -1.
       -2    1    3    3    0  502  0.12012246345E+04 -0.14122576150E+04 -0.12735834458E+04  0.22493170046E+04  0.25500000920E-02 0.  1.
</event>
<event>
 5   0  0.1095903E-07  0.4055415E+04  0.7818609E-02  0.7993460E-01
        2   -1    0    0  501    0  0.00000000000E+00  0.00000000000E+00  0.25253678633E+04  0.25253678633E+04  0.25500000920E-02 0. -1.
       -2   -1    0    0    0  501  0.00000000000E+00  0.00000000000E+00 -0.16281180377E+04  0.16281180377E+04  0.25500000920E-02 0.  1.
    10030    2    1    2    0    0  0.00000000000E+00  0.00000000000E+00  0.89724982564E+03  0.41534859010E+04  0.40554146372E+04 0.  0.
        3    1    3    3  502    0  0.26910450295E+03  0.13584197326E+04  0.19656175431E+04  0.24044487392E+04  0.10100000352E+00 0. -1.
       -3    1    3    3    0  502 -0.26910450295E+03 -0.13584197326E+04 -0.10683677175E+04  0.17490371618E+04  0.10100000352E+00 0.  1.
</event>
<event>
 5   0  0.1095903E-07  0.3995809E+04  0.7818609E-02  0.8005392E-01
       -2   -1    0    0    0  501  0.00000000000E+00  0.00000000000E+00  0.18079246421E+04  0.18079246421E+04  0.25500000920E-02 0.  1.
        2   -1    0    0  501    0  0.00000000000E+00  0.00000000000E+00 -0.22078481316E+04  0.22078481316E+04  0.25500000920E-02 0. -1.
    10030    2    1    2    0    0  0.00000000000E+00  0.00000000000E+00 -0.39992348954E+03  0.40157727737E+04  0.39958093263E+04 0.  0.
        3    1    3    3  502    0  0.65712305043E+03 -0.11345756966E+04  0.13150678928E+04  0.18570073472E+04  0.10100000352E+00 0.  1.
       -3    1    3    3    0  502 -0.65712305043E+03  0.11345756966E+04 -0.17149913823E+04  0.21587654264E+04  0.10100000352E+00 0. -1.
</event>
<event>
 5   0  0.1095109E-07  0.3996917E+04  0.7818609E-02  0.8005169E-01
       -2   -1    0    0    0  501  0.00000000000E+00  0.00000000000E+00  0.16491181586E+04  0.16491181586E+04  0.25500000920E-02 0.  1.
        2   -1    0    0  501    0  0.00000000000E+00  0.00000000000E+00 -0.24218014405E+04  0.24218014405E+04  0.25500000920E-02 0. -1.
    10030    2    1    2    0    0  0.00000000000E+00  0.00000000000E+00 -0.77268328189E+03  0.40709195992E+04  0.39969171781E+04 0.  0.
        4    1    3    3  502    0  0.42808905869E+03 -0.91720446287E+03 -0.21414147360E+04  0.23685824777E+04  0.12699999809E+01 0. -1.
       -4    1    3    3    0  502 -0.42808905869E+03  0.91720446287E+03  0.13687314541E+04  0.17023371215E+04  0.12699999809E+01 0.  1.
</event>
<event>
 5   0  0.3399500E-08  0.4000075E+04  0.7818609E-02  0.8004532E-01
       -1   -1    0    0    0  501  0.00000000000E+00  0.00000000000E+00  0.12093283886E+04  0.12093283886E+04  0.50400001928E-02 0. -1.
        1   -1    0    0  501    0  0.00000000000E+00  0.00000000000E+00 -0.33077442879E+04  0.33077442879E+04  0.50400001928E-02 0.  1.
    10030    2    1    2    0    0  0.00000000000E+00  0.00000000000E+00 -0.20984158993E+04  0.45170726765E+04  0.40000745341E+04 0.  0.
        5    1    3    3  502    0  0.67131469479E+03 -0.12441359824E+04  0.54842302066E+03  0.15163534093E+04  0.46999998093E+01 0. -1.
       -5    1    3    3    0  502 -0.67131469479E+03  0.12441359824E+04 -0.26468389200E+04  0.30007192672E+04  0.46999998093E+01 0.  1.
</event>
<event>
 5   0  0.3399500E-08  0.4001950E+04  0.7818609E-02  0.8004153E-01
        1   -1    0    0  501    0  0.00000000000E+00  0.00000000000E+00  0.20883994338E+04  0.20883994338E+04  0.50400001928E-02 0. -1.
       -1   -1    0    0    0  501  0.00000000000E+00  0.00000000000E+00 -0.19172098668E+04  0.19172098668E+04  0.50400001928E-02 0.  1.
    10030    2    1    2    0    0  0.00000000000E+00  0.00000000000E+00  0.17118956698E+03  0.40056093007E+04  0.40019495251E+04 0.  0.
        2    1    3    3  502    0  0.61010935581E+03  0.17381456574E+04 -0.69647515619E+03  0.19693809676E+04  0.25500000920E-02 0.  1.
       -2    1    3    3    0  502 -0.61010935581E+03 -0.17381456574E+04  0.86766472316E+03  0.20362283330E+04  0.25500000920E-02 0. -1.
</event>
<event>
 5   0  0.3399500E-08  0.3994269E+04  0.7818609E-02  0.8005704E-01
       -1   -1    0    0    0  501  0.00000000000E+00  0.00000000000E+00  0.14571381889E+04  0.14571381889E+04  0.50400001928E-02 0. -1.
        1   -1    0    0  501    0  0.00000000000E+00  0.00000000000E+00 -0.27372459094E+04  0.27372459094E+04  0.50400001928E-02 0.  1.
    10030    2    1    2    0    0  0.00000000000E+00  0.00000000000E+00 -0.12801077205E+04  0.41943840983E+04  0.39942686675E+04 0.  0.
        2    1    3    3  502    0  0.48663535047E+02 -0.13912539640E+04 -0.21437854477E+04  0.25561243667E+04  0.25500000920E-02 0. -1.
       -2    1    3    3    0  502 -0.48663535047E+02  0.13912539640E+04  0.86367772714E+03  0.16382597317E+04  0.25500000920E-02 0.  1.
</event>
<event>
 5   0  0.3399500E-08  0.4039240E+04  0.7818609E-02  0.7996677E-01
        1   -1    0    0  501    0  0.00000000000E+00  0.00000000000E+00  0.22582261711E+04  0.22582261711E+04  0.50400001928E-02 0.  1.
       -1   -1    0    0    0  501  0.00000000000E+00  0.00000000000E+00 -0.18062252132E+04  0.18062252132E+04  0.50400001928E-02 0. -1.
    10030    2    1    2    0    0  0.00000000000E+00  0.00000000000E+00  0.45200095792E+03  0.40644513843E+04  0.40392400510E+04 0.  0.
        3    1    3    3  502    0 -0.47161714631E+03  0.21398282737E+03 -0.17382732503E+04  0.18137820393E+04  0.10100000352E+00 0. -1.
       -3    1    3    3    0  502  0.47161714631E+03 -0.21398282737E+03  0.21902742082E+04  0.22506693450E+04  0.10100000352E+00 0.  1.
</event>
<event>
 5   0  0.1073271E-07  0.3994962E+04  0.7818609E-02  0.8005564E-01
        2   -1    0    0  501    0  0.00000000000E+00  0.00000000000E+00  0.19429020689E+04  0.19429020689E+04  0.25500000920E-02 0. -1.
       -2   -1    0    0    0  501  0.00000000000E+00  0.00000000000E+00 -0.20535933723E+04  0.20535933723E+04  0.25500000920E-02 0.  1.
    10030    2    1    2    0    0  0.00000000000E+00  0.00000000000E+00 -0.11069130336E+03  0.39964954412E+04  0.39949622335E+04 0.  0.
        1    1    3    3  502    0 -0.15439426403E+04  0.55563617367E+03  0.10841439033E+04  0.19666871732E+04  0.50400001928E-02 0. -1.
       -1    1    3    3    0  502  0.15439426403E+04 -0.55563617367E+03 -0.11948352066E+04  0.20298082681E+04  0.50400001928E-02 0.  1.
</event>
<event>
 5   0  0.3399500E-08  0.4004979E+04  0.7818609E-02  0.8003543E-01
        1   -1    0    0  501    0  0.00000000000E+00  0.00000000000E+00  0.14409835644E+04  0.14409835644E+04  0.50400001928E-02 0. -1.
       -1   -1    0    0    0  501  0.00000000000E+00  0.00000000000E+00 -0.27827968448E+04  0.27827968448E+04  0.50400001928E-02 0.  1.
    10030    2    1    2    0    0  0.00000000000E+00  0.00000000000E+00 -0.13418132804E+04  0.42237804091E+04  0.40049791591E+04 0.  0.
        3    1    3    3  502    0  0.11919590924E+04 -0.78618848906E+03  0.80975568672E+03  0.16415124430E+04  0.10100000352E+00 0. -1.
       -3    1    3    3    0  502 -0.11919590924E+04  0.78618848906E+03 -0.21515689671E+04  0.25822679661E+04  0.10100000352E+00 0.  1.
</event>
<event>
 5   0  0.1095903E-07  0.3993228E+04  0.7818609E-02  0.8005914E-01
        2   -1    0    0  501    0  0.00000000000E+00  0.00000000000E+00  0.15520069441E+04  0.15520069441E+04  0.25500000920E-02 0.  1.
       -2   -1    0    0    0  501  0.00000000000E+00  0.00000000000E+00 -0.25685885828E+04  0.25685885828E+04  0.25500000920E-02 0. -1.
    10030    2    1    2    0    0  0.00000000000E+00  0.00000000000E+00 -0.10165816387E+04  0.41205955269E+04  0.39932279258E+04 0.  0.
        3    1    3    3  502    0 -0.54107202318E+03 -0.19196483519E+04 -0.60431025768E+03  0.20839864748E+04  0.10100000352E+00 0. -1.
       -3    1    3    3    0  502  0.54107202318E+03  0.19196483519E+04 -0.41227138103E+03  0.20366090521E+04  0.10100000352E+00 0.  1.
</event>
<event>
 5   0  0.3399500E-08  0.3994354E+04  0.7818609E-02  0.8005686E-01
       -1   -1    0    0    0  501  0.00000000000E+00  0.00000000000E+00  0.18511207786E+04  0.18511207786E+04  0.50400001928E-02 0. -1.
        1   -1    0    0  501    0  0.00000000000E+00  0.00000000000E+00 -0.21547574519E+04  0.21547574519E+04  0.50400001928E-02 0.  1.
    10030    2    1    2    0    0  0.00000000000E+00  0.00000000000E+00 -0.30363667332E+03  0.40058782304E+04  0.39943541615E+04 0.  0.
        1    1    3    3  502    0  0.16960346995E+04  0.39982595441E+03 -0.11305035722E+04  0.20771212825E+04  0.50400001928E-02 0.  1.
       -1    1    3    3    0  502 -0.16960346995E+04 -0.39982595441E+03  0.82686689889E+03  0.19287569479E+04  0.50400001928E-02 0. -1.
</event>
<event>
 5   0  0.1095109E-07  0.3968666E+04  0.7818609E-02  0.8010898E-01
        2   -1    0    0  501    0  0.00000000000E+00  0.00000000000E+00  0.22958141165E+04  0.22958141165E+04  0.25500000920E-02 0.  1.
       -2   -1    0    0    0  501  0.00000000000E+00  0.00000000000E+00 -0.17151117086E+04  0.17151117086E+04  0.25500000920E-02 0. -1.
    10030    2    1    2    0    0  0.00000000000E+00  0.00000000000E+00  0.58070240793E+03  0.40109258251E+04  0.39686661094E+04 0.  0.
        4    1    3    3  502    0  0.11947641839E+04  0.15035392821E+04  0.79515384487E+03  0.20785483102E+04  0.12699999809E+01 0.  1.
       -4    1    3    3    0  502 -0.11947641839E+04 -0.15035392821E+04 -0.21445143694E+03  0.19323775148E+04  0.12699999809E+01 0. -1.
</event>
<event>
 5   0  0.1095109E-07  0.3957232E+04  0.7818609E-02  0.8013230E-01
       -2   -1    0    0    0  501  0.00000000000E+00  0.00000000000E+00  0.17311575421E+04  0.17311575421E+04  0.25500000920E-02 0.  1.
        2   -1    0    0  501    0  0.00000000000E+00  0.00000000000E+00 -0.22614470304E+04  0.22614470304E+04  0.25500000920E-02 0. -1.
    10030    2    1    2    0    0  0.00000000000E+00  0.00000000000E+00 -0.53028948831E+03  0.39926045725E+04  0.39572319026E+04 0.  0.
        4    1    3    3  502    0 -0.10536702023E+04  0.73242819139E+03  0.12543878509E+04  0.17944811072E+04  0.12699999809E+01 0.  1.
       -4    1    3    3    0  502  0.10536702023E+04 -0.73242819139E+03 -0.17846773392E+04  0.21981234653E+04  0.12699999809E+01 0. -1.
</event>
<event>
 5   0  0.3399500E-08  0.3985564E+04  0.7818609E-02  0.8007465E-01
       -1   -1    0    0    0  501  0.00000000000E+00  0.00000000000E+00  0.14403495963E+04  0.14403495963E+04  0.50400001928E-02 0.  1.
        1   -1    0    0  501    0  0.00000000000E+00  0.00000000000E+00 -0.27570944584E+04  0.27570944584E+04  0.50400001928E-02 0. -1.
    10030    2    1    2    0    0  0.00000000000E+00  0.00000000000E+00 -0.13167448621E+04  0.41974440548E+04  0.39855638950E+04 0.  0.
        5    1    3    3  502    0 -0.19821314590E+04 -0.18987915104E+03 -0.57505549231E+03  0.20725853715E+04  0.46999998093E+01 0.  1.
       -5    1    3    3    0  502  0.19821314590E+04  0.18987915104E+03 -0.74168936982E+03  0.21248586833E+04  0.46999998093E+01 0. -1.
</event>
<event>
 5   0  0.3399500E-08  0.3999338E+04  0.7818609E-02  0.8004680E-01
       -1   -1    0    0    0  501  0.00000000000E+00  0.00000000000E+00  0.21582421692E+04  0.21582421692E+04  0.50400001928E-02 0. -1.
        1   -1    0    0  501    0  0.00000000000E+00  0.00000000000E+00 -0.18527464751E+04  0.18527464751E+04  0.50400001928E-02 0.  1.
    10030    2    1    2    0    0  0.00000000000E+00  0.00000000000E+00  0.30549569408E+03  0.40109886443E+04  0.39993377309E+04 0.  0.
        3    1    3    3  502    0  0.92093050890E+03  0.10069324869E+04 -0.13132387422E+04  0.18938379127E+04  0.10100000352E+00 0.  1.
       -3    1    3    3    0  502 -0.92093050890E+03 -0.10069324869E+04  0.16187344362E+04  0.21171507317E+04  0.10100000352E+00 0. -1.
</event>
<event>
 5   0  0.3399500E-08  0.3996170E+04  0.7818609E-02  0.8005320E-01
        1   -1    0    0  501    0  0.00000000000E+00  0.00000000000E+00  0.12133901118E+04  0.12133901118E+04  0.50400001928E-02 0.  1.
       -1   -1    0    0    0  501  0.00000000000E+00  0.00000000000E+00 -0.32902383725E+04  0.32902383725E+04  0.50400001928E-02 0. -1.
    10030    2    1    2    0    0  0.00000000000E+00  0.00000000000E+00 -0.20768482607E+04  0.45036284843E+04  0.39961695193E+04 0.  0.
        2    1    3    3  502    0  0.70295721671E+03  0.55431086723E+03  0.97473228270E+03  0.13234471689E+04  0.25500000920E-02 0.  1.
       -2    1    3    3    0  502 -0.70295721671E+03 -0.55431086723E+03 -0.30515805434E+04  0.31801813154E+04  0.25500000920E-02 0. -1.
</event>
<event>
 5   0  0.1095109E-07  0.4009834E+04  0.7818609E-02  0.8002566E-01
        2   -1    0    0  501    0  0.00000000000E+00  0.00000000000E+00  0.17527397421E+04  0.17527397421E+04  0.25500000920E-02 0.  1.
       -2   -1    0    0    0  501  0.00000000000E+00  0.00000000000E+00 -0.22933769800E+04  0.22933769800E+04  0.25500000920E-02 0. -1.
    10030    2    1    2    0    0  0.00000000000E+00  0.00000000000E+00 -0.54063723790E+03  0.40461167220E+04  0.40098343987E+04 0.  0.
        4    1    3    3  502    0  0.94624237962E+03  0.16620199000E+04 -0.87743255058E+03  0.21041801925E+04  0.12699999809E+01 0. -1.
       -4    1    3    3    0  502 -0.94624237962E+03 -0.16620199000E+04  0.33679531269E+03  0.19419365295E+04  0.12699999809E+01 0.  1.
</event>
<event>
 5   0  0.3399500E-08  0.4009238E+04  0.7818609E-02  0.8002686E-01
        1   -1    0    0  501    0  0.00000000000E+00  0.00000000000E+00  0.24421692750E+04  0.24421692750E+04  0.50400001928E-02 0. -1.
       -1   -1    0    0    0  501  0.00000000000E+00  0.00000000000E+00 -0.16454622748E+04  0.16454622748E+04  0.50400001928E-02 0.  1.
    10030    2    1    2    0    0  0.00000000000E+00  0.00000000000E+00  0.79670700024E+03  0.40876315498E+04  0.40092380377E+04 0.  0.
        3    1    3    3  502    0 -0.10756142288E+04 -0.86528429186E+03  0.18803345248E+04  0.23326638871E+04  0.10100000352E+00 0. -1.
       -3    1    3    3    0  502  0.10756142288E+04  0.86528429186E+03 -0.10836275245E+04  0.17549676627E+04  0.10100000352E+00 0.  1.
</event>
<event>
 5   0  0.1087688E-07  0.4010403E+04  0.7818609E-02  0.8002451E-01
        2   -1    0    0  501    0  0.00000000000E+00  0.00000000000E+00  0.28360576157E+04  0.28360576157E+04  0.25500000920E-02 0. -1.
       -2   -1    0    0    0  501  0.00000000000E+00  0.00000000000E+00 -0.14177542378E+04  0.14177542378E+04  0.25500000920E-02 0.  1.
    10030    2    1    2    0    0  0.00000000000E+00  0.00000000000E+00  0.14183033779E+04  0.42538118535E+04  0.40104028243E+04 0.  0.
        2    1    3    3  502    0  0.10399755277E+04 -0.79332334508E+02  0.25256942166E+04  0.27325764387E+04  0.25500000920E-02 0. -1.
       -2    1    3    3    0  502 -0.10399755277E+04  0.79332334508E+02 -0.11073908387E+04  0.15212354148E+04  0.25500000920E-02 0.  1.
</event>
<event>
 5   0  0.1095109E-07  0.4022388E+04  0.7818609E-02  0.8000045E-01
       -2   -1    0    0    0  501  0.00000000000E+00  0.00000000000E+00  0.19801264868E+04  0.19801264869E+04  0.25500000920E-02 0. -1.
        2   -1    0    0  501    0  0.00000000000E+00  0.00000000000E+00 -0.20427487282E+04  0.20427487282E+04  0.25500000920E-02 0.  1.
    10030    2    1    2    0    0  0.00000000000E+00  0.00000000000E+00 -0.62622241370E+02  0.40228752151E+04  0.40223877798E+04 0.  0.
        4    1    3    3  502    0 -0.35059940311E+03  0.55603845884E+03  0.18696560532E+04  0.19818461291E+04  0.12699999809E+01 0. -1.
       -4    1    3    3    0  502  0.35059940311E+03 -0.55603845884E+03 -0.19322782946E+04  0.20410290860E+04  0.12699999809E+01 0.  1.
</event>
<event>
 5   0  0.3399500E-08  0.3982975E+04  0.7818609E-02  0.8007990E-01
       -1   -1    0    0    0  501  0.00000000000E+00  0.00000000000E+00  0.22703214633E+04  0.22703214633E+04  0.50400001928E-02 0.  1.
        1   -1    0    0  501    0  0.00000000000E+00  0.00000000000E+00 -0.17468987691E+04  0.17468987691E+04  0.50400001928E-02 0. -1.
    10030    2    1    2    0    0  0.00000000000E+00  0.00000000000E+00  0.52342269421E+03  0.40172202323E+04  0.39829746520E+04 0.  0.
        5    1    3    3  502    0  0.52556372662E+03  0.18839895510E+04 -0.11616419513E+03  0.19593749180E+04  0.46999998093E+01 0. -1.
       -5    1    3    3    0  502 -0.52556372662E+03 -0.18839895510E+04  0.63958688934E+03  0.20578453144E+04  0.46999998093E+01 0.  1.
</event>
<event>
 5   0  0.3399500E-08  0.3954741E+04  0.7818609E-02  0.8013739E-01
       -1   -1    0    0    0  501  0.00000000000E+00  0.00000000000E+00  0.12839936975E+04  0.12839936975E+04  0.50400001928E-02 0.  1.
        1   -1    0    0  501    0  0.00000000000E+00  0.00000000000E+00 -0.30451818312E+04  0.30451818312E+04  0.50400001928E-02 0. -1.
    10030    2    1    2    0    0  0.00000000000E+00  0.00000000000E+00 -0.17611881337E+04  0.43291755288E+04  0.39547410935E+04 0.  0.
        2    1    3    3  502    0  0.73264404446E+03  0.12367961923E+04  0.60573862834E+03  0.15599203195E+04  0.25500000920E-02 0.  1.
       -2    1    3    3    0  502 -0.73264404446E+03 -0.12367961923E+04 -0.23669267620E+04  0.27692552093E+04  0.25500000920E-02 0. -1.
</event>
<event>
 5   0  0.1087688E-07  0.3994180E+04  0.7818609E-02  0.8005722E-01
       -2   -1    0    0    0  501  0.00000000000E+00  0.00000000000E+00  0.21973018820E+04  0.21973018820E+04  0.25500000920E-02 0. -1.
        2   -1    0    0  501    0  0.00000000000E+00  0.00000000000E+00 -0.18151211696E+04  0.18151211696E+04  0.25500000920E-02 0.  1.
    10030    2    1    2    0    0  0.00000000000E+00  0.00000000000E+00  0.38218071239E+03  0.40124230516E+04  0.39941803474E+04 0.  0.
        2    1    3    3  502    0 -0.18704174381E+03 -0.19869385042E+04  0.11686154197E+03  0.19991412790E+04  0.25500000920E-02 0.  1.
       -2    1    3    3    0  502  0.18704174381E+03  0.19869385042E+04  0.26531917042E+03  0.20132817725E+04  0.25500000920E-02 0. -1.
</event>
<event>
 5   0  0.1095903E-07  0.4013161E+04  0.7818609E-02  0.8001897E-01
       -2   -1    0    0    0  501  0.00000000000E+00  0.00000000000E+00  0.32664659309E+04  0.32664659309E+04  0.25500000920E-02 0. -1.
        2   -1    0    0  501    0  0.00000000000E+00  0.00000000000E+00 -0.12326367386E+04  0.12326367386E+04  0.25500000920E-02 0.  1.
    10030    2    1    2    0    0  0.00000000000E+00  0.00000000000E+00  0.20338291923E+04  0.44991026695E+04  0.40131613034E+04 0.  0.
        3    1    3    3  502    0 -0.84087570154E+03  0.10552149271E+04  0.26819515301E+04  0.30022349188E+04  0.10100000352E+00 0. -1.
       -3    1    3    3    0  502  0.84087570154E+03 -0.10552149271E+04 -0.64812233780E+03  0.14968677506E+04  0.10100000352E+00 0.  1.
</event>
<event>
 5   0  0.1101474E-07  0.4026840E+04  0.7818609E-02  0.7999154E-01
        2   -1    0    0  501    0  0.00000000000E+00  0.00000000000E+00  0.23398670334E+04  0.23398670334E+04  0.25500000920E-02 0. -1.
       -2   -1    0    0    0  501  0.00000000000E+00  0.00000000000E+00 -0.17325169367E+04  0.17325169368E+04  0.25500000920E-02 0.  1.
    10030    2    1    2    0    0  0.00000000000E+00  0.00000000000E+00  0.60735009665E+03  0.40723839701E+04  0.40268395871E+04 0.  0.
        5    1    3    3  502    0 -0.19106233436E+04  0.61340270669E+03  0.47013539766E+03  0.20610176670E+04  0.46999998093E+01 0.  1.
       -5    1    3    3    0  502  0.19106233436E+04 -0.61340270669E+03  0.13721469898E+03  0.20113663031E+04  0.46999998093E+01 0. -1.
</event>
<event>
 5   0  0.3399500E-08  0.3997302E+04  0.7818609E-02  0.8005091E-01
       -1   -1    0    0    0  501  0.00000000000E+00  0.00000000000E+00  0.13153453326E+04  0.13153453326E+04  0.50400001928E-02 0. -1.
        1   -1    0    0  501    0  0.00000000000E+00  0.00000000000E+00 -0.30369248665E+04  0.30369248665E+04  0.50400001928E-02 0.  1.
    10030    2    1    2    0    0  0.00000000000E+00  0.00000000000E+00 -0.17215795340E+04  0.43522701991E+04  0.39973015641E+04 0.  0.
        2    1    3    3  502    0  0.20919067543E+03  0.14833703755E+04  0.57974784564E+03  0.16063175197E+04  0.25500000920E-02 0. -1.
       -2    1    3    3    0  502 -0.20919067543E+03 -0.14833703755E+04 -0.23013273796E+04  0.27459526794E+04  0.25500000920E-02 0.  1.
</event>
<event>
 5   0  0.1087688E-07  0.4246112E+04  0.7818609E-02  0.7956658E-01
       -2   -1    0    0    0  501  0.00000000000E+00  0.00000000000E+00  0.24131948139E+04  0.24131948139E+04  0.25500000920E-02 0. -1.
        2   -1    0    0  501    0  0.00000000000E+00  0.00000000000E+00 -0.18678002407E+04  0.18678002407E+04  0.25500000920E-02 0.  1.
    10030    2    1    2    0    0  0.00000000000E+00  0.00000000000E+00  0.54539457329E+03  0.42809950546E+04  0.42461115643E+04 0.  0.
        2    1    3    3  502    0 -0.12686360418E+04 -0.15218628549E+04 -0.49636813472E+03  0.20425193465E+04  0.25500000920E-02 0.  1.
       -2    1    3    3    0  502  0.12686360418E+04  0.15218628549E+04  0.10417627080E+04  0.22384757081E+04  0.25500000920E-02 0. -1.
</event>
<event>
 5   0  0.3399500E-08  0.3994541E+04  0.7818609E-02  0.8005649E-01
       -1   -1    0    0    0  501  0.00000000000E+00  0.00000000000E+00  0.33752838481E+04  0.33752838481E+04  0.50400001928E-02 0.  1.
        1   -1    0    0  501    0  0.00000000000E+00  0.00000000000E+00 -0.11818531830E+04  0.11818531830E+04  0.50400001928E-02 0. -1.
    10030    2    1    2    0    0  0.00000000000E+00  0.00000000000E+00  0.21934306651E+04  0.45571370311E+04  0.39945412550E+04 0.  0.
        2    1    3    3  502    0  0.73388381464E+03  0.11159097056E+04 -0.59744338868E+03  0.14631399547E+04  0.25500000920E-02 0. -1.
       -2    1    3    3    0  502 -0.73388381464E+03 -0.11159097056E+04  0.27908740538E+04  0.30939970764E+04  0.25500000920E-02 0.  1.
</event>
<event>
 5   0  0.1101474E-07  0.4004502E+04  0.7818609E-02  0.8003639E-01
        2   -1    0    0  501    0  0.00000000000E+00  0.00000000000E+00  0.16329224107E+04  0.16329224107E+04  0.25500000920E-02 0.  1.
       -2   -1    0    0    0  501  0.00000000000E+00  0.00000000000E+00 -0.24551128774E+04  0.24551128774E+04  0.25500000920E-02 0. -1.
    10030    2    1    2    0    0  0.00000000000E+00  0.00000000000E+00 -0.82219046674E+03  0.40880352881E+04  0.40045018858E+04 0.  0.
        5    1    3    3  502    0 -0.12375191867E+04  0.44751946275E+03  0.11294426396E+04  0.17341828546E+04  0.46999998093E+01 0.  1.
       -5    1    3    3    0  502  0.12375191867E+04 -0.44751946275E+03 -0.19516331064E+04  0.23538524335E+04  0.46999998093E+01 0. -1.
</event>
<event>
 5   0  0.3399500E-08  0.3667479E+04  0.7818609E-02  0.8075207E-01
       -1   -1    0    0    0  501  0.00000000000E+00  0.00000000000E+00  0.15586529835E+04  0.15586529835E+04  0.50400001928E-02 0.  1.
        1   -1    0    0  501    0  0.00000000000E+00  0.00000000000E+00 -0.21573756839E+04  0.21573756839E+04  0.50400001928E-02 0. -1.
    10030    2    1    2    0    0  0.00000000000E+00  0.00000000000E+00 -0.59872270044E+03  0.37160286674E+04  0.36674787232E+04 0.  0.
        1    1    3    3  502    0 -0.16400037425E+04 -0.54689733906E+03 -0.91892224711E+03  0.19578373454E+04  0.50400001928E-02 0. -1.
       -1    1    3    3    0  502  0.16400037425E+04  0.54689733906E+03  0.32019954667E+03  0.17581913220E+04  0.50400001928E-02 0.  1.
</event>
<event>
 5   0  0.3399500E-08  0.3987497E+04  0.7818609E-02  0.8007074E-01
        1   -1    0    0  501    0  0.00000000000E+00  0.00000000000E+00  0.22369828012E+04  0.22369828012E+04  0.50400001928E-02 0. -1.
       -1   -1    0    0    0  501  0.00000000000E+00  0.00000000000E+00 -0.17769616020E+04  0.17769616020E+04  0.50400001928E-02 0.  1.
    10030    2    1    2    0    0  0.00000000000E+00  0.00000000000E+00  0.46002119916E+03  0.40139444032E+04  0.39874967296E+04 0.  0.
        4    1    3    3  502    0  0.10183718187E+04  0.11171625031E+04  0.15385934417E+04  0.21569433491E+04  0.12699999809E+01 0. -1.
       -4    1    3    3    0  502 -0.10183718187E+04 -0.11171625031E+04 -0.10785722426E+04  0.18570010541E+04  0.12699999809E+01 0.  1.
</event>
<event>
 5   0  0.3399500E-08  0.4001673E+04  0.7818609E-02  0.8004209E-01
        1   -1    0    0  501    0  0.00000000000E+00  0.00000000000E+00  0.25017033839E+04  0.25017033839E+04  0.50400001928E-02 0. -1.
       -1   -1    0    0    0  501  0.00000000000E+00  0.00000000000E+00 -0.16002486777E+04  0.16002486777E+04  0.50400001928E-02 0.  1.
    10030    2    1    2    0    0  0.00000000000E+00  0.00000000000E+00  0.90145470623E+03  0.41019520616E+04  0.40016734160E+04 0.  0.
        1    1    3    3  502    0  0.46357369806E+03  0.95206067160E+03 -0.12894679569E+04  0.16685465854E+04  0.50400001928E-02 0.  1.
       -1    1    3    3    0  502 -0.46357369806E+03 -0.95206067160E+03  0.21909226631E+04  0.24334054762E+04  0.50400001928E-02 0. -1.
</event>
<event>
 5   0  0.1101474E-07  0.3905627E+04  0.7818609E-02  0.8023860E-01
        2   -1    0    0  501    0  0.00000000000E+00  0.00000000000E+00  0.22782848669E+04  0.22782848669E+04  0.25500000920E-02 0.  1.
       -2   -1    0    0    0  501  0.00000000000E+00  0.00000000000E+00 -0.16738379214E+04  0.16738379214E+04  0.25500000920E-02 0. -1.
    10030    2    1    2    0    0  0.00000000000E+00  0.00000000000E+00  0.60444694552E+03  0.39521227882E+04  0.39056265084E+04 0.  0.
        5    1    3    3  502    0 -0.14273653230E+03 -0.53837257274E+02  0.22722403357E+04  0.22773604021E+04  0.46999998093E+01 0.  1.
       -5    1    3    3    0  502  0.14273653230E+03  0.53837257274E+02 -0.16677933901E+04  0.16747623862E+04  0.46999998093E+01 0. -1.
</event>
<event>
 5   0  0.3399500E-08  0.3976587E+04  0.7818609E-02  0.8009286E-01
       -1   -1    0    0    0  501  0.00000000000E+00  0.00000000000E+00  0.18750959597E+04  0.18750959597E+04  0.50400001928E-02 0.  1.
        1   -1    0    0  501    0  0.00000000000E+00  0.00000000000E+00 -0.21083248166E+04  0.21083248166E+04  0.50400001928E-02 0. -1.
    10030    2    1    2    0    0  0.00000000000E+00  0.00000000000E+00 -0.23322885689E+03  0.39834207763E+04  0.39765871525E+04 0.  0.
        5    1    3    3  502    0 -0.50348087544E+03  0.19229923534E+04 -0.16024006942E+03  0.19942646647E+04  0.46999998093E+01 0. -1.
       -5    1    3    3    0  502  0.50348087544E+03 -0.19229923534E+04 -0.72988787470E+02  0.19891561116E+04  0.46999998093E+01 0.  1.
</event>
<event>
 5   0  0.3399500E-08  0.3973837E+04  0.7818609E-02  0.8009845E-01
       -1   -1    0    0    0  501  0.00000000000E+00  0.00000000000E+00  0.13869000688E+04  0.13869000688E+04  0.50400001928E-02 0.  1.
        1   -1    0    0  501    0  0.00000000000E+00  0.00000000000E+00 -0.28465245508E+04  0.28465245508E+04  0.50400001928E-02 0. -1.
    10030    2    1    2    0    0  0.00000000000E+00  0.00000000000E+00 -0.14596244821E+04  0.42334246196E+04  0.39738369847E+04 0.  0.
        3    1    3    3  502    0  0.71199453575E+03  0.15460050023E+04  0.36222423593E+03  0.17401936942E+04  0.10100000352E+00 0.  1.
       -3    1    3    3    0  502 -0.71199453575E+03 -0.15460050023E+04 -0.18218487180E+04  0.24932309254E+04  0.10100000352E+00 0. -1.
</event>
<event>
 5   0  0.1073271E-07  0.4084664E+04  0.7818609E-02  0.7987682E-01
       -2   -1    0    0    0  501  0.00000000000E+00  0.00000000000E+00  0.16467756291E+04  0.16467756291E+04  0.25500000920E-02 0. -1.
        2   -1    0    0  501    0  0.00000000000E+00  0.00000000000E+00 -0.25329012285E+04  0.25329012285E+04  0.25500000920E-02 0.  1.
    10030    2    1    2    0    0  0.00000000000E+00  0.00000000000E+00 -0.88612559931E+03  0.41796768576E+04  0.40846640077E+04 0.  0.
        1    1    3    3  502    0 -0.12038278503E+04  0.14504475965E+04  0.36143130901E+03  0.19192791132E+04  0.50400001928E-02 0. -1.
       -1    1    3    3    0  502  0.12038278503E+04 -0.14504475965E+04 -0.12475569083E+04  0.22603977444E+04  0.50400001928E-02 0.  1.
</event>
<event>
 5   0  0.3399500E-08  0.4004539E+04  0.7818609E-02  0.8003632E-01
       -1   -1    0    0    0  501  0.00000000000E+00  0.00000000000E+00  0.14085597185E+04  0.14085597185E+04  0.50400001928E-02 0. -1.
        1   -1    0    0  501    0  0.00000000000E+00  0.00000000000E+00 -0.28462281267E+04  0.28462281267E+04  0.50400001928E-02 0.  1.
    10030    2    1    2    0    0  0.00000000000E+00  0.00000000000E+00 -0.14376684082E+04  0.42547878453E+04  0.40045385697E+04 0.  0.
        3    1    3    3  502    0 -0.33188935074E+03  0.14988790706E+04  0.64690883559E+03  0.16659171832E+04  0.10100000352E+00 0. -1.
       -3    1    3    3    0  502  0.33188935074E+03 -0.14988790706E+04 -0.20845772438E+04  0.25888706621E+04  0.10100000352E+00 0.  1.
</event>
<event>
 5   0  0.1095903E-07  0.4017712E+04  0.7818609E-02  0.8000983E-01
       -2   -1    0    0    0  501  0.00000000000E+00  0.00000000000E+00  0.27509213063E+04  0.27509213063E+04  0.25500000920E-02 0. -1.
        2   -1    0    0  501    0  0.00000000000E+00  0.00000000000E+00 -0.14669637479E+04  0.14669637479E+04  0.25500000920E-02 0.  1.
    10030    2    1    2    0    0  0.00000000000E+00  0.00000000000E+00  0.12839575584E+04  0.42178850542E+04  0.40177117018E+04 0.  0.
        3    1    3    3  502    0 -0.14667228599E+04 -0.11483528967E+04  0.14314507022E+04  0.23492640223E+04  0.10100000352E+00 0. -1.
       -3    1    3    3    0  502  0.14667228599E+04  0.11483528967E+04 -0.14749314381E+03  0.18686210319E+04  0.10100000352E+00 0.  1.
</event>
<event>
 5   0  0.3399500E-08  0.4016808E+04  0.7818609E-02  0.8001164E-01
       -1   -1    0    0    0  501  0.00000000000E+00  0.00000000000E+00  0.13916157136E+04  0.13916157136E+04  0.50400001928E-02 0.  1.
        1   -1    0    0  501    0  0.00000000000E+00  0.00000000000E+00 -0.28985630380E+04  0.28985630381E+04  0.50400001928E-02 0. -1.
    10030    2    1    2    0    0  0.00000000000E+00  0.00000000000E+00 -0.15069473244E+04  0.42901787517E+04  0.40168076233E+04 0.  0.
        3    1    3    3  502    0  0.65964472983E+03 -0.15992302390E+04 -0.18432147737E+04  0.25278665391E+04  0.10100000352E+00 0. -1.
       -3    1    3    3    0  502 -0.65964472983E+03  0.15992302390E+04  0.33626744930E+03  0.17623122126E+04  0.10100000352E+00 0.  1.
</event>
<event>
 5   0  0.3399500E-08  0.4033768E+04  0.7818609E-02  0.7997769E-01
        1   -1    0    0  501    0  0.00000000000E+00  0.00000000000E+00  0.14389523460E+04  0.14389523461E+04  0.50400001928E-02 0.  1.
       -1   -1    0    0    0  501  0.00000000000E+00  0.00000000000E+00 -0.28269323733E+04  0.28269323733E+04  0.50400001928E-02 0. -1.
    10030    2    1    2    0    0  0.00000000000E+00  0.00000000000E+00 -0.13879800273E+04  0.42658847194E+04  0.40337679510E+04 0.  0.
        1    1    3    3  502    0 -0.74136408479E+02 -0.16063046813E+02  0.14374432111E+04  0.14394433694E+04  0.50400001928E-02 0.  1.
       -1    1    3    3    0  502  0.74136408479E+02  0.16063046813E+02 -0.28254232384E+04  0.28264413499E+04  0.50400001928E-02 0. -1.
</event>
<event>
 5   0  0.1073271E-07  0.3999622E+04  0.7818609E-02  0.8004623E-01
        2   -1    0    0  501    0  0.00000000000E+00  0.00000000000E+00  0.13861938750E+04  0.13861938750E+04  0.25500000920E-02 0.  1.
       -2   -1    0    0    0  501  0.00000000000E+00  0.00000000000E+00 -0.28850541612E+04  0.28850541612E+04  0.25500000920E-02 0. -1.
    10030    2    1    2    0    0  0.00000000000E+00  0.00000000000E+00 -0.14988602862E+04  0.42712480362E+04  0.39996221858E+04 0.  0.
        1    1    3    3  502    0  0.63157947205E+03  0.18889908786E+04 -0.94065883702E+03  0.22027297194E+04  0.50400001928E-02 0.  1.
       -1    1    3    3    0  502 -0.63157947205E+03 -0.18889908786E+04 -0.55820144915E+03  0.20685183168E+04  0.50400001928E-02 0. -1.
</event>
<event>
 5   0  0.3399500E-08  0.4084131E+04  0.7818609E-02  0.7987787E-01
        1   -1    0    0  501    0  0.00000000000E+00  0.00000000000E+00  0.20021187075E+04  0.20021187075E+04  0.50400001928E-02 0. -1.
       -1   -1    0    0    0  501  0.00000000000E+00  0.00000000000E+00 -0.20828089554E+04  0.20828089554E+04  0.50400001928E-02 0.  1.
    10030    2    1    2    0    0  0.00000000000E+00  0.00000000000E+00 -0.80690247900E+02  0.40849276630E+04  0.40841306413E+04 0.  0.
        3    1    3    3  502    0 -0.16714505403E+04  0.11669424971E+04  0.80214964394E+02  0.20400823882E+04  0.10100000352E+00 0. -1.
       -3    1    3    3    0  502  0.16714505403E+04 -0.11669424971E+04 -0.16090521229E+03  0.20448452747E+04  0.10100000352E+00 0.  1.
</event>
<event>
 5   0  0.3399500E-08  0.3997892E+04  0.7818609E-02  0.8004972E-01
        1   -1    0    0  501    0  0.00000000000E+00  0.00000000000E+00  0.22333035474E+04  0.22333035474E+04  0.50400001928E-02 0. -1.
       -1   -1    0    0    0  501  0.00000000000E+00  0.00000000000E+00 -0.17891809466E+04  0.17891809466E+04  0.50400001928E-02 0.  1.
    10030    2    1    2    0    0  0.00000000000E+00  0.00000000000E+00  0.44412260077E+03  0.40224844940E+04  0.39978915218E+04 0.  0.
        3    1    3    3  502    0  0.37346170892E+03 -0.32540429177E+03 -0.17264524417E+04  0.17961068022E+04  0.10100000352E+00 0.  1.
       -3    1    3    3    0  502 -0.37346170892E+03  0.32540429177E+03  0.21705750425E+04  0.22263776918E+04  0.10100000352E+00 0. -1.
</event>
<event>
 5   0  0.1095903E-07  0.3985484E+04  0.7818609E-02  0.8007481E-01
        2   -1    0    0  501    0  0.00000000000E+00  0.00000000000E+00  0.17936474096E+04  0.17936474096E+04  0.25500000920E-02 0. -1.
       -2   -1    0    0    0  501  0.00000000000E+00  0.00000000000E+00 -0.22139357266E+04  0.22139357266E+04  0.25500000920E-02 0.  1.
    10030    2    1    2    0    0  0.00000000000E+00  0.00000000000E+00 -0.42028831703E+03  0.40075831362E+04  0.39854837002E+04 0.  0.
        3    1    3    3  502    0 -0.12754793857E+04  0.53119710401E+03 -0.16540738567E+04  0.21552211859E+04  0.10100000352E+00 0.  1.
       -3    1    3    3    0  502  0.12754793857E+04 -0.53119710401E+03  0.12337855397E+04  0.18523619503E+04  0.10100000352E+00 0. -1.
</event>
<event>
 5   0  0.1101474E-07  0.3965153E+04  0.7818609E-02  0.8011613E-01
       -2   -1    0    0    0  501  0.00000000000E+00  0.00000000000E+00  0.18193420337E+04  0.18193420337E+04  0.25500000920E-02 0.  1.
        2   -1    0    0  501    0  0.00000000000E+00  0.00000000000E+00 -0.21604568651E+04  0.21604568652E+04  0.25500000920E-02 0. -1.
    10030    2    1    2    0    0  0.00000000000E+00  0.00000000000E+00 -0.34111483143E+03  0.39797988989E+04  0.39651532060E+04 0.  0.
        5    1    3    3  502    0  0.51496919984E+03 -0.10325374534E+04 -0.17887347092E+04  0.21285959737E+04  0.46999998093E+01 0. -1.
       -5    1    3    3    0  502 -0.51496919984E+03  0.10325374534E+04  0.14476198778E+04  0.18512029251E+04  0.46999998093E+01 0.  1.
</event>
<event>
 5   0  0.1087688E-07  0.4024569E+04  0.7818609E-02  0.7999609E-01
        2   -1    0    0  501    0  0.00000000000E+00  0.00000000000E+00  0.25465616359E+04  0.25465616359E+04  0.25500000920E-02 0.  1.
       -2   -1    0    0    0  501  0.00000000000E+00  0.00000000000E+00 -0.15901001363E+04  0.15901001363E+04  0.25500000920E-02 0. -1.
    10030    2    1    2    0    0  0.00000000000E+00  0.00000000000E+00  0.95646149962E+03  0.41366617723E+04  0.40245685505E+04 0.  0.
        2    1    3    3  502    0 -0.16546446639E+04  0.48192411685E+03  0.15460045859E+04  0.23152170520E+04  0.25500000920E-02 0.  1.
       -2    1    3    3    0  502  0.16546446639E+04 -0.48192411685E+03 -0.58954308628E+03  0.18214447202E+04  0.25500000920E-02 0. -1.
</event>
<event>
 5   0  0.1087688E-07  0.3982582E+04  0.7818609E-02  0.8008069E-01
       -2   -1    0    0    0  501  0.00000000000E+00  0.00000000000E+00  0.17019116409E+04  0.17019116409E+04  0.25500000920E-02 0. -1.
        2   -1    0    0  501    0  0.00000000000E+00  0.00000000000E+00 -0.23298746775E+04  0.23298746775E+04  0.25500000920E-02 0.  1.
    10030    2    1    2    0    0  0.00000000000E+00  0.00000000000E+00 -0.62796303652E+03  0.40317863184E+04  0.39825824966E+04 0.  0.
        2    1    3    3  502    0  0.40163334521E+03  0.18901499957E+04 -0.80082257718E+03  0.20917201415E+04  0.25500000920E-02 0.  1.
       -2    1    3    3    0  502 -0.40163334521E+03 -0.18901499957E+04  0.17285954066E+03  0.19400661769E+04  0.25500000920E-02 0. -1.
</event>
<event>
 5   0  0.1095903E-07  0.3987836E+04  0.7818609E-02  0.8007005E-01
       -2   -1    0    0    0  501  0.00000000000E+00  0.00000000000E+00  0.12837371112E+04  0.12837371112E+04  0.25500000920E-02 0.  1.
        2   -1    0    0  501    0  0.00000000000E+00  0.00000000000E+00 -0.30969801169E+04  0.30969801169E+04  0.25500000920E-02 0. -1.
    10030    2    1    2    0    0  0.00000000000E+00  0.00000000000E+00 -0.18132430056E+04  0.43807172281E+04  0.39878356580E+04 0.  0.
        3    1    3    3  502    0  0.92395784814E+03 -0.15825056007E+04 -0.43261502784E+02  0.18330012682E+04  0.10100000352E+00 0.  1.
       -3    1    3    3    0  502 -0.92395784814E+03  0.15825056007E+04 -0.17699815029E+04  0.25477159599E+04  0.10100000352E+00 0. -1.
</event>
<event>
 5   0  0.3399500E-08  0.3951703E+04  0.7818609E-02  0.8014361E-01
        1   -1    0    0  501    0  0.00000000000E+00  0.00000000000E+00  0.22709439650E+04  0.22709439650E+04  0.50400001928E-02 0.  1.
       -1   -1    0    0    0  501  0.00000000000E+00  0.00000000000E+00 -0.17191040441E+04  0.17191040442E+04  0.50400001928E-02 0. -1.
    10030    2    1    2    0    0  0.00000000000E+00  0.00000000000E+00  0.55183992086E+03  0.39900480092E+04  0.39517029009E+04 0.  0.
        2    1    3    3  502    0  0.62117770088E+03 -0.84118743816E+03  0.19686512366E+04  0.22291356472E+04  0.25500000920E-02 0.  1.
       -2    1    3    3    0  502 -0.62117770088E+03  0.84118743816E+03 -0.14168113157E+04  0.17609123620E+04  0.25500000920E-02 0. -1.
</event>
<event>
 5   0  0.1073271E-07  0.3999744E+04  0.7818609E-02  0.8004598E-01
        2   -1    0    0  501    0  0.00000000000E+00  0.00000000000E+00  0.30304403939E+04  0.30304403939E+04  0.25500000920E-02 0. -1.
       -2   -1    0    0    0  501  0.00000000000E+00  0.00000000000E+00 -0.13197711447E+04  0.13197711447E+04  0.25500000920E-02 0.  1.
    10030    2    1    2    0    0  0.00000000000E+00  0.00000000000E+00  0.17106692493E+04  0.43502115386E+04  0.39997438856E+04 0.  0.
        1    1    3    3  502    0  0.15358401472E+03 -0.99327412614E+03 -0.10251223356E+04  0.14356383048E+04  0.50400001928E-02 0.  1.
       -1    1    3    3    0  502 -0.15358401472E+03  0.99327412614E+03  0.27357915849E+04  0.29145732338E+04  0.50400001928E-02 0. -1.
</event>
<event>
 5   0  0.3399500E-08  0.3978386E+04  0.7818609E-02  0.8008921E-01
        1   -1    0    0  501    0  0.00000000000E+00  0.00000000000E+00  0.25246264094E+04  0.25246264094E+04  0.50400001928E-02 0. -1.
       -1   -1    0    0    0  501  0.00000000000E+00  0.00000000000E+00 -0.15673169077E+04  0.15673169077E+04  0.50400001928E-02 0.  1.
    10030    2    1    2    0    0  0.00000000000E+00  0.00000000000E+00  0.95730950173E+03  0.40919433171E+04  0.39783864353E+04 0.  0.
        3    1    3    3  502    0  0.40290496747E+03 -0.11629011615E+04 -0.11287115853E+04  0.16699285546E+04  0.10100000352E+00 0.  1.
       -3    1    3    3    0  502 -0.40290496747E+03  0.11629011615E+04  0.20860210870E+04  0.24220147626E+04  0.10100000352E+00 0. -1.
</event>
<event>
 5   0  0.3399500E-08  0.3997052E+04  0.7818609E-02  0.8005142E-01
        1   -1    0    0  501    0  0.00000000000E+00  0.00000000000E+00  0.15627334944E+04  0.15627334944E+04  0.50400001928E-02 0.  1.
       -1   -1    0    0    0  501  0.00000000000E+00  0.00000000000E+00 -0.25558458485E+04  0.25558458485E+04  0.50400001928E-02 0. -1.
    10030    2    1    2    0    0  0.00000000000E+00  0.00000000000E+00 -0.99311235417E+03  0.41185793429E+04  0.39970518705E+04 0.  0.
        3    1    3    3  502    0  0.11263876955E+04 -0.10914528068E+04  0.77968487128E+03  0.17515498790E+04  0.10100000352E+00 0.  1.
       -3    1    3    3    0  502 -0.11263876955E+04  0.10914528068E+04 -0.17727972255E+04  0.23670294639E+04  0.10100000352E+00 0. -1.
</event>
<event>
 5   0  0.3399500E-08  0.4013009E+04  0.7818609E-02  0.8001927E-01
        1   -1    0    0  501    0  0.00000000000E+00  0.00000000000E+00  0.20400980725E+04  0.20400980725E+04  0.50400001928E-02 0.  1.
       -1   -1    0    0    0  501  0.00000000000E+00  0.00000000000E+00 -0.19734644198E+04  0.19734644198E+04  0.50400001928E-02 0. -1.
    10030    2    1    2    0    0  0.00000000000E+00  0.00000000000E+00  0.66633652721E+02  0.40135624923E+04  0.40130093241E+04 0.  0.
        4    1    3    3  502    0  0.12664413626E+04 -0.13158881931E+04  0.86446921550E+03  0.20205801392E+04  0.12699999809E+01 0.  1.
       -4    1    3    3    0  502 -0.12664413626E+04  0.13158881931E+04 -0.79783556278E+03  0.19929823531E+04  0.12699999809E+01 0. -1.
</event>
<event>
 5   0  0.1095109E-07  0.3981492E+04  0.7818609E-02  0.8008291E-01
       -2   -1    0    0    0  501  0.00000000000E+00  0.00000000000E+00  0.19272418603E+04  0.19272418603E+04  0.25500000920E-02 0. -1.
        2   -1    0    0  501    0  0.00000000000E+00  0.00000000000E+00 -0.20563430907E+04  0.20563430907E+04  0.25500000920E-02 0.  1.
    10030    2    1    2    0    0  0.00000000000E+00  0.00000000000E+00 -0.12910123037E+03  0.39835849510E+04  0.39814924255E+04 0.  0.
        4    1    3    3  502    0 -0.14819366283E+04 -0.10599467005E+04  0.73802163251E+03  0.19657824704E+04  0.12699999809E+01 0. -1.
       -4    1    3    3    0  502  0.14819366283E+04  0.10599467005E+04 -0.86712286288E+03  0.20178024805E+04  0.12699999809E+01 0.  1.
</event>
<event>
 5   0  0.3399500E-08  0.4020097E+04  0.7818609E-02  0.8000505E-01
       -1   -1    0    0    0  501  0.00000000000E+00  0.00000000000E+00  0.28374127360E+04  0.28374127360E+04  0.50400001928E-02 0.  1.
        1   -1    0    0  501    0  0.00000000000E+00  0.00000000000E+00 -0.14239361662E+04  0.14239361662E+04  0.50400001928E-02 0. -1.
    10030    2    1    2    0    0  0.00000000000E+00  0.00000000000E+00  0.14134765697E+04  0.42613489022E+04  0.40200968214E+04 0.  0.
        3    1    3    3  502    0 -0.17479554143E+04  0.64370088833E+03 -0.93970890519E+02  0.18650816342E+04  0.10100000352E+00 0. -1.
       -3    1    3    3    0  502  0.17479554143E+04 -0.64370088833E+03  0.15074474602E+04  0.23962672680E+04  0.10100000352E+00 0.  1.
</event>
<event>
 5   0  0.1101474E-07  0.3969171E+04  0.7818609E-02  0.8010795E-01
        2   -1    0    0  501    0  0.00000000000E+00  0.00000000000E+00  0.30241980391E+04  0.30241980391E+04  0.25500000920E-02 0.  1.
       -2   -1    0    0    0  501  0.00000000000E+00  0.00000000000E+00 -0.13023551849E+04  0.13023551849E+04  0.25500000920E-02 0. -1.
    10030    2    1    2    0    0  0.00000000000E+00  0.00000000000E+00  0.17218428542E+04  0.43265532241E+04  0.39691711964E+04 0.  0.
        5    1    3    3  502    0  0.13138305952E+04  0.12734390613E+04  0.23107121265E+02  0.18298507876E+04  0.46999998093E+01 0. -1.
       -5    1    3    3    0  502 -0.13138305952E+04 -0.12734390613E+04  0.16987357329E+04  0.24967024365E+04  0.46999998093E+01 0.  1.
</event>
<event>
 5   0  0.3399500E-08  0.4004850E+04  0.7818609E-02  0.8003569E-01
       -1   -1    0    0    0  501  0.00000000000E+00  0.00000000000E+00  0.30356357245E+04  0.30356357245E+04  0.50400001928E-02 0. -1.
        1   -1    0    0  501    0  0.00000000000E+00  0.00000000000E+00 -0.13208784173E+04  0.13208784173E+04  0.50400001928E-02 0.  1.
    10030    2    1    2    0    0  0.00000000000E+00  0.00000000000E+00  0.17147573072E+04  0.43565141418E+04  0.40048499154E+04 0.  0.
        3    1    3    3  502    0  0.49940526574E+03  0.16681193939E+04 -0.21822124596E+03  0.17548927187E+04  0.10100000352E+00 0.  1.
       -3    1    3    3    0  502 -0.49940526574E+03 -0.16681193939E+04  0.19329785532E+04  0.26016214231E+04  0.10100000352E+00 0. -1.
</event>
<event>
 5   0  0.1073271E-07  0.3988928E+04  0.7818609E-02  0.8006784E-01
        2   -1    0    0  501    0  0.00000000000E+00  0.00000000000E+00  0.21982149172E+04  0.21982149172E+04  0.25500000920E-02 0.  1.
       -2   -1    0    0    0  501  0.00000000000E+00  0.00000000000E+00 -0.18095982089E+04  0.18095982089E+04  0.25500000920E-02 0. -1.
    10030    2    1    2    0    0  0.00000000000E+00  0.00000000000E+00  0.38861670830E+03  0.40078131261E+04  0.39889275636E+04 0.  0.
        1    1    3    3  502    0 -0.13830112146E+04 -0.58746650771E+03 -0.11234072998E+04  0.18761345577E+04  0.50400001928E-02 0. -1.
       -1    1    3    3    0  502  0.13830112146E+04  0.58746650771E+03  0.15120240081E+04  0.21316785683E+04  0.50400001928E-02 0.  1.
</event>
<event>
 5   0  0.3399500E-08  0.4014938E+04  0.7818609E-02  0.8001540E-01
        1   -1    0    0  501    0  0.00000000000E+00  0.00000000000E+00  0.29685818855E+04  0.29685818855E+04  0.50400001928E-02 0. -1.
       -1   -1    0    0    0  501  0.00000000000E+00  0.00000000000E+00 -0.13575276343E+04  0.13575276343E+04  0.50400001928E-02 0.  1.
    10030    2    1    2    0    0  0.00000000000E+00  0.00000000000E+00  0.16110542512E+04  0.43261095199E+04  0.40149380789E+04 0.  0.
        3    1    3    3  502    0 -0.35601667620E+02  0.22545294143E+03 -0.13435008239E+04  0.13627512544E+04  0.10100000352E+00 0.  1.
       -3    1    3    3    0  502  0.35601667620E+02 -0.22545294143E+03  0.29545550750E+04  0.29633582654E+04  0.10100000352E+00 0. -1.
</event>
<event>
 5   0  0.1101474E-07  0.4002729E+04  0.7818609E-02  0.8003996E-01
       -2   -1    0    0    0  501  0.00000000000E+00  0.00000000000E+00  0.18111098469E+04  0.18111098469E+04  0.25500000920E-02 0.  1.
        2   -1    0    0  501    0  0.00000000000E+00  0.00000000000E+00 -0.22116053007E+04  0.22116053007E+04  0.25500000920E-02 0. -1.
    10030    2    1    2    0    0  0.00000000000E+00  0.00000000000E+00 -0.40049545376E+03  0.40227151477E+04  0.40027291378E+04 0.  0.
        5    1    3    3  502    0  0.16678466168E+03 -0.16899207956E+04 -0.12646813754E+04  0.21173309827E+04  0.46999998093E+01 0. -1.
       -5    1    3    3    0  502 -0.16678466168E+03  0.16899207956E+04  0.86418592166E+03  0.19053841650E+04  0.46999998093E+01 0.  1.
</event>
<event>
 5   0  0.1095903E-07  0.3934429E+04  0.7818609E-02  0.8017907E-01
       -2   -1    0    0    0  501  0.00000000000E+00  0.00000000000E+00  0.17141221298E+04  0.17141221298E+04  0.25500000920E-02 0.  1.
        2   -1    0    0  501    0  0.00000000000E+00  0.00000000000E+00 -0.22576761453E+04  0.22576761453E+04  0.25500000920E-02 0. -1.
    10030    2    1    2    0    0  0.00000000000E+00  0.00000000000E+00 -0.54355401552E+03  0.39717982751E+04  0.39344288748E+04 0.  0.
        3    1    3    3  502    0  0.83759920107E+03 -0.17695194449E+04 -0.46638023006E+03  0.20125312461E+04  0.10100000352E+00 0. -1.
       -3    1    3    3    0  502 -0.83759920107E+03  0.17695194449E+04 -0.77173785468E+02  0.19592670290E+04  0.10100000352E+00 0.  1.
</event>
<event>
 5   0  0.1095903E-07  0.3796347E+04  0.7818609E-02  0.8046939E-01
       -2   -1    0    0    0  501  0.00000000000E+00  0.00000000000E+00  0.13048210382E+04  0.13048210382E+04  0.25500000920E-02 0.  1.
        2   -1    0    0  501    0  0.00000000000E+00  0.00000000000E+00 -0.27613462581E+04  0.27613462581E+04  0.25500000920E-02 0. -1.
    10030    2    1    2    0    0  0.00000000000E+00  0.00000000000E+00 -0.14565252200E+04  0.40661672963E+04  0.37963470291E+04 0.  0.
        3    1    3    3  502    0 -0.33307553310E+03  0.16344661023E+04  0.24201658462E+03  0.16855238912E+04  0.10100000352E+00 0.  1.
       -3    1    3    3    0  502  0.33307553310E+03 -0.16344661023E+04 -0.16985418046E+04  0.23806434051E+04  0.10100000352E+00 0. -1.
</event>
<event>
 5   0  0.3399500E-08  0.3933578E+04  0.7818609E-02  0.8018082E-01
       -1   -1    0    0    0  501  0.00000000000E+00  0.00000000000E+00  0.29476029903E+04  0.29476029903E+04  0.50400001928E-02 0. -1.
        1   -1    0    0  501    0  0.00000000000E+00  0.00000000000E+00 -0.13123405263E+04  0.13123405263E+04  0.50400001928E-02 0.  1.
    10030    2    1    2    0    0  0.00000000000E+00  0.00000000000E+00  0.16352624640E+04  0.42599435166E+04  0.39335779436E+04 0.  0.
        1    1    3    3  502    0 -0.15636927535E+04  0.70791175216E+03 -0.22223615394E+03  0.17307983661E+04  0.50400001928E-02 0.  1.
       -1    1    3    3    0  502  0.15636927535E+04 -0.70791175216E+03  0.18574986180E+04  0.25291451504E+04  0.50400001928E-02 0. -1.
</event>
<event>
 5   0  0.3399500E-08  0.3981400E+04  0.7818609E-02  0.8008309E-01
        1   -1    0    0  501    0  0.00000000000E+00  0.00000000000E+00  0.22686683066E+04  0.22686683066E+04  0.50400001928E-02 0.  1.
       -1   -1    0    0    0  501  0.00000000000E+00  0.00000000000E+00 -0.17467895928E+04  0.17467895928E+04  0.50400001928E-02 0. -1.
    10030    2    1    2    0    0  0.00000000000E+00  0.00000000000E+00  0.52187871374E+03  0.40154578994E+04  0.39813998481E+04 0.  0.
        4    1    3    3  502    0  0.52894796976E+03 -0.62116149921E+03 -0.15704288969E+04  0.17697107379E+04  0.12699999809E+01 0. -1.
       -4    1    3    3    0  502 -0.52894796976E+03  0.62116149921E+03  0.20923076107E+04  0.22457471615E+04  0.12699999809E+01 0.  1.
</event>
<event>
 5   0  0.3399500E-08  0.3964242E+04  0.7818609E-02  0.8011799E-01
       -1   -1    0    0    0  501  0.00000000000E+00  0.00000000000E+00  0.22803637502E+04  0.22803637502E+04  0.50400001928E-02 0. -1.
        1   -1    0    0  501    0  0.00000000000E+00  0.00000000000E+00 -0.17228849706E+04  0.17228849706E+04  0.50400001928E-02 0.  1.
    10030    2    1    2    0    0  0.00000000000E+00  0.00000000000E+00  0.55747877951E+03  0.40032487208E+04  0.39642423905E+04 0.  0.
        1    1    3    3  502    0  0.19382405507E+04  0.36246024493E+02 -0.13850185171E+03  0.19435207665E+04  0.50400001928E-02 0.  1.
       -1    1    3    3    0  502 -0.19382405507E+04 -0.36246024493E+02  0.69598063122E+03  0.20597279543E+04  0.50400001928E-02 0. -1.
</event>
<event>
 5   0  0.3399500E-08  0.3991559E+04  0.7818609E-02  0.8006251E-01
       -1   -1    0    0    0  501  0.00000000000E+00  0.00000000000E+00  0.17254219706E+04  0.17254219706E+04  0.50400001928E-02 0.  1.
        1   -1    0    0  501    0  0.00000000000E+00  0.00000000000E+00 -0.23084999249E+04  0.23084999249E+04  0.50400001928E-02 0. -1.
    10030    2    1    2    0    0  0.00000000000E+00  0.00000000000E+00 -0.58307795430E+03  0.40339218955E+04  0.39915593392E+04 0.  0.
        5    1    3    3  502    0 -0.37385644100E+03  0.11518211167E+04  0.13116940100E+04  0.17852237365E+04  0.46999998093E+01 0.  1.
       -5    1    3    3    0  502  0.37385644100E+03 -0.11518211167E+04 -0.18947719643E+04  0.22486981590E+04  0.46999998093E+01 0. -1.
</event>
<event>
 5   0  0.3399500E-08  0.3970728E+04  0.7818609E-02  0.8010478E-01
       -1   -1    0    0    0  501  0.00000000000E+00  0.00000000000E+00  0.15844238216E+04  0.15844238216E+04  0.50400001928E-02 0. -1.
        1   -1    0    0  501    0  0.00000000000E+00  0.00000000000E+00 -0.24877629163E+04  0.24877629163E+04  0.50400001928E-02 0.  1.
    10030    2    1    2    0    0  0.00000000000E+00  0.00000000000E+00 -0.90333909465E+03  0.40721867379E+04  0.39707283096E+04 0.  0.
        4    1    3    3  502    0  0.74848317653E+03  0.15860504775E+04 -0.14059760426E+04  0.22477885639E+04  0.12699999809E+01 0.  1.
       -4    1    3    3    0  502 -0.74848317653E+03 -0.15860504775E+04  0.50263694798E+03  0.18243981740E+04  0.12699999809E+01 0. -1.
</event>
<event>
 5   0  0.3399500E-08  0.4015266E+04  0.7818609E-02  0.8001474E-01
        1   -1    0    0  501    0  0.00000000000E+00  0.00000000000E+00  0.18270241558E+04  0.18270241558E+04  0.50400001928E-02 0. -1.
       -1   -1    0    0    0  501  0.00000000000E+00  0.00000000000E+00 -0.22060962696E+04  0.22060962696E+04  0.50400001928E-02 0.  1.
    10030    2    1    2    0    0  0.00000000000E+00  0.00000000000E+00 -0.37907211373E+03  0.40331204254E+04  0.40152664542E+04 0.  0.
        2    1    3    3  502    0 -0.13660146515E+03 -0.37768054604E+03  0.17862612193E+04  0.18308554554E+04  0.25500000920E-02 0. -1.
       -2    1    3    3    0  502  0.13660146515E+03  0.37768054604E+03 -0.21653333330E+04  0.22022649700E+04  0.25500000920E-02 0.  1.
</event>
<event>
 5   0  0.1087688E-07  0.4006346E+04  0.7818609E-02  0.8003268E-01
        2   -1    0    0  501    0  0.00000000000E+00  0.00000000000E+00  0.18404286290E+04  0.18404286290E+04  0.25500000920E-02 0.  1.
       -2   -1    0    0    0  501  0.00000000000E+00  0.00000000000E+00 -0.21803080126E+04  0.21803080126E+04  0.25500000920E-02 0. -1.
    10030    2    1    2    0    0  0.00000000000E+00  0.00000000000E+00 -0.33987938358E+03  0.40207366417E+04  0.40063456099E+04 0.  0.
        2    1    3    3  502    0  0.60698848000E+03 -0.90309515176E+03 -0.18578506875E+04  0.21530501724E+04  0.25500000920E-02 0. -1.
       -2    1    3    3    0  502 -0.60698848000E+03  0.90309515176E+03  0.15179713039E+04  0.18676864692E+04  0.25500000920E-02 0.  1.
</event>
<event>
 5   0  0.3399500E-08  0.3992435E+04  0.7818609E-02  0.8006074E-01
        1   -1    0    0  501    0  0.00000000000E+00  0.00000000000E+00  0.13150949902E+04  0.13150949902E+04  0.50400001928E-02 0. -1.
       -1   -1    0    0    0  501  0.00000000000E+00  0.00000000000E+00 -0.30301118507E+04  0.30301118507E+04  0.50400001928E-02 0.  1.
    10030    2    1    2    0    0  0.00000000000E+00  0.00000000000E+00 -0.17150168606E+04  0.43452068409E+04  0.39924353042E+04 0.  0.
        5    1    3    3  502    0 -0.14018069114E+04  0.83023428136E+03 -0.21129076145E+04  0.26680989967E+04  0.46999998093E+01 0.  1.
       -5    1    3    3    0  502  0.14018069114E+04 -0.83023428136E+03  0.39789075395E+03  0.16771078442E+04  0.46999998093E+01 0. -1.
</event>
<event>
 5   0  0.3399500E-08  0.4025306E+04  0.7818609E-02  0.7999461E-01
       -1   -1    0    0    0  501  0.00000000000E+00  0.00000000000E+00  0.15974552766E+04  0.15974552766E+04  0.50400001928E-02 0. -1.
        1   -1    0    0  501    0  0.00000000000E+00  0.00000000000E+00 -0.25357649794E+04  0.25357649794E+04  0.50400001928E-02 0.  1.
    10030    2    1    2    0    0  0.00000000000E+00  0.00000000000E+00 -0.93830970281E+03  0.41332202560E+04  0.40253055271E+04 0.  0.
        3    1    3    3  502    0 -0.37898718509E+02 -0.17897707323E+04  0.47531726050E+03  0.18521992591E+04  0.10100000352E+00 0. -1.
       -3    1    3    3    0  502  0.37898718509E+02  0.17897707323E+04 -0.14136269633E+04  0.22810209970E+04  0.10100000352E+00 0.  1.
</event>
<event>
 5   0  0.1087688E-07  0.3995134E+04  0.7818609E-02  0.8005529E-01
        2   -1    0    0  501    0  0.00000000000E+00  0.00000000000E+00  0.29640850765E+04  0.29640850765E+04  0.25500000920E-02 0.  1.
       -2   -1    0    0    0  501  0.00000000000E+00  0.00000000000E+00 -0.13462075764E+04  0.13462075764E+04  0.25500000920E-02 0. -1.
    10030    2    1    2    0    0  0.00000000000E+00  0.00000000000E+00  0.16178775002E+04  0.43102926529E+04  0.39951339337E+04 0.  0.
        2    1    3    3  502    0 -0.10683339824E+04 -0.10313231888E+04  0.22504966285E+04  0.26962381373E+04  0.25500000920E-02 0.  1.
       -2    1    3    3    0  502  0.10683339824E+04  0.10313231888E+04 -0.63261912839E+03  0.16140545156E+04  0.25500000920E-02 0. -1.
</event>
<event>
 5   0  0.3399500E-08  0.3999056E+04  0.7818609E-02  0.8004737E-01
       -1   -1    0    0    0  501  0.00000000000E+00  0.00000000000E+00  0.25524259090E+04  0.25524259090E+04  0.50400001928E-02 0. -1.
        1   -1    0    0  501    0  0.00000000000E+00  0.00000000000E+00 -0.15663967371E+04  0.15663967371E+04  0.50400001928E-02 0.  1.
    10030    2    1    2    0    0  0.00000000000E+00  0.00000000000E+00  0.98602917191E+03  0.41188226461E+04  0.39990556963E+04 0.  0.
        2    1    3    3  502    0  0.19341304460E+04 -0.48052565148E+03  0.32583853236E+03  0.20193900646E+04  0.25500000920E-02 0.  1.
       -2    1    3    3    0  502 -0.19341304460E+04  0.48052565148E+03  0.66019063955E+03  0.20994325815E+04  0.25500000920E-02 0. -1.
</event>
<event>
 5   0  0.3399500E-08  0.4026985E+04  0.7818609E-02  0.7999125E-01
       -1   -1    0    0    0  501  0.00000000000E+00  0.00000000000E+00  0.21027224738E+04  0.21027224738E+04  0.50400001928E-02 0. -1.
        1   -1    0    0  501    0  0.00000000000E+00  0.00000000000E+00 -0.19280490469E+04  0.19280490469E+04  0.50400001928E-02 0.  1.
    10030    2    1    2    0    0  0.00000000000E+00  0.00000000000E+00  0.17467342693E+03  0.40307715206E+04  0.40269850069E+04 0.  0.
        5    1    3    3  502    0 -0.20014794705E+04  0.20934884296E+03  0.15360290964E+03  0.20182574050E+04  0.46999998093E+01 0.  1.
       -5    1    3    3    0  502  0.20014794705E+04 -0.20934884296E+03  0.21070517282E+02  0.20125141156E+04  0.46999998093E+01 0. -1.
</event>
<event>
 5   0  0.1073271E-07  0.3954851E+04  0.7818609E-02  0.8013717E-01
        2   -1    0    0  501    0  0.00000000000E+00  0.00000000000E+00  0.16574785636E+04  0.16574785636E+04  0.25500000920E-02 0.  1.
       -2   -1    0    0    0  501  0.00000000000E+00  0.00000000000E+00 -0.23591321405E+04  0.23591321405E+04  0.25500000920E-02 0. -1.
    10030    2    1    2    0    0  0.00000000000E+00  0.00000000000E+00 -0.70165357691E+03  0.40166107042E+04  0.39548506681E+04 0.  0.
        1    1    3    3  502    0 -0.91867645844E+03 -0.11609070982E+04 -0.16822293141E+04  0.22408853588E+04  0.50400001928E-02 0. -1.
       -1    1    3    3    0  502  0.91867645844E+03  0.11609070982E+04  0.98057573721E+03  0.17757253454E+04  0.50400001928E-02 0.  1.
</event>
<event>
 5   0  0.1087688E-07  0.4011989E+04  0.7818609E-02  0.8002132E-01
        2   -1    0    0  501    0  0.00000000000E+00  0.00000000000E+00  0.16563047569E+04  0.16563047569E+04  0.25500000920E-02 0.  1.
       -2   -1    0    0    0  501  0.00000000000E+00  0.00000000000E+00 -0.24295132346E+04  0.24295132346E+04  0.25500000920E-02 0. -1.
    10030    2    1    2    0    0  0.00000000000E+00  0.00000000000E+00 -0.77320847775E+03  0.40858179915E+04  0.40119891961E+04 0.  0.
        2    1    3    3  502    0 -0.10378496187E+04  0.51404643033E+03 -0.20546208049E+04  0.23585678314E+04  0.25500000920E-02 0. -1.
       -2    1    3    3    0  502  0.10378496187E+04 -0.51404643033E+03  0.12814123271E+04  0.17272501601E+04  0.25500000920E-02 0.  1.
</event>
<event>
 5   0  0.1095109E-07  0.4132999E+04  0.7818609E-02  0.7978241E-01
        2   -1    0    0  501    0  0.00000000000E+00  0.00000000000E+00  0.21555092689E+04  0.21555092689E+04  0.25500000920E-02 0.  1.
       -2   -1    0    0    0  501  0.00000000000E+00  0.00000000000E+00 -0.19811653774E+04  0.19811653774E+04  0.25500000920E-02 0. -1.
    10030    2    1    2    0    0  0.00000000000E+00  0.00000000000E+00  0.17434389150E+03  0.41366746464E+04  0.41329990730E+04 0.  0.
        4    1    3    3  502    0  0.20091236617E+04  0.45939490837E+03 -0.63949587505E+02  0.20619681696E+04  0.12699999809E+01 0. -1.
       -4    1    3    3    0  502 -0.20091236617E+04 -0.45939490837E+03  0.23829347901E+03  0.20747064768E+04  0.12699999809E+01 0.  1.
</event>
<event>
 5   0  0.1101474E-07  0.4013424E+04  0.7818609E-02  0.8001844E-01
       -2   -1    0    0    0  501  0.00000000000E+00  0.00000000000E+00  0.17300628024E+04  0.17300628024E+04  0.25500000920E-02 0. -1.
        2   -1    0    0  501    0  0.00000000000E+00  0.00000000000E+00 -0.23275990810E+04  0.23275990810E+04  0.25500000920E-02 0.  1.
    10030    2    1    2    0    0  0.00000000000E+00  0.00000000000E+00 -0.59753627861E+03  0.40576618834E+04  0.40134237698E+04 0.  0.
        5    1    3    3  502    0 -0.19540663185E+04 -0.40069002281E+03 -0.77396154485E+02  0.19962314310E+04  0.46999998093E+01 0.  1.
       -5    1    3    3    0  502  0.19540663185E+04  0.40069002281E+03 -0.52014012412E+03  0.20614304524E+04  0.46999998093E+01 0. -1.
</event>
<event>
 5   0  0.1095109E-07  0.3997929E+04  0.7818609E-02  0.8004965E-01
       -2   -1    0    0    0  501  0.00000000000E+00  0.00000000000E+00  0.25008605986E+04  0.25008605986E+04  0.25500000920E-02 0. -1.
        2   -1    0    0  501    0  0.00000000000E+00  0.00000000000E+00 -0.15977934436E+04  0.15977934436E+04  0.25500000920E-02 0.  1.
    10030    2    1    2    0    0  0.00000000000E+00  0.00000000000E+00  0.90306715506E+03  0.40986540422E+04  0.39979287977E+04 0.  0.
        4    1    3    3  502    0  0.30401066594E+03 -0.44548062662E+02 -0.15734393991E+04  0.16031594338E+04  0.12699999809E+01 0.  1.
       -4    1    3    3    0  502 -0.30401066594E+03  0.44548062662E+02  0.24765065541E+04  0.24954946084E+04  0.12699999809E+01 0. -1.
</event>
<event>
 5   0  0.1073271E-07  0.3964905E+04  0.7818609E-02  0.8011664E-01
        2   -1    0    0  501    0  0.00000000000E+00  0.00000000000E+00  0.20939042424E+04  0.20939042424E+04  0.25500000920E-02 0.  1.
       -2   -1    0    0    0  501  0.00000000000E+00  0.00000000000E+00 -0.18769330372E+04  0.18769330372E+04  0.25500000920E-02 0. -1.
    10030    2    1    2    0    0  0.00000000000E+00  0.00000000000E+00  0.21697120523E+03  0.39708372796E+04  0.39649050679E+04 0.  0.
        1    1    3    3  502    0 -0.12527331595E+04 -0.50985393814E+03 -0.13431058601E+04  0.19061019801E+04  0.50400001928E-02 0. -1.
       -1    1    3    3    0  502  0.12527331595E+04  0.50985393814E+03  0.15600770653E+04  0.20647352995E+04  0.50400001928E-02 0.  1.
</event>
<event>
 5   0  0.3399500E-08  0.4007913E+04  0.7818609E-02  0.8002952E-01
       -1   -1    0    0    0  501  0.00000000000E+00  0.00000000000E+00  0.22615865260E+04  0.22615865260E+04  0.50400001928E-02 0.  1.
        1   -1    0    0  501    0  0.00000000000E+00  0.00000000000E+00 -0.17756744623E+04  0.17756744623E+04  0.50400001928E-02 0. -1.
    10030    2    1    2    0    0  0.00000000000E+00  0.00000000000E+00  0.48591206367E+03  0.40372609883E+04  0.40079128925E+04 0.  0.
        4    1    3    3  502    0  0.35698558809E+03 -0.44376757104E+03  0.21783452113E+04  0.22515678625E+04  0.12699999809E+01 0.  1.
       -4    1    3    3    0  502 -0.35698558809E+03  0.44376757104E+03 -0.16924331476E+04  0.17856931257E+04  0.12699999809E+01 0. -1.
</event>
<event>
 5   0  0.1087688E-07  0.3983154E+04  0.7818609E-02  0.8007954E-01
        2   -1    0    0  501    0  0.00000000000E+00  0.00000000000E+00  0.12875767376E+04  0.12875767376E+04  0.25500000920E-02 0. -1.
       -2   -1    0    0    0  501  0.00000000000E+00  0.00000000000E+00 -0.30804992240E+04  0.30804992240E+04  0.25500000920E-02 0.  1.
    10030    2    1    2    0    0  0.00000000000E+00  0.00000000000E+00 -0.17929224864E+04  0.43680759616E+04  0.39831540974E+04 0.  0.
        2    1    3    3  502    0 -0.12613642472E+04  0.82552279804E+03 -0.23237135008E+04  0.27698686048E+04  0.25500000920E-02 0.  1.
       -2    1    3    3    0  502  0.12613642472E+04 -0.82552279804E+03  0.53079101436E+03  0.15982073567E+04  0.25500000920E-02 0. -1.
</event>
<event>
 5   0  0.1095903E-07  0.3937571E+04  0.7818609E-02  0.8017260E-01
       -2   -1    0    0    0  501  0.00000000000E+00  0.00000000000E+00  0.20021861251E+04  0.20021861251E+04  0.25500000920E-02 0.  1.
        2   -1    0    0  501    0  0.00000000000E+00  0.00000000000E+00 -0.19359416518E+04  0.19359416518E+04  0.25500000920E-02 0. -1.
    10030    2    1    2    0    0  0.00000000000E+00  0.00000000000E+00  0.66244473267E+02  0.39381277770E+04  0.39375705781E+04 0.  0.
        3    1    3    3  502    0 -0.13231663585E+04 -0.10556372737E+04 -0.97249318758E+03  0.19521481184E+04  0.10100000352E+00 0. -1.
       -3    1    3    3    0  502  0.13231663585E+04  0.10556372737E+04  0.10387376608E+04  0.19859796586E+04  0.10100000352E+00 0.  1.
</event>
<event>
 5   0  0.1101474E-07  0.3963065E+04  0.7818609E-02  0.8012039E-01
       -2   -1    0    0    0  501  0.00000000000E+00  0.00000000000E+00  0.26091111441E+04  0.26091111441E+04  0.25500000920E-02 0.  1.
        2   -1    0    0  501    0  0.00000000000E+00  0.00000000000E+00 -0.15049077513E+04  0.15049077513E+04  0.25500000920E-02 0. -1.
    10030    2    1    2    0    0  0.00000000000E+00  0.00000000000E+00  0.11042033928E+04  0.41140188953E+04  0.39630652705E+04 0.  0.
        5    1    3    3  502    0 -0.50517317260E+03 -0.18113337267E+04  0.12006544200E+04  0.22310811124E+04  0.46999998093E+01 0.  1.
       -5    1    3    3    0  502  0.50517317260E+03  0.18113337267E+04 -0.96451027189E+02  0.18829377829E+04  0.46999998093E+01 0. -1.
</event>
<event>
 5   0  0.1073271E-07  0.3987502E+04  0.7818609E-02  0.8007073E-01
        2   -1    0    0  501    0  0.00000000000E+00  0.00000000000E+00  0.25827776950E+04  0.25827776950E+04  0.25500000920E-02 0.  1.
       -2   -1    0    0    0  501  0.00000000000E+00  0.00000000000E+00 -0.15390573836E+04  0.15390573836E+04  0.25500000920E-02 0. -1.
    10030    2    1    2    0    0  0.00000000000E+00  0.00000000000E+00  0.10437203114E+04  0.41218350786E+04  0.39875020158E+04 0.  0.
        1    1    3    3  502    0  0.12640315485E+04  0.36714317125E+03  0.20697973217E+04  0.24528821449E+04  0.50400001928E-02 0.  1.
       -1    1    3    3    0  502 -0.12640315485E+04 -0.36714317125E+03 -0.10260770103E+04  0.16689529337E+04  0.50400001928E-02 0. -1.
</event>
<event>
 5   0  0.3399500E-08  0.4059234E+04  0.7818609E-02  0.7992703E-01
       -1   -1    0    0    0  501  0.00000000000E+00  0.00000000000E+00  0.16551305365E+04  0.16551305365E+04  0.50400001928E-02 0. -1.
        1   -1    0    0  501    0  0.00000000000E+00  0.00000000000E+00 -0.24888341219E+04  0.24888341219E+04  0.50400001928E-02 0.  1.
    10030    2    1    2    0    0  0.00000000000E+00  0.00000000000E+00 -0.83370358541E+03  0.41439646584E+04  0.40592340930E+04 0.  0.
        1    1    3    3  502    0 -0.11050812920E+04 -0.11018757245E+04  0.90793000821E+03  0.18054560848E+04  0.50400001928E-02 0. -1.
       -1    1    3    3    0  502  0.11050812920E+04  0.11018757245E+04 -0.17416335936E+04  0.23385085736E+04  0.50400001928E-02 0.  1.
</event>
<event>
 5   0  0.1087688E-07  0.4157586E+04  0.7818609E-02  0.7973490E-01
        2   -1    0    0  501    0  0.00000000000E+00  0.00000000000E+00  0.29532556824E+04  0.29532556824E+04  0.25500000920E-02 0.  1.
       -2   -1    0    0    0  501  0.00000000000E+00  0.00000000000E+00 -0.14632600013E+04  0.14632600013E+04  0.25500000920E-02 0. -1.
    10030    2    1    2    0    0  0.00000000000E+00  0.00000000000E+00  0.14899956811E+04  0.44165156837E+04  0.41575862775E+04 0.  0.
        2    1    3    3  502    0 -0.19771266543E+04  0.63825770561E+03  0.81994842391E+03  0.22335438486E+04  0.25500000920E-02 0. -1.
       -2    1    3    3    0  502  0.19771266543E+04 -0.63825770561E+03  0.67004725715E+03  0.21829718351E+04  0.25500000920E-02 0.  1.
</event>
<event>
 5   0  0.3399500E-08  0.4025935E+04  0.7818609E-02  0.7999335E-01
       -1   -1    0    0    0  501  0.00000000000E+00  0.00000000000E+00  0.19981727719E+04  0.19981727719E+04  0.50400001928E-02 0.  1.
        1   -1    0    0  501    0  0.00000000000E+00  0.00000000000E+00 -0.20278717974E+04  0.20278717974E+04  0.50400001928E-02 0. -1.
    10030    2    1    2    0    0  0.00000000000E+00  0.00000000000E+00 -0.29699025478E+02  0.40260445693E+04  0.40259350271E+04 0.  0.
        5    1    3    3  502    0  0.12677948273E+04  0.14155121347E+04  0.64927532027E+03  0.20081232181E+04  0.46999998093E+01 0.  1.
       -5    1    3    3    0  502 -0.12677948273E+04 -0.14155121347E+04 -0.67897434575E+03  0.20179213512E+04  0.46999998093E+01 0. -1.
</event>
<event>
 5   0  0.1101474E-07  0.3994736E+04  0.7818609E-02  0.8005609E-01
       -2   -1    0    0    0  501  0.00000000000E+00  0.00000000000E+00  0.14704441242E+04  0.14704441242E+04  0.25500000920E-02 0. -1.
        2   -1    0    0  501    0  0.00000000000E+00  0.00000000000E+00 -0.27131109148E+04  0.27131109149E+04  0.25500000920E-02 0.  1.
    10030    2    1    2    0    0  0.00000000000E+00  0.00000000000E+00 -0.12426667906E+04  0.41835550391E+04  0.39947355372E+04 0.  0.
        5    1    3    3  502    0  0.33952782484E+03  0.19332275569E+04 -0.23397482145E+03  0.19767180471E+04  0.46999998093E+01 0.  1.
       -5    1    3    3    0  502 -0.33952782484E+03 -0.19332275569E+04 -0.10086919692E+04  0.22068369920E+04  0.46999998093E+01 0. -1.
</event>
<event>
 5   0  0.3399500E-08  0.3984211E+04  0.7818609E-02  0.8007739E-01
       -1   -1    0    0    0  501  0.00000000000E+00  0.00000000000E+00  0.19774294044E+04  0.19774294044E+04  0.50400001928E-02 0.  1.
        1   -1    0    0  501    0  0.00000000000E+00  0.00000000000E+00 -0.20068903031E+04  0.20068903031E+04  0.50400001928E-02 0. -1.
    10030    2    1    2    0    0  0.00000000000E+00  0.00000000000E+00 -0.29460898716E+02  0.39843197075E+04  0.39842107860E+04 0.  0.
        4    1    3    3  502    0  0.53207791864E+03 -0.10905993534E+04 -0.15946370591E+04  0.20038420158E+04  0.12699999809E+01 0. -1.
       -4    1    3    3    0  502 -0.53207791864E+03  0.10905993534E+04  0.15651761604E+04  0.19804776917E+04  0.12699999809E+01 0.  1.
</event>
<event>
 5   0  0.1095109E-07  0.3975352E+04  0.7818609E-02  0.8009537E-01
       -2   -1    0    0    0  501  0.00000000000E+00  0.00000000000E+00  0.12516419195E+04  0.12516419195E+04  0.25500000920E-02 0. -1.
        2   -1    0    0  501    0  0.00000000000E+00  0.00000000000E+00 -0.31565388994E+04  0.31565388994E+04  0.25500000920E-02 0.  1.
    10030    2    1    2    0    0  0.00000000000E+00  0.00000000000E+00 -0.19048969799E+04  0.44081808189E+04  0.39753522646E+04 0.  0.
        4    1    3    3  502    0  0.86774204352E+03 -0.14542278065E+04 -0.21064810582E+04  0.27027798335E+04  0.12699999809E+01 0.  1.
       -4    1    3    3    0  502 -0.86774204352E+03  0.14542278065E+04  0.20158407827E+03  0.17054009853E+04  0.12699999809E+01 0. -1.
</event>
<event>
 5   0  0.3399500E-08  0.4010479E+04  0.7818609E-02  0.8002436E-01
        1   -1    0    0  501    0  0.00000000000E+00  0.00000000000E+00  0.22607165426E+04  0.22607165426E+04  0.50400001928E-02 0.  1.
       -1   -1    0    0    0  501  0.00000000000E+00  0.00000000000E+00 -0.17786331697E+04  0.17786331697E+04  0.50400001928E-02 0. -1.
    10030    2    1    2    0    0  0.00000000000E+00  0.00000000000E+00  0.48208337288E+03  0.40393497124E+04  0.40104789889E+04 0.  0.
        1    1    3    3  502    0 -0.16076795982E+04  0.84259864186E+03  0.10994559578E+04  0.21221238336E+04  0.50400001928E-02 0.  1.
       -1    1    3    3    0  502  0.16076795982E+04 -0.84259864186E+03 -0.61737258496E+03  0.19172258788E+04  0.50400001928E-02 0. -1.
</event>
<event>
 5   0  0.1073271E-07  0.3650222E+04  0.7818609E-02  0.8079084E-01
       -2   -1    0    0    0  501  0.00000000000E+00  0.00000000000E+00  0.12516372472E+04  0.12516372472E+04  0.25500000920E-02 0. -1.
        2   -1    0    0  501    0  0.00000000000E+00  0.00000000000E+00 -0.26613382792E+04  0.26613382792E+04  0.25500000920E-02 0.  1.
    10030    2    1    2    0    0  0.00000000000E+00  0.00000000000E+00 -0.14097010320E+04  0.39129755264E+04  0.36502219755E+04 0.  0.
        1    1    3    3  502    0 -0.83458455729E+03  0.90475787940E+03 -0.21494093859E+04  0.24769091448E+04  0.50400001928E-02 0. -1.
       -1    1    3    3    0  502  0.83458455729E+03 -0.90475787940E+03  0.73970835384E+03  0.14360663816E+04  0.50400001928E-02 0.  1.
</event>
<event>
 5   0  0.3399500E-08  0.4001314E+04  0.7818609E-02  0.8004282E-01
       -1   -1    0    0    0  501  0.00000000000E+00  0.00000000000E+00  0.30774742126E+04  0.30774742126E+04  0.50400001928E-02 0.  1.
        1   -1    0    0  501    0  0.00000000000E+00  0.00000000000E+00 -0.13006212936E+04  0.13006212936E+04  0.50400001928E-02 0. -1.
    10030    2    1    2    0    0  0.00000000000E+00  0.00000000000E+00  0.17768529190E+04  0.43780955062E+04  0.40013140298E+04 0.  0.
        4    1    3    3  502    0  0.50984868588E+03 -0.13546926508E+04 -0.62274456423E+03  0.15757380067E+04  0.12699999809E+01 0. -1.
       -4    1    3    3    0  502 -0.50984868588E+03  0.13546926508E+04  0.23995974833E+04  0.28023574995E+04  0.12699999809E+01 0.  1.
</event>
<event>
 5   0  0.1095903E-07  0.3986712E+04  0.7818609E-02  0.8007233E-01
       -2   -1    0    0    0  501  0.00000000000E+00  0.00000000000E+00  0.15818665352E+04  0.15818665353E+04  0.25500000920E-02 0.  1.
        2   -1    0    0  501    0  0.00000000000E+00  0.00000000000E+00 -0.25118859184E+04  0.25118859184E+04  0.25500000920E-02 0. -1.
    10030    2    1    2    0    0  0.00000000000E+00  0.00000000000E+00 -0.93001938315E+03  0.40937524537E+04  0.39867120662E+04 0.  0.
        3    1    3    3  502    0 -0.81718270522E+03 -0.12797844674E+04  0.86111057196E+03  0.17456079984E+04  0.10100000352E+00 0.  1.
       -3    1    3    3    0  502  0.81718270522E+03  0.12797844674E+04 -0.17911299551E+04  0.23481444553E+04  0.10100000352E+00 0. -1.
</event>
<event>
 5   0  0.3399500E-08  0.3988942E+04  0.7818609E-02  0.8006781E-01
       -1   -1    0    0    0  501  0.00000000000E+00  0.00000000000E+00  0.28258454912E+04  0.28258454912E+04  0.50400001928E-02 0. -1.
        1   -1    0    0  501    0  0.00000000000E+00  0.00000000000E+00 -0.14076896980E+04  0.14076896980E+04  0.50400001928E-02 0.  1.
    10030    2    1    2    0    0  0.00000000000E+00  0.00000000000E+00  0.14181557931E+04  0.42335351892E+04  0.39889415068E+04 0.  0.
        3    1    3    3  502    0  0.10008200822E+03 -0.76480367563E+03  0.26611449883E+04  0.27706738765E+04  0.10100000352E+00 0. -1.
       -3    1    3    3    0  502 -0.10008200822E+03  0.76480367563E+03 -0.12429891952E+04  0.14628613127E+04  0.10100000352E+00 0.  1.
</event>
<event>
 5   0  0.1073271E-07  0.3977641E+04  0.7818609E-02  0.8009072E-01
       -2   -1    0    0    0  501  0.00000000000E+00  0.00000000000E+00  0.25677019150E+04  0.25677019150E+04  0.25500000920E-02 0. -1.
        2   -1    0    0  501    0  0.00000000000E+00  0.00000000000E+00 -0.15404466211E+04  0.15404466211E+04  0.25500000920E-02 0.  1.
    10030    2    1    2    0    0  0.00000000000E+00  0.00000000000E+00  0.10272552939E+04  0.41081485362E+04  0.39776413811E+04 0.  0.
        1    1    3    3  502    0 -0.64919759082E+02 -0.18785492790E+04  0.11847522600E+04  0.22218910609E+04  0.50400001928E-02 0. -1.
       -1    1    3    3    0  502  0.64919759082E+02  0.18785492790E+04 -0.15749696607E+03  0.18862574753E+04  0.50400001928E-02 0.  1.
</event>
<event>
 5   0  0.3399500E-08  0.4020715E+04  0.7818609E-02  0.8000381E-01
        1   -1    0    0  501    0  0.00000000000E+00  0.00000000000E+00  0.14097149050E+04  0.14097149050E+04  0.50400001928E-02 0.  1.
       -1   -1    0    0    0  501  0.00000000000E+00  0.00000000000E+00 -0.28669177974E+04  0.28669177974E+04  0.50400001928E-02 0. -1.
    10030    2    1    2    0    0  0.00000000000E+00  0.00000000000E+00 -0.14572028924E+04  0.42766327025E+04  0.40207147378E+04 0.  0.
        4    1    3    3  502    0  0.15780769071E+04 -0.87100620342E+03  0.21831974553E+03  0.18156661740E+04  0.12699999809E+01 0.  1.
       -4    1    3    3    0  502 -0.15780769071E+04  0.87100620342E+03 -0.16755226379E+04  0.24609665285E+04  0.12699999809E+01 0. -1.
</event>
<event>
 5   0  0.1095903E-07  0.4004057E+04  0.7818609E-02  0.8003729E-01
        2   -1    0    0  501    0  0.00000000000E+00  0.00000000000E+00  0.24424579531E+04  0.24424579531E+04  0.25500000920E-02 0.  1.
       -2   -1    0    0    0  501  0.00000000000E+00  0.00000000000E+00 -0.16410184935E+04  0.16410184935E+04  0.25500000920E-02 0. -1.
    10030    2    1    2    0    0  0.00000000000E+00  0.00000000000E+00  0.80143945955E+03  0.40834764466E+04  0.40040572776E+04 0.  0.
        3    1    3    3  502    0 -0.18913609884E+04  0.64181071991E+03  0.26032559925E+03  0.20141839083E+04  0.10100000352E+00 0.  1.
       -3    1    3    3    0  502  0.18913609884E+04 -0.64181071991E+03  0.54111386030E+03  0.20692925382E+04  0.10100000352E+00 0. -1.
</event>
<event>
 5   0  0.3399500E-08  0.3906916E+04  0.7818609E-02  0.8023592E-01
        1   -1    0    0  501    0  0.00000000000E+00  0.00000000000E+00  0.26086450446E+04  0.26086450446E+04  0.50400001928E-02 0. -1.
       -1   -1    0    0    0  501  0.00000000000E+00  0.00000000000E+00 -0.14628275512E+04  0.14628275512E+04  0.50400001928E-02 0.  1.
    10030    2    1    2    0    0  0.00000000000E+00  0.00000000000E+00  0.11458174934E+04  0.40714725958E+04  0.39069158386E+04 0.  0.
        4    1    3    3  502    0 -0.11554008368E+04  0.15748630620E+04  0.60331778227E+03  0.20442941855E+04  0.12699999809E+01 0. -1.
       -4    1    3    3    0  502  0.11554008368E+04 -0.15748630620E+04  0.54249971115E+03  0.20271784103E+04  0.12699999809E+01 0.  1.
</event>
<event>
 5   0  0.3399500E-08  0.3976005E+04  0.7818609E-02  0.8009405E-01
       -1   -1    0    0    0  501  0.00000000000E+00  0.00000000000E+00  0.22523377591E+04  0.22523377591E+04  0.50400001928E-02 0.  1.
        1   -1    0    0  501    0  0.00000000000E+00  0.00000000000E+00 -0.17546897789E+04  0.17546897789E+04  0.50400001928E-02 0. -1.
    10030    2    1    2    0    0  0.00000000000E+00  0.00000000000E+00  0.49764798020E+03  0.40070275380E+04  0.39760050526E+04 0.  0.
        4    1    3    3  502    0 -0.30254187363E+03  0.12245509042E+04 -0.12997509098E+04  0.18111903662E+04  0.12699999809E+01 0. -1.
       -4    1    3    3    0  502  0.30254187363E+03 -0.12245509042E+04  0.17973988900E+04  0.21958371718E+04  0.12699999809E+01 0.  1.
</event>
<event>
 5   0  0.3399500E-08  0.3943924E+04  0.7818609E-02  0.8015955E-01
        1   -1    0    0  501    0  0.00000000000E+00  0.00000000000E+00  0.30597677109E+04  0.30597677109E+04  0.50400001928E-02 0. -1.
       -1   -1    0    0    0  501  0.00000000000E+00  0.00000000000E+00 -0.12708917385E+04  0.12708917385E+04  0.50400001928E-02 0.  1.
    10030    2    1    2    0    0  0.00000000000E+00  0.00000000000E+00  0.17888759724E+04  0.43306594494E+04  0.39439236835E+04 0.  0.
        5    1    3    3  502    0 -0.83298326893E+03 -0.16886038456E+04  0.25100247802E+03  0.18995442632E+04  0.46999998093E+01 0.  1.
       -5    1    3    3    0  502  0.83298326893E+03  0.16886038456E+04  0.15378734944E+04  0.24311151862E+04  0.46999998093E+01 0. -1.
</event>
<event>
 5   0  0.1087688E-07  0.3969773E+04  0.7818609E-02  0.8010672E-01
        2   -1    0    0  501    0  0.00000000000E+00  0.00000000000E+00  0.30470341979E+04  0.30470341979E+04  0.25500000920E-02 0. -1.
       -2   -1    0    0    0  501  0.00000000000E+00  0.00000000000E+00 -0.12929867718E+04  0.12929867718E+04  0.25500000920E-02 0.  1.
    10030    2    1    2    0    0  0.00000000000E+00  0.00000000000E+00  0.17540474261E+04  0.43400209696E+04  0.39697732484E+04 0.  0.
        2    1    3    3  502    0  0.17493324829E+04 -0.66881800812E+03  0.15958357696E+04  0.24605230069E+04  0.25500000920E-02 0.  1.
       -2    1    3    3    0  502 -0.17493324829E+04  0.66881800812E+03  0.15821165653E+03  0.18794979628E+04  0.25500000920E-02 0. -1.
</event>
<event>
 5   0  0.1095109E-07  0.3968154E+04  0.7818609E-02  0.8011002E-01
       -2   -1    0    0    0  501  0.00000000000E+00  0.00000000000E+00  0.23959959869E+04  0.23959959869E+04  0.25500000920E-02 0.  1.
        2   -1    0    0  501    0  0.00000000000E+00  0.00000000000E+00 -0.16429747597E+04  0.16429747597E+04  0.25500000920E-02 0. -1.
    10030    2    1    2    0    0  0.00000000000E+00  0.00000000000E+00  0.75302122717E+03  0.40389707466E+04  0.39681536920E+04 0.  0.
        4    1    3    3  502    0 -0.91899069891E+03  0.12320809231E+04 -0.90046759181E+03  0.17814069727E+04  0.12699999809E+01 0. -1.
       -4    1    3    3    0  502  0.91899069891E+03 -0.12320809231E+04  0.16534888190E+04  0.22575637739E+04  0.12699999809E+01 0.  1.
</event>
<event>
 5   0  0.1101474E-07  0.3998630E+04  0.7818609E-02  0.8004823E-01
       -2   -1    0    0    0  501  0.00000000000E+00  0.00000000000E+00  0.20460657663E+04  0.20460657663E+04  0.25500000920E-02 0. -1.
        2   -1    0    0  501    0  0.00000000000E+00  0.00000000000E+00 -0.19536319997E+04  0.19536319997E+04  0.25500000920E-02 0.  1.
    10030    2    1    2    0    0  0.00000000000E+00  0.00000000000E+00  0.92433766569E+02  0.39996977660E+04  0.39986295425E+04 0.  0.
        5    1    3    3  502    0 -0.19731206846E+04  0.32166590248E+03  0.69956651907E+02  0.20003975135E+04  0.46999998093E+01 0.  1.
       -5    1    3    3    0  502  0.19731206846E+04 -0.32166590248E+03  0.22477114662E+02  0.19993002525E+04  0.46999998093E+01 0. -1.
</event>
<event>
 5   0  0.1101474E-07  0.4000775E+04  0.7818609E-02  0.8004390E-01
       -2   -1    0    0    0  501  0.00000000000E+00  0.00000000000E+00  0.25561005538E+04  0.25561005538E+04  0.25500000920E-02 0.  1.
        2   -1    0    0  501    0  0.00000000000E+00  0.00000000000E+00 -0.15654899319E+04  0.15654899319E+04  0.25500000920E-02 0. -1.
    10030    2    1    2    0    0  0.00000000000E+00  0.00000000000E+00  0.99061062194E+03  0.41215904857E+04  0.40007747659E+04 0.  0.
        5    1    3    3  502    0  0.84764055978E+03 -0.11788331686E+04 -0.92225077975E+03  0.17200903316E+04  0.46999998093E+01 0. -1.
       -5    1    3    3    0  502 -0.84764055978E+03  0.11788331686E+04  0.19128614017E+04  0.24015001541E+04  0.46999998093E+01 0.  1.
</event>
<event>
 5   0  0.3399500E-08  0.3999014E+04  0.7818609E-02  0.8004745E-01
        1   -1    0    0  501    0  0.00000000000E+00  0.00000000000E+00  0.20909212636E+04  0.20909212637E+04  0.50400001928E-02 0.  1.
       -1   -1    0    0    0  501  0.00000000000E+00  0.00000000000E+00 -0.19120894963E+04  0.19120894963E+04  0.50400001928E-02 0. -1.
    10030    2    1    2    0    0  0.00000000000E+00  0.00000000000E+00  0.17883176739E+03  0.40030107599E+04  0.39990141714E+04 0.  0.
        4    1    3    3  502    0  0.37644185156E+03  0.17383292255E+04  0.10038549961E+04  0.20423573218E+04  0.12699999809E+01 0. -1.
       -4    1    3    3    0  502 -0.37644185156E+03 -0.17383292255E+04 -0.82502322872E+03  0.19606534381E+04  0.12699999809E+01 0.  1.
</event>
<event>
 5   0  0.3399500E-08  0.4037899E+04  0.7818609E-02  0.7996945E-01
       -1   -1    0    0    0  501  0.00000000000E+00  0.00000000000E+00  0.16361585283E+04  0.16361585283E+04  0.50400001928E-02 0. -1.
        1   -1    0    0  501    0  0.00000000000E+00  0.00000000000E+00 -0.24912969311E+04  0.24912969311E+04  0.50400001928E-02 0.  1.
    10030    2    1    2    0    0  0.00000000000E+00  0.00000000000E+00 -0.85513840273E+03  0.41274554594E+04  0.40378988201E+04 0.  0.
        1    1    3    3  502    0 -0.11668701301E+04 -0.37397964987E+00 -0.21117066771E+04  0.24126523020E+04  0.50400001928E-02 0.  1.
       -1    1    3    3    0  502  0.11668701301E+04  0.37397964987E+00  0.12565682744E+04  0.17148031574E+04  0.50400001928E-02 0. -1.
</event>
<event>
 5   0  0.1095903E-07  0.4029236E+04  0.7818609E-02  0.7998675E-01
        2   -1    0    0  501    0  0.00000000000E+00  0.00000000000E+00  0.19692513113E+04  0.19692513113E+04  0.25500000920E-02 0.  1.
       -2   -1    0    0    0  501  0.00000000000E+00  0.00000000000E+00 -0.20610300642E+04  0.20610300642E+04  0.25500000920E-02 0. -1.
    10030    2    1    2    0    0  0.00000000000E+00  0.00000000000E+00 -0.91778752906E+02  0.40302813755E+04  0.40292362336E+04 0.  0.
        3    1    3    3  502    0  0.39176739890E+03  0.30174360658E+03  0.19076034462E+04  0.19706551746E+04  0.10100000352E+00 0.  1.
       -3    1    3    3    0  502 -0.39176739890E+03 -0.30174360658E+03 -0.19993821991E+04  0.20596262009E+04  0.10100000352E+00 0. -1.
</event>
<event>
 5   0  0.1073271E-07  0.3950655E+04  0.7818609E-02  0.8014576E-01
       -2   -1    0    0    0  501  0.00000000000E+00  0.00000000000E+00  0.18618174110E+04  0.18618174110E+04  0.25500000920E-02 0.  1.
        2   -1    0    0  501    0  0.00000000000E+00  0.00000000000E+00 -0.20957580795E+04  0.20957580795E+04  0.25500000920E-02 0. -1.
    10030    2    1    2    0    0  0.00000000000E+00  0.00000000000E+00 -0.23394066855E+03  0.39575754905E+04  0.39506550757E+04 0.  0.
        1    1    3    3  502    0  0.11916972953E+04  0.42213367205E+03 -0.16373837950E+04  0.20686626048E+04  0.50400001928E-02 0. -1.
       -1    1    3    3    0  502 -0.11916972953E+04 -0.42213367205E+03  0.14034431264E+04  0.18889128857E+04  0.50400001928E-02 0.  1.
</event>
<event>
 5   0  0.1101474E-07  0.4009715E+04  0.7818609E-02  0.8002590E-01
       -2   -1    0    0    0  501  0.00000000000E+00  0.00000000000E+00  0.12365381812E+04  0.12365381812E+04  0.25500000920E-02 0. -1.
        2   -1    0    0  501    0  0.00000000000E+00  0.00000000000E+00 -0.32505699265E+04  0.32505699265E+04  0.25500000920E-02 0.  1.
    10030    2    1    2    0    0  0.00000000000E+00  0.00000000000E+00 -0.20140317453E+04  0.44871081076E+04  0.40097151144E+04 0.  0.
        5    1    3    3  502    0 -0.17653980302E+04 -0.22265926060E+03  0.26660631108E+02  0.17795899052E+04  0.46999998093E+01 0.  1.
       -5    1    3    3    0  502  0.17653980302E+04  0.22265926060E+03 -0.20406923764E+04  0.27075182024E+04  0.46999998093E+01 0. -1.
</event>
<event>
 5   0  0.3399500E-08  0.3976673E+04  0.7818609E-02  0.8009269E-01
        1   -1    0    0  501    0  0.00000000000E+00  0.00000000000E+00  0.16336491952E+04  0.16336491952E+04  0.50400001928E-02 0.  1.
       -1   -1    0    0    0  501  0.00000000000E+00  0.00000000000E+00 -0.24200310226E+04  0.24200310226E+04  0.50400001928E-02 0. -1.
    10030    2    1    2    0    0  0.00000000000E+00  0.00000000000E+00 -0.78638182743E+03  0.40536802179E+04  0.39766728468E+04 0.  0.
        5    1    3    3  502    0  0.10774041660E+04 -0.16384905554E+04 -0.72820170887E+03  0.20918295475E+04  0.46999998093E+01 0. -1.
       -5    1    3    3    0  502 -0.10774041660E+04  0.16384905554E+04 -0.58180118558E+02  0.19618506704E+04  0.46999998093E+01 0.  1.
</event>
<event>
 5   0  0.1087688E-07  0.4152474E+04  0.7818609E-02  0.7974475E-01
        2   -1    0    0  501    0  0.00000000000E+00  0.00000000000E+00  0.26321933585E+04  0.26321933585E+04  0.25500000920E-02 0.  1.
       -2   -1    0    0    0  501  0.00000000000E+00  0.00000000000E+00 -0.16377067960E+04  0.16377067960E+04  0.25500000920E-02 0. -1.
    10030    2    1    2    0    0  0.00000000000E+00  0.00000000000E+00  0.99448656242E+03  0.42699001545E+04  0.41524744197E+04 0.  0.
        2    1    3    3  502    0  0.26801032973E+03  0.18250125644E+04  0.14772205017E+04  0.23631929265E+04  0.25500000920E-02 0.  1.
       -2    1    3    3    0  502 -0.26801032973E+03 -0.18250125644E+04 -0.48273393931E+03  0.19067072280E+04  0.25500000920E-02 0. -1.
</event>
<event>
 5   0  0.3399500E-08  0.3968605E+04  0.7818609E-02  0.8010910E-01
       -1   -1    0    0    0  501  0.00000000000E+00  0.00000000000E+00  0.16601594198E+04  0.16601594198E+04  0.50400001928E-02 0. -1.
        1   -1    0    0  501    0  0.00000000000E+00  0.00000000000E+00 -0.23717342869E+04  0.23717342869E+04  0.50400001928E-02 0.  1.
    10030    2    1    2    0    0  0.00000000000E+00  0.00000000000E+00 -0.71157486707E+03  0.40318937067E+04  0.39686053055E+04 0.  0.
        1    1    3    3  502    0 -0.87845826096E+03 -0.17729418874E+04 -0.20358115488E+03  0.19890844977E+04  0.50400001928E-02 0. -1.
       -1    1    3    3    0  502  0.87845826096E+03  0.17729418874E+04 -0.50799371219E+03  0.20428092089E+04  0.50400001928E-02 0.  1.
</event>
<event>
 5   0  0.1095903E-07  0.3987410E+04  0.7818609E-02  0.8007091E-01
        2   -1    0    0  501    0  0.00000000000E+00  0.00000000000E+00  0.14573167514E+04  0.14573167514E+04  0.25500000920E-02 0.  1.
       -2   -1    0    0    0  501  0.00000000000E+00  0.00000000000E+00 -0.27275189395E+04  0.27275189395E+04  0.25500000920E-02 0. -1.
    10030    2    1    2    0    0  0.00000000000E+00  0.00000000000E+00 -0.12702021881E+04  0.41848356908E+04  0.39874097056E+04 0.  0.
        3    1    3    3  502    0 -0.50354498439E+03  0.10726043940E+04 -0.23178661830E+04  0.26031790929E+04  0.10100000352E+00 0. -1.
       -3    1    3    3    0  502  0.50354498439E+03 -0.10726043940E+04  0.10476639949E+04  0.15816565979E+04  0.10100000352E+00 0.  1.
</event>
<event>
 5   0  0.1087688E-07  0.3989665E+04  0.7818609E-02  0.8006635E-01
       -2   -1    0    0    0  501  0.00000000000E+00  0.00000000000E+00  0.14554139388E+04  0.14554139388E+04  0.25500000920E-02 0. -1.
        2   -1    0    0  501    0  0.00000000000E+00  0.00000000000E+00 -0.27341750872E+04  0.27341750872E+04  0.25500000920E-02 0.  1.
    10030    2    1    2    0    0  0.00000000000E+00  0.00000000000E+00 -0.12787611484E+04  0.41895890260E+04  0.39896649148E+04 0.  0.
        2    1    3    3  502    0 -0.55179732176E+03  0.14521932718E+04  0.67473147990E+03  0.16936965941E+04  0.25500000920E-02 0. -1.
       -2    1    3    3    0  502  0.55179732176E+03 -0.14521932718E+04 -0.19534926283E+04  0.24958924319E+04  0.25500000920E-02 0.  1.
</event>
<event>
 5   0  0.3399500E-08  0.4000181E+04  0.7818609E-02  0.8004510E-01
        1   -1    0    0  501    0  0.00000000000E+00  0.00000000000E+00  0.13205003354E+04  0.13205003354E+04  0.50400001928E-02 0.  1.
       -1   -1    0    0    0  501  0.00000000000E+00  0.00000000000E+00 -0.30294288383E+04  0.30294288383E+04  0.50400001928E-02 0. -1.
    10030    2    1    2    0    0  0.00000000000E+00  0.00000000000E+00 -0.17089285029E+04  0.43499291736E+04  0.40001808944E+04 0.  0.
        3    1    3    3  502    0  0.43411448185E+03  0.16650455005E+04  0.25425360988E+03  0.17393897810E+04  0.10100000352E+00 0.  1.
       -3    1    3    3    0  502 -0.43411448185E+03 -0.16650455005E+04 -0.19631821128E+04  0.26105393926E+04  0.10100000352E+00 0. -1.
</event>
<event>
 5   0  0.1101474E-07  0.3956013E+04  0.7818609E-02  0.8013479E-01
       -2   -1    0    0    0  501  0.00000000000E+00  0.00000000000E+00  0.13494876661E+04  0.13494876661E+04  0.25500000920E-02 0. -1.
        2   -1    0    0  501    0  0.00000000000E+00  0.00000000000E+00 -0.28992556957E+04  0.28992556957E+04  0.25500000920E-02 0.  1.
    10030    2    1    2    0    0  0.00000000000E+00  0.00000000000E+00 -0.15497680297E+04  0.42487433618E+04  0.39560130446E+04 0.  0.
        5    1    3    3  502    0 -0.16353615987E+04 -0.78323479250E+03 -0.16236968026E+04  0.24339839144E+04  0.46999998093E+01 0. -1.
       -5    1    3    3    0  502  0.16353615987E+04  0.78323479250E+03  0.73928772924E+02  0.18147594475E+04  0.46999998093E+01 0.  1.
</event>
<event>
 5   0  0.1087688E-07  0.3985615E+04  0.7818609E-02  0.8007455E-01
        2   -1    0    0  501    0  0.00000000000E+00  0.00000000000E+00  0.25685530429E+04  0.25685530429E+04  0.25500000920E-02 0.  1.
       -2   -1    0    0    0  501  0.00000000000E+00  0.00000000000E+00 -0.15461163241E+04  0.15461163241E+04  0.25500000920E-02 0. -1.
    10030    2    1    2    0    0  0.00000000000E+00  0.00000000000E+00  0.10224367189E+04  0.41146693670E+04  0.39856150285E+04 0.  0.
        2    1    3    3  502    0  0.67441576244E+03  0.17787986588E+04 -0.10156724193E+03  0.19050661915E+04  0.25500000920E-02 0.  1.
       -2    1    3    3    0  502 -0.67441576244E+03 -0.17787986588E+04  0.11240039608E+04  0.22096031755E+04  0.25500000920E-02 0. -1.
</event>
<event>
 5   0  0.1101474E-07  0.4048165E+04  0.7818609E-02  0.7994900E-01
       -2   -1    0    0    0  501  0.00000000000E+00  0.00000000000E+00  0.19754840510E+04  0.19754840510E+04  0.25500000920E-02 0. -1.
        2   -1    0    0  501    0  0.00000000000E+00  0.00000000000E+00 -0.20738769751E+04  0.20738769751E+04  0.25500000920E-02 0.  1.
    10030    2    1    2    0    0  0.00000000000E+00  0.00000000000E+00 -0.98392924174E+02  0.40493610261E+04  0.40481654551E+04 0.  0.
        5    1    3    3  502    0  0.42385466185E+03  0.58562898789E+03  0.18419371269E+04  0.19787290252E+04  0.46999998093E+01 0. -1.
       -5    1    3    3    0  502 -0.42385466185E+03 -0.58562898789E+03 -0.19403300511E+04  0.20706320008E+04  0.46999998093E+01 0.  1.
</event>
<event>
 5   0  0.3399500E-08  0.4011737E+04  0.7818609E-02  0.8002183E-01
        1   -1    0    0  501    0  0.00000000000E+00  0.00000000000E+00  0.21611529120E+04  0.21611529120E+04  0.50400001928E-02 0. -1.
       -1   -1    0    0    0  501  0.00000000000E+00  0.00000000000E+00 -0.18617414099E+04  0.18617414099E+04  0.50400001928E-02 0.  1.
    10030    2    1    2    0    0  0.00000000000E+00  0.00000000000E+00  0.29941150213E+03  0.40228943219E+04  0.40117367159E+04 0.  0.
        1    1    3    3  502    0  0.13448794739E+04  0.67825841584E+03 -0.11786567957E+04  0.19125812715E+04  0.50400001928E-02 0.  1.
       -1    1    3    3    0  502 -0.13448794739E+04 -0.67825841584E+03  0.14780682978E+04  0.21103130505E+04  0.50400001928E-02 0. -1.
</event>
<event>
 5   0  0.1095109E-07  0.4005875E+04  0.7818609E-02  0.8003362E-01
        2   -1    0    0  501    0  0.00000000000E+00  0.00000000000E+00  0.14776649743E+04  0.14776649743E+04  0.25500000920E-02 0. -1.
       -2   -1    0    0    0  501  0.00000000000E+00  0.00000000000E+00 -0.27149307530E+04  0.27149307530E+04  0.25500000920E-02 0.  1.
    10030    2    1    2    0    0  0.00000000000E+00  0.00000000000E+00 -0.12372657787E+04  0.41925957273E+04  0.40058747267E+04 0.  0.
        4    1    3    3  502    0  0.18275918375E+04 -0.34006305094E+02 -0.14756463494E+04  0.23492088274E+04  0.12699999809E+01 0.  1.
       -4    1    3    3    0  502 -0.18275918375E+04  0.34006305094E+02  0.23838057077E+03  0.18433868999E+04  0.12699999809E+01 0. -1.
</event>
<event>
 5   0  0.1095903E-07  0.4030108E+04  0.7818609E-02  0.7998500E-01
       -2   -1    0    0    0  501  0.00000000000E+00  0.00000000000E+00  0.22002262995E+04  0.22002262995E+04  0.25500000920E-02 0.  1.
        2   -1    0    0  501    0  0.00000000000E+00  0.00000000000E+00 -0.18454658054E+04  0.18454658054E+04  0.25500000920E-02 0. -1.
    10030    2    1    2    0    0  0.00000000000E+00  0.00000000000E+00  0.35476049419E+03  0.40456921049E+04  0.40301078893E+04 0.  0.
        3    1    3    3  502    0  0.17614693708E+04  0.92949170908E+03  0.48469015171E+03  0.20497935835E+04  0.10100000352E+00 0. -1.
       -3    1    3    3    0  502 -0.17614693708E+04 -0.92949170908E+03 -0.12992965752E+03  0.19958985214E+04  0.10100000352E+00 0.  1.
</event>
<event>
 5   0  0.1101474E-07  0.3972348E+04  0.7818609E-02  0.8010148E-01
       -2   -1    0    0    0  501  0.00000000000E+00  0.00000000000E+00  0.14844343486E+04  0.14844343486E+04  0.25500000920E-02 0. -1.
        2   -1    0    0  501    0  0.00000000000E+00  0.00000000000E+00 -0.26575012983E+04  0.26575012983E+04  0.25500000920E-02 0.  1.
    10030    2    1    2    0    0  0.00000000000E+00  0.00000000000E+00 -0.11730669497E+04  0.41419356469E+04  0.39723475219E+04 0.  0.
        5    1    3    3  502    0 -0.12194191431E+04  0.18889238639E+03 -0.22093191942E+04  0.25305684682E+04  0.46999998093E+01 0.  1.
       -5    1    3    3    0  502  0.12194191431E+04 -0.18889238639E+03  0.10362522445E+04  0.16113671787E+04  0.46999998093E+01 0. -1.
</event>
<event>
 5   0  0.1095903E-07  0.4020847E+04  0.7818609E-02  0.8000354E-01
       -2   -1    0    0    0  501  0.00000000000E+00  0.00000000000E+00  0.26033651993E+04  0.26033651993E+04  0.25500000920E-02 0.  1.
        2   -1    0    0  501    0  0.00000000000E+00  0.00000000000E+00 -0.15525298322E+04  0.15525298322E+04  0.25500000920E-02 0. -1.
    10030    2    1    2    0    0  0.00000000000E+00  0.00000000000E+00  0.10508353671E+04  0.41558950314E+04  0.40208467446E+04 0.  0.
        3    1    3    3  502    0  0.53523948702E+03  0.25596709556E+03  0.25108201665E+04  0.25799648023E+04  0.10100000352E+00 0.  1.
       -3    1    3    3    0  502 -0.53523948702E+03 -0.25596709556E+03 -0.14599847994E+04  0.15759302291E+04  0.10100000352E+00 0. -1.
</event>
<event>
 5   0  0.3399500E-08  0.4027373E+04  0.7818609E-02  0.7999047E-01
       -1   -1    0    0    0  501  0.00000000000E+00  0.00000000000E+00  0.13923202753E+04  0.13923202753E+04  0.50400001928E-02 0.  1.
        1   -1    0    0  501    0  0.00000000000E+00  0.00000000000E+00 -0.29123573446E+04  0.29123573446E+04  0.50400001928E-02 0. -1.
    10030    2    1    2    0    0  0.00000000000E+00  0.00000000000E+00 -0.15200370693E+04  0.43046776199E+04  0.40273734268E+04 0.  0.
        3    1    3    3  502    0 -0.13718657073E+04 -0.14598876523E+04 -0.97814531764E+03  0.22293621843E+04  0.10100000352E+00 0. -1.
       -3    1    3    3    0  502  0.13718657073E+04  0.14598876523E+04 -0.54189175169E+03  0.20753154355E+04  0.10100000352E+00 0.  1.
</event>
<event>
 5   0  0.3399500E-08  0.3884535E+04  0.7818609E-02  0.8028253E-01
        1   -1    0    0  501    0  0.00000000000E+00  0.00000000000E+00  0.11607022039E+04  0.11607022039E+04  0.50400001928E-02 0.  1.
       -1   -1    0    0    0  501  0.00000000000E+00  0.00000000000E+00 -0.32501042691E+04  0.32501042691E+04  0.50400001928E-02 0. -1.
    10030    2    1    2    0    0  0.00000000000E+00  0.00000000000E+00 -0.20894020651E+04  0.44108064730E+04  0.38845350755E+04 0.  0.
        5    1    3    3  502    0 -0.13512630399E+03  0.63659670787E+03 -0.31226165234E+04  0.31897132361E+04  0.46999998093E+01 0. -1.
       -5    1    3    3    0  502  0.13512630399E+03 -0.63659670787E+03  0.10332144582E+04  0.12210932369E+04  0.46999998093E+01 0.  1.
</event>
<event>
 5   0  0.1095109E-07  0.3996302E+04  0.7818609E-02  0.8005293E-01
       -2   -1    0    0    0  501  0.00000000000E+00  0.00000000000E+00  0.17216419912E+04  0.17216419912E+04  0.25500000920E-02 0.  1.
        2   -1    0    0  501    0  0.00000000000E+00  0.00000000000E+00 -0.23190697402E+04  0.23190697402E+04  0.25500000920E-02 0. -1.
    10030    2    1    2    0    0  0.00000000000E+00  0.00000000000E+00 -0.59742774900E+03  0.40407117315E+04  0.39963022135E+04 0.  0.
        4    1    3    3  502    0 -0.13291148350E+04 -0.13623660912E+04 -0.91376516681E+03  0.21112924961E+04  0.12699999809E+01 0. -1.
       -4    1    3    3    0  502  0.13291148350E+04  0.13623660912E+04  0.31633741781E+03  0.19294192354E+04  0.12699999809E+01 0.  1.
</event>
<event>
 5   0  0.3399500E-08  0.4003955E+04  0.7818609E-02  0.8003749E-01
        1   -1    0    0  501    0  0.00000000000E+00  0.00000000000E+00  0.19192227843E+04  0.19192227843E+04  0.50400001928E-02 0. -1.
       -1   -1    0    0    0  501  0.00000000000E+00  0.00000000000E+00 -0.20883007922E+04  0.20883007922E+04  0.50400001928E-02 0.  1.
    10030    2    1    2    0    0  0.00000000000E+00  0.00000000000E+00 -0.16907800790E+03  0.40075235765E+04  0.40039552749E+04 0.  0.
        5    1    3    3  502    0  0.35533983746E+03  0.30894473243E+03  0.18630057508E+04  0.19215945892E+04  0.46999998093E+01 0. -1.
       -5    1    3    3    0  502 -0.35533983746E+03 -0.30894473243E+03 -0.20320837587E+04  0.20859289873E+04  0.46999998093E+01 0.  1.
</event>
<event>
 5   0  0.3399500E-08  0.4000787E+04  0.7818609E-02  0.8004388E-01
       -1   -1    0    0    0  501  0.00000000000E+00  0.00000000000E+00  0.22659751630E+04  0.22659751630E+04  0.50400001928E-02 0.  1.
        1   -1    0    0  501    0  0.00000000000E+00  0.00000000000E+00 -0.17659392972E+04  0.17659392972E+04  0.50400001928E-02 0. -1.
    10030    2    1    2    0    0  0.00000000000E+00  0.00000000000E+00  0.50003586581E+03  0.40319144602E+04  0.40007872159E+04 0.  0.
        5    1    3    3  502    0 -0.50131406138E+03 -0.14101305312E+04  0.15876611379E+04  0.21818510219E+04  0.46999998093E+01 0.  1.
       -5    1    3    3    0  502  0.50131406138E+03  0.14101305312E+04 -0.10876252721E+04  0.18500634383E+04  0.46999998093E+01 0. -1.
</event>
<event>
 5   0  0.3399500E-08  0.4011024E+04  0.7818609E-02  0.8002326E-01
       -1   -1    0    0    0  501  0.00000000000E+00  0.00000000000E+00  0.16841649587E+04  0.16841649587E+04  0.50400001928E-02 0. -1.
        1   -1    0    0  501    0  0.00000000000E+00  0.00000000000E+00 -0.23881741499E+04  0.23881741499E+04  0.50400001928E-02 0.  1.
    10030    2    1    2    0    0  0.00000000000E+00  0.00000000000E+00 -0.70400919122E+03  0.40723391086E+04  0.40110244170E+04 0.  0.
        3    1    3    3  502    0  0.81912891382E+03 -0.33326320687E+02 -0.22102830804E+04  0.23574210754E+04  0.10100000352E+00 0.  1.
       -3    1    3    3    0  502 -0.81912891382E+03  0.33326320687E+02  0.15062738892E+04  0.17149180332E+04  0.10100000352E+00 0. -1.
</event>
<event>
 5   0  0.1073271E-07  0.3874156E+04  0.7818609E-02  0.8030426E-01
        2   -1    0    0  501    0  0.00000000000E+00  0.00000000000E+00  0.21913891801E+04  0.21913891801E+04  0.25500000920E-02 0. -1.
       -2   -1    0    0    0  501  0.00000000000E+00  0.00000000000E+00 -0.17122800403E+04  0.17122800403E+04  0.25500000920E-02 0.  1.
    10030    2    1    2    0    0  0.00000000000E+00  0.00000000000E+00  0.47910913979E+03  0.39036692204E+04  0.38741564004E+04 0.  0.
        1    1    3    3  502    0  0.13012493295E+04 -0.26969585717E+03 -0.11805384167E+04  0.17775422994E+04  0.50400001928E-02 0.  1.
       -1    1    3    3    0  502 -0.13012493295E+04  0.26969585717E+03  0.16596475564E+04  0.21261269211E+04  0.50400001928E-02 0. -1.
</event>
<event>
 5   0  0.3399500E-08  0.3998903E+04  0.7818609E-02  0.8004768E-01
       -1   -1    0    0    0  501  0.00000000000E+00  0.00000000000E+00  0.14337370948E+04  0.14337370948E+04  0.50400001928E-02 0.  1.
        1   -1    0    0  501    0  0.00000000000E+00  0.00000000000E+00 -0.27883814398E+04  0.27883814398E+04  0.50400001928E-02 0. -1.
    10030    2    1    2    0    0  0.00000000000E+00  0.00000000000E+00 -0.13546443450E+04  0.42221185346E+04  0.39989028019E+04 0.  0.
        2    1    3    3  502    0  0.15670159202E+04 -0.12405826782E+04 -0.73724983620E+03  0.21302867405E+04  0.25500000920E-02 0. -1.
       -2    1    3    3    0  502 -0.15670159202E+04  0.12405826782E+04 -0.61739450875E+03  0.20918317942E+04  0.25500000920E-02 0.  1.
</event>
<event>
 5   0  0.3399500E-08  0.3980161E+04  0.7818609E-02  0.8008561E-01
        1   -1    0    0  501    0  0.00000000000E+00  0.00000000000E+00  0.25464407729E+04  0.25464407729E+04  0.50400001928E-02 0. -1.
       -1   -1    0    0    0  501  0.00000000000E+00  0.00000000000E+00 -0.15552771979E+04  0.15552771979E+04  0.50400001928E-02 0.  1.
    10030    2    1    2    0    0  0.00000000000E+00  0.00000000000E+00  0.99116357502E+03  0.41017179708E+04  0.39801614388E+04 0.  0.
        5    1    3    3  502    0 -0.11464834740E+02 -0.77262984558E+02 -0.15536911955E+04  0.15556604489E+04  0.46999998093E+01 0.  1.
       -5    1    3    3    0  502  0.11464834740E+02  0.77262984558E+02  0.25448547706E+04  0.25460575218E+04  0.46999998093E+01 0. -1.
</event>
<event>
 5   0  0.3399500E-08  0.4001823E+04  0.7818609E-02  0.8004179E-01
       -1   -1    0    0    0  501  0.00000000000E+00  0.00000000000E+00  0.14882397859E+04  0.14882397859E+04  0.50400001928E-02 0. -1.
        1   -1    0    0  501    0  0.00000000000E+00  0.00000000000E+00 -0.26901892281E+04  0.26901892281E+04  0.50400001928E-02 0.  1.
    10030    2    1    2    0    0  0.00000000000E+00  0.00000000000E+00 -0.12019494422E+04  0.41784290140E+04  0.40018229051E+04 0.  0.
        2    1    3    3  502    0  0.10673608066E+04 -0.12919622099E+04  0.54053419051E+03  0.17608528201E+04  0.25500000920E-02 0. -1.
       -2    1    3    3    0  502 -0.10673608066E+04  0.12919622099E+04 -0.17424836327E+04  0.24175761939E+04  0.25500000920E-02 0.  1.
</event>
<event>
 5   0  0.3399500E-08  0.4009128E+04  0.7818609E-02  0.8002708E-01
        1   -1    0    0  501    0  0.00000000000E+00  0.00000000000E+00  0.24325074806E+04  0.24325074806E+04  0.50400001928E-02 0. -1.
       -1   -1    0    0    0  501  0.00000000000E+00  0.00000000000E+00 -0.16519070822E+04  0.16519070822E+04  0.50400001928E-02 0.  1.
    10030    2    1    2    0    0  0.00000000000E+00  0.00000000000E+00  0.78060039840E+03  0.40844145628E+04  0.40091277529E+04 0.  0.
        3    1    3    3  502    0 -0.19878882763E+04 -0.17467684062E+03  0.19682734475E+03  0.20052313611E+04  0.10100000352E+00 0.  1.
       -3    1    3    3    0  502  0.19878882763E+04  0.17467684062E+03  0.58377305364E+03  0.20791832017E+04  0.10100000352E+00 0. -1.
</event>
<event>
 5   0  0.1101474E-07  0.4014602E+04  0.7818609E-02  0.8001607E-01
        2   -1    0    0  501    0  0.00000000000E+00  0.00000000000E+00  0.24159841450E+04  0.24159841450E+04  0.25500000920E-02 0. -1.
       -2   -1    0    0    0  501  0.00000000000E+00  0.00000000000E+00 -0.16677495107E+04  0.16677495107E+04  0.25500000920E-02 0.  1.
    10030    2    1    2    0    0  0.00000000000E+00  0.00000000000E+00  0.74823463425E+03  0.40837336557E+04  0.40146015373E+04 0.  0.
        5    1    3    3  502    0 -0.63001990418E+03  0.17598316311E+04  0.11183595816E+04  0.21782292563E+04  0.46999998093E+01 0.  1.
       -5    1    3    3    0  502  0.63001990418E+03 -0.17598316311E+04 -0.37012494732E+03  0.19055043994E+04  0.46999998093E+01 0. -1.
</event>
<event>
 5   0  0.1073271E-07  0.4070678E+04  0.7818609E-02  0.7990438E-01
       -2   -1    0    0    0  501  0.00000000000E+00  0.00000000000E+00  0.22883222934E+04  0.22883222934E+04  0.25500000920E-02 0.  1.
        2   -1    0    0  501    0  0.00000000000E+00  0.00000000000E+00 -0.18103243748E+04  0.18103243748E+04  0.25500000920E-02 0. -1.
    10030    2    1    2    0    0  0.00000000000E+00  0.00000000000E+00  0.47799791855E+03  0.40986466682E+04  0.40706783834E+04 0.  0.
        1    1    3    3  502    0  0.18600666197E+04 -0.80117074815E+03  0.35413723889E+02  0.20255805413E+04  0.50400001928E-02 0. -1.
       -1    1    3    3    0  502 -0.18600666197E+04  0.80117074815E+03  0.44258419466E+03  0.20730661270E+04  0.50400001928E-02 0.  1.
</event>
<event>
 5   0  0.3399500E-08  0.4034872E+04  0.7818609E-02  0.7997549E-01
        1   -1    0    0  501    0  0.00000000000E+00  0.00000000000E+00  0.17829955776E+04  0.17829955776E+04  0.50400001928E-02 0. -1.
       -1   -1    0    0    0  501  0.00000000000E+00  0.00000000000E+00 -0.22827016849E+04  0.22827016849E+04  0.50400001928E-02 0.  1.
    10030    2    1    2    0    0  0.00000000000E+00  0.00000000000E+00 -0.49970610734E+03  0.40656972625E+04  0.40348715018E+04 0.  0.
        1    1    3    3  502    0  0.14013145252E+04 -0.11411981491E+03  0.12080389289E+04  0.18536622628E+04  0.50400001928E-02 0. -1.
       -1    1    3    3    0  502 -0.14013145252E+04  0.11411981491E+03 -0.17077450363E+04  0.22120349997E+04  0.50400001928E-02 0.  1.
</event>
<event>
 5   0  0.1087688E-07  0.3998893E+04  0.7818609E-02  0.8004770E-01
       -2   -1    0    0    0  501  0.00000000000E+00  0.00000000000E+00  0.14304043822E+04  0.14304043822E+04  0.25500000920E-02 0. -1.
        2   -1    0    0  501    0  0.00000000000E+00  0.00000000000E+00 -0.27948647561E+04  0.27948647561E+04  0.25500000920E-02 0.  1.
    10030    2    1    2    0    0  0.00000000000E+00  0.00000000000E+00 -0.13644603739E+04  0.42252691383E+04  0.39988932443E+04 0.  0.
        2    1    3    3  502    0  0.16822212087E+04 -0.45943256742E+03  0.35132649780E+03  0.17788695250E+04  0.25500000920E-02 0. -1.
       -2    1    3    3    0  502 -0.16822212087E+04  0.45943256742E+03 -0.17157868717E+04  0.24463996133E+04  0.25500000920E-02 0.  1.
</event>
<event>
 5   0  0.1101474E-07  0.3984110E+04  0.7818609E-02  0.8007760E-01
       -2   -1    0    0    0  501  0.00000000000E+00  0.00000000000E+00  0.17041795297E+04  0.17041795297E+04  0.25500000920E-02 0.  1.
        2   -1    0    0  501    0  0.00000000000E+00  0.00000000000E+00 -0.23285591193E+04  0.23285591193E+04  0.25500000920E-02 0. -1.
    10030    2    1    2    0    0  0.00000000000E+00  0.00000000000E+00 -0.62437958956E+03  0.40327386490E+04  0.39841098302E+04 0.  0.
        5    1    3    3  502    0 -0.11776234886E+04 -0.88058832557E+02  0.13116699562E+04  0.17649508784E+04  0.46999998093E+01 0.  1.
       -5    1    3    3    0  502  0.11776234886E+04  0.88058832557E+02 -0.19360495458E+04  0.22677877707E+04  0.46999998093E+01 0. -1.
</event>
<event>
 5   0  0.3399500E-08  0.3972085E+04  0.7818609E-02  0.8010202E-01
        1   -1    0    0  501    0  0.00000000000E+00  0.00000000000E+00  0.14001162399E+04  0.14001162399E+04  0.50400001928E-02 0. -1.
       -1   -1    0    0    0  501  0.00000000000E+00  0.00000000000E+00 -0.28171693762E+04  0.28171693762E+04  0.50400001928E-02 0.  1.
    10030    2    1    2    0    0  0.00000000000E+00  0.00000000000E+00 -0.14170531363E+04  0.42172856161E+04  0.39720848904E+04 0.  0.
        2    1    3    3  502    0 -0.27828099958E+02 -0.11901220265E+04 -0.23963782403E+04  0.26757790477E+04  0.25500000920E-02 0.  1.
       -2    1    3    3    0  502  0.27828099958E+02  0.11901220265E+04  0.97932510402E+03  0.15415065684E+04  0.25500000920E-02 0. -1.
</event>
<event>
 5   0  0.1087688E-07  0.3981856E+04  0.7818609E-02  0.8008217E-01
       -2   -1    0    0    0  501  0.00000000000E+00  0.00000000000E+00  0.23618858510E+04  0.23618858510E+04  0.25500000920E-02 0. -1.
        2   -1    0    0  501    0  0.00000000000E+00  0.00000000000E+00 -0.16782329369E+04  0.16782329369E+04  0.25500000920E-02 0.  1.
    10030    2    1    2    0    0  0.00000000000E+00  0.00000000000E+00  0.68365291407E+03  0.40401187879E+04  0.39818561643E+04 0.  0.
        2    1    3    3  502    0 -0.10179465416E+04  0.12988048978E+03 -0.13892174137E+04  0.17271390001E+04  0.25500000920E-02 0.  1.
       -2    1    3    3    0  502  0.10179465416E+04 -0.12988048978E+03  0.20728703277E+04  0.23129797878E+04  0.25500000920E-02 0. -1.
</event>
<event>
 5   0  0.1095903E-07  0.3988877E+04  0.7818609E-02  0.8006794E-01
        2   -1    0    0  501    0  0.00000000000E+00  0.00000000000E+00  0.13689062936E+04  0.13689062936E+04  0.25500000920E-02 0. -1.
       -2   -1    0    0    0  501  0.00000000000E+00  0.00000000000E+00 -0.29058122910E+04  0.29058122910E+04  0.25500000920E-02 0.  1.
    10030    2    1    2    0    0  0.00000000000E+00  0.00000000000E+00 -0.15369059974E+04  0.42747185845E+04  0.39888769011E+04 0.  0.
        3    1    3    3  502    0  0.11304010709E+04  0.75453025402E+03 -0.23327319435E+04  0.26997705117E+04  0.10100000352E+00 0.  1.
       -3    1    3    3    0  502 -0.11304010709E+04 -0.75453025402E+03  0.79582594609E+03  0.15749480728E+04  0.10100000352E+00 0. -1.
</event>
<event>
 5   0  0.3399500E-08  0.3997716E+04  0.7818609E-02  0.8005008E-01
        1   -1    0    0  501    0  0.00000000000E+00  0.00000000000E+00  0.20944643198E+04  0.20944643198E+04  0.50400001928E-02 0. -1.
       -1   -1    0    0    0  501  0.00000000000E+00  0.00000000000E+00 -0.19076154153E+04  0.19076154153E+04  0.50400001928E-02 0.  1.
    10030    2    1    2    0    0  0.00000000000E+00  0.00000000000E+00  0.18684890445E+03  0.40020797351E+04  0.39977155593E+04 0.  0.
        5    1    3    3  502    0  0.74327134629E+03 -0.57383662232E+03  0.18599100774E+04  0.20835134627E+04  0.46999998093E+01 0. -1.
       -5    1    3    3    0  502 -0.74327134629E+03  0.57383662232E+03 -0.16730611729E+04  0.19185662724E+04  0.46999998093E+01 0.  1.
</event>
<event>
 5   0  0.1073271E-07  0.3970537E+04  0.7818609E-02  0.8010517E-01
       -2   -1    0    0    0  501  0.00000000000E+00  0.00000000000E+00  0.31759738228E+04  0.31759738228E+04  0.25500000920E-02 0. -1.
        2   -1    0    0  501    0  0.00000000000E+00  0.00000000000E+00 -0.12409711378E+04  0.12409711378E+04  0.25500000920E-02 0.  1.
    10030    2    1    2    0    0  0.00000000000E+00  0.00000000000E+00  0.19350026850E+04  0.44169449607E+04  0.39705374189E+04 0.  0.
        1    1    3    3  502    0  0.14415056067E+04  0.54854302555E+03  0.23580183726E+04  0.28176388183E+04  0.50400001928E-02 0. -1.
       -1    1    3    3    0  502 -0.14415056067E+04 -0.54854302555E+03 -0.42301568761E+03  0.15993061424E+04  0.50400001928E-02 0.  1.
</event>
<event>
 5   0  0.3399500E-08  0.3990127E+04  0.7818609E-02  0.8006541E-01
        1   -1    0    0  501    0  0.00000000000E+00  0.00000000000E+00  0.22577700172E+04  0.22577700172E+04  0.50400001928E-02 0. -1.
       -1   -1    0    0    0  501  0.00000000000E+00  0.00000000000E+00 -0.17629244418E+04  0.17629244418E+04  0.50400001928E-02 0.  1.
    10030    2    1    2    0    0  0.00000000000E+00  0.00000000000E+00  0.49484557538E+03  0.40206944590E+04  0.39901267886E+04 0.  0.
        4    1    3    3  502    0  0.15950290247E+04  0.11849799384E+04  0.42762593339E+03  0.20325256691E+04  0.12699999809E+01 0.  1.
       -4    1    3    3    0  502 -0.15950290247E+04 -0.11849799384E+04  0.67219641993E+02  0.19881687899E+04  0.12699999809E+01 0. -1.
</event>
<event>
 5   0  0.3399500E-08  0.4014004E+04  0.7818609E-02  0.8001727E-01
       -1   -1    0    0    0  501  0.00000000000E+00  0.00000000000E+00  0.24960958691E+04  0.24960958691E+04  0.50400001928E-02 0. -1.
        1   -1    0    0  501    0  0.00000000000E+00  0.00000000000E+00 -0.16137431349E+04  0.16137431349E+04  0.50400001928E-02 0.  1.
    10030    2    1    2    0    0  0.00000000000E+00  0.00000000000E+00  0.88235273412E+03  0.41098390040E+04  0.40140042715E+04 0.  0.
        2    1    3    3  502    0 -0.11693202577E+04 -0.16310627179E+04  0.42116181611E+03  0.20506225226E+04  0.25500000920E-02 0. -1.
       -2    1    3    3    0  502  0.11693202577E+04  0.16310627179E+04  0.46119091801E+03  0.20592164815E+04  0.25500000920E-02 0.  1.
</event>
<event>
 5   0  0.1095109E-07  0.3982987E+04  0.7818609E-02  0.8007987E-01
        2   -1    0    0  501    0  0.00000000000E+00  0.00000000000E+00  0.28345790347E+04  0.28345790347E+04  0.25500000920E-02 0.  1.
       -2   -1    0    0    0  501  0.00000000000E+00  0.00000000000E+00 -0.13991657819E+04  0.13991657819E+04  0.25500000920E-02 0. -1.
    10030    2    1    2    0    0  0.00000000000E+00  0.00000000000E+00  0.14354132528E+04  0.42337448166E+04  0.39829868147E+04 0.  0.
        4    1    3    3  502    0 -0.26032504193E+02  0.18777521727E+04  0.13090643847E+02  0.18779786716E+04  0.12699999809E+01 0. -1.
       -4    1    3    3    0  502  0.26032504193E+02 -0.18777521727E+04  0.14223226089E+04  0.23557661450E+04  0.12699999809E+01 0.  1.
</event>
<event>
 5   0  0.1087688E-07  0.3946919E+04  0.7818609E-02  0.8015341E-01
       -2   -1    0    0    0  501  0.00000000000E+00  0.00000000000E+00  0.18743310071E+04  0.18743310071E+04  0.25500000920E-02 0.  1.
        2   -1    0    0  501    0  0.00000000000E+00  0.00000000000E+00 -0.20778310368E+04  0.20778310368E+04  0.25500000920E-02 0. -1.
    10030    2    1    2    0    0  0.00000000000E+00  0.00000000000E+00 -0.20350002964E+03  0.39521620439E+04  0.39469193758E+04 0.  0.
        2    1    3    3  502    0  0.21505532427E+03  0.19242997736E+04  0.28002368700E+03  0.19564231844E+04  0.25500000920E-02 0.  1.
       -2    1    3    3    0  502 -0.21505532427E+03 -0.19242997736E+04 -0.48352371664E+03  0.19957388596E+04  0.25500000920E-02 0. -1.
</event>
<event>
 5   0  0.1095903E-07  0.3940349E+04  0.7818609E-02  0.8016689E-01
        2   -1    0    0  501    0  0.00000000000E+00  0.00000000000E+00  0.25651166673E+04  0.25651166673E+04  0.25500000920E-02 0. -1.
       -2   -1    0    0    0  501  0.00000000000E+00  0.00000000000E+00 -0.15132203547E+04  0.15132203547E+04  0.25500000920E-02 0.  1.
    10030    2    1    2    0    0  0.00000000000E+00  0.00000000000E+00  0.10518963126E+04  0.40783370219E+04  0.39403485902E+04 0.  0.
        3    1    3    3  502    0 -0.17011747366E+03 -0.19586912413E+04  0.39431172374E+03  0.20052164670E+04  0.10100000352E+00 0. -1.
       -3    1    3    3    0  502  0.17011747366E+03  0.19586912413E+04  0.65758458889E+03  0.20731205550E+04  0.10100000352E+00 0.  1.
</event>
<event>
 5   0  0.3399500E-08  0.3982547E+04  0.7818609E-02  0.8008077E-01
        1   -1    0    0  501    0  0.00000000000E+00  0.00000000000E+00  0.18463316433E+04  0.18463316433E+04  0.50400001928E-02 0.  1.
       -1   -1    0    0    0  501  0.00000000000E+00  0.00000000000E+00 -0.21475938259E+04  0.21475938259E+04  0.50400001928E-02 0. -1.
    10030    2    1    2    0    0  0.00000000000E+00  0.00000000000E+00 -0.30126218260E+03  0.39939254693E+04  0.39825471436E+04 0.  0.
        2    1    3    3  502    0  0.11902750057E+03 -0.13427455482E+04  0.13191746465E+04  0.18860951463E+04  0.25500000920E-02 0.  1.
       -2    1    3    3    0  502 -0.11902750057E+03  0.13427455482E+04 -0.16204368291E+04  0.21078303229E+04  0.25500000920E-02 0. -1.
</event>
<event>
 5   0  0.1095109E-07  0.4018358E+04  0.7818609E-02  0.8000853E-01
        2   -1    0    0  501    0  0.00000000000E+00  0.00000000000E+00  0.15684380935E+04  0.15684380935E+04  0.25500000920E-02 0.  1.
       -2   -1    0    0    0  501  0.00000000000E+00  0.00000000000E+00 -0.25737705305E+04  0.25737705305E+04  0.25500000920E-02 0. -1.
    10030    2    1    2    0    0  0.00000000000E+00  0.00000000000E+00 -0.10053324370E+04  0.41422086240E+04  0.40183577462E+04 0.  0.
        4    1    3    3  502    0 -0.47744195060E+03  0.94250427018E+03 -0.22642951336E+04  0.24986594767E+04  0.12699999809E+01 0. -1.
       -4    1    3    3    0  502  0.47744195060E+03 -0.94250427018E+03  0.12589626966E+04  0.16435491474E+04  0.12699999809E+01 0.  1.
</event>
<event>
 5   0  0.1095903E-07  0.3984412E+04  0.7818609E-02  0.8007698E-01
        2   -1    0    0  501    0  0.00000000000E+00  0.00000000000E+00  0.23402476877E+04  0.23402476877E+04  0.25500000920E-02 0.  1.
       -2   -1    0    0    0  501  0.00000000000E+00  0.00000000000E+00 -0.16959253363E+04  0.16959253363E+04  0.25500000920E-02 0. -1.
    10030    2    1    2    0    0  0.00000000000E+00  0.00000000000E+00  0.64432235145E+03  0.40361730240E+04  0.39844123014E+04 0.  0.
        3    1    3    3  502    0  0.63089667008E+03  0.17936240443E+04  0.92467148067E+03  0.21142694195E+04  0.10100000352E+00 0. -1.
       -3    1    3    3    0  502 -0.63089667008E+03 -0.17936240443E+04 -0.28034912922E+03  0.19219036046E+04  0.10100000352E+00 0.  1.
</event>
<event>
 5   0  0.3399500E-08  0.4001444E+04  0.7818609E-02  0.8004255E-01
       -1   -1    0    0    0  501  0.00000000000E+00  0.00000000000E+00  0.23431916852E+04  0.23431916852E+04  0.50400001928E-02 0.  1.
        1   -1    0    0  501    0  0.00000000000E+00  0.00000000000E+00 -0.17083058323E+04  0.17083058323E+04  0.50400001928E-02 0. -1.
    10030    2    1    2    0    0  0.00000000000E+00  0.00000000000E+00  0.63488585290E+03  0.40514975174E+04  0.40014437504E+04 0.  0.
        5    1    3    3  502    0 -0.18740785591E+04 -0.68153721784E+03  0.15354619822E+03  0.20000654864E+04  0.46999998093E+01 0. -1.
       -5    1    3    3    0  502  0.18740785591E+04  0.68153721784E+03  0.48133965468E+03  0.20514320311E+04  0.46999998093E+01 0.  1.
</event>
<event>
 5   0  0.1095903E-07  0.3988094E+04  0.7818609E-02  0.8006953E-01
        2   -1    0    0  501    0  0.00000000000E+00  0.00000000000E+00  0.21184992637E+04  0.21184992637E+04  0.25500000920E-02 0. -1.
       -2   -1    0    0    0  501  0.00000000000E+00  0.00000000000E+00 -0.18769055548E+04  0.18769055548E+04  0.25500000920E-02 0.  1.
    10030    2    1    2    0    0  0.00000000000E+00  0.00000000000E+00  0.24159370886E+03  0.39954048185E+04  0.39880937982E+04 0.  0.
        3    1    3    3  502    0 -0.37654079311E+03 -0.19349001879E+04  0.42234918333E+03  0.20159366430E+04  0.10100000352E+00 0. -1.
       -3    1    3    3    0  502  0.37654079311E+03  0.19349001879E+04 -0.18075547448E+03  0.19794681754E+04  0.10100000352E+00 0.  1.
</event>
<event>
 5   0  0.3399500E-08  0.3956080E+04  0.7818609E-02  0.8013466E-01
       -1   -1    0    0    0  501  0.00000000000E+00  0.00000000000E+00  0.20605671216E+04  0.20605671216E+04  0.50400001928E-02 0. -1.
        1   -1    0    0  501    0  0.00000000000E+00  0.00000000000E+00 -0.18988179297E+04  0.18988179297E+04  0.50400001928E-02 0.  1.
    10030    2    1    2    0    0  0.00000000000E+00  0.00000000000E+00  0.16174919195E+03  0.39593850513E+04  0.39560797747E+04 0.  0.
        2    1    3    3  502    0 -0.30995063270E+03 -0.15637338587E+04  0.12528819404E+04  0.20275714863E+04  0.25500000920E-02 0. -1.
       -2    1    3    3    0  502  0.30995063270E+03  0.15637338587E+04 -0.10911327484E+04  0.19318135651E+04  0.25500000920E-02 0.  1.
</event>
<event>
 5   0  0.3399500E-08  0.3995428E+04  0.7818609E-02  0.8005469E-01
        1   -1    0    0  501    0  0.00000000000E+00  0.00000000000E+00  0.13412576119E+04  0.13412576120E+04  0.50400001928E-02 0. -1.
       -1   -1    0    0    0  501  0.00000000000E+00  0.00000000000E+00 -0.29754628404E+04  0.29754628404E+04  0.50400001928E-02 0.  1.
    10030    2    1    2    0    0  0.00000000000E+00  0.00000000000E+00 -0.16342052284E+04  0.43167204523E+04  0.39954284795E+04 0.  0.
        1    1    3    3  502    0 -0.17624156631E+04 -0.64921855047E+03 -0.81730860955E+02  0.18799663905E+04  0.50400001928E-02 0. -1.
       -1    1    3    3    0  502  0.17624156631E+04  0.64921855047E+03 -0.15524743675E+04  0.24367540618E+04  0.50400001928E-02 0.  1.
</event>
<event>
 5   0  0.1095109E-07  0.4010553E+04  0.7818609E-02  0.8002421E-01
       -2   -1    0    0    0  501  0.00000000000E+00  0.00000000000E+00  0.17798806100E+04  0.17798806100E+04  0.25500000920E-02 0. -1.
        2   -1    0    0  501    0  0.00000000000E+00  0.00000000000E+00 -0.22592156232E+04  0.22592156232E+04  0.25500000920E-02 0.  1.
    10030    2    1    2    0    0  0.00000000000E+00  0.00000000000E+00 -0.47933501315E+03  0.40390962332E+04  0.40105531198E+04 0.  0.
        4    1    3    3  502    0  0.39909533549E+03  0.68259832227E+03 -0.20955835569E+04  0.22397967794E+04  0.12699999809E+01 0.  1.
       -4    1    3    3    0  502 -0.39909533549E+03 -0.68259832227E+03  0.16162485437E+04  0.17992994538E+04  0.12699999809E+01 0. -1.
</event>
<event>
 5   0  0.1095109E-07  0.3982662E+04  0.7818609E-02  0.8008053E-01
        2   -1    0    0  501    0  0.00000000000E+00  0.00000000000E+00  0.15244990328E+04  0.15244990328E+04  0.25500000920E-02 0.  1.
       -2   -1    0    0    0  501  0.00000000000E+00  0.00000000000E+00 -0.26011160660E+04  0.26011160660E+04  0.25500000920E-02 0. -1.
    10030    2    1    2    0    0  0.00000000000E+00  0.00000000000E+00 -0.10766170332E+04  0.41256150988E+04  0.39826618871E+04 0.  0.
        4    1    3    3  502    0  0.87610404323E+03 -0.16570469798E+03  0.13061589366E+04  0.15814768800E+04  0.12699999809E+01 0.  1.
       -4    1    3    3    0  502 -0.87610404323E+03  0.16570469798E+03 -0.23827759698E+04  0.25441382188E+04  0.12699999809E+01 0. -1.
</event>
<event>
 5   0  0.1095109E-07  0.4021015E+04  0.7818609E-02  0.8000321E-01
       -2   -1    0    0    0  501  0.00000000000E+00  0.00000000000E+00  0.12890888137E+04  0.12890888137E+04  0.25500000920E-02 0.  1.
        2   -1    0    0  501    0  0.00000000000E+00  0.00000000000E+00 -0.31356572122E+04  0.31356572122E+04  0.25500000920E-02 0. -1.
    10030    2    1    2    0    0  0.00000000000E+00  0.00000000000E+00 -0.18465683985E+04  0.44247460259E+04  0.40210151136E+04 0.  0.
        4    1    3    3  502    0  0.14476675753E+04  0.12457675550E+04 -0.16144059725E+04  0.25007971663E+04  0.12699999809E+01 0.  1.
       -4    1    3    3    0  502 -0.14476675753E+04 -0.12457675550E+04 -0.23216242595E+03  0.19239488597E+04  0.12699999809E+01 0. -1.
</event>
<event>
 5   0  0.3399500E-08  0.3994225E+04  0.7818609E-02  0.8005713E-01
       -1   -1    0    0    0  501  0.00000000000E+00  0.00000000000E+00  0.25865207242E+04  0.25865207242E+04  0.50400001928E-02 0. -1.
        1   -1    0    0  501    0  0.00000000000E+00  0.00000000000E+00 -0.15420166662E+04  0.15420166662E+04  0.50400001928E-02 0.  1.
    10030    2    1    2    0    0  0.00000000000E+00  0.00000000000E+00  0.10445040580E+04  0.41285373905E+04  0.39942248631E+04 0.  0.
        3    1    3    3  502    0 -0.32559637915E+03  0.12132676436E+04  0.21270141847E+04  0.24702673396E+04  0.10100000352E+00 0. -1.
       -3    1    3    3    0  502  0.32559637915E+03 -0.12132676436E+04 -0.10825101267E+04  0.16582700509E+04  0.10100000352E+00 0.  1.
</event>
<event>
 5   0  0.1095903E-07  0.4066002E+04  0.7818609E-02  0.7991363E-01
        2   -1    0    0  501    0  0.00000000000E+00  0.00000000000E+00  0.20440911214E+04  0.20440911214E+04  0.25500000920E-02 0. -1.
       -2   -1    0    0    0  501  0.00000000000E+00  0.00000000000E+00 -0.20219709045E+04  0.20219709045E+04  0.25500000920E-02 0.  1.
    10030    2    1    2    0    0  0.00000000000E+00  0.00000000000E+00  0.22120216913E+02  0.40660620259E+04  0.40660018562E+04 0.  0.
        3    1    3    3  502    0 -0.18750794326E+04 -0.22925585175E+03  0.76247766882E+03  0.20371188796E+04  0.10100000352E+00 0. -1.
       -3    1    3    3    0  502  0.18750794326E+04  0.22925585175E+03 -0.74035745191E+03  0.20289431463E+04  0.10100000352E+00 0.  1.
</event>
<event>
 5   0  0.1073271E-07  0.3880237E+04  0.7818609E-02  0.8029152E-01
       -2   -1    0    0    0  501  0.00000000000E+00  0.00000000000E+00  0.13306766487E+04  0.13306766487E+04  0.25500000920E-02 0. -1.
        2   -1    0    0  501    0  0.00000000000E+00  0.00000000000E+00 -0.28286804004E+04  0.28286804004E+04  0.25500000920E-02 0.  1.
    10030    2    1    2    0    0  0.00000000000E+00  0.00000000000E+00 -0.14980037517E+04  0.41593570491E+04  0.38802365678E+04 0.  0.
        1    1    3    3  502    0  0.17278104665E+04  0.73526488792E+01  0.19690059823E+03  0.17390091763E+04  0.50400001928E-02 0. -1.
       -1    1    3    3    0  502 -0.17278104665E+04 -0.73526488792E+01 -0.16949043499E+04  0.24203478728E+04  0.50400001928E-02 0.  1.
</event>
<event>
 5   0  0.3399500E-08  0.4010703E+04  0.7818609E-02  0.8002391E-01
       -1   -1    0    0    0  501  0.00000000000E+00  0.00000000000E+00  0.18437349563E+04  0.18437349563E+04  0.50400001928E-02 0.  1.
        1   -1    0    0  501    0  0.00000000000E+00  0.00000000000E+00 -0.21811344642E+04  0.21811344642E+04  0.50400001928E-02 0. -1.
    10030    2    1    2    0    0  0.00000000000E+00  0.00000000000E+00 -0.33739950791E+03  0.40248694206E+04  0.40107026099E+04 0.  0.
        2    1    3    3  502    0 -0.11208894354E+04  0.33519884381E+03 -0.18031585162E+04  0.21494492378E+04  0.25500000920E-02 0. -1.
       -2    1    3    3    0  502  0.11208894354E+04 -0.33519884381E+03  0.14657590083E+04  0.18754201827E+04  0.25500000920E-02 0.  1.
</event>
<event>
 5   0  0.3399500E-08  0.4000181E+04  0.7818609E-02  0.8004510E-01
       -1   -1    0    0    0  501  0.00000000000E+00  0.00000000000E+00  0.19536676894E+04  0.19536676894E+04  0.50400001928E-02 0. -1.
        1   -1    0    0  501    0  0.00000000000E+00  0.00000000000E+00 -0.20476164818E+04  0.20476164818E+04  0.50400001928E-02 0.  1.
    10030    2    1    2    0    0  0.00000000000E+00  0.00000000000E+00 -0.93948792415E+02  0.40012841712E+04  0.40001810763E+04 0.  0.
        1    1    3    3  502    0  0.28706645656E+03  0.11410464501E+04  0.15708670587E+04  0.19626557181E+04  0.50400001928E-02 0. -1.
       -1    1    3    3    0  502 -0.28706645656E+03 -0.11410464501E+04 -0.16648158511E+04  0.20386284531E+04  0.50400001928E-02 0.  1.
</event>
<event>
 5   0  0.3399500E-08  0.4004424E+04  0.7818609E-02  0.8003655E-01
       -1   -1    0    0    0  501  0.00000000000E+00  0.00000000000E+00  0.17399660444E+04  0.17399660444E+04  0.50400001928E-02 0.  1.
        1   -1    0    0  501    0  0.00000000000E+00  0.00000000000E+00 -0.23039832264E+04  0.23039832264E+04  0.50400001928E-02 0. -1.
    10030    2    1    2    0    0  0.00000000000E+00  0.00000000000E+00 -0.56401718202E+03  0.40439492708E+04  0.40044238441E+04 0.  0.
        2    1    3    3  502    0 -0.66152097399E+03  0.90768404223E+03  0.13918656805E+04  0.17885162544E+04  0.25500000920E-02 0.  1.
       -2    1    3    3    0  502  0.66152097399E+03 -0.90768404223E+03 -0.19558828625E+04  0.22554330164E+04  0.25500000920E-02 0. -1.
</event>
<event>
 5   0  0.1095903E-07  0.4021035E+04  0.7818609E-02  0.8000316E-01
        2   -1    0    0  501    0  0.00000000000E+00  0.00000000000E+00  0.20635617211E+04  0.20635617211E+04  0.25500000920E-02 0.  1.
       -2   -1    0    0    0  501  0.00000000000E+00  0.00000000000E+00 -0.19588371120E+04  0.19588371120E+04  0.25500000920E-02 0. -1.
    10030    2    1    2    0    0  0.00000000000E+00  0.00000000000E+00  0.10472460909E+03  0.40223988331E+04  0.40210353304E+04 0.  0.
        3    1    3    3  502    0  0.11734405484E+04  0.10875814316E+04  0.12703075753E+04  0.20429090624E+04  0.10100000352E+00 0.  1.
       -3    1    3    3    0  502 -0.11734405484E+04 -0.10875814316E+04 -0.11655829662E+04  0.19794897707E+04  0.10100000352E+00 0. -1.
</event>
<event>
 5   0  0.3399500E-08  0.3547274E+04  0.7818609E-02  0.8102677E-01
       -1   -1    0    0    0  501  0.00000000000E+00  0.00000000000E+00  0.18479616215E+04  0.18479616215E+04  0.50400001928E-02 0. -1.
        1   -1    0    0  501    0  0.00000000000E+00  0.00000000000E+00 -0.17023014184E+04  0.17023014184E+04  0.50400001928E-02 0.  1.
    10030    2    1    2    0    0  0.00000000000E+00  0.00000000000E+00  0.14566020314E+03  0.35502630399E+04  0.35472737077E+04 0.  0.
        2    1    3    3  502    0 -0.15830080555E+02 -0.93115417248E+03  0.15835686116E+04  0.18371141043E+04  0.25500000920E-02 0. -1.
       -2    1    3    3    0  502  0.15830080555E+02  0.93115417248E+03 -0.14379084085E+04  0.17131489356E+04  0.25500000920E-02 0.  1.
</event>
<event>
 5   0  0.1087688E-07  0.4012628E+04  0.7818609E-02  0.8002004E-01
        2   -1    0    0  501    0  0.00000000000E+00  0.00000000000E+00  0.17535133751E+04  0.17535133751E+04  0.25500000920E-02 0. -1.
       -2   -1    0    0    0  501  0.00000000000E+00  0.00000000000E+00 -0.22955603926E+04  0.22955603926E+04  0.25500000920E-02 0.  1.
    10030    2    1    2    0    0  0.00000000000E+00  0.00000000000E+00 -0.54204701746E+03  0.40490737677E+04  0.40126279926E+04 0.  0.
        2    1    3    3  502    0 -0.15336524368E+04 -0.61848845624E+03 -0.14174224026E+04  0.21780045994E+04  0.25500000920E-02 0.  1.
       -2    1    3    3    0  502  0.15336524368E+04  0.61848845624E+03  0.87537538516E+03  0.18710691683E+04  0.25500000920E-02 0. -1.
</event>
<event>
 5   0  0.3399500E-08  0.3965750E+04  0.7818609E-02  0.8011492E-01
        1   -1    0    0  501    0  0.00000000000E+00  0.00000000000E+00  0.27536577752E+04  0.27536577752E+04  0.50400001928E-02 0.  1.
       -1   -1    0    0    0  501  0.00000000000E+00  0.00000000000E+00 -0.14278441081E+04  0.14278441082E+04  0.50400001928E-02 0. -1.
    10030    2    1    2    0    0  0.00000000000E+00  0.00000000000E+00  0.13258136670E+04  0.41815018833E+04  0.39657503855E+04 0.  0.
        3    1    3    3  502    0  0.10305499088E+04 -0.10146377376E+04 -0.76746132082E+03  0.16372292882E+04  0.10100000352E+00 0. -1.
       -3    1    3    3    0  502 -0.10305499088E+04  0.10146377376E+04  0.20932749878E+04  0.25442725951E+04  0.10100000352E+00 0.  1.
</event>
<event>
 5   0  0.3399500E-08  0.4013222E+04  0.7818609E-02  0.8001884E-01
        1   -1    0    0  501    0  0.00000000000E+00  0.00000000000E+00  0.15545305441E+04  0.15545305441E+04  0.50400001928E-02 0. -1.
       -1   -1    0    0    0  501  0.00000000000E+00  0.00000000000E+00 -0.25901636356E+04  0.25901636356E+04  0.50400001928E-02 0.  1.
    10030    2    1    2    0    0  0.00000000000E+00  0.00000000000E+00 -0.10356330914E+04  0.41446941797E+04  0.40132223890E+04 0.  0.
        1    1    3    3  502    0 -0.12746580193E+04 -0.11682331168E+04  0.53385879725E+03  0.18095653889E+04  0.50400001928E-02 0. -1.
       -1    1    3    3    0  502  0.12746580193E+04  0.11682331168E+04 -0.15694918887E+04  0.23351287909E+04  0.50400001928E-02 0.  1.
</event>
<event>
 5   0  0.1095109E-07  0.3991472E+04  0.7818609E-02  0.8006269E-01
       -2   -1    0    0    0  501  0.00000000000E+00  0.00000000000E+00  0.20919703190E+04  0.20919703190E+04  0.25500000920E-02 0. -1.
        2   -1    0    0  501    0  0.00000000000E+00  0.00000000000E+00 -0.19039285572E+04  0.19039285572E+04  0.25500000920E-02 0.  1.
    10030    2    1    2    0    0  0.00000000000E+00  0.00000000000E+00  0.18804176175E+03  0.39958988762E+04  0.39914719246E+04 0.  0.
        4    1    3    3  502    0 -0.46666251562E+03 -0.17391738097E+04  0.95547568490E+03  0.20384883716E+04  0.12699999809E+01 0. -1.
       -4    1    3    3    0  502  0.46666251562E+03  0.17391738097E+04 -0.76743392315E+03  0.19574105045E+04  0.12699999809E+01 0.  1.
</event>
<event>
 5   0  0.1101474E-07  0.4034185E+04  0.7818609E-02  0.7997686E-01
        2   -1    0    0  501    0  0.00000000000E+00  0.00000000000E+00  0.17870890651E+04  0.17870890651E+04  0.25500000920E-02 0. -1.
       -2   -1    0    0    0  501  0.00000000000E+00  0.00000000000E+00 -0.22766976801E+04  0.22766976801E+04  0.25500000920E-02 0.  1.
    10030    2    1    2    0    0  0.00000000000E+00  0.00000000000E+00 -0.48960861498E+03  0.40637867453E+04  0.40341846903E+04 0.  0.
        5    1    3    3  502    0  0.63390879228E+03  0.67557004855E+03  0.15601033581E+04  0.18144365035E+04  0.46999998093E+01 0. -1.
       -5    1    3    3    0  502 -0.63390879228E+03 -0.67557004855E+03 -0.20497119731E+04  0.22493502417E+04  0.46999998093E+01 0.  1.
</event>
<event>
 5   0  0.3399500E-08  0.3801525E+04  0.7818609E-02  0.8045828E-01
        1   -1    0    0  501    0  0.00000000000E+00  0.00000000000E+00  0.26617607495E+04  0.26617607495E+04  0.50400001928E-02 0.  1.
       -1   -1    0    0    0  501  0.00000000000E+00  0.00000000000E+00 -0.13573337765E+04  0.13573337765E+04  0.50400001928E-02 0. -1.
    10030    2    1    2    0    0  0.00000000000E+00  0.00000000000E+00  0.13044269730E+04  0.40190945260E+04  0.38015248363E+04 0.  0.
        2    1    3    3  502    0  0.15307262693E+04 -0.99054532253E+03  0.84257532913E+02  0.18252129408E+04  0.25500000920E-02 0. -1.
       -2    1    3    3    0  502 -0.15307262693E+04  0.99054532253E+03  0.12201694401E+04  0.21938815852E+04  0.25500000920E-02 0.  1.
</event>
<event>
 5   0  0.3399500E-08  0.4020051E+04  0.7818609E-02  0.8000514E-01
        1   -1    0    0  501    0  0.00000000000E+00  0.00000000000E+00  0.22797545641E+04  0.22797545642E+04  0.50400001928E-02 0. -1.
       -1   -1    0    0    0  501  0.00000000000E+00  0.00000000000E+00 -0.17722090947E+04  0.17722090947E+04  0.50400001928E-02 0.  1.
    10030    2    1    2    0    0  0.00000000000E+00  0.00000000000E+00  0.50754546946E+03  0.40519636588E+04  0.40200506326E+04 0.  0.
        4    1    3    3  502    0  0.12150629640E+04 -0.15994598874E+04  0.17868151058E+03  0.20165759675E+04  0.12699999809E+01 0. -1.
       -4    1    3    3    0  502 -0.12150629640E+04  0.15994598874E+04  0.32886395889E+03  0.20353876913E+04  0.12699999809E+01 0.  1.
</event>
<event>
 5   0  0.3399500E-08  0.3995631E+04  0.7818609E-02  0.8005429E-01
        1   -1    0    0  501    0  0.00000000000E+00  0.00000000000E+00  0.31114624865E+04  0.31114624865E+04  0.50400001928E-02 0.  1.
       -1   -1    0    0    0  501  0.00000000000E+00  0.00000000000E+00 -0.12827620144E+04  0.12827620144E+04  0.50400001928E-02 0. -1.
    10030    2    1    2    0    0  0.00000000000E+00  0.00000000000E+00  0.18287004721E+04  0.43942245009E+04  0.39956305569E+04 0.  0.
        1    1    3    3  502    0 -0.11221075072E+04  0.39573793008E+03  0.26792920842E+04  0.29316104515E+04  0.50400001928E-02 0.  1.
       -1    1    3    3    0  502  0.11221075072E+04 -0.39573793008E+03 -0.85059161203E+03  0.14626140494E+04  0.50400001928E-02 0. -1.
</event>
<event>
 5   0  0.3399500E-08  0.4373825E+04  0.7818609E-02  0.7933106E-01
       -3   -1    0    0    0  501  0.00000000000E+00  0.00000000000E+00  0.15536882176E+04  0.15536882209E+04  0.10100000352E+00 0. -1.
        3   -1    0    0  501    0  0.00000000000E+00  0.00000000000E+00 -0.30782153162E+04  0.30782153179E+04  0.10100000352E+00 0.  1.
    10030    2    1    2    0    0  0.00000000000E+00  0.00000000000E+00 -0.15245270986E+04  0.46319035388E+04  0.43738252729E+04 0.  0.
        2    1    3    3  502    0  0.20887759028E+04 -0.62482746357E+03 -0.94320395823E+03  0.23755058068E+04  0.25500000920E-02 0.  1.
       -2    1    3    3    0  502 -0.20887759028E+04  0.62482746357E+03 -0.58132314033E+03  0.22563977320E+04  0.25500000920E-02 0. -1.
</event>
<event>
 5   0  0.3399500E-08  0.4088427E+04  0.7818609E-02  0.7986942E-01
       -1   -1    0    0    0  501  0.00000000000E+00  0.00000000000E+00  0.13728639604E+04  0.13728639604E+04  0.50400001928E-02 0.  1.
        1   -1    0    0  501    0  0.00000000000E+00  0.00000000000E+00 -0.30438630198E+04  0.30438630198E+04  0.50400001928E-02 0. -1.
    10030    2    1    2    0    0  0.00000000000E+00  0.00000000000E+00 -0.16709990594E+04  0.44167269802E+04  0.40884274925E+04 0.  0.
        3    1    3    3  502    0 -0.42772300698E+03 -0.16303455863E+04 -0.20850267292E+04  0.26811024175E+04  0.10100000352E+00 0. -1.
       -3    1    3    3    0  502  0.42772300698E+03  0.16303455863E+04  0.41402766978E+03  0.17356245628E+04  0.10100000352E+00 0.  1.
</event>
<event>
 5   0  0.1073271E-07  0.3874947E+04  0.7818609E-02  0.8030260E-01
       -2   -1    0    0    0  501  0.00000000000E+00  0.00000000000E+00  0.18871364498E+04  0.18871364498E+04  0.25500000920E-02 0.  1.
        2   -1    0    0  501    0  0.00000000000E+00  0.00000000000E+00 -0.19891533614E+04  0.19891533614E+04  0.25500000920E-02 0. -1.
    10030    2    1    2    0    0  0.00000000000E+00  0.00000000000E+00 -0.10201691159E+03  0.38762898113E+04  0.38749471288E+04 0.  0.
        1    1    3    3  502    0 -0.15243042255E+04  0.35115420446E+03 -0.11946417345E+04  0.19682432576E+04  0.50400001928E-02 0. -1.
       -1    1    3    3    0  502  0.15243042255E+04 -0.35115420446E+03  0.10926248229E+04  0.19080465537E+04  0.50400001928E-02 0.  1.
</event>
<event>
 5   0  0.3399500E-08  0.3943888E+04  0.7818609E-02  0.8015963E-01
       -1   -1    0    0    0  501  0.00000000000E+00  0.00000000000E+00  0.29004991711E+04  0.29004991711E+04  0.50400001928E-02 0.  1.
        1   -1    0    0  501    0  0.00000000000E+00  0.00000000000E+00 -0.13406528048E+04  0.13406528048E+04  0.50400001928E-02 0. -1.
    10030    2    1    2    0    0  0.00000000000E+00  0.00000000000E+00  0.15598463664E+04  0.42411519759E+04  0.39438875993E+04 0.  0.
        5    1    3    3  502    0 -0.71358494934E+03 -0.18140012343E+04  0.11002622946E+04  0.22383929871E+04  0.46999998093E+01 0.  1.
       -5    1    3    3    0  502  0.71358494934E+03  0.18140012343E+04  0.45958407180E+03  0.20027589888E+04  0.46999998093E+01 0. -1.
</event>
<event>
 5   0  0.3399500E-08  0.3998221E+04  0.7818609E-02  0.8004906E-01
       -1   -1    0    0    0  501  0.00000000000E+00  0.00000000000E+00  0.14995248031E+04  0.14995248031E+04  0.50400001928E-02 0. -1.
        1   -1    0    0  501    0  0.00000000000E+00  0.00000000000E+00 -0.26651395822E+04  0.26651395822E+04  0.50400001928E-02 0.  1.
    10030    2    1    2    0    0  0.00000000000E+00  0.00000000000E+00 -0.11656147791E+04  0.41646643853E+04  0.39982210580E+04 0.  0.
        1    1    3    3  502    0 -0.11960930877E+04 -0.81966432882E+03 -0.20163083602E+04  0.24835433738E+04  0.50400001928E-02 0.  1.
       -1    1    3    3    0  502  0.11960930877E+04  0.81966432882E+03  0.85069358108E+03  0.16811210115E+04  0.50400001928E-02 0. -1.
</event>
<event>
 5   0  0.3399500E-08  0.3985540E+04  0.7818609E-02  0.8007470E-01
        1   -1    0    0  501    0  0.00000000000E+00  0.00000000000E+00  0.12693933496E+04  0.12693933496E+04  0.50400001928E-02 0.  1.
       -1   -1    0    0    0  501  0.00000000000E+00  0.00000000000E+00 -0.31283705087E+04  0.31283705087E+04  0.50400001928E-02 0. -1.
    10030    2    1    2    0    0  0.00000000000E+00  0.00000000000E+00 -0.18589771590E+04  0.43977638583E+04  0.39855402238E+04 0.  0.
        3    1    3    3  502    0 -0.97831289059E+03  0.16672647944E+04 -0.14635585230E+04  0.24246384405E+04  0.10100000352E+00 0.  1.
       -3    1    3    3    0  502  0.97831289059E+03 -0.16672647944E+04 -0.39541863607E+03  0.19731254178E+04  0.10100000352E+00 0. -1.
</event>
<event>
 5   0  0.3399500E-08  0.4011890E+04  0.7818609E-02  0.8002152E-01
       -1   -1    0    0    0  501  0.00000000000E+00  0.00000000000E+00  0.21817696247E+04  0.21817696247E+04  0.50400001928E-02 0.  1.
        1   -1    0    0  501    0  0.00000000000E+00  0.00000000000E+00 -0.18442897485E+04  0.18442897485E+04  0.50400001928E-02 0. -1.
    10030    2    1    2    0    0  0.00000000000E+00  0.00000000000E+00  0.33747987626E+03  0.40260593732E+04  0.40118900047E+04 0.  0.
        4    1    3    3  502    0 -0.15036304900E+04 -0.66802707491E+03 -0.98276591786E+03  0.19165060098E+04  0.12699999809E+01 0. -1.
       -4    1    3    3    0  502  0.15036304900E+04  0.66802707491E+03  0.13202457941E+04  0.21095533634E+04  0.12699999809E+01 0.  1.
</event>
<event>
 5   0  0.3399500E-08  0.4052910E+04  0.7818609E-02  0.7993957E-01
        1   -1    0    0  501    0  0.00000000000E+00  0.00000000000E+00  0.19778288761E+04  0.19778288761E+04  0.50400001928E-02 0. -1.
       -1   -1    0    0    0  501  0.00000000000E+00  0.00000000000E+00 -0.20762763413E+04  0.20762763413E+04  0.50400001928E-02 0.  1.
    10030    2    1    2    0    0  0.00000000000E+00  0.00000000000E+00 -0.98447465231E+02  0.40541052175E+04  0.40529097215E+04 0.  0.
        5    1    3    3  502    0 -0.47179821196E+03 -0.91132304300E+03 -0.17971355067E+04  0.20694978523E+04  0.46999998093E+01 0.  1.
       -5    1    3    3    0  502  0.47179821196E+03  0.91132304300E+03  0.16986880414E+04  0.19846073651E+04  0.46999998093E+01 0. -1.
</event>
<event>
 5   0  0.1073271E-07  0.4047076E+04  0.7818609E-02  0.7995117E-01
        2   -1    0    0  501    0  0.00000000000E+00  0.00000000000E+00  0.21084549442E+04  0.21084549442E+04  0.25500000920E-02 0. -1.
       -2   -1    0    0    0  501  0.00000000000E+00  0.00000000000E+00 -0.19420410092E+04  0.19420410092E+04  0.25500000920E-02 0.  1.
    10030    2    1    2    0    0  0.00000000000E+00  0.00000000000E+00  0.16641393496E+03  0.40504959534E+04  0.40470759655E+04 0.  0.
        1    1    3    3  502    0 -0.17180727156E+04  0.39911246909E+03 -0.90941809084E+03  0.19844661456E+04  0.50400001928E-02 0.  1.
       -1    1    3    3    0  502  0.17180727156E+04 -0.39911246909E+03  0.10758320258E+04  0.20660298078E+04  0.50400001928E-02 0. -1.
</event>
<event>
 5   0  0.1095903E-07  0.3966985E+04  0.7818609E-02  0.8011240E-01
        2   -1    0    0  501    0  0.00000000000E+00  0.00000000000E+00  0.13210395680E+04  0.13210395680E+04  0.25500000920E-02 0.  1.
       -2   -1    0    0    0  501  0.00000000000E+00  0.00000000000E+00 -0.29781412802E+04  0.29781412802E+04  0.25500000920E-02 0. -1.
    10030    2    1    2    0    0  0.00000000000E+00  0.00000000000E+00 -0.16571017122E+04  0.42991808483E+04  0.39669849863E+04 0.  0.
        3    1    3    3  502    0 -0.16386251499E+04  0.27736344804E+03  0.34480473252E+03  0.16973253012E+04  0.10100000352E+00 0. -1.
       -3    1    3    3    0  502  0.16386251499E+04 -0.27736344804E+03 -0.20019064447E+04  0.26018555471E+04  0.10100000352E+00 0.  1.
</event>
<event>
 5   0  0.3399500E-08  0.3974307E+04  0.7818609E-02  0.8009750E-01
        1   -1    0    0  501    0  0.00000000000E+00  0.00000000000E+00  0.15267396357E+04  0.15267396357E+04  0.50400001928E-02 0.  1.
       -1   -1    0    0    0  501  0.00000000000E+00  0.00000000000E+00 -0.25864124821E+04  0.25864124821E+04  0.50400001928E-02 0. -1.
    10030    2    1    2    0    0  0.00000000000E+00  0.00000000000E+00 -0.10596728464E+04  0.41131521179E+04  0.39743067072E+04 0.  0.
        3    1    3    3  502    0  0.50105185909E+03 -0.14267524228E+04  0.80442938927E+03  0.17128286820E+04  0.10100000352E+00 0.  1.
       -3    1    3    3    0  502 -0.50105185909E+03  0.14267524228E+04 -0.18641022357E+04  0.24003234358E+04  0.10100000352E+00 0. -1.
</event>
<event>
 5   0  0.3399500E-08  0.3994720E+04  0.7818609E-02  0.8005612E-01
        4   -1    0    0  501    0  0.00000000000E+00  0.00000000000E+00  0.16133412440E+04  0.16133417438E+04  0.12699999809E+01 0.  1.
       -4   -1    0    0    0  501  0.00000000000E+00  0.00000000000E+00 -0.24727850039E+04  0.24727853300E+04  0.12699999809E+01 0. -1.
    10030    2    1    2    0    0  0.00000000000E+00  0.00000000000E+00 -0.85944375992E+03  0.40861270738E+04  0.39947203766E+04 0.  0.
        2    1    3    3  502    0  0.10734469514E+04  0.12042811009E+04  0.77487794602E+03  0.17896975048E+04  0.25500000920E-02 0.  1.
       -2    1    3    3    0  502 -0.10734469514E+04 -0.12042811009E+04 -0.16343217059E+04  0.22964295691E+04  0.25500000920E-02 0. -1.
</event>
<event>
 5   0  0.3399500E-08  0.3997380E+04  0.7818609E-02  0.8005075E-01
        1   -1    0    0  501    0  0.00000000000E+00  0.00000000000E+00  0.23115820046E+04  0.23115820046E+04  0.50400001928E-02 0. -1.
       -1   -1    0    0    0  501  0.00000000000E+00  0.00000000000E+00 -0.17281502498E+04  0.17281502498E+04  0.50400001928E-02 0.  1.
    10030    2    1    2    0    0  0.00000000000E+00  0.00000000000E+00  0.58343175484E+03  0.40397322544E+04  0.39973796510E+04 0.  0.
        4    1    3    3  502    0 -0.16456631416E+04 -0.10426587201E+04  0.74300630480E+03  0.20850430125E+04  0.12699999809E+01 0. -1.
       -4    1    3    3    0  502  0.16456631416E+04  0.10426587201E+04 -0.15957454996E+03  0.19546892418E+04  0.12699999809E+01 0.  1.
</event>
<event>
 5   0  0.3399500E-08  0.4005024E+04  0.7818609E-02  0.8003534E-01
       -1   -1    0    0    0  501  0.00000000000E+00  0.00000000000E+00  0.19194893959E+04  0.19194893959E+04  0.50400001928E-02 0.  1.
        1   -1    0    0  501    0  0.00000000000E+00  0.00000000000E+00 -0.20891254637E+04  0.20891254637E+04  0.50400001928E-02 0. -1.
    10030    2    1    2    0    0  0.00000000000E+00  0.00000000000E+00 -0.16963606787E+03  0.40086148596E+04  0.40050239321E+04 0.  0.
        2    1    3    3  502    0 -0.59168256318E+01 -0.14203032291E+04  0.13280984325E+04  0.19445158055E+04  0.25500000920E-02 0.  1.
       -2    1    3    3    0  502  0.59168256318E+01  0.14203032291E+04 -0.14977345004E+04  0.20640990541E+04  0.25500000920E-02 0. -1.
</event>
<event>
 5   0  0.3399500E-08  0.4014990E+04  0.7818609E-02  0.8001530E-01
        1   -1    0    0  501    0  0.00000000000E+00  0.00000000000E+00  0.25500809627E+04  0.25500809627E+04  0.50400001928E-02 0.  1.
       -1   -1    0    0    0  501  0.00000000000E+00  0.00000000000E+00 -0.15803558049E+04  0.15803558049E+04  0.50400001928E-02 0. -1.
    10030    2    1    2    0    0  0.00000000000E+00  0.00000000000E+00  0.96972515779E+03  0.41304367676E+04  0.40149895404E+04 0.  0.
        1    1    3    3  502    0  0.15980483741E+04  0.82825849951E+03 -0.42966708622E+03  0.18505092686E+04  0.50400001928E-02 0. -1.
       -1    1    3    3    0  502 -0.15980483741E+04 -0.82825849951E+03  0.13993922440E+04  0.22799274990E+04  0.50400001928E-02 0.  1.
</event>
<event>
 5   0  0.3399500E-08  0.3983974E+04  0.7818609E-02  0.8007787E-01
        1   -1    0    0  501    0  0.00000000000E+00  0.00000000000E+00  0.20449861738E+04  0.20449861739E+04  0.50400001928E-02 0. -1.
       -1   -1    0    0    0  501  0.00000000000E+00  0.00000000000E+00 -0.19403610830E+04  0.19403610830E+04  0.50400001928E-02 0.  1.
    10030    2    1    2    0    0  0.00000000000E+00  0.00000000000E+00  0.10462509088E+03  0.39853472568E+04  0.39839736881E+04 0.  0.
        5    1    3    3  502    0  0.53076867228E+03  0.93590302562E+03 -0.16246781669E+04  0.19486485299E+04  0.46999998093E+01 0.  1.
       -5    1    3    3    0  502 -0.53076867228E+03 -0.93590302562E+03  0.17293032578E+04  0.20366987270E+04  0.46999998093E+01 0. -1.
</event>
<event>
 5   0  0.1101474E-07  0.3871233E+04  0.7818609E-02  0.8031039E-01
       -2   -1    0    0    0  501  0.00000000000E+00  0.00000000000E+00  0.20589313044E+04  0.20589313044E+04  0.25500000920E-02 0. -1.
        2   -1    0    0  501    0  0.00000000000E+00  0.00000000000E+00 -0.18196876371E+04  0.18196876371E+04  0.25500000920E-02 0.  1.
    10030    2    1    2    0    0  0.00000000000E+00  0.00000000000E+00  0.23924366736E+03  0.38786189415E+04  0.38712333127E+04 0.  0.
        5    1    3    3  502    0 -0.72606107328E+03  0.88881705529E+03 -0.14420144865E+04  0.18429835347E+04  0.46999998093E+01 0.  1.
       -5    1    3    3    0  502  0.72606107328E+03 -0.88881705529E+03  0.16812581538E+04  0.20356354069E+04  0.46999998093E+01 0. -1.
</event>
<event>
 5   0  0.1095109E-07  0.3987561E+04  0.7818609E-02  0.8007061E-01
       -2   -1    0    0    0  501  0.00000000000E+00  0.00000000000E+00  0.27056589889E+04  0.27056589889E+04  0.25500000920E-02 0.  1.
        2   -1    0    0  501    0  0.00000000000E+00  0.00000000000E+00 -0.14692025870E+04  0.14692025870E+04  0.25500000920E-02 0. -1.
    10030    2    1    2    0    0  0.00000000000E+00  0.00000000000E+00  0.12364564018E+04  0.41748615759E+04  0.39875612527E+04 0.  0.
        4    1    3    3  502    0  0.10509025278E+04  0.67182836811E+03  0.22467345540E+04  0.25697406967E+04  0.12699999809E+01 0.  1.
       -4    1    3    3    0  502 -0.10509025278E+04 -0.67182836811E+03 -0.10102781521E+04  0.16051208792E+04  0.12699999809E+01 0. -1.
</event>
<event>
 5   0  0.3399500E-08  0.3993316E+04  0.7818609E-02  0.8005896E-01
       -3   -1    0    0    0  501  0.00000000000E+00  0.00000000000E+00  0.21442481452E+04  0.21442481476E+04  0.10100000352E+00 0. -1.
        3   -1    0    0  501    0  0.00000000000E+00  0.00000000000E+00 -0.18592267710E+04  0.18592267738E+04  0.10100000352E+00 0.  1.
    10030    2    1    2    0    0  0.00000000000E+00  0.00000000000E+00  0.28502137414E+03  0.40034749214E+04  0.39933161986E+04 0.  0.
        4    1    3    3  502    0  0.81692137423E+03 -0.93849883283E+02  0.19666099937E+04  0.21316014666E+04  0.12699999809E+01 0. -1.
       -4    1    3    3    0  502 -0.81692137423E+03  0.93849883283E+02 -0.16815886196E+04  0.18718734547E+04  0.12699999809E+01 0.  1.
</event>
<event>
 5   0  0.1073271E-07  0.3994077E+04  0.7818609E-02  0.8005742E-01
        2   -1    0    0  501    0  0.00000000000E+00  0.00000000000E+00  0.20625738938E+04  0.20625738938E+04  0.25500000920E-02 0.  1.
       -2   -1    0    0    0  501  0.00000000000E+00  0.00000000000E+00 -0.19335853285E+04  0.19335853285E+04  0.25500000920E-02 0. -1.
    10030    2    1    2    0    0  0.00000000000E+00  0.00000000000E+00  0.12898856531E+03  0.39961592222E+04  0.39940769246E+04 0.  0.
        1    1    3    3  502    0 -0.15806388957E+04 -0.49785686548E+03  0.11794727944E+04  0.20340690376E+04  0.50400001928E-02 0.  1.
       -1    1    3    3    0  502  0.15806388957E+04  0.49785686548E+03 -0.10504842291E+04  0.19620901846E+04  0.50400001928E-02 0. -1.
</event>
<event>
 5   0  0.1095109E-07  0.3958032E+04  0.7818609E-02  0.8013067E-01
        2   -1    0    0  501    0  0.00000000000E+00  0.00000000000E+00  0.16748819503E+04  0.16748819503E+04  0.25500000920E-02 0.  1.
       -2   -1    0    0    0  501  0.00000000000E+00  0.00000000000E+00 -0.23383761316E+04  0.23383761316E+04  0.25500000920E-02 0. -1.
    10030    2    1    2    0    0  0.00000000000E+00  0.00000000000E+00 -0.66349418133E+03  0.40132580819E+04  0.39580318219E+04 0.  0.
        4    1    3    3  502    0  0.15929081221E+04 -0.77709323073E+03  0.56103384874E+03  0.18590295229E+04  0.12699999809E+01 0.  1.
       -4    1    3    3    0  502 -0.15929081221E+04  0.77709323073E+03 -0.12245280301E+04  0.21542285589E+04  0.12699999809E+01 0. -1.
</event>
<event>
 5   0  0.1095109E-07  0.4029685E+04  0.7818609E-02  0.7998585E-01
       -2   -1    0    0    0  501  0.00000000000E+00  0.00000000000E+00  0.17870274113E+04  0.17870274113E+04  0.25500000920E-02 0. -1.
        2   -1    0    0  501    0  0.00000000000E+00  0.00000000000E+00 -0.22717002658E+04  0.22717002658E+04  0.25500000920E-02 0.  1.
    10030    2    1    2    0    0  0.00000000000E+00  0.00000000000E+00 -0.48467285452E+03  0.40587276771E+04  0.40296851715E+04 0.  0.
        4    1    3    3  502    0  0.51973665076E+03  0.11098711638E+04  0.13684547960E+04  0.18370112487E+04  0.12699999809E+01 0. -1.
       -4    1    3    3    0  502 -0.51973665076E+03 -0.11098711638E+04 -0.18531276505E+04  0.22217164284E+04  0.12699999809E+01 0.  1.
</event>
<event>
 5   0  0.3399500E-08  0.4126819E+04  0.7818609E-02  0.7979441E-01
        1   -1    0    0  501    0  0.00000000000E+00  0.00000000000E+00  0.14263265754E+04  0.14263265754E+04  0.50400001928E-02 0. -1.
       -1   -1    0    0    0  501  0.00000000000E+00  0.00000000000E+00 -0.29850524799E+04  0.29850524799E+04  0.50400001928E-02 0.  1.
    10030    2    1    2    0    0  0.00000000000E+00  0.00000000000E+00 -0.15587259046E+04  0.44113790553E+04  0.41268194441E+04 0.  0.
        1    1    3    3  502    0  0.57732200506E+03 -0.19806892448E+04 -0.74188702695E+03  0.21924477058E+04  0.50400001928E-02 0.  1.
       -1    1    3    3    0  502 -0.57732200506E+03  0.19806892448E+04 -0.81683887762E+03  0.22189313495E+04  0.50400001928E-02 0. -1.
</event>
<event>
 5   0  0.3399500E-08  0.3953040E+04  0.7818609E-02  0.8014087E-01
        1   -1    0    0  501    0  0.00000000000E+00  0.00000000000E+00  0.18465322081E+04  0.18465322081E+04  0.50400001928E-02 0.  1.
       -1   -1    0    0    0  501  0.00000000000E+00  0.00000000000E+00 -0.21156581649E+04  0.21156581649E+04  0.50400001928E-02 0. -1.
    10030    2    1    2    0    0  0.00000000000E+00  0.00000000000E+00 -0.26912595679E+03  0.39621903730E+04  0.39530398141E+04 0.  0.
        5    1    3    3  502    0  0.38249510188E+03  0.19055780227E+04  0.22554398932E+03  0.19566354501E+04  0.46999998093E+01 0.  1.
       -5    1    3    3    0  502 -0.38249510188E+03 -0.19055780227E+04 -0.49466994611E+03  0.20055549230E+04  0.46999998093E+01 0. -1.
</event>
<event>
 5   0  0.3399500E-08  0.3923601E+04  0.7818609E-02  0.8020138E-01
       -1   -1    0    0    0  501  0.00000000000E+00  0.00000000000E+00  0.16146758422E+04  0.16146758422E+04  0.50400001928E-02 0. -1.
        1   -1    0    0  501    0  0.00000000000E+00  0.00000000000E+00 -0.23835507786E+04  0.23835507786E+04  0.50400001928E-02 0.  1.
    10030    2    1    2    0    0  0.00000000000E+00  0.00000000000E+00 -0.76887493640E+03  0.39982266209E+04  0.39236013360E+04 0.  0.
        3    1    3    3  502    0  0.11075805661E+04 -0.30153845054E+02 -0.20341851433E+04  0.23163663726E+04  0.10100000352E+00 0.  1.
       -3    1    3    3    0  502 -0.11075805661E+04  0.30153845054E+02  0.12653102069E+04  0.16818602483E+04  0.10100000352E+00 0. -1.
</event>
<event>
 5   0  0.1095109E-07  0.3999429E+04  0.7818609E-02  0.8004662E-01
       -2   -1    0    0    0  501  0.00000000000E+00  0.00000000000E+00  0.16184770935E+04  0.16184770935E+04  0.25500000920E-02 0. -1.
        2   -1    0    0  501    0  0.00000000000E+00  0.00000000000E+00 -0.24707536884E+04  0.24707536884E+04  0.25500000920E-02 0.  1.
    10030    2    1    2    0    0  0.00000000000E+00  0.00000000000E+00 -0.85227659495E+03  0.40892307819E+04  0.39994290835E+04 0.  0.
        4    1    3    3  502    0 -0.74148971651E+03  0.11938183994E+04 -0.18807011362E+04  0.23477750632E+04  0.12699999809E+01 0.  1.
       -4    1    3    3    0  502  0.74148971651E+03 -0.11938183994E+04  0.10284245413E+04  0.17414557188E+04  0.12699999809E+01 0. -1.
</event>
<event>
 5   0  0.3399500E-08  0.3874130E+04  0.7818609E-02  0.8030431E-01
        1   -1    0    0  501    0  0.00000000000E+00  0.00000000000E+00  0.18107668108E+04  0.18107668108E+04  0.50400001928E-02 0. -1.
       -1   -1    0    0    0  501  0.00000000000E+00  0.00000000000E+00 -0.20721726456E+04  0.20721726456E+04  0.50400001928E-02 0.  1.
    10030    2    1    2    0    0  0.00000000000E+00  0.00000000000E+00 -0.26140583478E+03  0.38829394564E+04  0.38741303297E+04 0.  0.
        4    1    3    3  502    0 -0.10877547126E+04 -0.13766080486E+04 -0.95352017233E+03  0.19968631315E+04  0.12699999809E+01 0.  1.
       -4    1    3    3    0  502  0.10877547126E+04  0.13766080486E+04  0.69211433755E+03  0.18860763249E+04  0.12699999809E+01 0. -1.
</event>
<event>
 5   0  0.1073271E-07  0.3936475E+04  0.7818609E-02  0.8017486E-01
       -2   -1    0    0    0  501  0.00000000000E+00  0.00000000000E+00  0.18547068375E+04  0.18547068375E+04  0.25500000920E-02 0. -1.
        2   -1    0    0  501    0  0.00000000000E+00  0.00000000000E+00 -0.20887176146E+04  0.20887176146E+04  0.25500000920E-02 0.  1.
    10030    2    1    2    0    0  0.00000000000E+00  0.00000000000E+00 -0.23401077707E+03  0.39434244521E+04  0.39364749924E+04 0.  0.
        1    1    3    3  502    0 -0.60365352946E+03 -0.32190763011E+03  0.17317707049E+04  0.18620021161E+04  0.50400001928E-02 0. -1.
       -1    1    3    3    0  502  0.60365352946E+03  0.32190763011E+03 -0.19657814820E+04  0.20814223360E+04  0.50400001928E-02 0.  1.
</event>
<event>
 5   0  0.3399500E-08  0.3876389E+04  0.7818609E-02  0.8029958E-01
       -1   -1    0    0    0  501  0.00000000000E+00  0.00000000000E+00  0.20239971592E+04  0.20239971592E+04  0.50400001928E-02 0.  1.
        1   -1    0    0  501    0  0.00000000000E+00  0.00000000000E+00 -0.18560289818E+04  0.18560289818E+04  0.50400001928E-02 0. -1.
    10030    2    1    2    0    0  0.00000000000E+00  0.00000000000E+00  0.16796817742E+03  0.38800261410E+04  0.38763887249E+04 0.  0.
        5    1    3    3  502    0  0.14932376857E+04  0.12327503908E+04 -0.61139755693E+00  0.19363508917E+04  0.46999998093E+01 0. -1.
       -5    1    3    3    0  502 -0.14932376857E+04 -0.12327503908E+04  0.16857957498E+03  0.19436752494E+04  0.46999998093E+01 0.  1.
</event>
<event>
 5   0  0.1095903E-07  0.4008455E+04  0.7818609E-02  0.8002843E-01
        2   -1    0    0  501    0  0.00000000000E+00  0.00000000000E+00  0.15035556586E+04  0.15035556586E+04  0.25500000920E-02 0. -1.
       -2   -1    0    0    0  501  0.00000000000E+00  0.00000000000E+00 -0.26716187341E+04  0.26716187341E+04  0.25500000920E-02 0.  1.
    10030    2    1    2    0    0  0.00000000000E+00  0.00000000000E+00 -0.11680630755E+04  0.41751743927E+04  0.40084547972E+04 0.  0.
        3    1    3    3  502    0  0.14780799120E+02 -0.19995503585E+04 -0.44233158297E+03  0.20479446642E+04  0.10100000352E+00 0. -1.
       -3    1    3    3    0  502 -0.14780799120E+02  0.19995503585E+04 -0.72573149253E+03  0.21272297285E+04  0.10100000352E+00 0.  1.
</event>
<event>
 5   0  0.1073271E-07  0.4018288E+04  0.7818609E-02  0.8000868E-01
        2   -1    0    0  501    0  0.00000000000E+00  0.00000000000E+00  0.17257981166E+04  0.17257981166E+04  0.25500000920E-02 0.  1.
       -2   -1    0    0    0  501  0.00000000000E+00  0.00000000000E+00 -0.23390097586E+04  0.23390097586E+04  0.25500000920E-02 0. -1.
    10030    2    1    2    0    0  0.00000000000E+00  0.00000000000E+00 -0.61321164197E+03  0.40648078752E+04  0.40182875139E+04 0.  0.
        1    1    3    3  502    0  0.24682395029E+03  0.19939091001E+04 -0.31463969281E+03  0.20336159171E+04  0.50400001928E-02 0. -1.
       -1    1    3    3    0  502 -0.24682395029E+03 -0.19939091001E+04 -0.29857194916E+03  0.20311919581E+04  0.50400001928E-02 0.  1.
</event>
<event>
 5   0  0.3399500E-08  0.4007823E+04  0.7818609E-02  0.8002970E-01
        1   -1    0    0  501    0  0.00000000000E+00  0.00000000000E+00  0.29821492687E+04  0.29821492687E+04  0.50400001928E-02 0.  1.
       -1   -1    0    0    0  501  0.00000000000E+00  0.00000000000E+00 -0.13465658583E+04  0.13465658583E+04  0.50400001928E-02 0. -1.
    10030    2    1    2    0    0  0.00000000000E+00  0.00000000000E+00  0.16355834104E+04  0.43287151270E+04  0.40078225457E+04 0.  0.
        5    1    3    3  502    0  0.15602015426E+04 -0.63421809084E+03  0.19906350171E+04  0.26075105564E+04  0.46999998093E+01 0. -1.
       -5    1    3    3    0  502 -0.15602015426E+04  0.63421809084E+03 -0.35505160673E+03  0.17212045706E+04  0.46999998093E+01 0.  1.
</event>
<event>
 5   0  0.3399500E-08  0.4011475E+04  0.7818609E-02  0.8002236E-01
       -1   -1    0    0    0  501  0.00000000000E+00  0.00000000000E+00  0.18145662767E+04  0.18145662767E+04  0.50400001928E-02 0. -1.
        1   -1    0    0  501    0  0.00000000000E+00  0.00000000000E+00 -0.22170491953E+04  0.22170491953E+04  0.50400001928E-02 0.  1.
    10030    2    1    2    0    0  0.00000000000E+00  0.00000000000E+00 -0.40248291865E+03  0.40316154720E+04  0.40114748926E+04 0.  0.
        2    1    3    3  502    0 -0.93765498968E+03  0.15631013786E+02  0.15806638572E+04  0.18379171466E+04  0.25500000920E-02 0. -1.
       -2    1    3    3    0  502  0.93765498968E+03 -0.15631013786E+02 -0.19831467759E+04  0.21936983254E+04  0.25500000920E-02 0.  1.
</event>
<event>
 5   0  0.1087688E-07  0.3938648E+04  0.7818609E-02  0.8017039E-01
       -2   -1    0    0    0  501  0.00000000000E+00  0.00000000000E+00  0.16049043725E+04  0.16049043725E+04  0.25500000920E-02 0.  1.
        2   -1    0    0  501    0  0.00000000000E+00  0.00000000000E+00 -0.24164914271E+04  0.24164914271E+04  0.25500000920E-02 0. -1.
    10030    2    1    2    0    0  0.00000000000E+00  0.00000000000E+00 -0.81158705461E+03  0.40213957996E+04  0.39386483253E+04 0.  0.
        2    1    3    3  502    0 -0.10020140044E+04  0.17898153177E+02 -0.21366630320E+04  0.23600172290E+04  0.25500000920E-02 0. -1.
       -2    1    3    3    0  502  0.10020140044E+04 -0.17898153177E+02  0.13250759774E+04  0.16613785706E+04  0.25500000920E-02 0.  1.
</event>
<event>
 5   0  0.1087688E-07  0.3996330E+04  0.7818609E-02  0.8005287E-01
        2   -1    0    0  501    0  0.00000000000E+00  0.00000000000E+00  0.19940045870E+04  0.19940045870E+04  0.25500000920E-02 0. -1.
       -2   -1    0    0    0  501  0.00000000000E+00  0.00000000000E+00 -0.20023341575E+04  0.20023341575E+04  0.25500000920E-02 0.  1.
    10030    2    1    2    0    0  0.00000000000E+00  0.00000000000E+00 -0.83295704662E+01  0.39963387445E+04  0.39963300638E+04 0.  0.
        2    1    3    3  502    0 -0.53639764548E+03  0.97296917751E+03  0.16566434587E+04  0.19947077489E+04  0.25500000920E-02 0. -1.
       -2    1    3    3    0  502  0.53639764548E+03 -0.97296917751E+03 -0.16649730292E+04  0.20016309955E+04  0.25500000920E-02 0.  1.
</event>
<event>
 5   0  0.3399500E-08  0.3931282E+04  0.7818609E-02  0.8018554E-01
       -1   -1    0    0    0  501  0.00000000000E+00  0.00000000000E+00  0.25421592830E+04  0.25421592830E+04  0.50400001928E-02 0.  1.
        1   -1    0    0  501    0  0.00000000000E+00  0.00000000000E+00 -0.15198671404E+04  0.15198671404E+04  0.50400001928E-02 0. -1.
    10030    2    1    2    0    0  0.00000000000E+00  0.00000000000E+00  0.10222921426E+04  0.40620264235E+04  0.39312819080E+04 0.  0.
        3    1    3    3  502    0 -0.17199464165E+04  0.73145450968E+03  0.11400791049E+04  0.21892970906E+04  0.10100000352E+00 0. -1.
       -3    1    3    3    0  502  0.17199464165E+04 -0.73145450968E+03 -0.11778696231E+03  0.18727293328E+04  0.10100000352E+00 0.  1.
</event>
<event>
 5   0  0.3399500E-08  0.4003284E+04  0.7818609E-02  0.8003884E-01
        1   -1    0    0  501    0  0.00000000000E+00  0.00000000000E+00  0.18859656017E+04  0.18859656017E+04  0.50400001928E-02 0. -1.
       -1   -1    0    0    0  501  0.00000000000E+00  0.00000000000E+00 -0.21244135598E+04  0.21244135598E+04  0.50400001928E-02 0.  1.
    10030    2    1    2    0    0  0.00000000000E+00  0.00000000000E+00 -0.23844795807E+03  0.40103791615E+04  0.40032841007E+04 0.  0.
        2    1    3    3  502    0 -0.27401190853E+03 -0.17212295964E+04  0.86682587848E+03  0.19465613151E+04  0.25500000920E-02 0. -1.
       -2    1    3    3    0  502  0.27401190853E+03  0.17212295964E+04 -0.11052738366E+04  0.20638178465E+04  0.25500000920E-02 0.  1.
</event>
<event>
 5   0  0.1073271E-07  0.3818945E+04  0.7818609E-02  0.8042101E-01
       -2   -1    0    0    0  501  0.00000000000E+00  0.00000000000E+00  0.22379291939E+04  0.22379291939E+04  0.25500000920E-02 0. -1.
        2   -1    0    0  501    0  0.00000000000E+00  0.00000000000E+00 -0.16292230747E+04  0.16292230747E+04  0.25500000920E-02 0.  1.
    10030    2    1    2    0    0  0.00000000000E+00  0.00000000000E+00  0.60870611914E+03  0.38671522686E+04  0.38189453425E+04 0.  0.
        1    1    3    3  502    0  0.13582742735E+04  0.13104597743E+04  0.11090591343E+02  0.18874153818E+04  0.50400001928E-02 0.  1.
       -1    1    3    3    0  502 -0.13582742735E+04 -0.13104597743E+04  0.59761552780E+03  0.19797368869E+04  0.50400001928E-02 0. -1.
</event>
<event>
 5   0  0.3399500E-08  0.4003020E+04  0.7818609E-02  0.8003938E-01
       -1   -1    0    0    0  501  0.00000000000E+00  0.00000000000E+00  0.16069508470E+04  0.16069508470E+04  0.50400001928E-02 0. -1.
        1   -1    0    0  501    0  0.00000000000E+00  0.00000000000E+00 -0.24929467334E+04  0.24929467334E+04  0.50400001928E-02 0.  1.
    10030    2    1    2    0    0  0.00000000000E+00  0.00000000000E+00 -0.88599588637E+03  0.40998975805E+04  0.40030202922E+04 0.  0.
        4    1    3    3  502    0 -0.39242770045E+03  0.11732472813E+04  0.11684620883E+04  0.17017091255E+04  0.12699999809E+01 0. -1.
       -4    1    3    3    0  502  0.39242770045E+03 -0.11732472813E+04 -0.20544579747E+04  0.23981884550E+04  0.12699999809E+01 0.  1.
</event>
<event>
 5   0  0.1073271E-07  0.4169649E+04  0.7818609E-02  0.7971171E-01
        2   -1    0    0  501    0  0.00000000000E+00  0.00000000000E+00  0.17962360971E+04  0.17962360971E+04  0.25500000920E-02 0. -1.
       -2   -1    0    0    0  501  0.00000000000E+00  0.00000000000E+00 -0.24197781860E+04  0.24197781860E+04  0.25500000920E-02 0.  1.
    10030    2    1    2    0    0  0.00000000000E+00  0.00000000000E+00 -0.62354208884E+03  0.42160142831E+04  0.41696488700E+04 0.  0.
        1    1    3    3  502    0 -0.98622132873E+03 -0.11529906181E+04  0.11339792333E+04  0.18941828783E+04  0.50400001928E-02 0. -1.
       -1    1    3    3    0  502  0.98622132873E+03  0.11529906181E+04 -0.17575213221E+04  0.23218314048E+04  0.50400001928E-02 0.  1.
</event>
<event>
 5   0  0.3399500E-08  0.3993760E+04  0.7818609E-02  0.8005807E-01
        1   -1    0    0  501    0  0.00000000000E+00  0.00000000000E+00  0.25780167175E+04  0.25780167175E+04  0.50400001928E-02 0. -1.
       -1   -1    0    0    0  501  0.00000000000E+00  0.00000000000E+00 -0.15467430593E+04  0.15467430593E+04  0.50400001928E-02 0.  1.
    10030    2    1    2    0    0  0.00000000000E+00  0.00000000000E+00  0.10312736582E+04  0.41247597768E+04  0.39937598648E+04 0.  0.
        1    1    3    3  502    0 -0.77864965302E+02  0.18563809034E+04 -0.24001547047E+03  0.18734514772E+04  0.50400001928E-02 0.  1.
       -1    1    3    3    0  502  0.77864965302E+02 -0.18563809034E+04  0.12712891287E+04  0.22513082996E+04  0.50400001928E-02 0. -1.
</event>
<event>
 5   0  0.1095109E-07  0.4086677E+04  0.7818609E-02  0.7987286E-01
       -2   -1    0    0    0  501  0.00000000000E+00  0.00000000000E+00  0.15906076876E+04  0.15906076876E+04  0.25500000920E-02 0.  1.
        2   -1    0    0  501    0  0.00000000000E+00  0.00000000000E+00 -0.26249294187E+04  0.26249294187E+04  0.25500000920E-02 0. -1.
    10030    2    1    2    0    0  0.00000000000E+00  0.00000000000E+00 -0.10343217311E+04  0.42155371062E+04  0.40866773363E+04 0.  0.
        4    1    3    3  502    0 -0.11168931113E+04 -0.14987318277E+03 -0.22754062548E+04  0.25391706186E+04  0.12699999809E+01 0. -1.
       -4    1    3    3    0  502  0.11168931113E+04  0.14987318277E+03  0.12410845237E+04  0.16763664876E+04  0.12699999809E+01 0.  1.
</event>
<event>
 5   0  0.1095903E-07  0.3969719E+04  0.7818609E-02  0.8010683E-01
        2   -1    0    0  501    0  0.00000000000E+00  0.00000000000E+00  0.22427436288E+04  0.22427436288E+04  0.25500000920E-02 0.  1.
       -2   -1    0    0    0  501  0.00000000000E+00  0.00000000000E+00 -0.17566280145E+04  0.17566280145E+04  0.25500000920E-02 0. -1.
    10030    2    1    2    0    0  0.00000000000E+00  0.00000000000E+00  0.48611561426E+03  0.39993716433E+04  0.39697185229E+04 0.  0.
        3    1    3    3  502    0  0.87468958539E+03 -0.10885102174E+04 -0.11780568340E+04  0.18269521829E+04  0.10100000352E+00 0. -1.
       -3    1    3    3    0  502 -0.87468958539E+03  0.10885102174E+04  0.16641724483E+04  0.21724194604E+04  0.10100000352E+00 0.  1.
</event>
<event>
 5   0  0.1087688E-07  0.4035300E+04  0.7818609E-02  0.7997463E-01
       -2   -1    0    0    0  501  0.00000000000E+00  0.00000000000E+00  0.13639852460E+04  0.13639852460E+04  0.25500000920E-02 0. -1.
        2   -1    0    0  501    0  0.00000000000E+00  0.00000000000E+00 -0.29845708746E+04  0.29845708746E+04  0.25500000920E-02 0.  1.
    10030    2    1    2    0    0  0.00000000000E+00  0.00000000000E+00 -0.16205856286E+04  0.43485561206E+04  0.40352995619E+04 0.  0.
        2    1    3    3  502    0  0.86050727574E+03  0.81765403591E+03  0.94788791146E+03  0.15190531218E+04  0.25500000920E-02 0. -1.
       -2    1    3    3    0  502 -0.86050727574E+03 -0.81765403591E+03 -0.25684735401E+04  0.28295029988E+04  0.25500000920E-02 0.  1.
</event>
<event>
 5   0  0.1073271E-07  0.3950335E+04  0.7818609E-02  0.8014641E-01
        2   -1    0    0  501    0  0.00000000000E+00  0.00000000000E+00  0.27771511977E+04  0.27771511977E+04  0.25500000920E-02 0. -1.
       -2   -1    0    0    0  501  0.00000000000E+00  0.00000000000E+00 -0.14047800502E+04  0.14047800502E+04  0.25500000920E-02 0.  1.
    10030    2    1    2    0    0  0.00000000000E+00  0.00000000000E+00  0.13723711474E+04  0.41819312479E+04  0.39503349726E+04 0.  0.
        1    1    3    3  502    0  0.18014092635E+04  0.80128716485E+03  0.81211388768E+03  0.21322911203E+04  0.50400001928E-02 0. -1.
       -1    1    3    3    0  502 -0.18014092635E+04 -0.80128716485E+03  0.56025725974E+03  0.20496401275E+04  0.50400001928E-02 0.  1.
</event>
<event>
 5   0  0.3399500E-08  0.4066789E+04  0.7818609E-02  0.7991207E-01
       -1   -1    0    0    0  501  0.00000000000E+00  0.00000000000E+00  0.22704239642E+04  0.22704239642E+04  0.50400001928E-02 0.  1.
        1   -1    0    0  501    0  0.00000000000E+00  0.00000000000E+00 -0.18211102236E+04  0.18211102236E+04  0.50400001928E-02 0. -1.
    10030    2    1    2    0    0  0.00000000000E+00  0.00000000000E+00  0.44931374059E+03  0.40915341878E+04  0.40667885576E+04 0.  0.
        4    1    3    3  502    0  0.11023055364E+04 -0.83240331268E+03  0.17259558606E+04  0.22106329447E+04  0.12699999809E+01 0.  1.
       -4    1    3    3    0  502 -0.11023055364E+04  0.83240331268E+03 -0.12766421200E+04  0.18809012430E+04  0.12699999809E+01 0. -1.
</event>
<event>
 5   0  0.1087688E-07  0.4002669E+04  0.7818609E-02  0.8004008E-01
       -2   -1    0    0    0  501  0.00000000000E+00  0.00000000000E+00  0.21742286870E+04  0.21742286870E+04  0.25500000920E-02 0.  1.
        2   -1    0    0  501    0  0.00000000000E+00  0.00000000000E+00 -0.18421889717E+04  0.18421889717E+04  0.25500000920E-02 0. -1.
    10030    2    1    2    0    0  0.00000000000E+00  0.00000000000E+00  0.33203971537E+03  0.40164176587E+04  0.40026691640E+04 0.  0.
        2    1    3    3  502    0  0.40241183870E+02  0.64183917528E+03 -0.17356845907E+04  0.18509937543E+04  0.25500000920E-02 0. -1.
       -2    1    3    3    0  502 -0.40241183870E+02 -0.64183917528E+03  0.20677243061E+04  0.21654239044E+04  0.25500000920E-02 0.  1.
</event>
<event>
 5   0  0.3399500E-08  0.4023197E+04  0.7818609E-02  0.7999883E-01
        1   -1    0    0  501    0  0.00000000000E+00  0.00000000000E+00  0.12714988376E+04  0.12714988376E+04  0.50400001928E-02 0.  1.
       -1   -1    0    0    0  501  0.00000000000E+00  0.00000000000E+00 -0.31824872384E+04  0.31824872384E+04  0.50400001928E-02 0. -1.
    10030    2    1    2    0    0  0.00000000000E+00  0.00000000000E+00 -0.19109884008E+04  0.44539860760E+04  0.40231971487E+04 0.  0.
        5    1    3    3  502    0 -0.19030846813E+04 -0.43012886764E+03 -0.14975825329E+04  0.24595767277E+04  0.46999998093E+01 0. -1.
       -5    1    3    3    0  502  0.19030846813E+04  0.43012886764E+03 -0.41340586789E+03  0.19944093483E+04  0.46999998093E+01 0.  1.
</event>
<event>
 5   0  0.3399500E-08  0.3966567E+04  0.7818609E-02  0.8011325E-01
       -1   -1    0    0    0  501  0.00000000000E+00  0.00000000000E+00  0.14120005742E+04  0.14120005742E+04  0.50400001928E-02 0.  1.
        1   -1    0    0  501    0  0.00000000000E+00  0.00000000000E+00 -0.27857023841E+04  0.27857023841E+04  0.50400001928E-02 0. -1.
    10030    2    1    2    0    0  0.00000000000E+00  0.00000000000E+00 -0.13737018098E+04  0.41977029583E+04  0.39665669620E+04 0.  0.
        4    1    3    3  502    0 -0.84164729754E+03 -0.27453160260E+03  0.11912966723E+04  0.14842261110E+04  0.12699999809E+01 0.  1.
       -4    1    3    3    0  502  0.84164729754E+03  0.27453160260E+03 -0.25649984822E+04  0.27134768473E+04  0.12699999809E+01 0. -1.
</event>
<event>
 5   0  0.3399500E-08  0.3987333E+04  0.7818609E-02  0.8007107E-01
        1   -1    0    0  501    0  0.00000000000E+00  0.00000000000E+00  0.26725554653E+04  0.26725554653E+04  0.50400001928E-02 0. -1.
       -1   -1    0    0    0  501  0.00000000000E+00  0.00000000000E+00 -0.14872305960E+04  0.14872305960E+04  0.50400001928E-02 0.  1.
    10030    2    1    2    0    0  0.00000000000E+00  0.00000000000E+00  0.11853248693E+04  0.41597860613E+04  0.39873330724E+04 0.  0.
        2    1    3    3  502    0  0.11747557545E+04 -0.10824419808E+04  0.18371399209E+04  0.24345050448E+04  0.25500000920E-02 0. -1.
       -2    1    3    3    0  502 -0.11747557545E+04  0.10824419808E+04 -0.65181505152E+03  0.17252810165E+04  0.25500000920E-02 0.  1.
</event>
<event>
 5   0  0.3399500E-08  0.3929027E+04  0.7818609E-02  0.8019019E-01
       -3   -1    0    0    0  501  0.00000000000E+00  0.00000000000E+00  0.26835104489E+04  0.26835104508E+04  0.10100000352E+00 0. -1.
        3   -1    0    0  501    0  0.00000000000E+00  0.00000000000E+00 -0.14381583938E+04  0.14381583973E+04  0.10100000352E+00 0.  1.
    10030    2    1    2    0    0  0.00000000000E+00  0.00000000000E+00  0.12453520551E+04  0.41216688481E+04  0.39290268963E+04 0.  0.
        2    1    3    3  502    0 -0.13873980206E+04 -0.25587389645E+02  0.20814640858E+04  0.25016036302E+04  0.25500000920E-02 0. -1.
       -2    1    3    3    0  502  0.13873980206E+04  0.25587389645E+02 -0.83611203072E+03  0.16200652178E+04  0.25500000920E-02 0.  1.
</event>
<event>
 5   0  0.1073271E-07  0.3958911E+04  0.7818609E-02  0.8012887E-01
        2   -1    0    0  501    0  0.00000000000E+00  0.00000000000E+00  0.22398352791E+04  0.22398352791E+04  0.25500000920E-02 0. -1.
       -2   -1    0    0    0  501  0.00000000000E+00  0.00000000000E+00 -0.17493451382E+04  0.17493451382E+04  0.25500000920E-02 0.  1.
    10030    2    1    2    0    0  0.00000000000E+00  0.00000000000E+00  0.49049014091E+03  0.39891804173E+04  0.39589114442E+04 0.  0.
        1    1    3    3  502    0  0.14830531122E+04 -0.87120631184E+03  0.12324283889E+04  0.21159694480E+04  0.50400001928E-02 0. -1.
       -1    1    3    3    0  502 -0.14830531122E+04  0.87120631184E+03 -0.74193824798E+03  0.18732109692E+04  0.50400001928E-02 0.  1.
</event>
<event>
 5   0  0.1095109E-07  0.3992039E+04  0.7818609E-02  0.8006154E-01
       -2   -1    0    0    0  501  0.00000000000E+00  0.00000000000E+00  0.24015877740E+04  0.24015877740E+04  0.25500000920E-02 0.  1.
        2   -1    0    0  501    0  0.00000000000E+00  0.00000000000E+00 -0.16589419942E+04  0.16589419942E+04  0.25500000920E-02 0. -1.
    10030    2    1    2    0    0  0.00000000000E+00  0.00000000000E+00  0.74264577982E+03  0.40605297682E+04  0.39920394843E+04 0.  0.
        4    1    3    3  502    0  0.15058796949E+04  0.28768748512E+03 -0.92875120298E+03  0.17924893736E+04  0.12699999809E+01 0. -1.
       -4    1    3    3    0  502 -0.15058796949E+04 -0.28768748512E+03  0.16713969828E+04  0.22680403946E+04  0.12699999809E+01 0.  1.
</event>
<event>
 5   0  0.1095903E-07  0.4018612E+04  0.7818609E-02  0.8000802E-01
        2   -1    0    0  501    0  0.00000000000E+00  0.00000000000E+00  0.25994729215E+04  0.25994729215E+04  0.25500000920E-02 0.  1.
       -2   -1    0    0    0  501  0.00000000000E+00  0.00000000000E+00 -0.15531265159E+04  0.15531265159E+04  0.25500000920E-02 0. -1.
    10030    2    1    2    0    0  0.00000000000E+00  0.00000000000E+00  0.10463464056E+04  0.41525994374E+04  0.40186118607E+04 0.  0.
        3    1    3    3  502    0  0.39916216810E+02  0.65207782358E+03 -0.14403152274E+04  0.15815520089E+04  0.10100000352E+00 0. -1.
       -3    1    3    3    0  502 -0.39916216810E+02 -0.65207782358E+03  0.24866616330E+04  0.25710474285E+04  0.10100000352E+00 0.  1.
</event>
<event>
 5   0  0.3399500E-08  0.3684893E+04  0.7818609E-02  0.8071318E-01
        1   -1    0    0  501    0  0.00000000000E+00  0.00000000000E+00  0.24227061257E+04  0.24227061257E+04  0.50400001928E-02 0. -1.
       -1   -1    0    0    0  501  0.00000000000E+00  0.00000000000E+00 -0.14011638817E+04  0.14011638817E+04  0.50400001928E-02 0.  1.
    10030    2    1    2    0    0  0.00000000000E+00  0.00000000000E+00  0.10215422440E+04  0.38238700074E+04  0.36848925734E+04 0.  0.
        2    1    3    3  502    0  0.13902920788E+04  0.80989403467E+03 -0.42072976296E+03  0.16630856698E+04  0.25500000920E-02 0.  1.
       -2    1    3    3    0  502 -0.13902920788E+04 -0.80989403467E+03  0.14422720069E+04  0.21607843376E+04  0.25500000920E-02 0. -1.
</event>
<event>
 5   0  0.3399500E-08  0.4003603E+04  0.7818609E-02  0.8003820E-01
        1   -1    0    0  501    0  0.00000000000E+00  0.00000000000E+00  0.16974381503E+04  0.16974381503E+04  0.50400001928E-02 0. -1.
       -1   -1    0    0    0  501  0.00000000000E+00  0.00000000000E+00 -0.23607389590E+04  0.23607389590E+04  0.50400001928E-02 0.  1.
    10030    2    1    2    0    0  0.00000000000E+00  0.00000000000E+00 -0.66330080878E+03  0.40581771093E+04  0.40036025637E+04 0.  0.
        2    1    3    3  502    0  0.19944924753E+04 -0.93200549449E+02 -0.18644335031E+03  0.20053547565E+04  0.25500000920E-02 0. -1.
       -2    1    3    3    0  502 -0.19944924753E+04  0.93200549449E+02 -0.47685745846E+03  0.20528223528E+04  0.25500000920E-02 0.  1.
</event>
<event>
 5   0  0.3399500E-08  0.3975827E+04  0.7818609E-02  0.8009441E-01
       -1   -1    0    0    0  501  0.00000000000E+00  0.00000000000E+00  0.27664339917E+04  0.27664339917E+04  0.50400001928E-02 0. -1.
        1   -1    0    0  501    0  0.00000000000E+00  0.00000000000E+00 -0.14284815426E+04  0.14284815426E+04  0.50400001928E-02 0.  1.
    10030    2    1    2    0    0  0.00000000000E+00  0.00000000000E+00  0.13379524491E+04  0.41949155343E+04  0.39758269056E+04 0.  0.
        4    1    3    3  502    0 -0.90462803511E+03  0.44813543925E+02  0.25360766210E+04  0.26929623793E+04  0.12699999809E+01 0. -1.
       -4    1    3    3    0  502  0.90462803511E+03 -0.44813543925E+02 -0.11981241719E+04  0.15019531550E+04  0.12699999809E+01 0.  1.
</event>
<event>
 5   0  0.3399500E-08  0.4011411E+04  0.7818609E-02  0.8002248E-01
        1   -1    0    0  501    0  0.00000000000E+00  0.00000000000E+00  0.26053150293E+04  0.26053150293E+04  0.50400001928E-02 0.  1.
       -1   -1    0    0    0  501  0.00000000000E+00  0.00000000000E+00 -0.15440955669E+04  0.15440955669E+04  0.50400001928E-02 0. -1.
    10030    2    1    2    0    0  0.00000000000E+00  0.00000000000E+00  0.10612194624E+04  0.41494105962E+04  0.40114114160E+04 0.  0.
        3    1    3    3  502    0  0.18783741655E+04 -0.64532122712E+03  0.81973634555E+03  0.21486499664E+04  0.10100000352E+00 0.  1.
       -3    1    3    3    0  502 -0.18783741655E+04  0.64532122712E+03  0.24148311689E+03  0.20007606298E+04  0.10100000352E+00 0. -1.
</event>
<event>
 5   0  0.1095109E-07  0.3943571E+04  0.7818609E-02  0.8016028E-01
       -2   -1    0    0    0  501  0.00000000000E+00  0.00000000000E+00  0.17379035699E+04  0.17379035699E+04  0.25500000920E-02 0. -1.
        2   -1    0    0  501    0  0.00000000000E+00  0.00000000000E+00 -0.22371428530E+04  0.22371428530E+04  0.25500000920E-02 0.  1.
    10030    2    1    2    0    0  0.00000000000E+00  0.00000000000E+00 -0.49923928311E+03  0.39750464229E+04  0.39435712498E+04 0.  0.
        4    1    3    3  502    0 -0.39756633636E+03  0.12148911316E+03  0.16932284244E+04  0.17435144698E+04  0.12699999809E+01 0. -1.
       -4    1    3    3    0  502  0.39756633636E+03 -0.12148911316E+03 -0.21924677075E+04  0.22315319531E+04  0.12699999809E+01 0.  1.
</event>
<event>
 5   0  0.1101474E-07  0.3844304E+04  0.7818609E-02  0.8036714E-01
       -2   -1    0    0    0  501  0.00000000000E+00  0.00000000000E+00  0.20899376646E+04  0.20899376646E+04  0.25500000920E-02 0. -1.
        2   -1    0    0  501    0  0.00000000000E+00  0.00000000000E+00 -0.17678366770E+04  0.17678366770E+04  0.25500000920E-02 0.  1.
    10030    2    1    2    0    0  0.00000000000E+00  0.00000000000E+00  0.32210098757E+03  0.38577743416E+04  0.38443040755E+04 0.  0.
        5    1    3    3  502    0  0.99907740016E+03 -0.15599167045E+04 -0.35372902791E+03  0.18859061725E+04  0.46999998093E+01 0.  1.
       -5    1    3    3    0  502 -0.99907740016E+03  0.15599167045E+04  0.67583001549E+03  0.19718681691E+04  0.46999998093E+01 0. -1.
</event>
<event>
 5   0  0.3399500E-08  0.4049449E+04  0.7818609E-02  0.7994645E-01
        1   -1    0    0  501    0  0.00000000000E+00  0.00000000000E+00  0.23533189729E+04  0.23533189730E+04  0.50400001928E-02 0. -1.
       -1   -1    0    0    0  501  0.00000000000E+00  0.00000000000E+00 -0.17420114124E+04  0.17420114124E+04  0.50400001928E-02 0.  1.
    10030    2    1    2    0    0  0.00000000000E+00  0.00000000000E+00  0.61130756058E+03  0.40953303853E+04  0.40494486083E+04 0.  0.
        5    1    3    3  502    0  0.17986324965E+04  0.16467193002E+03 -0.61974983054E+03  0.19095307394E+04  0.46999998093E+01 0. -1.
       -5    1    3    3    0  502 -0.17986324965E+04 -0.16467193002E+03  0.12310573911E+04  0.21857996460E+04  0.46999998093E+01 0.  1.
</event>
<event>
 5   0  0.1073271E-07  0.4004752E+04  0.7818609E-02  0.8003589E-01
        2   -1    0    0  501    0  0.00000000000E+00  0.00000000000E+00  0.20683837763E+04  0.20683837763E+04  0.25500000920E-02 0.  1.
       -2   -1    0    0    0  501  0.00000000000E+00  0.00000000000E+00 -0.19384744523E+04  0.19384744523E+04  0.25500000920E-02 0. -1.
    10030    2    1    2    0    0  0.00000000000E+00  0.00000000000E+00  0.12990932404E+03  0.40068582286E+04  0.40047517316E+04 0.  0.
        1    1    3    3  502    0 -0.16543185582E+04  0.11274128928E+04  0.10595651665E+03  0.20047584659E+04  0.50400001928E-02 0.  1.
       -1    1    3    3    0  502  0.16543185582E+04 -0.11274128928E+04  0.23952807390E+02  0.20020997627E+04  0.50400001928E-02 0. -1.
</event>
<event>
 5   0  0.1087688E-07  0.3984753E+04  0.7818609E-02  0.8007629E-01
       -2   -1    0    0    0  501  0.00000000000E+00  0.00000000000E+00  0.14859795187E+04  0.14859795187E+04  0.25500000920E-02 0.  1.
        2   -1    0    0  501    0  0.00000000000E+00  0.00000000000E+00 -0.26713447659E+04  0.26713447659E+04  0.25500000920E-02 0. -1.
    10030    2    1    2    0    0  0.00000000000E+00  0.00000000000E+00 -0.11853652472E+04  0.41573242846E+04  0.39847527449E+04 0.  0.
        2    1    3    3  502    0 -0.65041563954E+03 -0.76256306237E+03 -0.23891791722E+04  0.25908917471E+04  0.25500000920E-02 0. -1.
       -2    1    3    3    0  502  0.65041563954E+03  0.76256306237E+03  0.12038139250E+04  0.15664325374E+04  0.25500000920E-02 0.  1.
</event>
<event>
 5   0  0.1087688E-07  0.4008726E+04  0.7818609E-02  0.8002789E-01
        2   -1    0    0  501    0  0.00000000000E+00  0.00000000000E+00  0.22373391751E+04  0.22373391751E+04  0.25500000920E-02 0. -1.
       -2   -1    0    0    0  501  0.00000000000E+00  0.00000000000E+00 -0.17956468413E+04  0.17956468413E+04  0.25500000920E-02 0.  1.
    10030    2    1    2    0    0  0.00000000000E+00  0.00000000000E+00  0.44169233384E+03  0.40329860164E+04  0.40087259935E+04 0.  0.
        2    1    3    3  502    0  0.62722736307E+03 -0.90822331358E+03 -0.14623561539E+04  0.18321488130E+04  0.25500000920E-02 0.  1.
       -2    1    3    3    0  502 -0.62722736307E+03  0.90822331358E+03  0.19040484877E+04  0.22008372034E+04  0.25500000920E-02 0. -1.
</event>
<event>
 5   0  0.3399500E-08  0.3992847E+04  0.7818609E-02  0.8005991E-01
       -1   -1    0    0    0  501  0.00000000000E+00  0.00000000000E+00  0.26232767889E+04  0.26232767889E+04  0.50400001928E-02 0.  1.
        1   -1    0    0  501    0  0.00000000000E+00  0.00000000000E+00 -0.15193619250E+04  0.15193619250E+04  0.50400001928E-02 0. -1.
    10030    2    1    2    0    0  0.00000000000E+00  0.00000000000E+00  0.11039148639E+04  0.41426387140E+04  0.39928470404E+04 0.  0.
        4    1    3    3  502    0  0.10618140249E+04 -0.11308113460E+04 -0.75198139333E+03  0.17238506178E+04  0.12699999809E+01 0. -1.
       -4    1    3    3    0  502 -0.10618140249E+04  0.11308113460E+04  0.18558962572E+04  0.24187880962E+04  0.12699999809E+01 0.  1.
</event>
<event>
 5   0  0.3399500E-08  0.4019774E+04  0.7818609E-02  0.8000569E-01
       -1   -1    0    0    0  501  0.00000000000E+00  0.00000000000E+00  0.23380264369E+04  0.23380264369E+04  0.50400001928E-02 0.  1.
        1   -1    0    0  501    0  0.00000000000E+00  0.00000000000E+00 -0.17278012323E+04  0.17278012323E+04  0.50400001928E-02 0. -1.
    10030    2    1    2    0    0  0.00000000000E+00  0.00000000000E+00  0.61022520466E+03  0.40658276692E+04  0.40197736049E+04 0.  0.
        1    1    3    3  502    0 -0.38593567960E+03  0.11199859470E+04  0.19473928369E+04  0.22793976686E+04  0.50400001928E-02 0.  1.
       -1    1    3    3    0  502  0.38593567960E+03 -0.11199859470E+04 -0.13371676322E+04  0.17864300006E+04  0.50400001928E-02 0. -1.
</event>
<event>
 5   0  0.1101474E-07  0.3996230E+04  0.7818609E-02  0.8005307E-01
        2   -1    0    0  501    0  0.00000000000E+00  0.00000000000E+00  0.22534022127E+04  0.22534022127E+04  0.25500000920E-02 0. -1.
       -2   -1    0    0    0  501  0.00000000000E+00  0.00000000000E+00 -0.17717493144E+04  0.17717493144E+04  0.25500000920E-02 0.  1.
    10030    2    1    2    0    0  0.00000000000E+00  0.00000000000E+00  0.48165289826E+03  0.40251515271E+04  0.39962301363E+04 0.  0.
        5    1    3    3  502    0 -0.19743233955E+04 -0.11485249132E+02  0.55022530353E+03  0.20495986816E+04  0.46999998093E+01 0.  1.
       -5    1    3    3    0  502  0.19743233955E+04  0.11485249132E+02 -0.68572405272E+02  0.19755528456E+04  0.46999998093E+01 0. -1.
</event>
<event>
 5   0  0.3399500E-08  0.4000860E+04  0.7818609E-02  0.8004373E-01
        1   -1    0    0  501    0  0.00000000000E+00  0.00000000000E+00  0.25275244335E+04  0.25275244335E+04  0.50400001928E-02 0.  1.
       -1   -1    0    0    0  501  0.00000000000E+00  0.00000000000E+00 -0.15832569300E+04  0.15832569300E+04  0.50400001928E-02 0. -1.
    10030    2    1    2    0    0  0.00000000000E+00  0.00000000000E+00  0.94426750355E+03  0.41107813635E+04  0.40008601950E+04 0.  0.
        5    1    3    3  502    0  0.60390547975E+03  0.26487958090E+03 -0.14683613071E+04  0.16096490422E+04  0.46999998093E+01 0. -1.
       -5    1    3    3    0  502 -0.60390547975E+03 -0.26487958090E+03  0.24126288106E+04  0.25011323213E+04  0.46999998093E+01 0.  1.
</event>
<event>
 5   0  0.1087688E-07  0.4016549E+04  0.7818609E-02  0.8001216E-01
        2   -1    0    0  501    0  0.00000000000E+00  0.00000000000E+00  0.26104622534E+04  0.26104622534E+04  0.25500000920E-02 0.  1.
       -2   -1    0    0    0  501  0.00000000000E+00  0.00000000000E+00 -0.15450006347E+04  0.15450006347E+04  0.25500000920E-02 0. -1.
    10030    2    1    2    0    0  0.00000000000E+00  0.00000000000E+00  0.10654616188E+04  0.41554628881E+04  0.40165486868E+04 0.  0.
        2    1    3    3  502    0 -0.38110339498E+03 -0.19035339965E+04  0.10647978711E+04  0.22141535583E+04  0.25500000920E-02 0.  1.
       -2    1    3    3    0  502  0.38110339498E+03  0.19035339965E+04  0.66374764190E+00  0.19413093298E+04  0.25500000920E-02 0. -1.
</event>
<event>
 5   0  0.1095109E-07  0.4000855E+04  0.7818609E-02  0.8004374E-01
       -2   -1    0    0    0  501  0.00000000000E+00  0.00000000000E+00  0.27110247787E+04  0.27110247787E+04  0.25500000920E-02 0.  1.
        2   -1    0    0  501    0  0.00000000000E+00  0.00000000000E+00 -0.14760879037E+04  0.14760879037E+04  0.25500000920E-02 0. -1.
    10030    2    1    2    0    0  0.00000000000E+00  0.00000000000E+00  0.12349368749E+04  0.41871126824E+04  0.40008553498E+04 0.  0.
        4    1    3    3  502    0 -0.19045239418E+04  0.61136188829E+03  0.58910572626E+03  0.20851911118E+04  0.12699999809E+01 0.  1.
       -4    1    3    3    0  502  0.19045239418E+04 -0.61136188829E+03  0.64583114868E+03  0.21019215706E+04  0.12699999809E+01 0. -1.
</event>
<event>
 5   0  0.3399500E-08  0.3985758E+04  0.7818609E-02  0.8007426E-01
        1   -1    0    0  501    0  0.00000000000E+00  0.00000000000E+00  0.28253226337E+04  0.28253226337E+04  0.50400001928E-02 0. -1.
       -1   -1    0    0    0  501  0.00000000000E+00  0.00000000000E+00 -0.14057037738E+04  0.14057037738E+04  0.50400001928E-02 0.  1.
    10030    2    1    2    0    0  0.00000000000E+00  0.00000000000E+00  0.14196188599E+04  0.42310264075E+04  0.39857579898E+04 0.  0.
        4    1    3    3  502    0 -0.17719519070E+03  0.19288954884E+04  0.21243793310E+03  0.19486321944E+04  0.12699999809E+01 0. -1.
       -4    1    3    3    0  502  0.17719519070E+03 -0.19288954884E+04  0.12071809268E+04  0.22823942130E+04  0.12699999809E+01 0.  1.
</event>
<event>
 5   0  0.1101474E-07  0.4035506E+04  0.7818609E-02  0.7997422E-01
       -2   -1    0    0    0  501  0.00000000000E+00  0.00000000000E+00  0.22850188461E+04  0.22850188461E+04  0.25500000920E-02 0. -1.
        2   -1    0    0  501    0  0.00000000000E+00  0.00000000000E+00 -0.17817475141E+04  0.17817475142E+04  0.25500000920E-02 0.  1.
    10030    2    1    2    0    0  0.00000000000E+00  0.00000000000E+00  0.50327133198E+03  0.40667663603E+04  0.40355057422E+04 0.  0.
        5    1    3    3  502    0 -0.44142622652E+03  0.10566591621E+04  0.19258051056E+04  0.22405653512E+04  0.46999998093E+01 0. -1.
       -5    1    3    3    0  502  0.44142622652E+03 -0.10566591621E+04 -0.14225337736E+04  0.18262010091E+04  0.46999998093E+01 0.  1.
</event>
<event>
 5   0  0.1095903E-07  0.3601782E+04  0.7818609E-02  0.8090084E-01
       -2   -1    0    0    0  501  0.00000000000E+00  0.00000000000E+00  0.12943929404E+04  0.12943929404E+04  0.25500000920E-02 0.  1.
        2   -1    0    0  501    0  0.00000000000E+00  0.00000000000E+00 -0.25055824933E+04  0.25055824933E+04  0.25500000920E-02 0. -1.
    10030    2    1    2    0    0  0.00000000000E+00  0.00000000000E+00 -0.12111895529E+04  0.37999754337E+04  0.36017819428E+04 0.  0.
        3    1    3    3  502    0 -0.53960998747E+03  0.15885930696E+04  0.84945181297E+02  0.16798876669E+04  0.10100000352E+00 0.  1.
       -3    1    3    3    0  502  0.53960998747E+03 -0.15885930696E+04 -0.12961347342E+04  0.21200877667E+04  0.10100000352E+00 0. -1.
</event>
<event>
 5   0  0.1095109E-07  0.4010628E+04  0.7818609E-02  0.8002406E-01
       -2   -1    0    0    0  501  0.00000000000E+00  0.00000000000E+00  0.16737291572E+04  0.16737291572E+04  0.25500000920E-02 0.  1.
        2   -1    0    0  501    0  0.00000000000E+00  0.00000000000E+00 -0.24025898084E+04  0.24025898084E+04  0.25500000920E-02 0. -1.
    10030    2    1    2    0    0  0.00000000000E+00  0.00000000000E+00 -0.72886065118E+03  0.40763189656E+04  0.40106281878E+04 0.  0.
        4    1    3    3  502    0  0.16545984781E+04  0.92622066802E+03  0.29871495146E+03  0.19195866963E+04  0.12699999809E+01 0. -1.
       -4    1    3    3    0  502 -0.16545984781E+04 -0.92622066802E+03 -0.10275756026E+04  0.21567322693E+04  0.12699999809E+01 0.  1.
</event>
<event>
 5   0  0.3399500E-08  0.3987150E+04  0.7818609E-02  0.8007144E-01
       -1   -1    0    0    0  501  0.00000000000E+00  0.00000000000E+00  0.22246457752E+04  0.22246457752E+04  0.50400001928E-02 0.  1.
        1   -1    0    0  501    0  0.00000000000E+00  0.00000000000E+00 -0.17865053031E+04  0.17865053031E+04  0.50400001928E-02 0. -1.
    10030    2    1    2    0    0  0.00000000000E+00  0.00000000000E+00  0.43814047207E+03  0.40111510784E+04  0.39871500975E+04 0.  0.
        2    1    3    3  502    0 -0.16253668931E+04  0.16390889919E+03  0.13686023812E+04  0.21311396346E+04  0.25500000920E-02 0.  1.
       -2    1    3    3    0  502  0.16253668931E+04 -0.16390889919E+03 -0.93046190908E+03  0.18800114438E+04  0.25500000920E-02 0. -1.
</event>
<event>
 5   0  0.1095903E-07  0.4024663E+04  0.7818609E-02  0.7999590E-01
       -2   -1    0    0    0  501  0.00000000000E+00  0.00000000000E+00  0.20017296018E+04  0.20017296018E+04  0.25500000920E-02 0.  1.
        2   -1    0    0  501    0  0.00000000000E+00  0.00000000000E+00 -0.20229892966E+04  0.20229892966E+04  0.25500000920E-02 0. -1.
    10030    2    1    2    0    0  0.00000000000E+00  0.00000000000E+00 -0.21259694806E+02  0.40247188984E+04  0.40246627482E+04 0.  0.
        3    1    3    3  502    0  0.17038131941E+04 -0.73761700105E+03  0.76553773617E+03  0.20082595142E+04  0.10100000352E+00 0. -1.
       -3    1    3    3    0  502 -0.17038131941E+04  0.73761700105E+03 -0.78679743098E+03  0.20164593842E+04  0.10100000352E+00 0.  1.
</event>
<event>
 5   0  0.3399500E-08  0.3912689E+04  0.7818609E-02  0.8022395E-01
       -1   -1    0    0    0  501  0.00000000000E+00  0.00000000000E+00  0.26144468314E+04  0.26144468314E+04  0.50400001928E-02 0.  1.
        1   -1    0    0  501    0  0.00000000000E+00  0.00000000000E+00 -0.14638980359E+04  0.14638980359E+04  0.50400001928E-02 0. -1.
    10030    2    1    2    0    0  0.00000000000E+00  0.00000000000E+00  0.11505487955E+04  0.40783448674E+04  0.39126888870E+04 0.  0.
        5    1    3    3  502    0  0.11984556757E+04 -0.83662108538E+03  0.19307271049E+04  0.24215614984E+04  0.46999998093E+01 0.  1.
       -5    1    3    3    0  502 -0.11984556757E+04  0.83662108538E+03 -0.78017830938E+03  0.16567833689E+04  0.46999998093E+01 0. -1.
</event>
<event>
 5   0  0.1095109E-07  0.3996106E+04  0.7818609E-02  0.8005333E-01
        2   -1    0    0  501    0  0.00000000000E+00  0.00000000000E+00  0.12809134816E+04  0.12809134816E+04  0.25500000920E-02 0. -1.
       -2   -1    0    0    0  501  0.00000000000E+00  0.00000000000E+00 -0.31166947298E+04  0.31166947298E+04  0.25500000920E-02 0.  1.
    10030    2    1    2    0    0  0.00000000000E+00  0.00000000000E+00 -0.18357812482E+04  0.43976082113E+04  0.39961062535E+04 0.  0.
        4    1    3    3  502    0 -0.17876918521E+04  0.34330253015E+03 -0.11407920304E+02  0.18203929627E+04  0.12699999809E+01 0. -1.
       -4    1    3    3    0  502  0.17876918521E+04 -0.34330253015E+03 -0.18243733279E+04  0.25772152486E+04  0.12699999809E+01 0.  1.
</event>
<event>
 5   0  0.3399500E-08  0.4075766E+04  0.7818609E-02  0.7989434E-01
       -1   -1    0    0    0  501  0.00000000000E+00  0.00000000000E+00  0.31757261083E+04  0.31757261083E+04  0.50400001928E-02 0. -1.
        1   -1    0    0  501    0  0.00000000000E+00  0.00000000000E+00 -0.13077219074E+04  0.13077219074E+04  0.50400001928E-02 0.  1.
    10030    2    1    2    0    0  0.00000000000E+00  0.00000000000E+00  0.18680042008E+04  0.44834480157E+04  0.40757657459E+04 0.  0.
        1    1    3    3  502    0 -0.16075651411E+04 -0.46073696699E+03 -0.34714912124E+03  0.17079393279E+04  0.50400001928E-02 0.  1.
       -1    1    3    3    0  502  0.16075651411E+04  0.46073696699E+03  0.22151533221E+04  0.27755086878E+04  0.50400001928E-02 0. -1.
</event>
<event>
 5   0  0.1101474E-07  0.3997919E+04  0.7818609E-02  0.8004967E-01
       -2   -1    0    0    0  501  0.00000000000E+00  0.00000000000E+00  0.14805759943E+04  0.14805759943E+04  0.25500000920E-02 0.  1.
        2   -1    0    0  501    0  0.00000000000E+00  0.00000000000E+00 -0.26988406403E+04  0.26988406403E+04  0.25500000920E-02 0. -1.
    10030    2    1    2    0    0  0.00000000000E+00  0.00000000000E+00 -0.12182646460E+04  0.41794166345E+04  0.39979187907E+04 0.  0.
        5    1    3    3  502    0  0.44400271194E+03 -0.12477201755E+04 -0.21743947361E+04  0.25459690891E+04  0.46999998093E+01 0. -1.
       -5    1    3    3    0  502 -0.44400271194E+03  0.12477201755E+04  0.95613009007E+03  0.16334475454E+04  0.46999998093E+01 0.  1.
</event>
<event>
 5   0  0.3399500E-08  0.3993195E+04  0.7818609E-02  0.8005921E-01
       -1   -1    0    0    0  501  0.00000000000E+00  0.00000000000E+00  0.20404222950E+04  0.20404222950E+04  0.50400001928E-02 0.  1.
        1   -1    0    0  501    0  0.00000000000E+00  0.00000000000E+00 -0.19537135811E+04  0.19537135811E+04  0.50400001928E-02 0. -1.
    10030    2    1    2    0    0  0.00000000000E+00  0.00000000000E+00  0.86708713876E+02  0.39941358761E+04  0.39931945853E+04 0.  0.
        5    1    3    3  502    0  0.60555660456E+03  0.18704409010E+04 -0.30476603439E+03  0.19895105909E+04  0.46999998093E+01 0. -1.
       -5    1    3    3    0  502 -0.60555660456E+03 -0.18704409010E+04  0.39147474826E+03  0.20046252852E+04  0.46999998093E+01 0.  1.
</event>
<event>
 5   0  0.3399500E-08  0.4010004E+04  0.7818609E-02  0.8002532E-01
        1   -1    0    0  501    0  0.00000000000E+00  0.00000000000E+00  0.31403212353E+04  0.31403212353E+04  0.50400001928E-02 0. -1.
       -1   -1    0    0    0  501  0.00000000000E+00  0.00000000000E+00 -0.12801340635E+04  0.12801340635E+04  0.50400001928E-02 0.  1.
    10030    2    1    2    0    0  0.00000000000E+00  0.00000000000E+00  0.18601871718E+04  0.44204552989E+04  0.40100035830E+04 0.  0.
        5    1    3    3  502    0 -0.12227941635E+04  0.14868978168E+04  0.15477277734E+04  0.24701364405E+04  0.46999998093E+01 0. -1.
       -5    1    3    3    0  502  0.12227941635E+04 -0.14868978168E+04  0.31245939839E+03  0.19503188584E+04  0.46999998093E+01 0.  1.
</event>
<event>
 5   0  0.1101474E-07  0.4012037E+04  0.7818609E-02  0.8002123E-01
       -2   -1    0    0    0  501  0.00000000000E+00  0.00000000000E+00  0.21495489827E+04  0.21495489827E+04  0.25500000920E-02 0.  1.
        2   -1    0    0  501    0  0.00000000000E+00  0.00000000000E+00 -0.18720716852E+04  0.18720716852E+04  0.25500000920E-02 0. -1.
    10030    2    1    2    0    0  0.00000000000E+00  0.00000000000E+00  0.27747729752E+03  0.40216206679E+04  0.40120367827E+04 0.  0.
        5    1    3    3  502    0  0.26569672984E+02  0.16081840075E+04  0.13404042060E+04  0.20937209162E+04  0.46999998093E+01 0.  1.
       -5    1    3    3    0  502 -0.26569672984E+02 -0.16081840075E+04 -0.10629269085E+04  0.19278997517E+04  0.46999998093E+01 0. -1.
</event>
<event>
 5   0  0.3399500E-08  0.4003550E+04  0.7818609E-02  0.8003831E-01
       -1   -1    0    0    0  501  0.00000000000E+00  0.00000000000E+00  0.22912538830E+04  0.22912538830E+04  0.50400001928E-02 0. -1.
        1   -1    0    0  501    0  0.00000000000E+00  0.00000000000E+00 -0.17488689749E+04  0.17488689749E+04  0.50400001928E-02 0.  1.
    10030    2    1    2    0    0  0.00000000000E+00  0.00000000000E+00  0.54238490809E+03  0.40401228580E+04  0.40035498397E+04 0.  0.
        1    1    3    3  502    0 -0.13703360747E+03  0.19922392303E+04  0.13097179271E+03  0.20012368602E+04  0.50400001928E-02 0.  1.
       -1    1    3    3    0  502  0.13703360747E+03 -0.19922392303E+04  0.41141311538E+03  0.20388859977E+04  0.50400001928E-02 0. -1.
</event>
<event>
 5   0  0.3399500E-08  0.4003831E+04  0.7818609E-02  0.8003774E-01
        1   -1    0    0  501    0  0.00000000000E+00  0.00000000000E+00  0.27033830722E+04  0.27033830722E+04  0.50400001928E-02 0. -1.
       -1   -1    0    0    0  501  0.00000000000E+00  0.00000000000E+00 -0.14824631895E+04  0.14824631895E+04  0.50400001928E-02 0.  1.
    10030    2    1    2    0    0  0.00000000000E+00  0.00000000000E+00  0.12209198827E+04  0.41858462617E+04  0.40038311112E+04 0.  0.
        4    1    3    3  502    0  0.54087284704E+03  0.94918448676E+03 -0.11433505401E+04  0.15813749388E+04  0.12699999809E+01 0.  1.
       -4    1    3    3    0  502 -0.54087284704E+03 -0.94918448676E+03  0.23642704229E+04  0.26044713229E+04  0.12699999809E+01 0. -1.
</event>
<event>
 5   0  0.3399500E-08  0.4042932E+04  0.7818609E-02  0.7995941E-01
        1   -1    0    0  501    0  0.00000000000E+00  0.00000000000E+00  0.13200899120E+04  0.13200899120E+04  0.50400001928E-02 0. -1.
       -1   -1    0    0    0  501  0.00000000000E+00  0.00000000000E+00 -0.30954900703E+04  0.30954900703E+04  0.50400001928E-02 0.  1.
    10030    2    1    2    0    0  0.00000000000E+00  0.00000000000E+00 -0.17754001583E+04  0.44155799824E+04  0.40429322105E+04 0.  0.
        5    1    3    3  502    0 -0.99843660880E+02 -0.94076025585E+03 -0.28387816167E+04  0.29922736795E+04  0.46999998093E+01 0.  1.
       -5    1    3    3    0  502  0.99843660880E+02  0.94076025585E+03  0.10633814584E+04  0.14233063029E+04  0.46999998093E+01 0. -1.
</event>
<event>
 5   0  0.3399500E-08  0.4118490E+04  0.7818609E-02  0.7981061E-01
       -1   -1    0    0    0  501  0.00000000000E+00  0.00000000000E+00  0.22115506030E+04  0.22115506030E+04  0.50400001928E-02 0. -1.
        1   -1    0    0  501    0  0.00000000000E+00  0.00000000000E+00 -0.19174281360E+04  0.19174281360E+04  0.50400001928E-02 0.  1.
    10030    2    1    2    0    0  0.00000000000E+00  0.00000000000E+00  0.29412246696E+03  0.41289787390E+04  0.41184896991E+04 0.  0.
        4    1    3    3  502    0 -0.63306661433E+03  0.63364881297E+03 -0.17119005288E+04  0.19320686297E+04  0.12699999809E+01 0.  1.
       -4    1    3    3    0  502  0.63306661433E+03 -0.63364881297E+03  0.20060229957E+04  0.21969101094E+04  0.12699999809E+01 0. -1.
</event>
<event>
 5   0  0.3399500E-08  0.3995413E+04  0.7818609E-02  0.8005473E-01
       -1   -1    0    0    0  501  0.00000000000E+00  0.00000000000E+00  0.14106365925E+04  0.14106365925E+04  0.50400001928E-02 0.  1.
        1   -1    0    0  501    0  0.00000000000E+00  0.00000000000E+00 -0.28290990032E+04  0.28290990032E+04  0.50400001928E-02 0. -1.
    10030    2    1    2    0    0  0.00000000000E+00  0.00000000000E+00 -0.14184624107E+04  0.42397355957E+04  0.39954126584E+04 0.  0.
        4    1    3    3  502    0 -0.14871612795E+04  0.10515269224E+04 -0.15800678965E+04  0.24112183041E+04  0.12699999809E+01 0. -1.
       -4    1    3    3    0  502  0.14871612795E+04 -0.10515269224E+04  0.16160548579E+03  0.18285172916E+04  0.12699999809E+01 0.  1.
</event>
<event>
 5   0  0.3399500E-08  0.4048111E+04  0.7818609E-02  0.7994911E-01
       -1   -1    0    0    0  501  0.00000000000E+00  0.00000000000E+00  0.25423811382E+04  0.25423811382E+04  0.50400001928E-02 0. -1.
        1   -1    0    0  501    0  0.00000000000E+00  0.00000000000E+00 -0.16114029113E+04  0.16114029113E+04  0.50400001928E-02 0.  1.
    10030    2    1    2    0    0  0.00000000000E+00  0.00000000000E+00  0.93097822692E+03  0.41537840495E+04  0.40481108521E+04 0.  0.
        4    1    3    3  502    0 -0.19915908299E+04 -0.33421620084E+03  0.32530564106E+03  0.20454730200E+04  0.12699999809E+01 0.  1.
       -4    1    3    3    0  502  0.19915908299E+04  0.33421620084E+03  0.60567258585E+03  0.21083110294E+04  0.12699999809E+01 0. -1.
</event>
<event>
 5   0  0.3399500E-08  0.4027005E+04  0.7818609E-02  0.7999121E-01
        1   -1    0    0  501    0  0.00000000000E+00  0.00000000000E+00  0.20747282744E+04  0.20747282744E+04  0.50400001928E-02 0.  1.
       -1   -1    0    0    0  501  0.00000000000E+00  0.00000000000E+00 -0.19540833446E+04  0.19540833446E+04  0.50400001928E-02 0. -1.
    10030    2    1    2    0    0  0.00000000000E+00  0.00000000000E+00  0.12064492986E+03  0.40288116190E+04  0.40270048252E+04 0.  0.
        3    1    3    3  502    0  0.13496746080E+03 -0.84995091576E+03 -0.17608126846E+04  0.19598709384E+04  0.10100000352E+00 0. -1.
       -3    1    3    3    0  502 -0.13496746080E+03  0.84995091576E+03  0.18814576145E+04  0.20689406806E+04  0.10100000352E+00 0.  1.
</event>
<event>
 5   0  0.1087688E-07  0.4011526E+04  0.7818609E-02  0.8002225E-01
        2   -1    0    0  501    0  0.00000000000E+00  0.00000000000E+00  0.26110853225E+04  0.26110853225E+04  0.25500000920E-02 0.  1.
       -2   -1    0    0    0  501  0.00000000000E+00  0.00000000000E+00 -0.15407712787E+04  0.15407712787E+04  0.25500000920E-02 0. -1.
    10030    2    1    2    0    0  0.00000000000E+00  0.00000000000E+00  0.10703140437E+04  0.41518566012E+04  0.40115260294E+04 0.  0.
        2    1    3    3  502    0  0.10546150335E+04  0.17053776599E+04  0.58751768713E+03  0.20894264439E+04  0.25500000920E-02 0.  1.
       -2    1    3    3    0  502 -0.10546150335E+04 -0.17053776599E+04  0.48279635661E+03  0.20624301573E+04  0.25500000920E-02 0. -1.
</event>
<event>
 5   0  0.3399500E-08  0.4035906E+04  0.7818609E-02  0.7997342E-01
        1   -1    0    0  501    0  0.00000000000E+00  0.00000000000E+00  0.30023142892E+04  0.30023142892E+04  0.50400001928E-02 0. -1.
       -1   -1    0    0    0  501  0.00000000000E+00  0.00000000000E+00 -0.13563316577E+04  0.13563316577E+04  0.50400001928E-02 0.  1.
    10030    2    1    2    0    0  0.00000000000E+00  0.00000000000E+00  0.16459826315E+04  0.43586459469E+04  0.40359058050E+04 0.  0.
        3    1    3    3  502    0 -0.15408554380E+04 -0.42362287241E+03 -0.50779917067E+03  0.16767682687E+04  0.10100000352E+00 0.  1.
       -3    1    3    3    0  502  0.15408554380E+04  0.42362287241E+03  0.21537818022E+04  0.26818776782E+04  0.10100000352E+00 0. -1.
</event>
<event>
 5   0  0.3399500E-08  0.4038581E+04  0.7818609E-02  0.7996808E-01
       -1   -1    0    0    0  501  0.00000000000E+00  0.00000000000E+00  0.14378097785E+04  0.14378097785E+04  0.50400001928E-02 0. -1.
        1   -1    0    0  501    0  0.00000000000E+00  0.00000000000E+00 -0.28359347567E+04  0.28359347567E+04  0.50400001928E-02 0.  1.
    10030    2    1    2    0    0  0.00000000000E+00  0.00000000000E+00 -0.13981249782E+04  0.42737445353E+04  0.40385812977E+04 0.  0.
        1    1    3    3  502    0  0.12952321955E+04 -0.50013831019E+03  0.85252304964E+03  0.16292821486E+04  0.50400001928E-02 0. -1.
       -1    1    3    3    0  502 -0.12952321955E+04  0.50013831019E+03 -0.22506480278E+04  0.26444623867E+04  0.50400001928E-02 0.  1.
</event>
<event>
 5   0  0.1101474E-07  0.3998086E+04  0.7818609E-02  0.8004933E-01
        2   -1    0    0  501    0  0.00000000000E+00  0.00000000000E+00  0.24808146230E+04  0.24808146230E+04  0.25500000920E-02 0. -1.
       -2   -1    0    0    0  501  0.00000000000E+00  0.00000000000E+00 -0.16108310597E+04  0.16108310597E+04  0.25500000920E-02 0.  1.
    10030    2    1    2    0    0  0.00000000000E+00  0.00000000000E+00  0.86998356326E+03  0.40916456827E+04  0.39980861662E+04 0.  0.
        5    1    3    3  502    0  0.13068707067E+04  0.14114663116E+04  0.99178495231E+03  0.21642106355E+04  0.46999998093E+01 0. -1.
       -5    1    3    3    0  502 -0.13068707067E+04 -0.14114663116E+04 -0.12180138905E+03  0.19274350472E+04  0.46999998093E+01 0.  1.
</event>
<event>
 5   0  0.3399500E-08  0.3958255E+04  0.7818609E-02  0.8013021E-01
        1   -1    0    0  501    0  0.00000000000E+00  0.00000000000E+00  0.23195437509E+04  0.23195437509E+04  0.50400001928E-02 0.  1.
       -1   -1    0    0    0  501  0.00000000000E+00  0.00000000000E+00 -0.16886708348E+04  0.16886708348E+04  0.50400001928E-02 0. -1.
    10030    2    1    2    0    0  0.00000000000E+00  0.00000000000E+00  0.63087291617E+03  0.40082145857E+04  0.39582551116E+04 0.  0.
        2    1    3    3  502    0  0.40145806442E+03  0.19356295173E+04  0.41211757018E+03  0.20193244160E+04  0.25500000920E-02 0.  1.
       -2    1    3    3    0  502 -0.40145806442E+03 -0.19356295173E+04  0.21875534599E+03  0.19888901697E+04  0.25500000920E-02 0. -1.
</event>
<event>
 5   0  0.3399500E-08  0.4004609E+04  0.7818609E-02  0.8003617E-01
        1   -1    0    0  501    0  0.00000000000E+00  0.00000000000E+00  0.16721340994E+04  0.16721340994E+04  0.50400001928E-02 0.  1.
       -1   -1    0    0    0  501  0.00000000000E+00  0.00000000000E+00 -0.23976682372E+04  0.23976682372E+04  0.50400001928E-02 0. -1.
    10030    2    1    2    0    0  0.00000000000E+00  0.00000000000E+00 -0.72553413777E+03  0.40698023366E+04  0.40046087542E+04 0.  0.
        5    1    3    3  502    0  0.17896651879E+04  0.18206312656E+03 -0.12563723767E+04  0.21942064866E+04  0.46999998093E+01 0. -1.
       -5    1    3    3    0  502 -0.17896651879E+04 -0.18206312656E+03  0.53083823892E+03  0.18755958500E+04  0.46999998093E+01 0.  1.
</event>
<event>
 5   0  0.3399500E-08  0.3847999E+04  0.7818609E-02  0.8035932E-01
       -1   -1    0    0    0  501  0.00000000000E+00  0.00000000000E+00  0.12742737064E+04  0.12742737064E+04  0.50400001928E-02 0. -1.
        1   -1    0    0  501    0  0.00000000000E+00  0.00000000000E+00 -0.29050075486E+04  0.29050075486E+04  0.50400001928E-02 0.  1.
    10030    2    1    2    0    0  0.00000000000E+00  0.00000000000E+00 -0.16307338423E+04  0.41792812550E+04  0.38479993431E+04 0.  0.
        4    1    3    3  502    0 -0.87299608950E+03 -0.14557646849E+04 -0.17991049737E+04  0.24734901070E+04  0.12699999809E+01 0. -1.
       -4    1    3    3    0  502  0.87299608950E+03  0.14557646849E+04  0.16837113144E+03  0.17057911480E+04  0.12699999809E+01 0.  1.
</event>
<event>
 5   0  0.3399500E-08  0.3924269E+04  0.7818609E-02  0.8020001E-01
        1   -1    0    0  501    0  0.00000000000E+00  0.00000000000E+00  0.19493924911E+04  0.19493924912E+04  0.50400001928E-02 0.  1.
       -1   -1    0    0    0  501  0.00000000000E+00  0.00000000000E+00 -0.19749595441E+04  0.19749595441E+04  0.50400001928E-02 0. -1.
    10030    2    1    2    0    0  0.00000000000E+00  0.00000000000E+00 -0.25567052986E+02  0.39243520353E+04  0.39242687501E+04 0.  0.
        4    1    3    3  502    0 -0.10634423100E+04 -0.10615963212E+04 -0.12745842140E+04  0.19703966168E+04  0.12699999809E+01 0. -1.
       -4    1    3    3    0  502  0.10634423100E+04  0.10615963212E+04  0.12490171611E+04  0.19539554185E+04  0.12699999809E+01 0.  1.
</event>
<event>
 5   0  0.1095109E-07  0.3944205E+04  0.7818609E-02  0.8015898E-01
       -2   -1    0    0    0  501  0.00000000000E+00  0.00000000000E+00  0.18385127232E+04  0.18385127232E+04  0.25500000920E-02 0.  1.
        2   -1    0    0  501    0  0.00000000000E+00  0.00000000000E+00 -0.21153994415E+04  0.21153994415E+04  0.25500000920E-02 0. -1.
    10030    2    1    2    0    0  0.00000000000E+00  0.00000000000E+00 -0.27688671834E+03  0.39539121647E+04  0.39442052623E+04 0.  0.
        4    1    3    3  502    0  0.19518431978E+04 -0.26445190556E+03 -0.40424935583E+02  0.19700919947E+04  0.12699999809E+01 0. -1.
       -4    1    3    3    0  502 -0.19518431978E+04  0.26445190556E+03 -0.23646178276E+03  0.19838201700E+04  0.12699999809E+01 0.  1.
</event>
<event>
 5   0  0.3399500E-08  0.3878743E+04  0.7818609E-02  0.8029465E-01
       -1   -1    0    0    0  501  0.00000000000E+00  0.00000000000E+00  0.16011552589E+04  0.16011552589E+04  0.50400001928E-02 0. -1.
        1   -1    0    0  501    0  0.00000000000E+00  0.00000000000E+00 -0.23490306447E+04  0.23490306447E+04  0.50400001928E-02 0.  1.
    10030    2    1    2    0    0  0.00000000000E+00  0.00000000000E+00 -0.74787538579E+03  0.39501859037E+04  0.38787434925E+04 0.  0.
        3    1    3    3  502    0  0.54640688293E+02 -0.43127895590E+03 -0.22987698953E+04  0.23395149464E+04  0.10100000352E+00 0.  1.
       -3    1    3    3    0  502 -0.54640688293E+02  0.43127895590E+03  0.15508945095E+04  0.16106709573E+04  0.10100000352E+00 0. -1.
</event>
<event>
 5   0  0.1087688E-07  0.3790535E+04  0.7818609E-02  0.8048189E-01
        2   -1    0    0  501    0  0.00000000000E+00  0.00000000000E+00  0.20365047487E+04  0.20365047487E+04  0.25500000920E-02 0.  1.
       -2   -1    0    0    0  501  0.00000000000E+00  0.00000000000E+00 -0.17638250491E+04  0.17638250491E+04  0.25500000920E-02 0. -1.
    10030    2    1    2    0    0  0.00000000000E+00  0.00000000000E+00  0.27267969951E+03  0.38003297978E+04  0.37905345736E+04 0.  0.
        2    1    3    3  502    0  0.58978889921E+03 -0.15780199982E+04 -0.73425887186E+03  0.18376980577E+04  0.25500000920E-02 0. -1.
       -2    1    3    3    0  502 -0.58978889921E+03  0.15780199982E+04  0.10069385714E+04  0.19626317400E+04  0.25500000920E-02 0.  1.
</event>
<event>
 5   0  0.1101474E-07  0.3599136E+04  0.7818609E-02  0.8090690E-01
       -2   -1    0    0    0  501  0.00000000000E+00  0.00000000000E+00  0.13290819780E+04  0.13290819780E+04  0.25500000920E-02 0.  1.
        2   -1    0    0  501    0  0.00000000000E+00  0.00000000000E+00 -0.24366023558E+04  0.24366023558E+04  0.25500000920E-02 0. -1.
    10030    2    1    2    0    0  0.00000000000E+00  0.00000000000E+00 -0.11075203778E+04  0.37656843338E+04  0.35991356066E+04 0.  0.
        5    1    3    3  502    0  0.17853135093E+04  0.16852665993E+02 -0.31795613530E+03  0.18134901524E+04  0.46999998093E+01 0. -1.
       -5    1    3    3    0  502 -0.17853135093E+04 -0.16852665993E+02 -0.78956424250E+03  0.19521941814E+04  0.46999998093E+01 0.  1.
</event>
<event>
 5   0  0.1095903E-07  0.3993846E+04  0.7818609E-02  0.8005789E-01
        2   -1    0    0  501    0  0.00000000000E+00  0.00000000000E+00  0.12513745877E+04  0.12513745877E+04  0.25500000920E-02 0. -1.
       -2   -1    0    0    0  501  0.00000000000E+00  0.00000000000E+00 -0.31866576088E+04  0.31866576088E+04  0.25500000920E-02 0.  1.
    10030    2    1    2    0    0  0.00000000000E+00  0.00000000000E+00 -0.19352830211E+04  0.44380321965E+04  0.39938464424E+04 0.  0.
        3    1    3    3  502    0  0.12929385991E+03 -0.94692035798E+03  0.98074060615E+03  0.13693893578E+04  0.10100000352E+00 0. -1.
       -3    1    3    3    0  502 -0.12929385991E+03  0.94692035798E+03 -0.29160236273E+04  0.30686428387E+04  0.10100000352E+00 0.  1.
</event>
<event>
 5   0  0.3399500E-08  0.4148621E+04  0.7818609E-02  0.7975218E-01
       -1   -1    0    0    0  501  0.00000000000E+00  0.00000000000E+00  0.14409271219E+04  0.14409271219E+04  0.50400001928E-02 0. -1.
        1   -1    0    0  501    0  0.00000000000E+00  0.00000000000E+00 -0.29861076746E+04  0.29861076746E+04  0.50400001928E-02 0.  1.
    10030    2    1    2    0    0  0.00000000000E+00  0.00000000000E+00 -0.15451805527E+04  0.44270347966E+04  0.41486207527E+04 0.  0.
        2    1    3    3  502    0  0.20569973048E+04  0.23746061696E+03 -0.64129635828E+03  0.21676915085E+04  0.25500000920E-02 0.  1.
       -2    1    3    3    0  502 -0.20569973048E+04 -0.23746061696E+03 -0.90388419442E+03  0.22593432881E+04  0.25500000920E-02 0. -1.
</event>
<event>
 5   0  0.1095903E-07  0.4018157E+04  0.7818609E-02  0.8000894E-01
        2   -1    0    0  501    0  0.00000000000E+00  0.00000000000E+00  0.14132579834E+04  0.14132579834E+04  0.25500000920E-02 0.  1.
       -2   -1    0    0    0  501  0.00000000000E+00  0.00000000000E+00 -0.28560927438E+04  0.28560927438E+04  0.25500000920E-02 0. -1.
    10030    2    1    2    0    0  0.00000000000E+00  0.00000000000E+00 -0.14428347603E+04  0.42693507272E+04  0.40181567274E+04 0.  0.
        3    1    3    3  502    0 -0.15901245808E+04 -0.12225888904E+04 -0.59945436866E+03  0.20934577444E+04  0.10100000352E+00 0.  1.
       -3    1    3    3    0  502  0.15901245808E+04  0.12225888904E+04 -0.84338039166E+03  0.21758929828E+04  0.10100000352E+00 0. -1.
</event>
<event>
 5   0  0.3399500E-08  0.4017924E+04  0.7818609E-02  0.8000940E-01
        1   -1    0    0  501    0  0.00000000000E+00  0.00000000000E+00  0.26294638898E+04  0.26294638898E+04  0.50400001928E-02 0. -1.
       -1   -1    0    0    0  501  0.00000000000E+00  0.00000000000E+00 -0.15348863157E+04  0.15348863157E+04  0.50400001928E-02 0.  1.
    10030    2    1    2    0    0  0.00000000000E+00  0.00000000000E+00  0.10945775742E+04  0.41643502055E+04  0.40179239127E+04 0.  0.
        5    1    3    3  502    0  0.12789951445E+04 -0.89785345157E+03  0.18558108967E+04  0.24261132650E+04  0.46999998093E+01 0. -1.
       -5    1    3    3    0  502 -0.12789951445E+04  0.89785345157E+03 -0.76123332253E+03  0.17382369406E+04  0.46999998093E+01 0.  1.
</event>
<event>
 5   0  0.3399500E-08  0.4000981E+04  0.7818609E-02  0.8004349E-01
       -1   -1    0    0    0  501  0.00000000000E+00  0.00000000000E+00  0.21904628513E+04  0.21904628513E+04  0.50400001928E-02 0.  1.
        1   -1    0    0  501    0  0.00000000000E+00  0.00000000000E+00 -0.18269942586E+04  0.18269942586E+04  0.50400001928E-02 0. -1.
    10030    2    1    2    0    0  0.00000000000E+00  0.00000000000E+00  0.36346859265E+03  0.40174571099E+04  0.40009814061E+04 0.  0.
        5    1    3    3  502    0 -0.16317912205E+04  0.17917700709E+03  0.13297243424E+04  0.21125898570E+04  0.46999998093E+01 0.  1.
       -5    1    3    3    0  502  0.16317912205E+04 -0.17917700709E+03 -0.96625574979E+03  0.19048672529E+04  0.46999998093E+01 0. -1.
</event>
<event>
 5   0  0.3399500E-08  0.3962279E+04  0.7818609E-02  0.8012200E-01
       -1   -1    0    0    0  501  0.00000000000E+00  0.00000000000E+00  0.17839467868E+04  0.17839467868E+04  0.50400001928E-02 0. -1.
        1   -1    0    0  501    0  0.00000000000E+00  0.00000000000E+00 -0.22001292364E+04  0.22001292364E+04  0.50400001928E-02 0.  1.
    10030    2    1    2    0    0  0.00000000000E+00  0.00000000000E+00 -0.41618244955E+03  0.39840760232E+04  0.39622788806E+04 0.  0.
        1    1    3    3  502    0  0.28840942131E+02 -0.52106982578E+02  0.17830464827E+04  0.17840408339E+04  0.50400001928E-02 0. -1.
       -1    1    3    3    0  502 -0.28840942131E+02  0.52106982578E+02 -0.21992289323E+04  0.22000351893E+04  0.50400001928E-02 0.  1.
</event>
<event>
 5   0  0.1095109E-07  0.4008652E+04  0.7818609E-02  0.8002803E-01
       -2   -1    0    0    0  501  0.00000000000E+00  0.00000000000E+00  0.29265991322E+04  0.29265991322E+04  0.25500000920E-02 0.  1.
        2   -1    0    0  501    0  0.00000000000E+00  0.00000000000E+00 -0.13726934338E+04  0.13726934338E+04  0.25500000920E-02 0. -1.
    10030    2    1    2    0    0  0.00000000000E+00  0.00000000000E+00  0.15539056984E+04  0.42992925660E+04  0.40086523481E+04 0.  0.
        4    1    3    3  502    0  0.83510934060E+03  0.16868031386E+04  0.15158206755E+04  0.24166974101E+04  0.12699999809E+01 0.  1.
       -4    1    3    3    0  502 -0.83510934060E+03 -0.16868031386E+04  0.38085022990E+02  0.18825951559E+04  0.12699999809E+01 0. -1.
</event>
<event>
 5   0  0.3399500E-08  0.3982409E+04  0.7818609E-02  0.8008105E-01
       -1   -1    0    0    0  501  0.00000000000E+00  0.00000000000E+00  0.15659045769E+04  0.15659045769E+04  0.50400001928E-02 0.  1.
        1   -1    0    0  501    0  0.00000000000E+00  0.00000000000E+00 -0.25320159963E+04  0.25320159963E+04  0.50400001928E-02 0. -1.
    10030    2    1    2    0    0  0.00000000000E+00  0.00000000000E+00 -0.96611141947E+03  0.40979205732E+04  0.39824090385E+04 0.  0.
        1    1    3    3  502    0 -0.10463348784E+04  0.12958023867E+04 -0.16060278505E+04  0.23137082703E+04  0.50400001928E-02 0. -1.
       -1    1    3    3    0  502  0.10463348784E+04 -0.12958023867E+04  0.63991643107E+03  0.17842123030E+04  0.50400001928E-02 0.  1.
</event>
<event>
 5   0  0.1101474E-07  0.3985332E+04  0.7818609E-02  0.8007512E-01
       -2   -1    0    0    0  501  0.00000000000E+00  0.00000000000E+00  0.12749073200E+04  0.12749073200E+04  0.25500000920E-02 0.  1.
        2   -1    0    0  501    0  0.00000000000E+00  0.00000000000E+00 -0.31145142498E+04  0.31145142498E+04  0.25500000920E-02 0. -1.
    10030    2    1    2    0    0  0.00000000000E+00  0.00000000000E+00 -0.18396069298E+04  0.43894215699E+04  0.39853316125E+04 0.  0.
        5    1    3    3  502    0 -0.82123343296E+02 -0.18167978092E+04 -0.22862395258E+02  0.18188027112E+04  0.46999998093E+01 0.  1.
       -5    1    3    3    0  502  0.82123343296E+02  0.18167978092E+04 -0.18167445345E+04  0.25706188587E+04  0.46999998093E+01 0. -1.
</event>
<event>
 5   0  0.3399500E-08  0.3951402E+04  0.7818609E-02  0.8014423E-01
        1   -1    0    0  501    0  0.00000000000E+00  0.00000000000E+00  0.22369269608E+04  0.22369269608E+04  0.50400001928E-02 0. -1.
       -1   -1    0    0    0  501  0.00000000000E+00  0.00000000000E+00 -0.17449804033E+04  0.17449804033E+04  0.50400001928E-02 0.  1.
    10030    2    1    2    0    0  0.00000000000E+00  0.00000000000E+00  0.49194655749E+03  0.39819073641E+04  0.39514016300E+04 0.  0.
        5    1    3    3  502    0  0.93497836739E+02  0.15055950052E+04  0.15316811260E+04  0.21497970432E+04  0.46999998093E+01 0. -1.
       -5    1    3    3    0  502 -0.93497836739E+02 -0.15055950052E+04 -0.10397345685E+04  0.18321103210E+04  0.46999998093E+01 0.  1.
</event>
<event>
 5   0  0.1087688E-07  0.3974762E+04  0.7818609E-02  0.8009657E-01
       -2   -1    0    0    0  501  0.00000000000E+00  0.00000000000E+00  0.27727971660E+04  0.27727971660E+04  0.25500000920E-02 0. -1.
        2   -1    0    0  501    0  0.00000000000E+00  0.00000000000E+00 -0.14244399521E+04  0.14244399521E+04  0.25500000920E-02 0.  1.
    10030    2    1    2    0    0  0.00000000000E+00  0.00000000000E+00  0.13483572138E+04  0.41972371181E+04  0.39747619111E+04 0.  0.
        2    1    3    3  502    0 -0.11978270862E+04  0.12561770421E+04  0.16962986836E+04  0.24269733649E+04  0.25500000920E-02 0. -1.
       -2    1    3    3    0  502  0.11978270862E+04 -0.12561770421E+04 -0.34794146980E+03  0.17702637533E+04  0.25500000920E-02 0.  1.
</event>
<event>
 5   0  0.1095109E-07  0.4013373E+04  0.7818609E-02  0.8001854E-01
       -2   -1    0    0    0  501  0.00000000000E+00  0.00000000000E+00  0.16739322694E+04  0.16739322694E+04  0.25500000920E-02 0. -1.
        2   -1    0    0  501    0  0.00000000000E+00  0.00000000000E+00 -0.24055872082E+04  0.24055872082E+04  0.25500000920E-02 0.  1.
    10030    2    1    2    0    0  0.00000000000E+00  0.00000000000E+00 -0.73165493880E+03  0.40795194776E+04  0.40133726738E+04 0.  0.
        4    1    3    3  502    0  0.57813960695E+03 -0.17471657144E+04  0.44732922377E+03  0.18939214572E+04  0.12699999809E+01 0. -1.
       -4    1    3    3    0  502 -0.57813960695E+03  0.17471657144E+04 -0.11789841626E+04  0.21855980205E+04  0.12699999809E+01 0.  1.
</event>
<event>
 5   0  0.1087688E-07  0.4022492E+04  0.7818609E-02  0.8000025E-01
        2   -1    0    0  501    0  0.00000000000E+00  0.00000000000E+00  0.28039556262E+04  0.28039556262E+04  0.25500000920E-02 0.  1.
       -2   -1    0    0    0  501  0.00000000000E+00  0.00000000000E+00 -0.14426440044E+04  0.14426440044E+04  0.25500000920E-02 0. -1.
    10030    2    1    2    0    0  0.00000000000E+00  0.00000000000E+00  0.13613116218E+04  0.42465996306E+04  0.40224916521E+04 0.  0.
        2    1    3    3  502    0  0.68345067045E+03 -0.10687856219E+04 -0.96696877799E+03  0.15951288795E+04  0.25500000920E-02 0. -1.
       -2    1    3    3    0  502 -0.68345067045E+03  0.10687856219E+04  0.23282803997E+04  0.26514707512E+04  0.25500000920E-02 0.  1.
</event>
<event>
 5   0  0.3399500E-08  0.3968057E+04  0.7818609E-02  0.8011022E-01
       -1   -1    0    0    0  501  0.00000000000E+00  0.00000000000E+00  0.14319876895E+04  0.14319876895E+04  0.50400001928E-02 0. -1.
        1   -1    0    0  501    0  0.00000000000E+00  0.00000000000E+00 -0.27488847922E+04  0.27488847922E+04  0.50400001928E-02 0.  1.
    10030    2    1    2    0    0  0.00000000000E+00  0.00000000000E+00 -0.13168971027E+04  0.41808724816E+04  0.39680570471E+04 0.  0.
        4    1    3    3  502    0  0.98876903495E+03 -0.11530289984E+04 -0.20033172311E+04  0.25140448717E+04  0.12699999809E+01 0.  1.
       -4    1    3    3    0  502 -0.98876903495E+03  0.11530289984E+04  0.68642012844E+03  0.16668276099E+04  0.12699999809E+01 0. -1.
</event>
<event>
 5   0  0.1101474E-07  0.3961954E+04  0.7818609E-02  0.8012266E-01
        2   -1    0    0  501    0  0.00000000000E+00  0.00000000000E+00  0.16884427834E+04  0.16884427834E+04  0.25500000920E-02 0. -1.
       -2   -1    0    0    0  501  0.00000000000E+00  0.00000000000E+00 -0.23241944712E+04  0.23241944712E+04  0.25500000920E-02 0.  1.
    10030    2    1    2    0    0  0.00000000000E+00  0.00000000000E+00 -0.63575168783E+03  0.40126372546E+04  0.39619537514E+04 0.  0.
        5    1    3    3  502    0  0.10737854790E+04 -0.77161182426E+03  0.11760694656E+04  0.17696218636E+04  0.46999998093E+01 0. -1.
       -5    1    3    3    0  502 -0.10737854790E+04  0.77161182426E+03 -0.18118211534E+04  0.22430153910E+04  0.46999998093E+01 0.  1.
</event>
<event>
 5   0  0.3399500E-08  0.3994443E+04  0.7818609E-02  0.8005669E-01
       -1   -1    0    0    0  501  0.00000000000E+00  0.00000000000E+00  0.14823004597E+04  0.14823004597E+04  0.50400001928E-02 0. -1.
        1   -1    0    0  501    0  0.00000000000E+00  0.00000000000E+00 -0.26910154351E+04  0.26910154351E+04  0.50400001928E-02 0.  1.
    10030    2    1    2    0    0  0.00000000000E+00  0.00000000000E+00 -0.12087149754E+04  0.41733158948E+04  0.39944428480E+04 0.  0.
        2    1    3    3  502    0  0.63772515059E+03  0.18795714799E+04 -0.37211733329E+03  0.20193943710E+04  0.25500000920E-02 0. -1.
       -2    1    3    3    0  502 -0.63772515059E+03 -0.18795714799E+04 -0.83659764211E+03  0.21539215238E+04  0.25500000920E-02 0.  1.
</event>
<event>
 5   0  0.3399500E-08  0.4009531E+04  0.7818609E-02  0.8002627E-01
       -1   -1    0    0    0  501  0.00000000000E+00  0.00000000000E+00  0.23192804195E+04  0.23192804195E+04  0.50400001928E-02 0.  1.
        1   -1    0    0  501    0  0.00000000000E+00  0.00000000000E+00 -0.17329015335E+04  0.17329015335E+04  0.50400001928E-02 0. -1.
    10030    2    1    2    0    0  0.00000000000E+00  0.00000000000E+00  0.58637888601E+03  0.40521819530E+04  0.40095309429E+04 0.  0.
        1    1    3    3  502    0  0.65515399990E+03 -0.88115666732E+03  0.19883573139E+04  0.22713935466E+04  0.50400001928E-02 0.  1.
       -1    1    3    3    0  502 -0.65515399990E+03  0.88115666732E+03 -0.14019784279E+04  0.17807884064E+04  0.50400001928E-02 0. -1.
</event>
<event>
 5   0  0.3399500E-08  0.4005640E+04  0.7818609E-02  0.8003410E-01
        1   -1    0    0  501    0  0.00000000000E+00  0.00000000000E+00  0.13297328112E+04  0.13297328112E+04  0.50400001928E-02 0.  1.
       -1   -1    0    0    0  501  0.00000000000E+00  0.00000000000E+00 -0.30166122888E+04  0.30166122888E+04  0.50400001928E-02 0. -1.
    10030    2    1    2    0    0  0.00000000000E+00  0.00000000000E+00 -0.16868794776E+04  0.43463451000E+04  0.40056401931E+04 0.  0.
        5    1    3    3  502    0 -0.28620478207E+03  0.20621704086E+02 -0.29941865871E+04  0.30079085492E+04  0.46999998093E+01 0. -1.
       -5    1    3    3    0  502  0.28620478207E+03 -0.20621704086E+02  0.13073071095E+04  0.13384365508E+04  0.46999998093E+01 0.  1.
</event>
<event>
 5   0  0.3399500E-08  0.3833863E+04  0.7818609E-02  0.8038927E-01
        1   -1    0    0  501    0  0.00000000000E+00  0.00000000000E+00  0.19017670724E+04  0.19017670724E+04  0.50400001928E-02 0.  1.
       -1   -1    0    0    0  501  0.00000000000E+00  0.00000000000E+00 -0.19322164245E+04  0.19322164245E+04  0.50400001928E-02 0. -1.
    10030    2    1    2    0    0  0.00000000000E+00  0.00000000000E+00 -0.30449352124E+02  0.38339834969E+04  0.38338625812E+04 0.  0.
        4    1    3    3  502    0  0.25707994652E+03 -0.81020930662E+03  0.17029956110E+04  0.19033457078E+04  0.12699999809E+01 0.  1.
       -4    1    3    3    0  502 -0.25707994652E+03  0.81020930662E+03 -0.17334449632E+04  0.19306377891E+04  0.12699999809E+01 0. -1.
</event>
<event>
 5   0  0.1073271E-07  0.4029466E+04  0.7818609E-02  0.7998629E-01
        2   -1    0    0  501    0  0.00000000000E+00  0.00000000000E+00  0.16689474548E+04  0.16689474548E+04  0.25500000920E-02 0. -1.
       -2   -1    0    0    0  501  0.00000000000E+00  0.00000000000E+00 -0.24321606268E+04  0.24321606268E+04  0.25500000920E-02 0.  1.
    10030    2    1    2    0    0  0.00000000000E+00  0.00000000000E+00 -0.76321317205E+03  0.41011080816E+04  0.40294656160E+04 0.  0.
        1    1    3    3  502    0  0.31099249734E+03  0.19618920104E+04 -0.38852469839E+02  0.19867677540E+04  0.50400001928E-02 0.  1.
       -1    1    3    3    0  502 -0.31099249734E+03 -0.19618920104E+04 -0.72436070221E+03  0.21143403276E+04  0.50400001928E-02 0. -1.
</event>
<event>
 5   0  0.3399500E-08  0.3965024E+04  0.7818609E-02  0.8011640E-01
       -1   -1    0    0    0  501  0.00000000000E+00  0.00000000000E+00  0.20108619799E+04  0.20108619799E+04  0.50400001928E-02 0. -1.
        1   -1    0    0  501    0  0.00000000000E+00  0.00000000000E+00 -0.19545619514E+04  0.19545619514E+04  0.50400001928E-02 0.  1.
    10030    2    1    2    0    0  0.00000000000E+00  0.00000000000E+00  0.56300028427E+02  0.39654239313E+04  0.39650242448E+04 0.  0.
        1    1    3    3  502    0 -0.12379052916E+04  0.11238304424E+04 -0.10372976689E+04  0.19675850244E+04  0.50400001928E-02 0.  1.
       -1    1    3    3    0  502  0.12379052916E+04 -0.11238304424E+04  0.10935976974E+04  0.19978389069E+04  0.50400001928E-02 0. -1.
</event>
<event>
 5   0  0.1095903E-07  0.4017202E+04  0.7818609E-02  0.8001085E-01
        2   -1    0    0  501    0  0.00000000000E+00  0.00000000000E+00  0.25025470651E+04  0.25025470651E+04  0.25500000920E-02 0.  1.
       -2   -1    0    0    0  501  0.00000000000E+00  0.00000000000E+00 -0.16121485003E+04  0.16121485003E+04  0.25500000920E-02 0. -1.
    10030    2    1    2    0    0  0.00000000000E+00  0.00000000000E+00  0.89039856478E+03  0.41146955654E+04  0.40172017614E+04 0.  0.
        3    1    3    3  502    0  0.63781366431E+03 -0.82442192910E+03  0.22038426624E+04  0.24379089972E+04  0.10100000352E+00 0.  1.
       -3    1    3    3    0  502 -0.63781366431E+03  0.82442192910E+03 -0.13134440976E+04  0.16767865682E+04  0.10100000352E+00 0. -1.
</event>
<event>
 5   0  0.1073271E-07  0.4008608E+04  0.7818609E-02  0.8002812E-01
        2   -1    0    0  501    0  0.00000000000E+00  0.00000000000E+00  0.27828557431E+04  0.27828557431E+04  0.25500000920E-02 0.  1.
       -2   -1    0    0    0  501  0.00000000000E+00  0.00000000000E+00 -0.14435656549E+04  0.14435656549E+04  0.25500000920E-02 0. -1.
    10030    2    1    2    0    0  0.00000000000E+00  0.00000000000E+00  0.13392900882E+04  0.42264213981E+04  0.40086082240E+04 0.  0.
        1    1    3    3  502    0  0.87882555800E+03  0.18011584356E+04  0.69811020575E+03  0.21222308854E+04  0.50400001928E-02 0. -1.
       -1    1    3    3    0  502 -0.87882555800E+03 -0.18011584356E+04  0.64117988247E+03  0.21041905126E+04  0.50400001928E-02 0.  1.
</event>
<event>
 5   0  0.1073271E-07  0.4021163E+04  0.7818609E-02  0.8000291E-01
       -2   -1    0    0    0  501  0.00000000000E+00  0.00000000000E+00  0.25813676779E+04  0.25813676779E+04  0.25500000920E-02 0.  1.
        2   -1    0    0  501    0  0.00000000000E+00  0.00000000000E+00 -0.15660065273E+04  0.15660065273E+04  0.25500000920E-02 0. -1.
    10030    2    1    2    0    0  0.00000000000E+00  0.00000000000E+00  0.10153611506E+04  0.41473742052E+04  0.40211633307E+04 0.  0.
        1    1    3    3  502    0 -0.13258549739E+04 -0.51970560147E+03  0.19715424889E+04  0.24320701284E+04  0.50400001928E-02 0.  1.
       -1    1    3    3    0  502  0.13258549739E+04  0.51970560147E+03 -0.95618133833E+03  0.17153040768E+04  0.50400001928E-02 0. -1.
</event>
<event>
 5   0  0.1101474E-07  0.3983255E+04  0.7818609E-02  0.8007933E-01
       -2   -1    0    0    0  501  0.00000000000E+00  0.00000000000E+00  0.14515491843E+04  0.14515491843E+04  0.25500000920E-02 0. -1.
        2   -1    0    0  501    0  0.00000000000E+00  0.00000000000E+00 -0.27326528517E+04  0.27326528517E+04  0.25500000920E-02 0.  1.
    10030    2    1    2    0    0  0.00000000000E+00  0.00000000000E+00 -0.12811036674E+04  0.41842020360E+04  0.39832549594E+04 0.  0.
        5    1    3    3  502    0 -0.94674457088E+03 -0.95465380778E+03  0.90288073812E+03  0.16195384813E+04  0.46999998093E+01 0. -1.
       -5    1    3    3    0  502  0.94674457088E+03  0.95465380778E+03 -0.21839844055E+04  0.25646635546E+04  0.46999998093E+01 0.  1.
</event>
<event>
 5   0  0.3399500E-08  0.3991570E+04  0.7818609E-02  0.8006249E-01
       -1   -1    0    0    0  501  0.00000000000E+00  0.00000000000E+00  0.18811561643E+04  0.18811561643E+04  0.50400001928E-02 0. -1.
        1   -1    0    0  501    0  0.00000000000E+00  0.00000000000E+00 -0.21173987510E+04  0.21173987510E+04  0.50400001928E-02 0.  1.
    10030    2    1    2    0    0  0.00000000000E+00  0.00000000000E+00 -0.23624258670E+03  0.39985549153E+04  0.39915699732E+04 0.  0.
        5    1    3    3  502    0  0.26936499604E+03 -0.19761034446E+04 -0.43202067184E+02  0.19948510806E+04  0.46999998093E+01 0. -1.
       -5    1    3    3    0  502 -0.26936499604E+03  0.19761034446E+04 -0.19304051951E+03  0.20037038347E+04  0.46999998093E+01 0.  1.
</event>
<event>
 5   0  0.1095903E-07  0.3982371E+04  0.7818609E-02  0.8008112E-01
        2   -1    0    0  501    0  0.00000000000E+00  0.00000000000E+00  0.12157692769E+04  0.12157692769E+04  0.25500000920E-02 0.  1.
       -2   -1    0    0    0  501  0.00000000000E+00  0.00000000000E+00 -0.32611616626E+04  0.32611616626E+04  0.25500000920E-02 0. -1.
    10030    2    1    2    0    0  0.00000000000E+00  0.00000000000E+00 -0.20453923857E+04  0.44769309395E+04  0.39823712316E+04 0.  0.
        3    1    3    3  502    0 -0.76719786860E+03 -0.16916347427E+04 -0.18291385346E+04  0.26069078352E+04  0.10100000352E+00 0. -1.
       -3    1    3    3    0  502  0.76719786860E+03  0.16916347427E+04 -0.21625385103E+03  0.18700231043E+04  0.10100000352E+00 0.  1.
</event>
<event>
 5   0  0.3399500E-08  0.4008090E+04  0.7818609E-02  0.8002916E-01
        1   -1    0    0  501    0  0.00000000000E+00  0.00000000000E+00  0.12155908302E+04  0.12155908302E+04  0.50400001928E-02 0.  1.
       -1   -1    0    0    0  501  0.00000000000E+00  0.00000000000E+00 -0.33039053815E+04  0.33039053815E+04  0.50400001928E-02 0. -1.
    10030    2    1    2    0    0  0.00000000000E+00  0.00000000000E+00 -0.20883145513E+04  0.45194962117E+04  0.40080903610E+04 0.  0.
        4    1    3    3  502    0  0.16319354331E+04 -0.59138927726E+03 -0.21735764211E+04  0.27816165455E+04  0.12699999809E+01 0. -1.
       -4    1    3    3    0  502 -0.16319354331E+04  0.59138927726E+03  0.85261869732E+02  0.17378796662E+04  0.12699999809E+01 0.  1.
</event>
<event>
 5   0  0.3399500E-08  0.4013349E+04  0.7818609E-02  0.8001859E-01
        1   -1    0    0  501    0  0.00000000000E+00  0.00000000000E+00  0.14431492562E+04  0.14431492562E+04  0.50400001928E-02 0. -1.
       -1   -1    0    0    0  501  0.00000000000E+00  0.00000000000E+00 -0.27902465817E+04  0.27902465817E+04  0.50400001928E-02 0.  1.
    10030    2    1    2    0    0  0.00000000000E+00  0.00000000000E+00 -0.13470973255E+04  0.42333958379E+04  0.40133488655E+04 0.  0.
        1    1    3    3  502    0 -0.16873555830E+04  0.43507181604E+03 -0.17232415874E+04  0.24507178372E+04  0.50400001928E-02 0.  1.
       -1    1    3    3    0  502  0.16873555830E+04 -0.43507181604E+03  0.37614426188E+03  0.17826780008E+04  0.50400001928E-02 0. -1.
</event>
<event>
 5   0  0.3399500E-08  0.3701402E+04  0.7818609E-02  0.8067651E-01
        1   -1    0    0  501    0  0.00000000000E+00  0.00000000000E+00  0.11151548868E+04  0.11151548868E+04  0.50400001928E-02 0.  1.
       -1   -1    0    0    0  501  0.00000000000E+00  0.00000000000E+00 -0.30714062015E+04  0.30714062015E+04  0.50400001928E-02 0. -1.
    10030    2    1    2    0    0  0.00000000000E+00  0.00000000000E+00 -0.19562513147E+04  0.41865610883E+04  0.37014016994E+04 0.  0.
        3    1    3    3  502    0 -0.17643046051E+04  0.10139219530E+03 -0.15997460403E+04  0.23837446424E+04  0.10100000352E+00 0. -1.
       -3    1    3    3    0  502  0.17643046051E+04 -0.10139219530E+03 -0.35650527437E+03  0.18028164459E+04  0.10100000352E+00 0.  1.
</event>
<event>
 5   0  0.3399500E-08  0.3912375E+04  0.7818609E-02  0.8022460E-01
        1   -1    0    0  501    0  0.00000000000E+00  0.00000000000E+00  0.30652305368E+04  0.30652305368E+04  0.50400001928E-02 0.  1.
       -1   -1    0    0    0  501  0.00000000000E+00  0.00000000000E+00 -0.12484117497E+04  0.12484117497E+04  0.50400001928E-02 0. -1.
    10030    2    1    2    0    0  0.00000000000E+00  0.00000000000E+00  0.18168187871E+04  0.43136422865E+04  0.39123751444E+04 0.  0.
        3    1    3    3  502    0 -0.13231288099E+04  0.12573706681E+04  0.13267230708E+03  0.18300963898E+04  0.10100000352E+00 0. -1.
       -3    1    3    3    0  502  0.13231288099E+04 -0.12573706681E+04  0.16841464800E+04  0.24835458967E+04  0.10100000352E+00 0.  1.
</event>
<event>
 5   0  0.1087688E-07  0.4012226E+04  0.7818609E-02  0.8002085E-01
        2   -1    0    0  501    0  0.00000000000E+00  0.00000000000E+00  0.25556292514E+04  0.25556292514E+04  0.25500000920E-02 0. -1.
       -2   -1    0    0    0  501  0.00000000000E+00  0.00000000000E+00 -0.15747544733E+04  0.15747544733E+04  0.25500000920E-02 0.  1.
    10030    2    1    2    0    0  0.00000000000E+00  0.00000000000E+00  0.98087477804E+03  0.41303837247E+04  0.40122256147E+04 0.  0.
        2    1    3    3  502    0 -0.49382511114E+03 -0.18553102088E+04  0.10893340873E+04  0.22074165817E+04  0.25500000920E-02 0. -1.
       -2    1    3    3    0  502  0.49382511114E+03  0.18553102088E+04 -0.10845930922E+03  0.19229671430E+04  0.25500000920E-02 0.  1.
</event>
<event>
 5   0  0.3399500E-08  0.4008530E+04  0.7818609E-02  0.8002828E-01
       -1   -1    0    0    0  501  0.00000000000E+00  0.00000000000E+00  0.24681270793E+04  0.24681270793E+04  0.50400001928E-02 0. -1.
        1   -1    0    0  501    0  0.00000000000E+00  0.00000000000E+00 -0.16275818527E+04  0.16275818527E+04  0.50400001928E-02 0.  1.
    10030    2    1    2    0    0  0.00000000000E+00  0.00000000000E+00  0.84054522661E+03  0.40957089319E+04  0.40085303263E+04 0.  0.
        5    1    3    3  502    0 -0.10413871893E+04 -0.16918588222E+04  0.14958991292E+03  0.19923033866E+04  0.46999998093E+01 0. -1.
       -5    1    3    3    0  502  0.10413871893E+04  0.16918588222E+04  0.69095531369E+03  0.21034055453E+04  0.46999998093E+01 0.  1.
</event>
<event>
 5   0  0.1101474E-07  0.4014301E+04  0.7818609E-02  0.8001668E-01
        2   -1    0    0  501    0  0.00000000000E+00  0.00000000000E+00  0.16385797844E+04  0.16385797844E+04  0.25500000920E-02 0.  1.
       -2   -1    0    0    0  501  0.00000000000E+00  0.00000000000E+00 -0.24586251480E+04  0.24586251480E+04  0.25500000920E-02 0. -1.
    10030    2    1    2    0    0  0.00000000000E+00  0.00000000000E+00 -0.82004536360E+03  0.40972049324E+04  0.40143011671E+04 0.  0.
        5    1    3    3  502    0  0.17607486625E+04  0.57823180077E+03 -0.11966823089E+04  0.22060504315E+04  0.46999998093E+01 0. -1.
       -5    1    3    3    0  502 -0.17607486625E+04 -0.57823180077E+03  0.37663694529E+03  0.18911545009E+04  0.46999998093E+01 0.  1.
</event>
<event>
 5   0  0.3399500E-08  0.3952024E+04  0.7818609E-02  0.8014295E-01
        1   -1    0    0  501    0  0.00000000000E+00  0.00000000000E+00  0.24752740239E+04  0.24752740239E+04  0.50400001928E-02 0.  1.
       -1   -1    0    0    0  501  0.00000000000E+00  0.00000000000E+00 -0.15774506753E+04  0.15774506753E+04  0.50400001928E-02 0. -1.
    10030    2    1    2    0    0  0.00000000000E+00  0.00000000000E+00  0.89782334862E+03  0.40527246992E+04  0.39520236237E+04 0.  0.
        2    1    3    3  502    0  0.78768997064E+03  0.97391236576E+02  0.23046303852E+04  0.24374703598E+04  0.25500000920E-02 0.  1.
       -2    1    3    3    0  502 -0.78768997064E+03 -0.97391236576E+02 -0.14068070366E+04  0.16152543394E+04  0.25500000920E-02 0. -1.
</event>
<event>
 5   0  0.3399500E-08  0.4014298E+04  0.7818609E-02  0.8001668E-01
        1   -1    0    0  501    0  0.00000000000E+00  0.00000000000E+00  0.14070759036E+04  0.14070759036E+04  0.50400001928E-02 0. -1.
       -1   -1    0    0    0  501  0.00000000000E+00  0.00000000000E+00 -0.28631336749E+04  0.28631336749E+04  0.50400001928E-02 0.  1.
    10030    2    1    2    0    0  0.00000000000E+00  0.00000000000E+00 -0.14560577713E+04  0.42702095785E+04  0.40142976485E+04 0.  0.
        2    1    3    3  502    0 -0.99689213937E+03 -0.13967872755E+04 -0.18354728499E+04  0.25127214755E+04  0.25500000920E-02 0.  1.
       -2    1    3    3    0  502  0.99689213937E+03  0.13967872755E+04  0.37941507858E+03  0.17574881031E+04  0.25500000920E-02 0. -1.
</event>
<event>
 5   0  0.3399500E-08  0.3990512E+04  0.7818609E-02  0.8006463E-01
        1   -1    0    0  501    0  0.00000000000E+00  0.00000000000E+00  0.19137219508E+04  0.19137219508E+04  0.50400001928E-02 0.  1.
       -1   -1    0    0    0  501  0.00000000000E+00  0.00000000000E+00 -0.20802637652E+04  0.20802637652E+04  0.50400001928E-02 0. -1.
    10030    2    1    2    0    0  0.00000000000E+00  0.00000000000E+00 -0.16654181446E+03  0.39939857160E+04  0.39905119626E+04 0.  0.
        1    1    3    3  502    0  0.10107336832E+04  0.70044772274E+03  0.14893501443E+04  0.19314174699E+04  0.50400001928E-02 0.  1.
       -1    1    3    3    0  502 -0.10107336832E+04 -0.70044772274E+03 -0.16558919588E+04  0.20625682461E+04  0.50400001928E-02 0. -1.
</event>
<event>
 5   0  0.3399500E-08  0.3989688E+04  0.7818609E-02  0.8006630E-01
       -1   -1    0    0    0  501  0.00000000000E+00  0.00000000000E+00  0.20267548928E+04  0.20267548928E+04  0.50400001928E-02 0. -1.
        1   -1    0    0  501    0  0.00000000000E+00  0.00000000000E+00 -0.19634355491E+04  0.19634355491E+04  0.50400001928E-02 0.  1.
    10030    2    1    2    0    0  0.00000000000E+00  0.00000000000E+00  0.63319343639E+02  0.39901904419E+04  0.39896880108E+04 0.  0.
        2    1    3    3  502    0  0.62699429538E+03  0.13047424202E+04  0.14043950802E+04  0.20168788191E+04  0.25500000920E-02 0. -1.
       -2    1    3    3    0  502 -0.62699429538E+03 -0.13047424202E+04 -0.13410757366E+04  0.19733116228E+04  0.25500000920E-02 0.  1.
</event>
<event>
 5   0  0.1073271E-07  0.4009208E+04  0.7818609E-02  0.8002692E-01
       -2   -1    0    0    0  501  0.00000000000E+00  0.00000000000E+00  0.21604073130E+04  0.21604073130E+04  0.25500000920E-02 0. -1.
        2   -1    0    0  501    0  0.00000000000E+00  0.00000000000E+00 -0.18600370511E+04  0.18600370511E+04  0.25500000920E-02 0.  1.
    10030    2    1    2    0    0  0.00000000000E+00  0.00000000000E+00  0.30037026191E+03  0.40204443640E+04  0.40092082248E+04 0.  0.
        1    1    3    3  502    0 -0.28279777426E+03 -0.16871483829E+04 -0.89772840657E+03  0.19319318153E+04  0.50400001928E-02 0.  1.
       -1    1    3    3    0  502  0.28279777426E+03  0.16871483829E+04  0.11980986685E+04  0.20885125488E+04  0.50400001928E-02 0. -1.
</event>
<event>
 5   0  0.1073271E-07  0.4003079E+04  0.7818609E-02  0.8003926E-01
        2   -1    0    0  501    0  0.00000000000E+00  0.00000000000E+00  0.21498102118E+04  0.21498102118E+04  0.25500000920E-02 0. -1.
       -2   -1    0    0    0  501  0.00000000000E+00  0.00000000000E+00 -0.18634945083E+04  0.18634945083E+04  0.25500000920E-02 0.  1.
    10030    2    1    2    0    0  0.00000000000E+00  0.00000000000E+00  0.28631570348E+03  0.40133047201E+04  0.40030785771E+04 0.  0.
        1    1    3    3  502    0 -0.91850223201E+03  0.95417655504E+03  0.16476780614E+04  0.21139872853E+04  0.50400001928E-02 0. -1.
       -1    1    3    3    0  502  0.91850223201E+03 -0.95417655504E+03 -0.13613623580E+04  0.18993174348E+04  0.50400001928E-02 0.  1.
</event>
<event>
 5   0  0.3399500E-08  0.4059055E+04  0.7818609E-02  0.7992738E-01
       -1   -1    0    0    0  501  0.00000000000E+00  0.00000000000E+00  0.25009731784E+04  0.25009731784E+04  0.50400001928E-02 0. -1.
        1   -1    0    0  501    0  0.00000000000E+00  0.00000000000E+00 -0.16469514489E+04  0.16469514489E+04  0.50400001928E-02 0.  1.
    10030    2    1    2    0    0  0.00000000000E+00  0.00000000000E+00  0.85402172945E+03  0.41479246273E+04  0.40590547667E+04 0.  0.
        4    1    3    3  502    0  0.51330901459E+03 -0.81813218476E+03  0.22510715537E+04  0.24495205998E+04  0.12699999809E+01 0. -1.
       -4    1    3    3    0  502 -0.51330901459E+03  0.81813218476E+03 -0.13970498242E+04  0.16984040275E+04  0.12699999809E+01 0.  1.
</event>
<event>
 5   0  0.1101474E-07  0.3696018E+04  0.7818609E-02  0.8068845E-01
        2   -1    0    0  501    0  0.00000000000E+00  0.00000000000E+00  0.20876754424E+04  0.20876754424E+04  0.25500000920E-02 0.  1.
       -2   -1    0    0    0  501  0.00000000000E+00  0.00000000000E+00 -0.16358568452E+04  0.16358568452E+04  0.25500000920E-02 0. -1.
    10030    2    1    2    0    0  0.00000000000E+00  0.00000000000E+00  0.45181859716E+03  0.37235322875E+04  0.36960184864E+04 0.  0.
        5    1    3    3  502    0  0.18302801466E+04 -0.18014887034E+03  0.40819000764E+03  0.18838843390E+04  0.46999998093E+01 0.  1.
       -5    1    3    3    0  502 -0.18302801466E+04  0.18014887034E+03  0.43628589528E+02  0.18396479485E+04  0.46999998093E+01 0. -1.
</event>
<event>
 5   0  0.3399500E-08  0.3971635E+04  0.7818609E-02  0.8010293E-01
        1   -1    0    0  501    0  0.00000000000E+00  0.00000000000E+00  0.13198856418E+04  0.13198856418E+04  0.50400001928E-02 0.  1.
       -1   -1    0    0    0  501  0.00000000000E+00  0.00000000000E+00 -0.29877374952E+04  0.29877374952E+04  0.50400001928E-02 0. -1.
    10030    2    1    2    0    0  0.00000000000E+00  0.00000000000E+00 -0.16678518534E+04  0.43076231370E+04  0.39716353415E+04 0.  0.
        5    1    3    3  502    0  0.19385211329E+04  0.25843797863E+03 -0.46010115779E+03  0.20090718098E+04  0.46999998093E+01 0.  1.
       -5    1    3    3    0  502 -0.19385211329E+04 -0.25843797863E+03 -0.12077506956E+04  0.22985513273E+04  0.46999998093E+01 0. -1.
</event>
<event>
 5   0  0.3399500E-08  0.3992730E+04  0.7818609E-02  0.8006015E-01
       -1   -1    0    0    0  501  0.00000000000E+00  0.00000000000E+00  0.27537155157E+04  0.27537155157E+04  0.50400001928E-02 0.  1.
        1   -1    0    0  501    0  0.00000000000E+00  0.00000000000E+00 -0.14473076042E+04  0.14473076042E+04  0.50400001928E-02 0. -1.
    10030    2    1    2    0    0  0.00000000000E+00  0.00000000000E+00  0.13064079115E+04  0.42010231200E+04  0.39927300965E+04 0.  0.
        2    1    3    3  502    0  0.64685433461E+03 -0.81393377993E+03 -0.11399833015E+04  0.15428773950E+04  0.25500000920E-02 0. -1.
       -2    1    3    3    0  502 -0.64685433461E+03  0.81393377993E+03  0.24463912130E+04  0.26581457250E+04  0.25500000920E-02 0.  1.
</event>
<event>
 5   0  0.1101474E-07  0.3780060E+04  0.7818609E-02  0.8050448E-01
        2   -1    0    0  501    0  0.00000000000E+00  0.00000000000E+00  0.21637115566E+04  0.21637115567E+04  0.25500000920E-02 0. -1.
       -2   -1    0    0    0  501  0.00000000000E+00  0.00000000000E+00 -0.16509655838E+04  0.16509655838E+04  0.25500000920E-02 0.  1.
    10030    2    1    2    0    0  0.00000000000E+00  0.00000000000E+00  0.51274597280E+03  0.38146771405E+04  0.37800599537E+04 0.  0.
        5    1    3    3  502    0 -0.55631167343E+03  0.16172927087E+04 -0.55540203614E+03  0.17982246510E+04  0.46999998093E+01 0. -1.
       -5    1    3    3    0  502  0.55631167343E+03 -0.16172927087E+04  0.10681480089E+04  0.20164524895E+04  0.46999998093E+01 0.  1.
</event>
<event>
 5   0  0.1073271E-07  0.3924446E+04  0.7818609E-02  0.8019964E-01
       -2   -1    0    0    0  501  0.00000000000E+00  0.00000000000E+00  0.14500590500E+04  0.14500590500E+04  0.25500000920E-02 0.  1.
        2   -1    0    0  501    0  0.00000000000E+00  0.00000000000E+00 -0.26552846518E+04  0.26552846518E+04  0.25500000920E-02 0. -1.
    10030    2    1    2    0    0  0.00000000000E+00  0.00000000000E+00 -0.12052256018E+04  0.41053437018E+04  0.39244462232E+04 0.  0.
        1    1    3    3  502    0 -0.12153594299E+02  0.16941429312E+04  0.43299568836E+03  0.17486432591E+04  0.50400001928E-02 0.  1.
       -1    1    3    3    0  502  0.12153594299E+02 -0.16941429312E+04 -0.16382212901E+04  0.23567004427E+04  0.50400001928E-02 0. -1.
</event>
<event>
 5   0  0.3399500E-08  0.4001013E+04  0.7818609E-02  0.8004342E-01
       -1   -1    0    0    0  501  0.00000000000E+00  0.00000000000E+00  0.14979149490E+04  0.14979149490E+04  0.50400001928E-02 0. -1.
        1   -1    0    0  501    0  0.00000000000E+00  0.00000000000E+00 -0.26717307408E+04  0.26717307408E+04  0.50400001928E-02 0.  1.
    10030    2    1    2    0    0  0.00000000000E+00  0.00000000000E+00 -0.11738157919E+04  0.41696456898E+04  0.40010125800E+04 0.  0.
        4    1    3    3  502    0  0.97064867346E+03 -0.17347749739E+04 -0.35289819077E+03  0.20189457158E+04  0.12699999809E+01 0.  1.
       -4    1    3    3    0  502 -0.97064867346E+03  0.17347749739E+04 -0.82091760109E+03  0.21506999740E+04  0.12699999809E+01 0. -1.
</event>
<event>
 5   0  0.3399500E-08  0.4051471E+04  0.7818609E-02  0.7994243E-01
       -1   -1    0    0    0  501  0.00000000000E+00  0.00000000000E+00  0.17515462424E+04  0.17515462424E+04  0.50400001928E-02 0.  1.
        1   -1    0    0  501    0  0.00000000000E+00  0.00000000000E+00 -0.23428468366E+04  0.23428468367E+04  0.50400001928E-02 0. -1.
    10030    2    1    2    0    0  0.00000000000E+00  0.00000000000E+00 -0.59130059429E+03  0.40943930790E+04  0.40514711270E+04 0.  0.
        5    1    3    3  502    0 -0.93497900631E+02 -0.54480461400E+03  0.16738493131E+04  0.17627670117E+04  0.46999998093E+01 0.  1.
       -5    1    3    3    0  502  0.93497900631E+02  0.54480461400E+03 -0.22651499073E+04  0.23316260673E+04  0.46999998093E+01 0. -1.
</event>
<event>
 5   0  0.3399500E-08  0.3703088E+04  0.7818609E-02  0.8067278E-01
       -1   -1    0    0    0  501  0.00000000000E+00  0.00000000000E+00  0.13681454479E+04  0.13681454479E+04  0.50400001928E-02 0.  1.
        1   -1    0    0  501    0  0.00000000000E+00  0.00000000000E+00 -0.25057385387E+04  0.25057385387E+04  0.50400001928E-02 0. -1.
    10030    2    1    2    0    0  0.00000000000E+00  0.00000000000E+00 -0.11375930909E+04  0.38738839866E+04  0.37030877793E+04 0.  0.
        3    1    3    3  502    0 -0.10041244664E+04 -0.14303473387E+04  0.71012708044E+02  0.17490575371E+04  0.10100000352E+00 0. -1.
       -3    1    3    3    0  502  0.10041244664E+04  0.14303473387E+04 -0.12086057989E+04  0.21248264495E+04  0.10100000352E+00 0.  1.
</event>
<event>
 5   0  0.3399500E-08  0.4024679E+04  0.7818609E-02  0.7999586E-01
       -3   -1    0    0    0  501  0.00000000000E+00  0.00000000000E+00  0.11687260263E+04  0.11687260307E+04  0.10100000352E+00 0.  1.
        3   -1    0    0  501    0  0.00000000000E+00  0.00000000000E+00 -0.34648926849E+04  0.34648926864E+04  0.10100000352E+00 0. -1.
    10030    2    1    2    0    0  0.00000000000E+00  0.00000000000E+00 -0.22961666586E+04  0.46336187170E+04  0.40246790047E+04 0.  0.
        3    1    3    3  502    0 -0.31570491483E+03  0.19037219098E+04 -0.18051159984E+04  0.26423986226E+04  0.10100000352E+00 0. -1.
       -3    1    3    3    0  502  0.31570491483E+03 -0.19037219098E+04 -0.49105066023E+03  0.19912200944E+04  0.10100000352E+00 0.  1.
</event>
<event>
 5   0  0.3399500E-08  0.3986748E+04  0.7818609E-02  0.8007225E-01
       -1   -1    0    0    0  501  0.00000000000E+00  0.00000000000E+00  0.19599907839E+04  0.19599907839E+04  0.50400001928E-02 0.  1.
        1   -1    0    0  501    0  0.00000000000E+00  0.00000000000E+00 -0.20273257955E+04  0.20273257955E+04  0.50400001928E-02 0. -1.
    10030    2    1    2    0    0  0.00000000000E+00  0.00000000000E+00 -0.67335011552E+02  0.39873165794E+04  0.39867479856E+04 0.  0.
        4    1    3    3  502    0 -0.72339555746E+03 -0.82123675626E+03 -0.16999805475E+04  0.20217978181E+04  0.12699999809E+01 0. -1.
       -4    1    3    3    0  502  0.72339555746E+03  0.82123675626E+03  0.16326455359E+04  0.19655187614E+04  0.12699999809E+01 0.  1.
</event>
<event>
 5   0  0.3399500E-08  0.3981015E+04  0.7818609E-02  0.8008387E-01
        1   -1    0    0  501    0  0.00000000000E+00  0.00000000000E+00  0.18897441346E+04  0.18897441346E+04  0.50400001928E-02 0. -1.
       -1   -1    0    0    0  501  0.00000000000E+00  0.00000000000E+00 -0.20966440226E+04  0.20966440226E+04  0.50400001928E-02 0.  1.
    10030    2    1    2    0    0  0.00000000000E+00  0.00000000000E+00 -0.20689988792E+03  0.39863881572E+04  0.39810153198E+04 0.  0.
        5    1    3    3  502    0  0.46817582891E+03  0.15766944797E+04  0.10191985480E+04  0.19349268357E+04  0.46999998093E+01 0. -1.
       -5    1    3    3    0  502 -0.46817582891E+03 -0.15766944797E+04 -0.12260984359E+04  0.20514613215E+04  0.46999998093E+01 0.  1.
</event>
<event>
 5   0  0.1095109E-07  0.4162302E+04  0.7818609E-02  0.7972582E-01
        2   -1    0    0  501    0  0.00000000000E+00  0.00000000000E+00  0.15269983019E+04  0.15269983019E+04  0.25500000920E-02 0.  1.
       -2   -1    0    0    0  501  0.00000000000E+00  0.00000000000E+00 -0.28364074434E+04  0.28364074434E+04  0.25500000920E-02 0. -1.
    10030    2    1    2    0    0  0.00000000000E+00  0.00000000000E+00 -0.13094091415E+04  0.43634057452E+04  0.41623019350E+04 0.  0.
        4    1    3    3  502    0  0.13486055599E+04 -0.88576792239E+03  0.72328853157E+03  0.17681825927E+04  0.12699999809E+01 0.  1.
       -4    1    3    3    0  502 -0.13486055599E+04  0.88576792239E+03 -0.20326976730E+04  0.25952231525E+04  0.12699999809E+01 0. -1.
</event>
<event>
 5   0  0.3399500E-08  0.3903865E+04  0.7818609E-02  0.8024226E-01
       -1   -1    0    0    0  501  0.00000000000E+00  0.00000000000E+00  0.22270625191E+04  0.22270625191E+04  0.50400001928E-02 0. -1.
        1   -1    0    0  501    0  0.00000000000E+00  0.00000000000E+00 -0.17107920344E+04  0.17107920344E+04  0.50400001928E-02 0.  1.
    10030    2    1    2    0    0  0.00000000000E+00  0.00000000000E+00  0.51627048474E+03  0.39378545535E+04  0.39038651707E+04 0.  0.
        5    1    3    3  502    0  0.66012533725E+02 -0.18875749977E+04  0.75509264596E+03  0.20340806328E+04  0.46999998093E+01 0. -1.
       -5    1    3    3    0  502 -0.66012533725E+02  0.18875749977E+04 -0.23882216122E+03  0.19037739207E+04  0.46999998093E+01 0.  1.
</event>
<event>
 5   0  0.1095903E-07  0.3997362E+04  0.7818609E-02  0.8005079E-01
        2   -1    0    0  501    0  0.00000000000E+00  0.00000000000E+00  0.21951914466E+04  0.21951914466E+04  0.25500000920E-02 0.  1.
       -2   -1    0    0    0  501  0.00000000000E+00  0.00000000000E+00 -0.18197615144E+04  0.18197615144E+04  0.25500000920E-02 0. -1.
    10030    2    1    2    0    0  0.00000000000E+00  0.00000000000E+00  0.37542993217E+03  0.40149529610E+04  0.39973615854E+04 0.  0.
        3    1    3    3  502    0  0.13659346681E+04 -0.12070122637E+04 -0.63569076821E+03  0.19304815164E+04  0.10100000352E+00 0.  1.
       -3    1    3    3    0  502 -0.13659346681E+04  0.12070122637E+04  0.10111207004E+04  0.20844714446E+04  0.10100000352E+00 0. -1.
</event>
<event>
 5   0  0.1095903E-07  0.4012814E+04  0.7818609E-02  0.8001967E-01
       -2   -1    0    0    0  501  0.00000000000E+00  0.00000000000E+00  0.15528177721E+04  0.15528177721E+04  0.25500000920E-02 0. -1.
        2   -1    0    0  501    0  0.00000000000E+00  0.00000000000E+00 -0.25924927992E+04  0.25924927992E+04  0.25500000920E-02 0.  1.
    10030    2    1    2    0    0  0.00000000000E+00  0.00000000000E+00 -0.10396750271E+04  0.41453105713E+04  0.40128139218E+04 0.  0.
        3    1    3    3  502    0  0.39746188787E+03 -0.14965964907E+04 -0.18378539618E+04  0.24032237106E+04  0.10100000352E+00 0.  1.
       -3    1    3    3    0  502 -0.39746188787E+03  0.14965964907E+04  0.79817893469E+03  0.17420868607E+04  0.10100000352E+00 0. -1.
</event>
<event>
 5   0  0.3399500E-08  0.3905509E+04  0.7818609E-02  0.8023884E-01
       -1   -1    0    0    0  501  0.00000000000E+00  0.00000000000E+00  0.16336228625E+04  0.16336228625E+04  0.50400001928E-02 0. -1.
        1   -1    0    0  501    0  0.00000000000E+00  0.00000000000E+00 -0.23342293050E+04  0.23342293050E+04  0.50400001928E-02 0.  1.
    10030    2    1    2    0    0  0.00000000000E+00  0.00000000000E+00 -0.70060644254E+03  0.39678521675E+04  0.39055091135E+04 0.  0.
        2    1    3    3  502    0 -0.79140446782E+03  0.24097248519E+03 -0.21473980866E+04  0.23012403856E+04  0.25500000920E-02 0.  1.
       -2    1    3    3    0  502  0.79140446782E+03 -0.24097248519E+03  0.14467916440E+04  0.16666117819E+04  0.25500000920E-02 0. -1.
</event>
<event>
 5   0  0.1101474E-07  0.3951561E+04  0.7818609E-02  0.8014390E-01
       -2   -1    0    0    0  501  0.00000000000E+00  0.00000000000E+00  0.16411422769E+04  0.16411422769E+04  0.25500000920E-02 0.  1.
        2   -1    0    0  501    0  0.00000000000E+00  0.00000000000E+00 -0.23786531425E+04  0.23786531425E+04  0.25500000920E-02 0. -1.
    10030    2    1    2    0    0  0.00000000000E+00  0.00000000000E+00 -0.73751086560E+03  0.40197954194E+04  0.39515608229E+04 0.  0.
        5    1    3    3  502    0 -0.16997549644E+04 -0.10049817034E+04 -0.30028053394E+03  0.19973346370E+04  0.46999998093E+01 0.  1.
       -5    1    3    3    0  502  0.16997549644E+04  0.10049817034E+04 -0.43723033166E+03  0.20224607823E+04  0.46999998093E+01 0. -1.
</event>
<event>
 5   0  0.3399500E-08  0.4182811E+04  0.7818609E-02  0.7968650E-01
        3   -1    0    0  501    0  0.00000000000E+00  0.00000000000E+00  0.21478236853E+04  0.21478236877E+04  0.10100000352E+00 0.  1.
       -3   -1    0    0    0  501  0.00000000000E+00  0.00000000000E+00 -0.20364695107E+04  0.20364695132E+04  0.10100000352E+00 0. -1.
    10030    2    1    2    0    0  0.00000000000E+00  0.00000000000E+00  0.11135417457E+03  0.41842932009E+04  0.41828112364E+04 0.  0.
        1    1    3    3  502    0  0.11906876589E+04 -0.10230244968E+04 -0.13267174505E+04  0.20553577343E+04  0.50400001928E-02 0. -1.
       -1    1    3    3    0  502 -0.11906876589E+04  0.10230244968E+04  0.14380716251E+04  0.21289354666E+04  0.50400001928E-02 0.  1.
</event>
<event>
 5   0  0.3399500E-08  0.4003666E+04  0.7818609E-02  0.8003807E-01
        1   -1    0    0  501    0  0.00000000000E+00  0.00000000000E+00  0.16279680861E+04  0.16279680861E+04  0.50400001928E-02 0. -1.
       -1   -1    0    0    0  501  0.00000000000E+00  0.00000000000E+00 -0.24615560607E+04  0.24615560607E+04  0.50400001928E-02 0.  1.
    10030    2    1    2    0    0  0.00000000000E+00  0.00000000000E+00 -0.83358797461E+03  0.40895241469E+04  0.40036656749E+04 0.  0.
        2    1    3    3  502    0 -0.10426484044E+04  0.17784468978E+03  0.13192388872E+04  0.16908978888E+04  0.25500000920E-02 0. -1.
       -2    1    3    3    0  502  0.10426484044E+04 -0.17784468978E+03 -0.21528268618E+04  0.23986262581E+04  0.25500000920E-02 0.  1.
</event>
<event>
 5   0  0.1101474E-07  0.3993836E+04  0.7818609E-02  0.8005791E-01
       -2   -1    0    0    0  501  0.00000000000E+00  0.00000000000E+00  0.29804804781E+04  0.29804804781E+04  0.25500000920E-02 0.  1.
        2   -1    0    0  501    0  0.00000000000E+00  0.00000000000E+00 -0.13379326463E+04  0.13379326463E+04  0.25500000920E-02 0. -1.
    10030    2    1    2    0    0  0.00000000000E+00  0.00000000000E+00  0.16425478319E+04  0.43184131244E+04  0.39938363178E+04 0.  0.
        5    1    3    3  502    0  0.49258980559E+03  0.12757200891E+04 -0.75216949943E+03  0.15607330035E+04  0.46999998093E+01 0. -1.
       -5    1    3    3    0  502 -0.49258980559E+03 -0.12757200891E+04  0.23947173313E+04  0.27576801209E+04  0.46999998093E+01 0.  1.
</event>
<event>
 5   0  0.1073271E-07  0.3998141E+04  0.7818609E-02  0.8004922E-01
       -2   -1    0    0    0  501  0.00000000000E+00  0.00000000000E+00  0.13767069344E+04  0.13767069344E+04  0.25500000920E-02 0.  1.
        2   -1    0    0  501    0  0.00000000000E+00  0.00000000000E+00 -0.29027841743E+04  0.29027841743E+04  0.25500000920E-02 0. -1.
    10030    2    1    2    0    0  0.00000000000E+00  0.00000000000E+00 -0.15260772399E+04  0.42794911087E+04  0.39981411190E+04 0.  0.
        1    1    3    3  502    0 -0.16694561961E+04 -0.10483843907E+04 -0.40789294854E+03  0.20130997191E+04  0.50400001928E-02 0.  1.
       -1    1    3    3    0  502  0.16694561961E+04  0.10483843907E+04 -0.11181842914E+04  0.22663913896E+04  0.50400001928E-02 0. -1.
</event>
<event>
 5   0  0.3399500E-08  0.4000605E+04  0.7818609E-02  0.8004425E-01
        1   -1    0    0  501    0  0.00000000000E+00  0.00000000000E+00  0.29293507655E+04  0.29293507655E+04  0.50400001928E-02 0. -1.
       -1   -1    0    0    0  501  0.00000000000E+00  0.00000000000E+00 -0.13659033471E+04  0.13659033471E+04  0.50400001928E-02 0.  1.
    10030    2    1    2    0    0  0.00000000000E+00  0.00000000000E+00  0.15634474184E+04  0.42952541127E+04  0.40006049620E+04 0.  0.
        2    1    3    3  502    0  0.58656410426E+03  0.15686467393E+04 -0.39268574818E+03  0.17201488708E+04  0.25500000920E-02 0.  1.
       -2    1    3    3    0  502 -0.58656410426E+03 -0.15686467393E+04  0.19561331666E+04  0.25751052418E+04  0.25500000920E-02 0. -1.
</event>
<event>
 5   0  0.1073271E-07  0.3986101E+04  0.7818609E-02  0.8007356E-01
       -2   -1    0    0    0  501  0.00000000000E+00  0.00000000000E+00  0.18756995588E+04  0.18756995588E+04  0.25500000920E-02 0.  1.
        2   -1    0    0  501    0  0.00000000000E+00  0.00000000000E+00 -0.21177432109E+04  0.21177432109E+04  0.25500000920E-02 0. -1.
    10030    2    1    2    0    0  0.00000000000E+00  0.00000000000E+00 -0.24204365217E+03  0.39934427697E+04  0.39861008549E+04 0.  0.
        1    1    3    3  502    0 -0.13867896607E+04  0.10847431263E+04 -0.10567640188E+04  0.20534369736E+04  0.50400001928E-02 0. -1.
       -1    1    3    3    0  502  0.13867896607E+04 -0.10847431263E+04  0.81472036664E+03  0.19400057961E+04  0.50400001928E-02 0.  1.
</event>
<event>
 5   0  0.3399500E-08  0.4117835E+04  0.7818609E-02  0.7981188E-01
       -1   -1    0    0    0  501  0.00000000000E+00  0.00000000000E+00  0.22570958705E+04  0.22570958705E+04  0.50400001928E-02 0.  1.
        1   -1    0    0  501    0  0.00000000000E+00  0.00000000000E+00 -0.18781393894E+04  0.18781393894E+04  0.50400001928E-02 0. -1.
    10030    2    1    2    0    0  0.00000000000E+00  0.00000000000E+00  0.37895648112E+03  0.41352352599E+04  0.41178347029E+04 0.  0.
        4    1    3    3  502    0 -0.13312039437E+04 -0.81917329351E+03 -0.11563303526E+04  0.19442865843E+04  0.12699999809E+01 0. -1.
       -4    1    3    3    0  502  0.13312039437E+04  0.81917329351E+03  0.15352868337E+04  0.21909486756E+04  0.12699999809E+01 0.  1.
</event>
<event>
 5   0  0.1095903E-07  0.3989990E+04  0.7818609E-02  0.8006569E-01
       -2   -1    0    0    0  501  0.00000000000E+00  0.00000000000E+00  0.15104089346E+04  0.15104089346E+04  0.25500000920E-02 0.  1.
        2   -1    0    0  501    0  0.00000000000E+00  0.00000000000E+00 -0.26350510093E+04  0.26350510093E+04  0.25500000920E-02 0. -1.
    10030    2    1    2    0    0  0.00000000000E+00  0.00000000000E+00 -0.11246420747E+04  0.41454599438E+04  0.39899897681E+04 0.  0.
        3    1    3    3  502    0  0.47747044988E+03  0.18633441192E+04 -0.11120653612E+04  0.22218727945E+04  0.10100000352E+00 0. -1.
       -3    1    3    3    0  502 -0.47747044988E+03 -0.18633441192E+04 -0.12576713486E+02  0.19235871493E+04  0.10100000352E+00 0.  1.
</event>
<event>
 5   0  0.3399500E-08  0.3994992E+04  0.7818609E-02  0.8005558E-01
       -1   -1    0    0    0  501  0.00000000000E+00  0.00000000000E+00  0.16039338804E+04  0.16039338804E+04  0.50400001928E-02 0. -1.
        1   -1    0    0  501    0  0.00000000000E+00  0.00000000000E+00 -0.24876273493E+04  0.24876273493E+04  0.50400001928E-02 0.  1.
    10030    2    1    2    0    0  0.00000000000E+00  0.00000000000E+00 -0.88369346895E+03  0.40915612297E+04  0.39949917584E+04 0.  0.
        4    1    3    3  502    0  0.14449214433E+04 -0.40022627214E+02  0.97009638893E+03  0.17408298035E+04  0.12699999809E+01 0. -1.
       -4    1    3    3    0  502 -0.14449214433E+04  0.40022627214E+02 -0.18537898579E+04  0.23507314262E+04  0.12699999809E+01 0.  1.
</event>
<event>
 5   0  0.1095903E-07  0.3998444E+04  0.7818609E-02  0.8004861E-01
        2   -1    0    0  501    0  0.00000000000E+00  0.00000000000E+00  0.24419774865E+04  0.24419774865E+04  0.25500000920E-02 0.  1.
       -2   -1    0    0    0  501  0.00000000000E+00  0.00000000000E+00 -0.16367423344E+04  0.16367423344E+04  0.25500000920E-02 0. -1.
    10030    2    1    2    0    0  0.00000000000E+00  0.00000000000E+00  0.80523515212E+03  0.40787198209E+04  0.39984436631E+04 0.  0.
        3    1    3    3  502    0 -0.53813754928E+03  0.12270068619E+04 -0.11110025737E+04  0.17405357193E+04  0.10100000352E+00 0. -1.
       -3    1    3    3    0  502  0.53813754928E+03 -0.12270068619E+04  0.19162377258E+04  0.23381841016E+04  0.10100000352E+00 0.  1.
</event>
<event>
 5   0  0.1095109E-07  0.4002250E+04  0.7818609E-02  0.8004093E-01
       -2   -1    0    0    0  501  0.00000000000E+00  0.00000000000E+00  0.17101848930E+04  0.17101848930E+04  0.25500000920E-02 0.  1.
        2   -1    0    0  501    0  0.00000000000E+00  0.00000000000E+00 -0.23415604928E+04  0.23415604928E+04  0.25500000920E-02 0. -1.
    10030    2    1    2    0    0  0.00000000000E+00  0.00000000000E+00 -0.63137559981E+03  0.40517453859E+04  0.40022500576E+04 0.  0.
        4    1    3    3  502    0 -0.16728412661E+04 -0.41176452938E+03 -0.13463905620E+04  0.21864850989E+04  0.12699999809E+01 0.  1.
       -4    1    3    3    0  502  0.16728412661E+04  0.41176452938E+03  0.71501496216E+03  0.18652602870E+04  0.12699999809E+01 0. -1.
</event>
<event>
 5   0  0.1087688E-07  0.3980166E+04  0.7818609E-02  0.8008560E-01
       -2   -1    0    0    0  501  0.00000000000E+00  0.00000000000E+00  0.14426995891E+04  0.14426995891E+04  0.25500000920E-02 0.  1.
        2   -1    0    0  501    0  0.00000000000E+00  0.00000000000E+00 -0.27451531552E+04  0.27451531552E+04  0.25500000920E-02 0. -1.
    10030    2    1    2    0    0  0.00000000000E+00  0.00000000000E+00 -0.13024535661E+04  0.41878527443E+04  0.39801664935E+04 0.  0.
        2    1    3    3  502    0 -0.78236451736E+02 -0.18683342029E+04 -0.13676662978E+04  0.23167444266E+04  0.25500000920E-02 0.  1.
       -2    1    3    3    0  502  0.78236451736E+02  0.18683342029E+04  0.65212731669E+02  0.18711083177E+04  0.25500000920E-02 0. -1.
</event>
<event>
 5   0  0.1087688E-07  0.4069577E+04  0.7818609E-02  0.7990656E-01
        2   -1    0    0  501    0  0.00000000000E+00  0.00000000000E+00  0.25342671419E+04  0.25342671419E+04  0.25500000920E-02 0.  1.
       -2   -1    0    0    0  501  0.00000000000E+00  0.00000000000E+00 -0.16337519097E+04  0.16337519097E+04  0.25500000920E-02 0. -1.
    10030    2    1    2    0    0  0.00000000000E+00  0.00000000000E+00  0.90051523218E+03  0.41680190516E+04  0.40695767754E+04 0.  0.
        2    1    3    3  502    0 -0.84276483152E+02 -0.10005856255E+04  0.22628391131E+04  0.24756241579E+04  0.25500000920E-02 0.  1.
       -2    1    3    3    0  502  0.84276483152E+02  0.10005856255E+04 -0.13623238809E+04  0.16923948937E+04  0.25500000920E-02 0. -1.
</event>
<event>
 5   0  0.3399500E-08  0.4015590E+04  0.7818609E-02  0.8001409E-01
        1   -1    0    0  501    0  0.00000000000E+00  0.00000000000E+00  0.20739864320E+04  0.20739864320E+04  0.50400001928E-02 0.  1.
       -1   -1    0    0    0  501  0.00000000000E+00  0.00000000000E+00 -0.19437158737E+04  0.19437158737E+04  0.50400001928E-02 0. -1.
    10030    2    1    2    0    0  0.00000000000E+00  0.00000000000E+00  0.13027055824E+03  0.40177023057E+04  0.40155897946E+04 0.  0.
        4    1    3    3  502    0  0.70922246213E+03 -0.13202493160E+04 -0.12716753894E+04  0.19655062112E+04  0.12699999809E+01 0. -1.
       -4    1    3    3    0  502 -0.70922246213E+03  0.13202493160E+04  0.14019459476E+04  0.20521960945E+04  0.12699999809E+01 0.  1.
</event>
<event>
 5   0  0.1087688E-07  0.3997321E+04  0.7818609E-02  0.8005087E-01
        2   -1    0    0  501    0  0.00000000000E+00  0.00000000000E+00  0.26936180885E+04  0.26936180885E+04  0.25500000920E-02 0. -1.
       -2   -1    0    0    0  501  0.00000000000E+00  0.00000000000E+00 -0.14830030318E+04  0.14830030318E+04  0.25500000920E-02 0.  1.
    10030    2    1    2    0    0  0.00000000000E+00  0.00000000000E+00  0.12106150567E+04  0.41766211204E+04  0.39973209988E+04 0.  0.
        2    1    3    3  502    0 -0.11096951141E+04  0.16622185300E+04  0.58878348193E+03  0.20835209806E+04  0.25500000920E-02 0.  1.
       -2    1    3    3    0  502  0.11096951141E+04 -0.16622185300E+04  0.62183157475E+03  0.20931001398E+04  0.25500000920E-02 0. -1.
</event>
<event>
 5   0  0.1101474E-07  0.3962396E+04  0.7818609E-02  0.8012176E-01
       -2   -1    0    0    0  501  0.00000000000E+00  0.00000000000E+00  0.17777597258E+04  0.17777597258E+04  0.25500000920E-02 0. -1.
        2   -1    0    0  501    0  0.00000000000E+00  0.00000000000E+00 -0.22079168930E+04  0.22079168930E+04  0.25500000920E-02 0.  1.
    10030    2    1    2    0    0  0.00000000000E+00  0.00000000000E+00 -0.43015716717E+03  0.39856766188E+04  0.39623961085E+04 0.  0.
        5    1    3    3  502    0  0.15985907141E+04  0.45798666589E+03  0.86822610385E+03  0.18759218307E+04  0.46999998093E+01 0. -1.
       -5    1    3    3    0  502 -0.15985907141E+04 -0.45798666589E+03 -0.12983832710E+04  0.21097547881E+04  0.46999998093E+01 0.  1.
</event>
<event>
 5   0  0.1101474E-07  0.3999369E+04  0.7818609E-02  0.8004674E-01
       -2   -1    0    0    0  501  0.00000000000E+00  0.00000000000E+00  0.23581782050E+04  0.23581782050E+04  0.25500000920E-02 0. -1.
        2   -1    0    0  501    0  0.00000000000E+00  0.00000000000E+00 -0.16956895794E+04  0.16956895794E+04  0.25500000920E-02 0.  1.
    10030    2    1    2    0    0  0.00000000000E+00  0.00000000000E+00  0.66248862558E+03  0.40538677845E+04  0.39993690546E+04 0.  0.
        5    1    3    3  502    0  0.78130342994E+03 -0.82833892100E+03 -0.13349731280E+04  0.17546383560E+04  0.46999998093E+01 0.  1.
       -5    1    3    3    0  502 -0.78130342994E+03  0.82833892100E+03  0.19974617536E+04  0.22992294285E+04  0.46999998093E+01 0. -1.
</event>
<event>
 5   0  0.1095903E-07  0.3999513E+04  0.7818609E-02  0.8004645E-01
       -2   -1    0    0    0  501  0.00000000000E+00  0.00000000000E+00  0.15268644365E+04  0.15268644365E+04  0.25500000920E-02 0.  1.
        2   -1    0    0  501    0  0.00000000000E+00  0.00000000000E+00 -0.26191097444E+04  0.26191097444E+04  0.25500000920E-02 0. -1.
    10030    2    1    2    0    0  0.00000000000E+00  0.00000000000E+00 -0.10922453079E+04  0.41459741809E+04  0.39995127323E+04 0.  0.
        3    1    3    3  502    0 -0.62563169636E+03  0.18698837772E+04 -0.89171552542E+03  0.21640325663E+04  0.10100000352E+00 0.  1.
       -3    1    3    3    0  502  0.62563169636E+03 -0.18698837772E+04 -0.20052978251E+03  0.19819416146E+04  0.10100000352E+00 0. -1.
</event>
<event>
 5   0  0.3399500E-08  0.4007795E+04  0.7818609E-02  0.8002976E-01
       -1   -1    0    0    0  501  0.00000000000E+00  0.00000000000E+00  0.15198529393E+04  0.15198529393E+04  0.50400001928E-02 0.  1.
        1   -1    0    0  501    0  0.00000000000E+00  0.00000000000E+00 -0.26421005309E+04  0.26421005309E+04  0.50400001928E-02 0. -1.
    10030    2    1    2    0    0  0.00000000000E+00  0.00000000000E+00 -0.11222475916E+04  0.41619534702E+04  0.40077945346E+04 0.  0.
        5    1    3    3  502    0  0.44947425643E+03  0.14533624122E+04 -0.19156309360E+04  0.24462120475E+04  0.46999998093E+01 0.  1.
       -5    1    3    3    0  502 -0.44947425643E+03 -0.14533624122E+04  0.79338334443E+03  0.17157414227E+04  0.46999998093E+01 0. -1.
</event>
<event>
 5   0  0.3399500E-08  0.3995172E+04  0.7818609E-02  0.8005521E-01
       -1   -1    0    0    0  501  0.00000000000E+00  0.00000000000E+00  0.13399504578E+04  0.13399504578E+04  0.50400001928E-02 0. -1.
        1   -1    0    0  501    0  0.00000000000E+00  0.00000000000E+00 -0.29779828373E+04  0.29779828373E+04  0.50400001928E-02 0.  1.
    10030    2    1    2    0    0  0.00000000000E+00  0.00000000000E+00 -0.16380323795E+04  0.43179332951E+04  0.39951718192E+04 0.  0.
        1    1    3    3  502    0  0.62353862898E+03  0.61626590934E+03 -0.27589522773E+04  0.28948923575E+04  0.50400001928E-02 0.  1.
       -1    1    3    3    0  502 -0.62353862898E+03 -0.61626590934E+03  0.11209198978E+04  0.14230409376E+04  0.50400001928E-02 0. -1.
</event>
<event>
 5   0  0.1095903E-07  0.3994981E+04  0.7818609E-02  0.8005560E-01
        2   -1    0    0  501    0  0.00000000000E+00  0.00000000000E+00  0.20719533084E+04  0.20719533084E+04  0.25500000920E-02 0. -1.
       -2   -1    0    0    0  501  0.00000000000E+00  0.00000000000E+00 -0.19257040661E+04  0.19257040661E+04  0.25500000920E-02 0.  1.
    10030    2    1    2    0    0  0.00000000000E+00  0.00000000000E+00  0.14624924223E+03  0.39976573745E+04  0.39949813070E+04 0.  0.
        3    1    3    3  502    0 -0.32486182491E+03  0.12540791453E+04 -0.14483277357E+04  0.19431682758E+04  0.10100000352E+00 0.  1.
       -3    1    3    3    0  502  0.32486182491E+03 -0.12540791453E+04  0.15945769779E+04  0.20544890987E+04  0.10100000352E+00 0. -1.
</event>
<event>
 5   0  0.3399500E-08  0.3994680E+04  0.7818609E-02  0.8005621E-01
       -1   -1    0    0    0  501  0.00000000000E+00  0.00000000000E+00  0.20599373539E+04  0.20599373539E+04  0.50400001928E-02 0.  1.
        1   -1    0    0  501    0  0.00000000000E+00  0.00000000000E+00 -0.19366450113E+04  0.19366450113E+04  0.50400001928E-02 0. -1.
    10030    2    1    2    0    0  0.00000000000E+00  0.00000000000E+00  0.12329234254E+03  0.39965823652E+04  0.39946801624E+04 0.  0.
        2    1    3    3  502    0 -0.17127843038E+04 -0.90040482407E+03  0.55686518874E+03  0.20135684138E+04  0.25500000920E-02 0.  1.
       -2    1    3    3    0  502  0.17127843038E+04  0.90040482407E+03 -0.43357284620E+03  0.19830139514E+04  0.25500000920E-02 0. -1.
</event>
<event>
 5   0  0.1095109E-07  0.4004399E+04  0.7818609E-02  0.8003660E-01
        2   -1    0    0  501    0  0.00000000000E+00  0.00000000000E+00  0.16231314048E+04  0.16231314048E+04  0.25500000920E-02 0.  1.
       -2   -1    0    0    0  501  0.00000000000E+00  0.00000000000E+00 -0.24697952420E+04  0.24697952420E+04  0.25500000920E-02 0. -1.
    10030    2    1    2    0    0  0.00000000000E+00  0.00000000000E+00 -0.84666383712E+03  0.40929266468E+04  0.40043986918E+04 0.  0.
        4    1    3    3  502    0  0.86457796685E+03  0.15247063670E+04 -0.14124956232E+04  0.22510819765E+04  0.12699999809E+01 0. -1.
       -4    1    3    3    0  502 -0.86457796685E+03 -0.15247063670E+04  0.56583178610E+03  0.18418446703E+04  0.12699999809E+01 0.  1.
</event>
<event>
 5   0  0.3399500E-08  0.3982717E+04  0.7818609E-02  0.8008042E-01
        1   -1    0    0  501    0  0.00000000000E+00  0.00000000000E+00  0.24297421065E+04  0.24297421065E+04  0.50400001928E-02 0.  1.
       -1   -1    0    0    0  501  0.00000000000E+00  0.00000000000E+00 -0.16320701346E+04  0.16320701347E+04  0.50400001928E-02 0. -1.
    10030    2    1    2    0    0  0.00000000000E+00  0.00000000000E+00  0.79767197184E+03  0.40618122411E+04  0.39827174275E+04 0.  0.
        4    1    3    3  502    0  0.16260495627E+04 -0.69520145428E+02 -0.77140011064E+03  0.18010913287E+04  0.12699999809E+01 0. -1.
       -4    1    3    3    0  502 -0.16260495627E+04  0.69520145428E+02  0.15690720825E+04  0.22607209124E+04  0.12699999809E+01 0.  1.
</event>
<event>
 5   0  0.1095109E-07  0.3982715E+04  0.7818609E-02  0.8008043E-01
        2   -1    0    0  501    0  0.00000000000E+00  0.00000000000E+00  0.14686388907E+04  0.14686388907E+04  0.25500000920E-02 0. -1.
       -2   -1    0    0    0  501  0.00000000000E+00  0.00000000000E+00 -0.27001219055E+04  0.27001219055E+04  0.25500000920E-02 0.  1.
    10030    2    1    2    0    0  0.00000000000E+00  0.00000000000E+00 -0.12314830148E+04  0.41687607963E+04  0.39827146723E+04 0.  0.
        4    1    3    3  502    0  0.62613791686E+03 -0.99558972966E+02 -0.25916585517E+04  0.26680810223E+04  0.12699999809E+01 0.  1.
       -4    1    3    3    0  502 -0.62613791686E+03  0.99558972966E+02  0.13601755369E+04  0.15006797740E+04  0.12699999809E+01 0. -1.
</event>
<event>
 5   0  0.1073271E-07  0.3594011E+04  0.7818609E-02  0.8091865E-01
       -2   -1    0    0    0  501  0.00000000000E+00  0.00000000000E+00  0.32696099398E+04  0.32696099398E+04  0.25500000920E-02 0.  1.
        2   -1    0    0  501    0  0.00000000000E+00  0.00000000000E+00 -0.98764946376E+03  0.98764946377E+03  0.25500000920E-02 0. -1.
    10030    2    1    2    0    0  0.00000000000E+00  0.00000000000E+00  0.22819604760E+04  0.42572594035E+04  0.35940108535E+04 0.  0.
        1    1    3    3  502    0 -0.15320656774E+03 -0.15162011064E+04  0.22690297057E+04  0.27332826149E+04  0.50400001928E-02 0.  1.
       -1    1    3    3    0  502  0.15320656774E+03  0.15162011064E+04  0.12930770292E+02  0.15239767886E+04  0.50400001928E-02 0. -1.
</event>
<event>
 5   0  0.1087688E-07  0.3997334E+04  0.7818609E-02  0.8005085E-01
       -2   -1    0    0    0  501  0.00000000000E+00  0.00000000000E+00  0.20326243103E+04  0.20326243103E+04  0.25500000920E-02 0.  1.
        2   -1    0    0  501    0  0.00000000000E+00  0.00000000000E+00 -0.19652766824E+04  0.19652766824E+04  0.25500000920E-02 0. -1.
    10030    2    1    2    0    0  0.00000000000E+00  0.00000000000E+00  0.67347627883E+02  0.39979009928E+04  0.39973336920E+04 0.  0.
        2    1    3    3  502    0 -0.60432085744E+03  0.13752853182E+04 -0.12848667126E+04  0.19767386965E+04  0.25500000920E-02 0. -1.
       -2    1    3    3    0  502  0.60432085744E+03 -0.13752853182E+04  0.13522143405E+04  0.20211622963E+04  0.25500000920E-02 0.  1.
</event>
<event>
 5   0  0.3399500E-08  0.4013355E+04  0.7818609E-02  0.8001858E-01
       -1   -1    0    0    0  501  0.00000000000E+00  0.00000000000E+00  0.16429514491E+04  0.16429514491E+04  0.50400001928E-02 0.  1.
        1   -1    0    0  501    0  0.00000000000E+00  0.00000000000E+00 -0.24509278296E+04  0.24509278296E+04  0.50400001928E-02 0. -1.
    10030    2    1    2    0    0  0.00000000000E+00  0.00000000000E+00 -0.80797638051E+03  0.40938792787E+04  0.40133554187E+04 0.  0.
        3    1    3    3  502    0 -0.35334665422E+03 -0.15650300609E+04 -0.16334012128E+04  0.22895791058E+04  0.10100000352E+00 0. -1.
       -3    1    3    3    0  502  0.35334665422E+03  0.15650300609E+04  0.82542483229E+03  0.18043001728E+04  0.10100000352E+00 0.  1.
</event>
<event>
 5   0  0.3399500E-08  0.3951502E+04  0.7818609E-02  0.8014402E-01
       -1   -1    0    0    0  501  0.00000000000E+00  0.00000000000E+00  0.16091738335E+04  0.16091738335E+04  0.50400001928E-02 0. -1.
        1   -1    0    0  501    0  0.00000000000E+00  0.00000000000E+00 -0.24258357709E+04  0.24258357709E+04  0.50400001928E-02 0.  1.
    10030    2    1    2    0    0  0.00000000000E+00  0.00000000000E+00 -0.81666193745E+03  0.40350096044E+04  0.39515017130E+04 0.  0.
        1    1    3    3  502    0 -0.70217944900E+03  0.13027609387E+04  0.92828106637E+03  0.17469824785E+04  0.50400001928E-02 0. -1.
       -1    1    3    3    0  502  0.70217944900E+03 -0.13027609387E+04 -0.17449430038E+04  0.22880271259E+04  0.50400001928E-02 0.  1.
</event>
<event>
 5   0  0.3399500E-08  0.3988557E+04  0.7818609E-02  0.8006859E-01
        1   -1    0    0  501    0  0.00000000000E+00  0.00000000000E+00  0.27004969573E+04  0.27004969574E+04  0.50400001928E-02 0.  1.
       -1   -1    0    0    0  501  0.00000000000E+00  0.00000000000E+00 -0.14727463845E+04  0.14727463845E+04  0.50400001928E-02 0. -1.
    10030    2    1    2    0    0  0.00000000000E+00  0.00000000000E+00  0.12277505728E+04  0.41732433419E+04  0.39885571980E+04 0.  0.
        2    1    3    3  502    0 -0.19604894420E+04 -0.21695304094E+03  0.30604195217E+03  0.19960584036E+04  0.25500000920E-02 0. -1.
       -2    1    3    3    0  502  0.19604894420E+04  0.21695304094E+03  0.92170862064E+03  0.21771849383E+04  0.25500000920E-02 0.  1.
</event>
<event>
 5   0  0.1087688E-07  0.3960172E+04  0.7818609E-02  0.8012630E-01
       -2   -1    0    0    0  501  0.00000000000E+00  0.00000000000E+00  0.17680137704E+04  0.17680137704E+04  0.25500000920E-02 0. -1.
        2   -1    0    0  501    0  0.00000000000E+00  0.00000000000E+00 -0.22175959860E+04  0.22175959860E+04  0.25500000920E-02 0.  1.
    10030    2    1    2    0    0  0.00000000000E+00  0.00000000000E+00 -0.44958221565E+03  0.39856097564E+04  0.39601718349E+04 0.  0.
        2    1    3    3  502    0 -0.21963374074E+03 -0.13976196562E+03  0.17507152667E+04  0.17699650652E+04  0.25500000920E-02 0. -1.
       -2    1    3    3    0  502  0.21963374074E+03  0.13976196562E+03 -0.22002974823E+04  0.22156446912E+04  0.25500000920E-02 0.  1.
</event>
<event>
 5   0  0.1101474E-07  0.3997347E+04  0.7818609E-02  0.8005082E-01
       -2   -1    0    0    0  501  0.00000000000E+00  0.00000000000E+00  0.27471098557E+04  0.27471098557E+04  0.25500000920E-02 0.  1.
        2   -1    0    0  501    0  0.00000000000E+00  0.00000000000E+00 -0.14541452184E+04  0.14541452184E+04  0.25500000920E-02 0. -1.
    10030    2    1    2    0    0  0.00000000000E+00  0.00000000000E+00  0.12929646373E+04  0.42012550741E+04  0.39973474510E+04 0.  0.
        5    1    3    3  502    0  0.17230871110E+04 -0.71544645008E+02  0.17082251708E+04  0.24273860741E+04  0.46999998093E+01 0.  1.
       -5    1    3    3    0  502 -0.17230871110E+04  0.71544645008E+02 -0.41526053346E+03  0.17738690000E+04  0.46999998093E+01 0. -1.
</event>
<event>
 5   0  0.3399500E-08  0.4024185E+04  0.7818609E-02  0.7999685E-01
       -1   -1    0    0    0  501  0.00000000000E+00  0.00000000000E+00  0.20609085469E+04  0.20609085469E+04  0.50400001928E-02 0.  1.
        1   -1    0    0  501    0  0.00000000000E+00  0.00000000000E+00 -0.19644327496E+04  0.19644327496E+04  0.50400001928E-02 0. -1.
    10030    2    1    2    0    0  0.00000000000E+00  0.00000000000E+00  0.96475797287E+02  0.40253412964E+04  0.40241850073E+04 0.  0.
        1    1    3    3  502    0  0.33592737463E+03 -0.39102470079E+03 -0.18972550675E+04  0.19660428045E+04  0.50400001928E-02 0. -1.
       -1    1    3    3    0  502 -0.33592737463E+03  0.39102470079E+03  0.19937308648E+04  0.20592984920E+04  0.50400001928E-02 0.  1.
</event>
<event>
 5   0  0.1073271E-07  0.3734573E+04  0.7818609E-02  0.8060343E-01
       -2   -1    0    0    0  501  0.00000000000E+00  0.00000000000E+00  0.13819330090E+04  0.13819330090E+04  0.25500000920E-02 0.  1.
        2   -1    0    0  501    0  0.00000000000E+00  0.00000000000E+00 -0.25231029162E+04  0.25231029162E+04  0.25500000920E-02 0. -1.
    10030    2    1    2    0    0  0.00000000000E+00  0.00000000000E+00 -0.11411699072E+04  0.39050359253E+04  0.37345731778E+04 0.  0.
        1    1    3    3  502    0 -0.13661951335E+04  0.67915762767E+03 -0.16963002939E+04  0.22814861194E+04  0.50400001928E-02 0.  1.
       -1    1    3    3    0  502  0.13661951335E+04 -0.67915762767E+03  0.55513038666E+03  0.16235498059E+04  0.50400001928E-02 0. -1.
</event>
<event>
 5   0  0.3399500E-08  0.4015503E+04  0.7818609E-02  0.8001426E-01
        1   -1    0    0  501    0  0.00000000000E+00  0.00000000000E+00  0.25976990547E+04  0.25976990547E+04  0.50400001928E-02 0. -1.
       -1   -1    0    0    0  501  0.00000000000E+00  0.00000000000E+00 -0.15517835579E+04  0.15517835579E+04  0.50400001928E-02 0.  1.
    10030    2    1    2    0    0  0.00000000000E+00  0.00000000000E+00  0.10459154968E+04  0.41494826126E+04  0.40155032967E+04 0.  0.
        1    1    3    3  502    0  0.72968215112E+03  0.18648343734E+04  0.67279004465E+03  0.21125079233E+04  0.50400001928E-02 0.  1.
       -1    1    3    3    0  502 -0.72968215112E+03 -0.18648343734E+04  0.37312545211E+03  0.20369746893E+04  0.50400001928E-02 0. -1.
</event>
<event>
 5   0  0.1101474E-07  0.4021429E+04  0.7818609E-02  0.8000238E-01
        2   -1    0    0  501    0  0.00000000000E+00  0.00000000000E+00  0.13724108246E+04  0.13724108246E+04  0.25500000920E-02 0.  1.
       -2   -1    0    0    0  501  0.00000000000E+00  0.00000000000E+00 -0.29458906569E+04  0.29458906569E+04  0.25500000920E-02 0. -1.
    10030    2    1    2    0    0  0.00000000000E+00  0.00000000000E+00 -0.15734798323E+04  0.43183014814E+04  0.40214287140E+04 0.  0.
        5    1    3    3  502    0 -0.95113286079E+03 -0.76970096769E+03  0.92662383179E+03  0.15348443290E+04  0.46999998093E+01 0.  1.
       -5    1    3    3    0  502  0.95113286079E+03  0.76970096769E+03 -0.25001036641E+04  0.27834571525E+04  0.46999998093E+01 0. -1.
</event>
<event>
 5   0  0.1073271E-07  0.3996196E+04  0.7818609E-02  0.8005314E-01
       -2   -1    0    0    0  501  0.00000000000E+00  0.00000000000E+00  0.33601030539E+04  0.33601030539E+04  0.25500000920E-02 0.  1.
        2   -1    0    0  501    0  0.00000000000E+00  0.00000000000E+00 -0.11881765096E+04  0.11881765096E+04  0.25500000920E-02 0. -1.
    10030    2    1    2    0    0  0.00000000000E+00  0.00000000000E+00  0.21719265443E+04  0.45482795635E+04  0.39961959503E+04 0.  0.
        1    1    3    3  502    0  0.18297404236E+04 -0.73459150570E+03  0.71747459034E+03  0.20981764668E+04  0.50400001928E-02 0. -1.
       -1    1    3    3    0  502 -0.18297404236E+04  0.73459150570E+03  0.14544519540E+04  0.24501030967E+04  0.50400001928E-02 0.  1.
</event>
<event>
 5   0  0.1101474E-07  0.4063220E+04  0.7818609E-02  0.7991913E-01
        2   -1    0    0  501    0  0.00000000000E+00  0.00000000000E+00  0.22680687694E+04  0.22680687694E+04  0.25500000920E-02 0.  1.
       -2   -1    0    0    0  501  0.00000000000E+00  0.00000000000E+00 -0.18198032210E+04  0.18198032210E+04  0.25500000920E-02 0. -1.
    10030    2    1    2    0    0  0.00000000000E+00  0.00000000000E+00  0.44826554837E+03  0.40878719904E+04  0.40632198326E+04 0.  0.
        5    1    3    3  502    0  0.17188077709E+04 -0.17482716509E+03  0.12995202368E+04  0.21618602237E+04  0.46999998093E+01 0.  1.
       -5    1    3    3    0  502 -0.17188077709E+04  0.17482716509E+03 -0.85125468846E+03  0.19260117667E+04  0.46999998093E+01 0. -1.
</event>
<event>
 5   0  0.1101474E-07  0.3873928E+04  0.7818609E-02  0.8030474E-01
        2   -1    0    0  501    0  0.00000000000E+00  0.00000000000E+00  0.23601271704E+04  0.23601271704E+04  0.25500000920E-02 0. -1.
       -2   -1    0    0    0  501  0.00000000000E+00  0.00000000000E+00 -0.15896728564E+04  0.15896728564E+04  0.25500000920E-02 0.  1.
    10030    2    1    2    0    0  0.00000000000E+00  0.00000000000E+00  0.77045431399E+03  0.39498000268E+04  0.38739282907E+04 0.  0.
        5    1    3    3  502    0 -0.16584553306E+04  0.53131028950E+02 -0.63359870900E+03  0.17761662096E+04  0.46999998093E+01 0.  1.
       -5    1    3    3    0  502  0.16584553306E+04 -0.53131028950E+02  0.14040530230E+04  0.21736338172E+04  0.46999998093E+01 0. -1.
</event>
<event>
 5   0  0.3399500E-08  0.3912063E+04  0.7818609E-02  0.8022525E-01
        1   -1    0    0  501    0  0.00000000000E+00  0.00000000000E+00  0.26300782007E+04  0.26300782008E+04  0.50400001928E-02 0. -1.
       -1   -1    0    0    0  501  0.00000000000E+00  0.00000000000E+00 -0.14547319124E+04  0.14547319124E+04  0.50400001928E-02 0.  1.
    10030    2    1    2    0    0  0.00000000000E+00  0.00000000000E+00  0.11753462883E+04  0.40848101132E+04  0.39120627248E+04 0.  0.
        2    1    3    3  502    0  0.12163382586E+03  0.44328683898E+03  0.25728803277E+04  0.26136203224E+04  0.25500000920E-02 0. -1.
       -2    1    3    3    0  502 -0.12163382586E+03 -0.44328683898E+03 -0.13975340393E+04  0.14711897907E+04  0.25500000920E-02 0.  1.
</event>
<event>
 5   0  0.1073271E-07  0.4003969E+04  0.7818609E-02  0.8003746E-01
       -2   -1    0    0    0  501  0.00000000000E+00  0.00000000000E+00  0.16617921365E+04  0.16617921365E+04  0.25500000920E-02 0. -1.
        2   -1    0    0  501    0  0.00000000000E+00  0.00000000000E+00 -0.24118189771E+04  0.24118189771E+04  0.25500000920E-02 0.  1.
    10030    2    1    2    0    0  0.00000000000E+00  0.00000000000E+00 -0.75002684055E+03  0.40736111136E+04  0.40039689364E+04 0.  0.
        1    1    3    3  502    0 -0.14126562111E+04 -0.82846869369E+02  0.10657680150E+04  0.17715311559E+04  0.50400001928E-02 0. -1.
       -1    1    3    3    0  502  0.14126562111E+04  0.82846869369E+02 -0.18157948556E+04  0.23020799578E+04  0.50400001928E-02 0.  1.
</event>
<event>
 5   0  0.3399500E-08  0.4002560E+04  0.7818609E-02  0.8004030E-01
       -1   -1    0    0    0  501  0.00000000000E+00  0.00000000000E+00  0.34778014870E+04  0.34778014870E+04  0.50400001928E-02 0.  1.
        1   -1    0    0  501    0  0.00000000000E+00  0.00000000000E+00 -0.11516243709E+04  0.11516243709E+04  0.50400001928E-02 0. -1.
    10030    2    1    2    0    0  0.00000000000E+00  0.00000000000E+00  0.23261771161E+04  0.46294258579E+04  0.40025596558E+04 0.  0.
        2    1    3    3  502    0  0.11201909483E+04 -0.16457939885E+04  0.92702734117E+03  0.21960977448E+04  0.25500000920E-02 0. -1.
       -2    1    3    3    0  502 -0.11201909483E+04  0.16457939885E+04  0.13991497749E+04  0.24333281131E+04  0.25500000920E-02 0.  1.
</event>
<event>
 5   0  0.1095109E-07  0.3996237E+04  0.7818609E-02  0.8005306E-01
        2   -1    0    0  501    0  0.00000000000E+00  0.00000000000E+00  0.20982621003E+04  0.20982621003E+04  0.25500000920E-02 0.  1.
       -2   -1    0    0    0  501  0.00000000000E+00  0.00000000000E+00 -0.19027545773E+04  0.19027545773E+04  0.25500000920E-02 0. -1.
    10030    2    1    2    0    0  0.00000000000E+00  0.00000000000E+00  0.19550752303E+03  0.40010166776E+04  0.39962371379E+04 0.  0.
        4    1    3    3  502    0  0.32630862495E+03 -0.37714395173E+03  0.20349480809E+04  0.20951682949E+04  0.12699999809E+01 0.  1.
       -4    1    3    3    0  502 -0.32630862495E+03  0.37714395173E+03 -0.18394405579E+04  0.19058483827E+04  0.12699999809E+01 0. -1.
</event>
<event>
 5   0  0.3399500E-08  0.3979807E+04  0.7818609E-02  0.8008633E-01
       -1   -1    0    0    0  501  0.00000000000E+00  0.00000000000E+00  0.28006249726E+04  0.28006249727E+04  0.50400001928E-02 0.  1.
        1   -1    0    0  501    0  0.00000000000E+00  0.00000000000E+00 -0.14138685769E+04  0.14138685770E+04  0.50400001928E-02 0. -1.
    10030    2    1    2    0    0  0.00000000000E+00  0.00000000000E+00  0.13867563957E+04  0.42144935496E+04  0.39798068519E+04 0.  0.
        3    1    3    3  502    0 -0.67089811179E+03  0.30294150720E+03  0.26511367170E+04  0.27514366675E+04  0.10100000352E+00 0.  1.
       -3    1    3    3    0  502  0.67089811179E+03 -0.30294150720E+03 -0.12643803213E+04  0.14630568821E+04  0.10100000352E+00 0. -1.
</event>
<event>
 5   0  0.1095903E-07  0.3979268E+04  0.7818609E-02  0.8008742E-01
       -2   -1    0    0    0  501  0.00000000000E+00  0.00000000000E+00  0.18891654358E+04  0.18891654358E+04  0.25500000920E-02 0. -1.
        2   -1    0    0  501    0  0.00000000000E+00  0.00000000000E+00 -0.20954459948E+04  0.20954459948E+04  0.25500000920E-02 0.  1.
    10030    2    1    2    0    0  0.00000000000E+00  0.00000000000E+00 -0.20628055902E+03  0.39846114307E+04  0.39792683479E+04 0.  0.
        3    1    3    3  502    0  0.55849167345E+03 -0.98288435991E+02  0.18065309840E+04  0.18934433639E+04  0.10100000352E+00 0. -1.
       -3    1    3    3    0  502 -0.55849167345E+03  0.98288435991E+02 -0.20128115430E+04  0.20911680668E+04  0.10100000352E+00 0.  1.
</event>
<event>
 5   0  0.3399500E-08  0.4015303E+04  0.7818609E-02  0.8001467E-01
       -1   -1    0    0    0  501  0.00000000000E+00  0.00000000000E+00  0.19713928737E+04  0.19713928737E+04  0.50400001928E-02 0. -1.
        1   -1    0    0  501    0  0.00000000000E+00  0.00000000000E+00 -0.20445768173E+04  0.20445768173E+04  0.50400001928E-02 0.  1.
    10030    2    1    2    0    0  0.00000000000E+00  0.00000000000E+00 -0.73183943579E+02  0.40159696910E+04  0.40153028117E+04 0.  0.
        4    1    3    3  502    0  0.18302153294E+04  0.28164951931E+03 -0.81238048416E+03  0.20221222188E+04  0.12699999809E+01 0.  1.
       -4    1    3    3    0  502 -0.18302153294E+04 -0.28164951931E+03  0.73919654058E+03  0.19938474722E+04  0.12699999809E+01 0. -1.
</event>
<event>
 5   0  0.1073271E-07  0.4020306E+04  0.7818609E-02  0.8000463E-01
        2   -1    0    0  501    0  0.00000000000E+00  0.00000000000E+00  0.30058794652E+04  0.30058794652E+04  0.25500000920E-02 0. -1.
       -2   -1    0    0    0  501  0.00000000000E+00  0.00000000000E+00 -0.13442704708E+04  0.13442704708E+04  0.25500000920E-02 0.  1.
    10030    2    1    2    0    0  0.00000000000E+00  0.00000000000E+00  0.16616089944E+04  0.43501499361E+04  0.40203059605E+04 0.  0.
        1    1    3    3  502    0 -0.69647066409E+02  0.18807464730E+04  0.15948972450E+04  0.24669323525E+04  0.50400001928E-02 0.  1.
       -1    1    3    3    0  502  0.69647066409E+02 -0.18807464730E+04  0.66711749479E+02  0.18832175836E+04  0.50400001928E-02 0. -1.
</event>
<event>
 5   0  0.3399500E-08  0.4006195E+04  0.7818609E-02  0.8003298E-01
        1   -1    0    0  501    0  0.00000000000E+00  0.00000000000E+00  0.27096408873E+04  0.27096408873E+04  0.50400001928E-02 0.  1.
       -1   -1    0    0    0  501  0.00000000000E+00  0.00000000000E+00 -0.14807861950E+04  0.14807861951E+04  0.50400001928E-02 0. -1.
    10030    2    1    2    0    0  0.00000000000E+00  0.00000000000E+00  0.12288546922E+04  0.41904270823E+04  0.40061946131E+04 0.  0.
        5    1    3    3  502    0 -0.65978087390E+03 -0.12629637272E+03  0.25883005619E+04  0.26740574908E+04  0.46999998093E+01 0.  1.
       -5    1    3    3    0  502  0.65978087390E+03  0.12629637272E+03 -0.13594458697E+04  0.15163695915E+04  0.46999998093E+01 0. -1.
</event>
<event>
 5   0  0.3399500E-08  0.3985483E+04  0.7818609E-02  0.8007482E-01
       -1   -1    0    0    0  501  0.00000000000E+00  0.00000000000E+00  0.18129883701E+04  0.18129883701E+04  0.50400001928E-02 0. -1.
        1   -1    0    0  501    0  0.00000000000E+00  0.00000000000E+00 -0.21903161882E+04  0.21903161882E+04  0.50400001928E-02 0.  1.
    10030    2    1    2    0    0  0.00000000000E+00  0.00000000000E+00 -0.37732781813E+03  0.40033045583E+04  0.39854825434E+04 0.  0.
        4    1    3    3  502    0  0.67465978700E+03 -0.13144835549E+04 -0.15317982437E+04  0.21282481802E+04  0.12699999809E+01 0. -1.
       -4    1    3    3    0  502 -0.67465978700E+03  0.13144835549E+04  0.11544704256E+04  0.18750563780E+04  0.12699999809E+01 0.  1.
</event>
<event>
 5   0  0.1095903E-07  0.3891668E+04  0.7818609E-02  0.8026764E-01
       -2   -1    0    0    0  501  0.00000000000E+00  0.00000000000E+00  0.23201710212E+04  0.23201710212E+04  0.25500000920E-02 0. -1.
        2   -1    0    0  501    0  0.00000000000E+00  0.00000000000E+00 -0.16318927025E+04  0.16318927025E+04  0.25500000920E-02 0.  1.
    10030    2    1    2    0    0  0.00000000000E+00  0.00000000000E+00  0.68827831874E+03  0.39520637237E+04  0.38916681041E+04 0.  0.
        3    1    3    3  502    0 -0.15444656465E+04 -0.83832531183E+03 -0.50435536197E+03  0.18282608684E+04  0.10100000352E+00 0.  1.
       -3    1    3    3    0  502  0.15444656465E+04  0.83832531183E+03  0.11926336807E+04  0.21238028553E+04  0.10100000352E+00 0. -1.
</event>
<event>
 5   0  0.3399500E-08  0.3996447E+04  0.7818609E-02  0.8005264E-01
       -3   -1    0    0    0  501  0.00000000000E+00  0.00000000000E+00  0.14132249377E+04  0.14132249413E+04  0.10100000352E+00 0. -1.
        3   -1    0    0  501    0  0.00000000000E+00  0.00000000000E+00 -0.28253797101E+04  0.28253797119E+04  0.10100000352E+00 0.  1.
    10030    2    1    2    0    0  0.00000000000E+00  0.00000000000E+00 -0.14121547723E+04  0.42386046532E+04  0.39964469601E+04 0.  0.
        5    1    3    3  502    0 -0.31987541462E+03  0.17622613722E+04  0.23360437609E+03  0.18062332405E+04  0.46999998093E+01 0. -1.
       -5    1    3    3    0  502  0.31987541462E+03 -0.17622613722E+04 -0.16457591484E+04  0.24323714127E+04  0.46999998093E+01 0.  1.
</event>
<event>
 5   0  0.3399500E-08  0.4016936E+04  0.7818609E-02  0.8001139E-01
        1   -1    0    0  501    0  0.00000000000E+00  0.00000000000E+00  0.18290884677E+04  0.18290884677E+04  0.50400001928E-02 0. -1.
       -1   -1    0    0    0  501  0.00000000000E+00  0.00000000000E+00 -0.22054393163E+04  0.22054393163E+04  0.50400001928E-02 0.  1.
    10030    2    1    2    0    0  0.00000000000E+00  0.00000000000E+00 -0.37635084858E+03  0.40345277840E+04  0.40169359565E+04 0.  0.
        3    1    3    3  502    0  0.75922110462E+03  0.26361897697E+03  0.16605463317E+04  0.18448104999E+04  0.10100000352E+00 0. -1.
       -3    1    3    3    0  502 -0.75922110462E+03 -0.26361897697E+03 -0.20368971803E+04  0.21897172840E+04  0.10100000352E+00 0.  1.
</event>
<event>
 5   0  0.3399500E-08  0.3958541E+04  0.7818609E-02  0.8012963E-01
        1   -1    0    0  501    0  0.00000000000E+00  0.00000000000E+00  0.26163393121E+04  0.26163393121E+04  0.50400001928E-02 0.  1.
       -1   -1    0    0    0  501  0.00000000000E+00  0.00000000000E+00 -0.14973255231E+04  0.14973255231E+04  0.50400001928E-02 0. -1.
    10030    2    1    2    0    0  0.00000000000E+00  0.00000000000E+00  0.11190137890E+04  0.41136648352E+04  0.39585409580E+04 0.  0.
        2    1    3    3  502    0  0.10991980748E+04  0.27561487134E+03 -0.11268321395E+04  0.15981084555E+04  0.25500000920E-02 0. -1.
       -2    1    3    3    0  502 -0.10991980748E+04 -0.27561487134E+03  0.22458459285E+04  0.25155563797E+04  0.25500000920E-02 0.  1.
</event>
<event>
 5   0  0.1087688E-07  0.4210064E+04  0.7818609E-02  0.7963461E-01
        2   -1    0    0  501    0  0.00000000000E+00  0.00000000000E+00  0.19474130626E+04  0.19474130626E+04  0.25500000920E-02 0.  1.
       -2   -1    0    0    0  501  0.00000000000E+00  0.00000000000E+00 -0.22754081764E+04  0.22754081764E+04  0.25500000920E-02 0. -1.
    10030    2    1    2    0    0  0.00000000000E+00  0.00000000000E+00 -0.32799511375E+03  0.42228212390E+04  0.42100639451E+04 0.  0.
        2    1    3    3  502    0  0.12762656928E+04  0.10914881406E+04  0.11090841146E+04  0.20125277770E+04  0.25500000920E-02 0.  1.
       -2    1    3    3    0  502 -0.12762656928E+04 -0.10914881406E+04 -0.14370792284E+04  0.22102934621E+04  0.25500000920E-02 0. -1.
</event>
<event>
 5   0  0.3399500E-08  0.4074294E+04  0.7818609E-02  0.7989724E-01
        1   -1    0    0  501    0  0.00000000000E+00  0.00000000000E+00  0.26810645434E+04  0.26810645434E+04  0.50400001928E-02 0. -1.
       -1   -1    0    0    0  501  0.00000000000E+00  0.00000000000E+00 -0.15478809841E+04  0.15478809841E+04  0.50400001928E-02 0.  1.
    10030    2    1    2    0    0  0.00000000000E+00  0.00000000000E+00  0.11331835593E+04  0.42289455275E+04  0.40742944537E+04 0.  0.
        4    1    3    3  502    0  0.10963236079E+04  0.15834340595E+04 -0.12252019905E+03  0.19298190812E+04  0.12699999809E+01 0.  1.
       -4    1    3    3    0  502 -0.10963236079E+04 -0.15834340595E+04  0.12557037583E+04  0.22991264462E+04  0.12699999809E+01 0. -1.
</event>
<event>
 5   0  0.3399500E-08  0.3980731E+04  0.7818609E-02  0.8008445E-01
       -1   -1    0    0    0  501  0.00000000000E+00  0.00000000000E+00  0.27923220451E+04  0.27923220451E+04  0.50400001928E-02 0. -1.
        1   -1    0    0  501    0  0.00000000000E+00  0.00000000000E+00 -0.14187315851E+04  0.14187315851E+04  0.50400001928E-02 0.  1.
    10030    2    1    2    0    0  0.00000000000E+00  0.00000000000E+00  0.13735904600E+04  0.42110536302E+04  0.39807313304E+04 0.  0.
        2    1    3    3  502    0 -0.95109476508E+03  0.12492953403E+04 -0.60718566934E+03  0.16834472182E+04  0.25500000920E-02 0.  1.
       -2    1    3    3    0  502  0.95109476508E+03 -0.12492953403E+04  0.19807761293E+04  0.25276064120E+04  0.25500000920E-02 0. -1.
</event>
<event>
 5   0  0.3399500E-08  0.3968453E+04  0.7818609E-02  0.8010941E-01
        1   -1    0    0  501    0  0.00000000000E+00  0.00000000000E+00  0.14539593588E+04  0.14539593588E+04  0.50400001928E-02 0. -1.
       -1   -1    0    0    0  501  0.00000000000E+00  0.00000000000E+00 -0.27078845143E+04  0.27078845143E+04  0.50400001928E-02 0.  1.
    10030    2    1    2    0    0  0.00000000000E+00  0.00000000000E+00 -0.12539251555E+04  0.41618438730E+04  0.39684526113E+04 0.  0.
        3    1    3    3  502    0 -0.19328617294E+04 -0.13699590433E+03 -0.17902787141E+03  0.19459633428E+04  0.10100000352E+00 0.  1.
       -3    1    3    3    0  502  0.19328617294E+04  0.13699590433E+03 -0.10748972841E+04  0.22158805302E+04  0.10100000352E+00 0. -1.
</event>
<event>
 5   0  0.1073271E-07  0.3976280E+04  0.7818609E-02  0.8009349E-01
       -2   -1    0    0    0  501  0.00000000000E+00  0.00000000000E+00  0.23125462367E+04  0.23125462367E+04  0.25500000920E-02 0. -1.
        2   -1    0    0  501    0  0.00000000000E+00  0.00000000000E+00 -0.17092420763E+04  0.17092420763E+04  0.25500000920E-02 0.  1.
    10030    2    1    2    0    0  0.00000000000E+00  0.00000000000E+00  0.60330416040E+03  0.40217883131E+04  0.39762803379E+04 0.  0.
        1    1    3    3  502    0  0.10239387885E+04  0.13198765560E+03 -0.14168608853E+04  0.17531018659E+04  0.50400001928E-02 0.  1.
       -1    1    3    3    0  502 -0.10239387885E+04 -0.13198765560E+03  0.20201650457E+04  0.22686864472E+04  0.50400001928E-02 0. -1.
</event>
<event>
 5   0  0.1095109E-07  0.3958362E+04  0.7818609E-02  0.8012999E-01
        2   -1    0    0  501    0  0.00000000000E+00  0.00000000000E+00  0.20692141366E+04  0.20692141366E+04  0.25500000920E-02 0.  1.
       -2   -1    0    0    0  501  0.00000000000E+00  0.00000000000E+00 -0.18930655408E+04  0.18930655408E+04  0.25500000920E-02 0. -1.
    10030    2    1    2    0    0  0.00000000000E+00  0.00000000000E+00  0.17614859572E+03  0.39622796774E+04  0.39583622768E+04 0.  0.
        4    1    3    3  502    0 -0.14073351409E+04 -0.96877826812E+03  0.10880789087E+04  0.20255964198E+04  0.12699999809E+01 0.  1.
       -4    1    3    3    0  502  0.14073351409E+04  0.96877826812E+03 -0.91193031297E+03  0.19366832576E+04  0.12699999809E+01 0. -1.
</event>
<event>
 5   0  0.3399500E-08  0.3915930E+04  0.7818609E-02  0.8021724E-01
       -1   -1    0    0    0  501  0.00000000000E+00  0.00000000000E+00  0.21403148030E+04  0.21403148030E+04  0.50400001928E-02 0. -1.
        1   -1    0    0  501    0  0.00000000000E+00  0.00000000000E+00 -0.17911509996E+04  0.17911509996E+04  0.50400001928E-02 0.  1.
    10030    2    1    2    0    0  0.00000000000E+00  0.00000000000E+00  0.34916380345E+03  0.39314658026E+04  0.39159300294E+04 0.  0.
        3    1    3    3  502    0  0.71952139566E+03  0.18072083597E+04 -0.49718631871E+02  0.19458121818E+04  0.10100000352E+00 0.  1.
       -3    1    3    3    0  502 -0.71952139566E+03 -0.18072083597E+04  0.39888243533E+03  0.19856536208E+04  0.10100000352E+00 0. -1.
</event>
<event>
 5   0  0.1073271E-07  0.3985921E+04  0.7818609E-02  0.8007393E-01
        2   -1    0    0  501    0  0.00000000000E+00  0.00000000000E+00  0.24943187374E+04  0.24943187374E+04  0.25500000920E-02 0. -1.
       -2   -1    0    0    0  501  0.00000000000E+00  0.00000000000E+00 -0.15923753191E+04  0.15923753191E+04  0.25500000920E-02 0.  1.
    10030    2    1    2    0    0  0.00000000000E+00  0.00000000000E+00  0.90194341827E+03  0.40866940565E+04  0.39859210205E+04 0.  0.
        1    1    3    3  502    0 -0.64156461889E+02  0.11819170178E+04 -0.11929518233E+04  0.16805290659E+04  0.50400001928E-02 0.  1.
       -1    1    3    3    0  502  0.64156461889E+02 -0.11819170178E+04  0.20948952416E+04  0.24061649906E+04  0.50400001928E-02 0. -1.
</event>
<event>
 5   0  0.1095109E-07  0.3991998E+04  0.7818609E-02  0.8006163E-01
        2   -1    0    0  501    0  0.00000000000E+00  0.00000000000E+00  0.15147139795E+04  0.15147139795E+04  0.25500000920E-02 0.  1.
       -2   -1    0    0    0  501  0.00000000000E+00  0.00000000000E+00 -0.26302071190E+04  0.26302071190E+04  0.25500000920E-02 0. -1.
    10030    2    1    2    0    0  0.00000000000E+00  0.00000000000E+00 -0.11154931395E+04  0.41449210985E+04  0.39919977415E+04 0.  0.
        4    1    3    3  502    0  0.35350603209E+03  0.15104008276E+04  0.74644892300E+03  0.17214716908E+04  0.12699999809E+01 0. -1.
       -4    1    3    3    0  502 -0.35350603209E+03 -0.15104008276E+04 -0.18619420625E+04  0.24234494077E+04  0.12699999809E+01 0.  1.
</event>
<event>
 5   0  0.1101474E-07  0.3988683E+04  0.7818609E-02  0.8006834E-01
        2   -1    0    0  501    0  0.00000000000E+00  0.00000000000E+00  0.28013767041E+04  0.28013767041E+04  0.25500000920E-02 0.  1.
       -2   -1    0    0    0  501  0.00000000000E+00  0.00000000000E+00 -0.14198009909E+04  0.14198009909E+04  0.25500000920E-02 0. -1.
    10030    2    1    2    0    0  0.00000000000E+00  0.00000000000E+00  0.13815757133E+04  0.42211776950E+04  0.39886827000E+04 0.  0.
        5    1    3    3  502    0 -0.24852416869E+03  0.16338347938E+04 -0.49061260410E+03  0.17239208837E+04  0.46999998093E+01 0. -1.
       -5    1    3    3    0  502  0.24852416869E+03 -0.16338347938E+04  0.18721883174E+04  0.24972568113E+04  0.46999998093E+01 0.  1.
</event>
<event>
 5   0  0.1073271E-07  0.4019356E+04  0.7818609E-02  0.8000653E-01
       -2   -1    0    0    0  501  0.00000000000E+00  0.00000000000E+00  0.17593774978E+04  0.17593774978E+04  0.25500000920E-02 0.  1.
        2   -1    0    0  501    0  0.00000000000E+00  0.00000000000E+00 -0.22955884205E+04  0.22955884205E+04  0.25500000920E-02 0. -1.
    10030    2    1    2    0    0  0.00000000000E+00  0.00000000000E+00 -0.53621092274E+03  0.40549659183E+04  0.40193564715E+04 0.  0.
        1    1    3    3  502    0  0.18496602255E+04  0.17265146519E+03 -0.10415495040E+04  0.21297598098E+04  0.50400001928E-02 0. -1.
       -1    1    3    3    0  502 -0.18496602255E+04 -0.17265146519E+03  0.50533858130E+03  0.19252061084E+04  0.50400001928E-02 0.  1.
</event>
<event>
 5   0  0.1101474E-07  0.4003245E+04  0.7818609E-02  0.8003892E-01
        2   -1    0    0  501    0  0.00000000000E+00  0.00000000000E+00  0.26894000364E+04  0.26894000364E+04  0.25500000920E-02 0. -1.
       -2   -1    0    0    0  501  0.00000000000E+00  0.00000000000E+00 -0.14897344155E+04  0.14897344155E+04  0.25500000920E-02 0.  1.
    10030    2    1    2    0    0  0.00000000000E+00  0.00000000000E+00  0.11996656209E+04  0.41791344519E+04  0.40032445797E+04 0.  0.
        5    1    3    3  502    0  0.27907668947E+03 -0.15725911368E+04 -0.65963404256E+03  0.17280236811E+04  0.46999998093E+01 0.  1.
       -5    1    3    3    0  502 -0.27907668947E+03  0.15725911368E+04  0.18592996635E+04  0.24511107708E+04  0.46999998093E+01 0. -1.
</event>
<event>
 5   0  0.1073271E-07  0.3964800E+04  0.7818609E-02  0.8011685E-01
        2   -1    0    0  501    0  0.00000000000E+00  0.00000000000E+00  0.19167779197E+04  0.19167779197E+04  0.25500000920E-02 0. -1.
       -2   -1    0    0    0  501  0.00000000000E+00  0.00000000000E+00 -0.20502684541E+04  0.20502684541E+04  0.25500000920E-02 0.  1.
    10030    2    1    2    0    0  0.00000000000E+00  0.00000000000E+00 -0.13349053438E+03  0.39670463738E+04  0.39647997691E+04 0.  0.
        1    1    3    3  502    0 -0.80569411239E+03 -0.13650856136E+04  0.11244365921E+04  0.19434400903E+04  0.50400001928E-02 0. -1.
       -1    1    3    3    0  502  0.80569411239E+03  0.13650856136E+04 -0.12579271265E+04  0.20236062835E+04  0.50400001928E-02 0.  1.
</event>
<event>
 5   0  0.3399500E-08  0.4006689E+04  0.7818609E-02  0.8003198E-01
        1   -1    0    0  501    0  0.00000000000E+00  0.00000000000E+00  0.20011227076E+04  0.20011227076E+04  0.50400001928E-02 0. -1.
       -1   -1    0    0    0  501  0.00000000000E+00  0.00000000000E+00 -0.20055690680E+04  0.20055690680E+04  0.50400001928E-02 0.  1.
    10030    2    1    2    0    0  0.00000000000E+00  0.00000000000E+00 -0.44463603576E+01  0.40066917756E+04  0.40066893085E+04 0.  0.
        4    1    3    3  502    0  0.12677932670E+04 -0.34011381170E+03 -0.15156345052E+04  0.20050253712E+04  0.12699999809E+01 0.  1.
       -4    1    3    3    0  502 -0.12677932670E+04  0.34011381170E+03  0.15111881448E+04  0.20016664045E+04  0.12699999809E+01 0. -1.
</event>
<event>
 5   0  0.3399500E-08  0.4057175E+04  0.7818609E-02  0.7993111E-01
        1   -1    0    0  501    0  0.00000000000E+00  0.00000000000E+00  0.21638649255E+04  0.21638649255E+04  0.50400001928E-02 0.  1.
       -1   -1    0    0    0  501  0.00000000000E+00  0.00000000000E+00 -0.19017674437E+04  0.19017674437E+04  0.50400001928E-02 0. -1.
    10030    2    1    2    0    0  0.00000000000E+00  0.00000000000E+00  0.26209748177E+03  0.40656323693E+04  0.40571753070E+04 0.  0.
        3    1    3    3  502    0 -0.10897496704E+04 -0.52520227167E+03 -0.15007731573E+04  0.19276181806E+04  0.10100000352E+00 0. -1.
       -3    1    3    3    0  502  0.10897496704E+04  0.52520227167E+03  0.17628706391E+04  0.21380141886E+04  0.10100000352E+00 0.  1.
</event>
<event>
 5   0  0.1073271E-07  0.3986671E+04  0.7818609E-02  0.8007241E-01
       -2   -1    0    0    0  501  0.00000000000E+00  0.00000000000E+00  0.18015884561E+04  0.18015884561E+04  0.25500000920E-02 0.  1.
        2   -1    0    0  501    0  0.00000000000E+00  0.00000000000E+00 -0.22054910983E+04  0.22054910983E+04  0.25500000920E-02 0. -1.
    10030    2    1    2    0    0  0.00000000000E+00  0.00000000000E+00 -0.40390264215E+03  0.40070795544E+04  0.39866714451E+04 0.  0.
        1    1    3    3  502    0  0.26571906733E+03 -0.13730530179E+04  0.12257091878E+04  0.18596355088E+04  0.50400001928E-02 0.  1.
       -1    1    3    3    0  502 -0.26571906733E+03  0.13730530179E+04 -0.16296118299E+04  0.21474440456E+04  0.50400001928E-02 0. -1.
</event>
<event>
 5   0  0.3399500E-08  0.3998000E+04  0.7818609E-02  0.8004950E-01
        1   -1    0    0  501    0  0.00000000000E+00  0.00000000000E+00  0.14767526167E+04  0.14767526167E+04  0.50400001928E-02 0.  1.
       -1   -1    0    0    0  501  0.00000000000E+00  0.00000000000E+00 -0.27059376755E+04  0.27059376755E+04  0.50400001928E-02 0. -1.
    10030    2    1    2    0    0  0.00000000000E+00  0.00000000000E+00 -0.12291850588E+04  0.41826902922E+04  0.39979997713E+04 0.  0.
        2    1    3    3  502    0 -0.14050376757E+04  0.10132068054E+04  0.42913212017E+03  0.17846213260E+04  0.25500000920E-02 0.  1.
       -2    1    3    3    0  502  0.14050376757E+04 -0.10132068054E+04 -0.16583171789E+04  0.23980689662E+04  0.25500000920E-02 0. -1.
</event>
<event>
 5   0  0.1087688E-07  0.3997838E+04  0.7818609E-02  0.8004983E-01
        2   -1    0    0  501    0  0.00000000000E+00  0.00000000000E+00  0.15249857384E+04  0.15249857384E+04  0.25500000920E-02 0. -1.
       -2   -1    0    0    0  501  0.00000000000E+00  0.00000000000E+00 -0.26201401857E+04  0.26201401857E+04  0.25500000920E-02 0.  1.
    10030    2    1    2    0    0  0.00000000000E+00  0.00000000000E+00 -0.10951544473E+04  0.41451259242E+04  0.39978376235E+04 0.  0.
        2    1    3    3  502    0  0.18096609782E+03  0.33734495907E+03 -0.25817772017E+04  0.26100045726E+04  0.25500000920E-02 0.  1.
       -2    1    3    3    0  502 -0.18096609782E+03 -0.33734495907E+03  0.14866227544E+04  0.15351213515E+04  0.25500000920E-02 0. -1.
</event>
<event>
 5   0  0.3399500E-08  0.3968253E+04  0.7818609E-02  0.8010982E-01
        1   -1    0    0  501    0  0.00000000000E+00  0.00000000000E+00  0.22126162569E+04  0.22126162569E+04  0.50400001928E-02 0.  1.
       -1   -1    0    0    0  501  0.00000000000E+00  0.00000000000E+00 -0.17792317677E+04  0.17792317677E+04  0.50400001928E-02 0. -1.
    10030    2    1    2    0    0  0.00000000000E+00  0.00000000000E+00  0.43338448915E+03  0.39918480246E+04  0.39682525797E+04 0.  0.
        4    1    3    3  502    0  0.45173124387E+03  0.11463909686E+04  0.17810862200E+04  0.21657661705E+04  0.12699999809E+01 0.  1.
       -4    1    3    3    0  502 -0.45173124387E+03 -0.11463909686E+04 -0.13477017308E+04  0.18260818541E+04  0.12699999809E+01 0. -1.
</event>
<event>
 5   0  0.1101474E-07  0.4053954E+04  0.7818609E-02  0.7993750E-01
        2   -1    0    0  501    0  0.00000000000E+00  0.00000000000E+00  0.22171764007E+04  0.22171764007E+04  0.25500000920E-02 0.  1.
       -2   -1    0    0    0  501  0.00000000000E+00  0.00000000000E+00 -0.18530935936E+04  0.18530935936E+04  0.25500000920E-02 0. -1.
    10030    2    1    2    0    0  0.00000000000E+00  0.00000000000E+00  0.36408280707E+03  0.40702699942E+04  0.40539538152E+04 0.  0.
        5    1    3    3  502    0  0.77949975503E+03 -0.80364244481E+02  0.20589326975E+04  0.22030216120E+04  0.46999998093E+01 0.  1.
       -5    1    3    3    0  502 -0.77949975503E+03  0.80364244481E+02 -0.16948498905E+04  0.18672483823E+04  0.46999998093E+01 0. -1.
</event>
<event>
 5   0  0.3399500E-08  0.4018852E+04  0.7818609E-02  0.8000754E-01
        1   -1    0    0  501    0  0.00000000000E+00  0.00000000000E+00  0.14043102100E+04  0.14043102100E+04  0.50400001928E-02 0.  1.
       -1   -1    0    0    0  501  0.00000000000E+00  0.00000000000E+00 -0.28752853055E+04  0.28752853055E+04  0.50400001928E-02 0. -1.
    10030    2    1    2    0    0  0.00000000000E+00  0.00000000000E+00 -0.14709750956E+04  0.42795955155E+04  0.40188518316E+04 0.  0.
        1    1    3    3  502    0 -0.18295576417E+04 -0.28683207681E+03 -0.15659839510E+04  0.24252545309E+04  0.50400001928E-02 0. -1.
       -1    1    3    3    0  502  0.18295576417E+04  0.28683207681E+03  0.95008855388E+02  0.18543409846E+04  0.50400001928E-02 0.  1.
</event>
<event>
 5   0  0.1073271E-07  0.3978749E+04  0.7818609E-02  0.8008847E-01
       -2   -1    0    0    0  501  0.00000000000E+00  0.00000000000E+00  0.16322956385E+04  0.16322956385E+04  0.25500000920E-02 0.  1.
        2   -1    0    0  501    0  0.00000000000E+00  0.00000000000E+00 -0.24245680553E+04  0.24245680553E+04  0.25500000920E-02 0. -1.
    10030    2    1    2    0    0  0.00000000000E+00  0.00000000000E+00 -0.79227241675E+03  0.40568636938E+04  0.39787494829E+04 0.  0.
        1    1    3    3  502    0 -0.17712086552E+04  0.17645621642E+02 -0.13195208073E+04  0.22087613337E+04  0.50400001928E-02 0. -1.
       -1    1    3    3    0  502  0.17712086552E+04 -0.17645621642E+02  0.52724839060E+03  0.18481023601E+04  0.50400001928E-02 0.  1.
</event>
<event>
 5   0  0.3399500E-08  0.4019282E+04  0.7818609E-02  0.8000668E-01
       -1   -1    0    0    0  501  0.00000000000E+00  0.00000000000E+00  0.17908178970E+04  0.17908178970E+04  0.50400001928E-02 0. -1.
        1   -1    0    0  501    0  0.00000000000E+00  0.00000000000E+00 -0.22552030250E+04  0.22552030250E+04  0.50400001928E-02 0.  1.
    10030    2    1    2    0    0  0.00000000000E+00  0.00000000000E+00 -0.46438512797E+03  0.40460209220E+04  0.40192824924E+04 0.  0.
        2    1    3    3  502    0 -0.19797711440E+04  0.34506830305E+03 -0.24184919429E+03  0.20241188081E+04  0.25500000920E-02 0.  1.
       -2    1    3    3    0  502  0.19797711440E+04 -0.34506830305E+03 -0.22253593368E+03  0.20219021139E+04  0.25500000920E-02 0. -1.
</event>
<event>
 5   0  0.3399500E-08  0.4021474E+04  0.7818609E-02  0.8000229E-01
        1   -1    0    0  501    0  0.00000000000E+00  0.00000000000E+00  0.13483159383E+04  0.13483159383E+04  0.50400001928E-02 0.  1.
       -1   -1    0    0    0  501  0.00000000000E+00  0.00000000000E+00 -0.29986018304E+04  0.29986018304E+04  0.50400001928E-02 0. -1.
    10030    2    1    2    0    0  0.00000000000E+00  0.00000000000E+00 -0.16502858922E+04  0.43469177687E+04  0.40214736804E+04 0.  0.
        2    1    3    3  502    0 -0.11478723211E+04 -0.19392285247E+03 -0.25972843033E+04  0.28462436105E+04  0.25500000920E-02 0. -1.
       -2    1    3    3    0  502  0.11478723211E+04  0.19392285247E+03  0.94699841114E+03  0.15006741582E+04  0.25500000920E-02 0.  1.
</event>
<event>
 5   0  0.3399500E-08  0.3980951E+04  0.7818609E-02  0.8008400E-01
       -1   -1    0    0    0  501  0.00000000000E+00  0.00000000000E+00  0.14914935606E+04  0.14914935606E+04  0.50400001928E-02 0. -1.
        1   -1    0    0  501    0  0.00000000000E+00  0.00000000000E+00 -0.26563925074E+04  0.26563925074E+04  0.50400001928E-02 0.  1.
    10030    2    1    2    0    0  0.00000000000E+00  0.00000000000E+00 -0.11648989467E+04  0.41478860680E+04  0.39809508006E+04 0.  0.
        5    1    3    3  502    0 -0.16221700511E+04  0.50081981587E+03  0.50021625212E+03  0.17698854629E+04  0.46999998093E+01 0. -1.
       -5    1    3    3    0  502  0.16221700511E+04 -0.50081981587E+03 -0.16651151988E+04  0.23780006052E+04  0.46999998093E+01 0.  1.
</event>
<event>
 5   0  0.3399500E-08  0.4008287E+04  0.7818609E-02  0.8002877E-01
       -1   -1    0    0    0  501  0.00000000000E+00  0.00000000000E+00  0.26495767366E+04  0.26495767366E+04  0.50400001928E-02 0.  1.
        1   -1    0    0  501    0  0.00000000000E+00  0.00000000000E+00 -0.15159371257E+04  0.15159371258E+04  0.50400001928E-02 0. -1.
    10030    2    1    2    0    0  0.00000000000E+00  0.00000000000E+00  0.11336396108E+04  0.41655138623E+04  0.40082872863E+04 0.  0.
        5    1    3    3  502    0 -0.10167094764E+04 -0.11410108795E+04 -0.78055730255E+03  0.17160698643E+04  0.46999998093E+01 0. -1.
       -5    1    3    3    0  502  0.10167094764E+04  0.11410108795E+04  0.19141969134E+04  0.24494439981E+04  0.46999998093E+01 0.  1.
</event>
<event>
 5   0  0.3399500E-08  0.4019394E+04  0.7818609E-02  0.8000646E-01
        1   -1    0    0  501    0  0.00000000000E+00  0.00000000000E+00  0.19245971009E+04  0.19245971009E+04  0.50400001928E-02 0.  1.
       -1   -1    0    0    0  501  0.00000000000E+00  0.00000000000E+00 -0.20985597554E+04  0.20985597554E+04  0.50400001928E-02 0. -1.
    10030    2    1    2    0    0  0.00000000000E+00  0.00000000000E+00 -0.17396265448E+03  0.40231568563E+04  0.40193939947E+04 0.  0.
        4    1    3    3  502    0 -0.58972970408E+03 -0.17719276631E+04  0.65625785801E+03  0.19794405160E+04  0.12699999809E+01 0.  1.
       -4    1    3    3    0  502  0.58972970408E+03  0.17719276631E+04 -0.83022051249E+03  0.20437163403E+04  0.12699999809E+01 0. -1.
</event>
<event>
 5   0  0.1095109E-07  0.3989450E+04  0.7818609E-02  0.8006678E-01
       -2   -1    0    0    0  501  0.00000000000E+00  0.00000000000E+00  0.22365675563E+04  0.22365675563E+04  0.25500000920E-02 0.  1.
        2   -1    0    0  501    0  0.00000000000E+00  0.00000000000E+00 -0.17790332855E+04  0.17790332855E+04  0.25500000920E-02 0. -1.
    10030    2    1    2    0    0  0.00000000000E+00  0.00000000000E+00  0.45753427082E+03  0.40156008417E+04  0.39894501515E+04 0.  0.
        4    1    3    3  502    0 -0.97894837965E+03 -0.71295114032E+03 -0.13666422457E+04  0.18260207828E+04  0.12699999809E+01 0. -1.
       -4    1    3    3    0  502  0.97894837965E+03  0.71295114032E+03  0.18241765165E+04  0.21895800590E+04  0.12699999809E+01 0.  1.
</event>
<event>
 5   0  0.1073271E-07  0.4007822E+04  0.7818609E-02  0.8002970E-01
        2   -1    0    0  501    0  0.00000000000E+00  0.00000000000E+00  0.20284544355E+04  0.20284544355E+04  0.25500000920E-02 0. -1.
       -2   -1    0    0    0  501  0.00000000000E+00  0.00000000000E+00 -0.19796644094E+04  0.19796644094E+04  0.25500000920E-02 0.  1.
    10030    2    1    2    0    0  0.00000000000E+00  0.00000000000E+00  0.48790026049E+02  0.40081188449E+04  0.40078218783E+04 0.  0.
        1    1    3    3  502    0 -0.16453591782E+04  0.71645378276E+03 -0.86738076810E+03  0.19932040149E+04  0.50400001928E-02 0.  1.
       -1    1    3    3    0  502  0.16453591782E+04 -0.71645378276E+03  0.91617079415E+03  0.20149148300E+04  0.50400001928E-02 0. -1.
</event>
<event>
 5   0  0.1101474E-07  0.4002997E+04  0.7818609E-02  0.8003942E-01
        2   -1    0    0  501    0  0.00000000000E+00  0.00000000000E+00  0.27069472895E+04  0.27069472895E+04  0.25500000920E-02 0. -1.
       -2   -1    0    0    0  501  0.00000000000E+00  0.00000000000E+00 -0.14798946962E+04  0.14798946962E+04  0.25500000920E-02 0.  1.
    10030    2    1    2    0    0  0.00000000000E+00  0.00000000000E+00  0.12270525933E+04  0.41868419857E+04  0.40029973453E+04 0.  0.
        5    1    3    3  502    0  0.63283436953E+03  0.13919941893E+04  0.19642902475E+04  0.24892941628E+04  0.46999998093E+01 0. -1.
       -5    1    3    3    0  502 -0.63283436953E+03 -0.13919941893E+04 -0.73723765426E+03  0.16975478229E+04  0.46999998093E+01 0.  1.
</event>
<event>
 5   0  0.1087688E-07  0.4008245E+04  0.7818609E-02  0.8002885E-01
       -2   -1    0    0    0  501  0.00000000000E+00  0.00000000000E+00  0.21002016586E+04  0.21002016586E+04  0.25500000920E-02 0.  1.
        2   -1    0    0  501    0  0.00000000000E+00  0.00000000000E+00 -0.19124387849E+04  0.19124387849E+04  0.25500000920E-02 0. -1.
    10030    2    1    2    0    0  0.00000000000E+00  0.00000000000E+00  0.18776287373E+03  0.40126404434E+04  0.40082450563E+04 0.  0.
        2    1    3    3  502    0  0.10454972822E+04 -0.66008099459E+03  0.16728667589E+04  0.20802054416E+04  0.25500000920E-02 0.  1.
       -2    1    3    3    0  502 -0.10454972822E+04  0.66008099459E+03 -0.14851038851E+04  0.19324350018E+04  0.25500000920E-02 0. -1.
</event>
<event>
 5   0  0.3399500E-08  0.4004396E+04  0.7818609E-02  0.8003660E-01
       -1   -1    0    0    0  501  0.00000000000E+00  0.00000000000E+00  0.15368525321E+04  0.15368525321E+04  0.50400001928E-02 0. -1.
        1   -1    0    0  501    0  0.00000000000E+00  0.00000000000E+00 -0.26084457076E+04  0.26084457076E+04  0.50400001928E-02 0.  1.
    10030    2    1    2    0    0  0.00000000000E+00  0.00000000000E+00 -0.10715931754E+04  0.41452982397E+04  0.40043957800E+04 0.  0.
        2    1    3    3  502    0  0.15620415855E+04 -0.20494379680E+03 -0.18149209790E+04  0.24033131370E+04  0.25500000920E-02 0.  1.
       -2    1    3    3    0  502 -0.15620415855E+04  0.20494379680E+03  0.74332780351E+03  0.17419851027E+04  0.25500000920E-02 0. -1.
</event>
<event>
 5   0  0.3399500E-08  0.4043462E+04  0.7818609E-02  0.7995836E-01
        1   -1    0    0  501    0  0.00000000000E+00  0.00000000000E+00  0.16739066868E+04  0.16739066868E+04  0.50400001928E-02 0. -1.
       -1   -1    0    0    0  501  0.00000000000E+00  0.00000000000E+00 -0.24418301176E+04  0.24418301176E+04  0.50400001928E-02 0.  1.
    10030    2    1    2    0    0  0.00000000000E+00  0.00000000000E+00 -0.76792343087E+03  0.41157368044E+04  0.40434617653E+04 0.  0.
        1    1    3    3  502    0  0.93057151653E+03 -0.10355323848E+04  0.11082246950E+04  0.17794529052E+04  0.50400001928E-02 0. -1.
       -1    1    3    3    0  502 -0.93057151653E+03  0.10355323848E+04 -0.18761481258E+04  0.23362838992E+04  0.50400001928E-02 0.  1.
</event>
<event>
 5   0  0.1101474E-07  0.4063976E+04  0.7818609E-02  0.7991763E-01
       -2   -1    0    0    0  501  0.00000000000E+00  0.00000000000E+00  0.18609672475E+04  0.18609672475E+04  0.25500000920E-02 0.  1.
        2   -1    0    0  501    0  0.00000000000E+00  0.00000000000E+00 -0.22187257650E+04  0.22187257650E+04  0.25500000920E-02 0. -1.
    10030    2    1    2    0    0  0.00000000000E+00  0.00000000000E+00 -0.35775851745E+03  0.40796930125E+04  0.40639763680E+04 0.  0.
        5    1    3    3  502    0  0.17709801333E+04 -0.69817601413E+03 -0.89235531181E+03  0.21024130117E+04  0.46999998093E+01 0. -1.
       -5    1    3    3    0  502 -0.17709801333E+04  0.69817601413E+03  0.53459679436E+03  0.19772800009E+04  0.46999998093E+01 0.  1.
</event>
<event>
 5   0  0.1073271E-07  0.3690032E+04  0.7818609E-02  0.8070174E-01
        2   -1    0    0  501    0  0.00000000000E+00  0.00000000000E+00  0.19318295617E+04  0.19318295617E+04  0.25500000920E-02 0. -1.
       -2   -1    0    0    0  501  0.00000000000E+00  0.00000000000E+00 -0.17621035112E+04  0.17621035112E+04  0.25500000920E-02 0.  1.
    10030    2    1    2    0    0  0.00000000000E+00  0.00000000000E+00  0.16972605049E+03  0.36939330729E+04  0.36900317905E+04 0.  0.
        1    1    3    3  502    0 -0.21560937125E+03  0.12744982244E+04 -0.12330586040E+04  0.17864116675E+04  0.50400001928E-02 0.  1.
       -1    1    3    3    0  502  0.21560937125E+03 -0.12744982244E+04  0.14027846545E+04  0.19075214053E+04  0.50400001928E-02 0. -1.
</event>
<event>
 5   0  0.3399500E-08  0.4059104E+04  0.7818609E-02  0.7992728E-01
       -1   -1    0    0    0  501  0.00000000000E+00  0.00000000000E+00  0.16862616643E+04  0.16862616643E+04  0.50400001928E-02 0. -1.
        1   -1    0    0  501    0  0.00000000000E+00  0.00000000000E+00 -0.24427301827E+04  0.24427301827E+04  0.50400001928E-02 0.  1.
    10030    2    1    2    0    0  0.00000000000E+00  0.00000000000E+00 -0.75646851843E+03  0.41289918469E+04  0.40591044644E+04 0.  0.
        3    1    3    3  502    0 -0.17679859641E+04 -0.51551494045E+03  0.48941836577E+03  0.19055341430E+04  0.10100000352E+00 0. -1.
       -3    1    3    3    0  502  0.17679859641E+04  0.51551494045E+03 -0.12458868842E+04  0.22234577040E+04  0.10100000352E+00 0.  1.
</event>
<event>
 5   0  0.1101474E-07  0.4046216E+04  0.7818609E-02  0.7995288E-01
        2   -1    0    0  501    0  0.00000000000E+00  0.00000000000E+00  0.19814348662E+04  0.19814348662E+04  0.25500000920E-02 0. -1.
       -2   -1    0    0    0  501  0.00000000000E+00  0.00000000000E+00 -0.20656575977E+04  0.20656575977E+04  0.25500000920E-02 0.  1.
    10030    2    1    2    0    0  0.00000000000E+00  0.00000000000E+00 -0.84222731472E+02  0.40470924638E+04  0.40462160029E+04 0.  0.
        5    1    3    3  502    0 -0.10246878473E+04  0.65577200937E+03 -0.16589149681E+04  0.20571930084E+04  0.46999998093E+01 0.  1.
       -5    1    3    3    0  502  0.10246878473E+04 -0.65577200937E+03  0.15746922366E+04  0.19898994554E+04  0.46999998093E+01 0. -1.
</event>
<event>
 5   0  0.3399500E-08  0.4015923E+04  0.7818609E-02  0.8001342E-01
       -1   -1    0    0    0  501  0.00000000000E+00  0.00000000000E+00  0.20196788543E+04  0.20196788543E+04  0.50400001928E-02 0.  1.
        1   -1    0    0  501    0  0.00000000000E+00  0.00000000000E+00 -0.19963125322E+04  0.19963125322E+04  0.50400001928E-02 0. -1.
    10030    2    1    2    0    0  0.00000000000E+00  0.00000000000E+00  0.23366322099E+02  0.40159913864E+04  0.40159234095E+04 0.  0.
        3    1    3    3  502    0  0.98831681894E+03  0.56869748273E+03 -0.16411373724E+04  0.19983790548E+04  0.10100000352E+00 0. -1.
       -3    1    3    3    0  502 -0.98831681894E+03 -0.56869748273E+03  0.16645036945E+04  0.20176123316E+04  0.10100000352E+00 0.  1.
</event>
<event>
 5   0  0.1101474E-07  0.3977108E+04  0.7818609E-02  0.8009181E-01
        2   -1    0    0  501    0  0.00000000000E+00  0.00000000000E+00  0.23779553501E+04  0.23779553501E+04  0.25500000920E-02 0.  1.
       -2   -1    0    0    0  501  0.00000000000E+00  0.00000000000E+00 -0.16629190656E+04  0.16629190656E+04  0.25500000920E-02 0. -1.
    10030    2    1    2    0    0  0.00000000000E+00  0.00000000000E+00  0.71503628452E+03  0.40408744158E+04  0.39771081398E+04 0.  0.
        5    1    3    3  502    0 -0.48256103203E+03 -0.19270588166E+04  0.26718616985E+03  0.20044528859E+04  0.46999998093E+01 0. -1.
       -5    1    3    3    0  502  0.48256103203E+03  0.19270588166E+04  0.44785011467E+03  0.20364215299E+04  0.46999998093E+01 0.  1.
</event>
<event>
 5   0  0.3399500E-08  0.3995038E+04  0.7818609E-02  0.8005548E-01
        1   -1    0    0  501    0  0.00000000000E+00  0.00000000000E+00  0.21904295938E+04  0.21904295938E+04  0.50400001928E-02 0. -1.
       -1   -1    0    0    0  501  0.00000000000E+00  0.00000000000E+00 -0.18215982021E+04  0.18215982021E+04  0.50400001928E-02 0.  1.
    10030    2    1    2    0    0  0.00000000000E+00  0.00000000000E+00  0.36883139176E+03  0.40120277959E+04  0.39950382276E+04 0.  0.
        2    1    3    3  502    0 -0.16185769756E+04 -0.87440649855E+03 -0.59716419931E+03  0.19341621524E+04  0.25500000920E-02 0.  1.
       -2    1    3    3    0  502  0.16185769756E+04  0.87440649855E+03  0.96599559106E+03  0.20778656436E+04  0.25500000920E-02 0. -1.
</event>
<event>
 5   0  0.1073271E-07  0.3643133E+04  0.7818609E-02  0.8080682E-01
       -2   -1    0    0    0  501  0.00000000000E+00  0.00000000000E+00  0.17494159785E+04  0.17494159785E+04  0.25500000920E-02 0. -1.
        2   -1    0    0  501    0  0.00000000000E+00  0.00000000000E+00 -0.18966922963E+04  0.18966922963E+04  0.25500000920E-02 0.  1.
    10030    2    1    2    0    0  0.00000000000E+00  0.00000000000E+00 -0.14727631781E+03  0.36461082748E+04  0.36431326133E+04 0.  0.
        1    1    3    3  502    0 -0.12646081597E+04 -0.20701635904E+03  0.12220289467E+04  0.17707185878E+04  0.50400001928E-02 0. -1.
       -1    1    3    3    0  502  0.12646081597E+04  0.20701635904E+03 -0.13693052645E+04  0.18753896870E+04  0.50400001928E-02 0.  1.
</event>
<event>
 5   0  0.3399500E-08  0.4005148E+04  0.7818609E-02  0.8003509E-01
        1   -1    0    0  501    0  0.00000000000E+00  0.00000000000E+00  0.22489309400E+04  0.22489309400E+04  0.50400001928E-02 0.  1.
       -1   -1    0    0    0  501  0.00000000000E+00  0.00000000000E+00 -0.17832038489E+04  0.17832038489E+04  0.50400001928E-02 0. -1.
    10030    2    1    2    0    0  0.00000000000E+00  0.00000000000E+00  0.46572709112E+03  0.40321347889E+04  0.40051478416E+04 0.  0.
        2    1    3    3  502    0  0.25711184927E+03  0.84620699951E+03 -0.15759423522E+04  0.18071433497E+04  0.25500000920E-02 0. -1.
       -2    1    3    3    0  502 -0.25711184927E+03 -0.84620699951E+03  0.20416694433E+04  0.22249914392E+04  0.25500000920E-02 0.  1.
</event>
<event>
 5   0  0.1095109E-07  0.3974143E+04  0.7818609E-02  0.8009783E-01
        2   -1    0    0  501    0  0.00000000000E+00  0.00000000000E+00  0.14675316873E+04  0.14675316873E+04  0.25500000920E-02 0. -1.
       -2   -1    0    0    0  501  0.00000000000E+00  0.00000000000E+00 -0.26905403336E+04  0.26905403336E+04  0.25500000920E-02 0.  1.
    10030    2    1    2    0    0  0.00000000000E+00  0.00000000000E+00 -0.12230086462E+04  0.41580720209E+04  0.39741430249E+04 0.  0.
        4    1    3    3  502    0  0.18974879491E+04 -0.58923662535E+03 -0.64093562530E+03  0.20876926034E+04  0.12699999809E+01 0.  1.
       -4    1    3    3    0  502 -0.18974879491E+04  0.58923662535E+03 -0.58207302093E+03  0.20703794175E+04  0.12699999809E+01 0. -1.
</event>
<event>
 5   0  0.3399500E-08  0.4000916E+04  0.7818609E-02  0.8004362E-01
       -1   -1    0    0    0  501  0.00000000000E+00  0.00000000000E+00  0.27439466584E+04  0.27439466584E+04  0.50400001928E-02 0. -1.
        1   -1    0    0  501    0  0.00000000000E+00  0.00000000000E+00 -0.14584223421E+04  0.14584223421E+04  0.50400001928E-02 0.  1.
    10030    2    1    2    0    0  0.00000000000E+00  0.00000000000E+00  0.12855243163E+04  0.42023690006E+04  0.40009164512E+04 0.  0.
        4    1    3    3  502    0 -0.76475337773E+01  0.13062026725E+04 -0.94865313824E+03  0.16143631239E+04  0.12699999809E+01 0.  1.
       -4    1    3    3    0  502  0.76475337773E+01 -0.13062026725E+04  0.22341774545E+04  0.25880058767E+04  0.12699999809E+01 0. -1.
</event>
<event>
 5   0  0.3399500E-08  0.4002995E+04  0.7818609E-02  0.8003943E-01
        1   -1    0    0  501    0  0.00000000000E+00  0.00000000000E+00  0.11819693927E+04  0.11819693927E+04  0.50400001928E-02 0.  1.
       -1   -1    0    0    0  501  0.00000000000E+00  0.00000000000E+00 -0.33892512705E+04  0.33892512705E+04  0.50400001928E-02 0. -1.
    10030    2    1    2    0    0  0.00000000000E+00  0.00000000000E+00 -0.22072818779E+04  0.45712206632E+04  0.40029945120E+04 0.  0.
        2    1    3    3  502    0 -0.99046721184E+03 -0.15197566444E+04 -0.13782795994E+03  0.18192531717E+04  0.25500000920E-02 0.  1.
       -2    1    3    3    0  502  0.99046721184E+03  0.15197566444E+04 -0.20694539179E+04  0.27519674915E+04  0.25500000920E-02 0. -1.
</event>
<event>
 5   0  0.3399500E-08  0.3552350E+04  0.7818609E-02  0.8101495E-01
       -1   -1    0    0    0  501  0.00000000000E+00  0.00000000000E+00  0.24886936990E+04  0.24886936990E+04  0.50400001928E-02 0. -1.
        1   -1    0    0  501    0  0.00000000000E+00  0.00000000000E+00 -0.12676517688E+04  0.12676517688E+04  0.50400001928E-02 0.  1.
    10030    2    1    2    0    0  0.00000000000E+00  0.00000000000E+00  0.12210419302E+04  0.37563454679E+04  0.35523496279E+04 0.  0.
        5    1    3    3  502    0 -0.67836195847E+03  0.13776864046E+04 -0.33324552138E+03  0.15713909264E+04  0.46999998093E+01 0.  1.
       -5    1    3    3    0  502  0.67836195847E+03 -0.13776864046E+04  0.15542874516E+04  0.21849545415E+04  0.46999998093E+01 0. -1.
</event>
<event>
 5   0  0.3399500E-08  0.4016065E+04  0.7818609E-02  0.8001314E-01
       -1   -1    0    0    0  501  0.00000000000E+00  0.00000000000E+00  0.29607321436E+04  0.29607321436E+04  0.50400001928E-02 0.  1.
        1   -1    0    0  501    0  0.00000000000E+00  0.00000000000E+00 -0.13618908272E+04  0.13618908272E+04  0.50400001928E-02 0. -1.
    10030    2    1    2    0    0  0.00000000000E+00  0.00000000000E+00  0.15988413164E+04  0.43226229708E+04  0.40160647147E+04 0.  0.
        2    1    3    3  502    0 -0.11634061776E+04 -0.82622531293E+03 -0.72123323016E+03  0.15988557077E+04  0.25500000920E-02 0. -1.
       -2    1    3    3    0  502  0.11634061776E+04  0.82622531293E+03  0.23200745466E+04  0.27237672631E+04  0.25500000920E-02 0.  1.
</event>
<event>
 5   0  0.3399500E-08  0.3964722E+04  0.7818609E-02  0.8011701E-01
        1   -1    0    0  501    0  0.00000000000E+00  0.00000000000E+00  0.26082008285E+04  0.26082008285E+04  0.50400001928E-02 0.  1.
       -1   -1    0    0    0  501  0.00000000000E+00  0.00000000000E+00 -0.15066915663E+04  0.15066915663E+04  0.50400001928E-02 0. -1.
    10030    2    1    2    0    0  0.00000000000E+00  0.00000000000E+00  0.11015092622E+04  0.41148923948E+04  0.39647215244E+04 0.  0.
        3    1    3    3  502    0 -0.10091999569E+04  0.20164351608E+03  0.23092160924E+04  0.25281660610E+04  0.10100000352E+00 0.  1.
       -3    1    3    3    0  502  0.10091999569E+04 -0.20164351608E+03 -0.12077068302E+04  0.15867263338E+04  0.10100000352E+00 0. -1.
</event>
<event>
 5   0  0.3399500E-08  0.4000755E+04  0.7818609E-02  0.8004394E-01
       -1   -1    0    0    0  501  0.00000000000E+00  0.00000000000E+00  0.15999222890E+04  0.15999222890E+04  0.50400001928E-02 0.  1.
        1   -1    0    0  501    0  0.00000000000E+00  0.00000000000E+00 -0.25010651294E+04  0.25010651294E+04  0.50400001928E-02 0. -1.
    10030    2    1    2    0    0  0.00000000000E+00  0.00000000000E+00 -0.90114284038E+03  0.41009874184E+04  0.40007548522E+04 0.  0.
        5    1    3    3  502    0 -0.13635672068E+04 -0.11711439456E+04  0.44925622694E+03  0.18527673670E+04  0.46999998093E+01 0.  1.
       -5    1    3    3    0  502  0.13635672068E+04  0.11711439456E+04 -0.13503990673E+04  0.22482200514E+04  0.46999998093E+01 0. -1.
</event>
<event>
 5   0  0.3399500E-08  0.3955382E+04  0.7818609E-02  0.8013608E-01
        1   -1    0    0  501    0  0.00000000000E+00  0.00000000000E+00  0.24639292622E+04  0.24639292622E+04  0.50400001928E-02 0. -1.
       -1   -1    0    0    0  501  0.00000000000E+00  0.00000000000E+00 -0.15874079906E+04  0.15874079906E+04  0.50400001928E-02 0.  1.
    10030    2    1    2    0    0  0.00000000000E+00  0.00000000000E+00  0.87652127168E+03  0.40513372528E+04  0.39553816499E+04 0.  0.
        5    1    3    3  502    0  0.69034989990E+03  0.15451724919E+04 -0.60984159741E+03  0.17989079681E+04  0.46999998093E+01 0.  1.
       -5    1    3    3    0  502 -0.69034989990E+03 -0.15451724919E+04  0.14863628691E+04  0.22524292847E+04  0.46999998093E+01 0. -1.
</event>
<event>
 5   0  0.3399500E-08  0.4022750E+04  0.7818609E-02  0.7999973E-01
       -1   -1    0    0    0  501  0.00000000000E+00  0.00000000000E+00  0.29915659374E+04  0.29915659374E+04  0.50400001928E-02 0. -1.
        1   -1    0    0  501    0  0.00000000000E+00  0.00000000000E+00 -0.13523451598E+04  0.13523451598E+04  0.50400001928E-02 0.  1.
    10030    2    1    2    0    0  0.00000000000E+00  0.00000000000E+00  0.16392207776E+04  0.43439110972E+04  0.40227501616E+04 0.  0.
        5    1    3    3  502    0  0.42807397012E+03 -0.16008242645E+04 -0.41146060436E+03  0.17073978941E+04  0.46999998093E+01 0. -1.
       -5    1    3    3    0  502 -0.42807397012E+03  0.16008242645E+04  0.20506813820E+04  0.26365132031E+04  0.46999998093E+01 0.  1.
</event>
<event>
 5   0  0.1095109E-07  0.4020295E+04  0.7818609E-02  0.8000465E-01
       -2   -1    0    0    0  501  0.00000000000E+00  0.00000000000E+00  0.18299595011E+04  0.18299595011E+04  0.25500000920E-02 0. -1.
        2   -1    0    0  501    0  0.00000000000E+00  0.00000000000E+00 -0.22080782164E+04  0.22080782164E+04  0.25500000920E-02 0.  1.
    10030    2    1    2    0    0  0.00000000000E+00  0.00000000000E+00 -0.37811871525E+03  0.40380377175E+04  0.40202953679E+04 0.  0.
        4    1    3    3  502    0 -0.45304018484E+03 -0.17398133457E+04  0.71407300353E+03  0.19344502460E+04  0.12699999809E+01 0.  1.
       -4    1    3    3    0  502  0.45304018484E+03  0.17398133457E+04 -0.10921917188E+04  0.21035874715E+04  0.12699999809E+01 0. -1.
</event>
<event>
 5   0  0.3399500E-08  0.3970369E+04  0.7818609E-02  0.8010551E-01
       -1   -1    0    0    0  501  0.00000000000E+00  0.00000000000E+00  0.19166797828E+04  0.19166797828E+04  0.50400001928E-02 0. -1.
        1   -1    0    0  501    0  0.00000000000E+00  0.00000000000E+00 -0.20561377642E+04  0.20561377642E+04  0.50400001928E-02 0.  1.
    10030    2    1    2    0    0  0.00000000000E+00  0.00000000000E+00 -0.13945798142E+03  0.39728175470E+04  0.39703690928E+04 0.  0.
        4    1    3    3  502    0 -0.18909891076E+04 -0.12960607922E+03  0.52082013115E+03  0.19656787029E+04  0.12699999809E+01 0.  1.
       -4    1    3    3    0  502  0.18909891076E+04  0.12960607922E+03 -0.66027811257E+03  0.20071388442E+04  0.12699999809E+01 0. -1.
</event>
<event>
 5   0  0.1095903E-07  0.3976319E+04  0.7818609E-02  0.8009341E-01
        2   -1    0    0  501    0  0.00000000000E+00  0.00000000000E+00  0.18335229071E+04  0.18335229071E+04  0.25500000920E-02 0.  1.
       -2   -1    0    0    0  501  0.00000000000E+00  0.00000000000E+00 -0.21558381854E+04  0.21558381854E+04  0.25500000920E-02 0. -1.
    10030    2    1    2    0    0  0.00000000000E+00  0.00000000000E+00 -0.32231527827E+03  0.39893610925E+04  0.39763192512E+04 0.  0.
        3    1    3    3  502    0  0.25861548236E+03 -0.16697711461E+04 -0.12123350228E+04  0.20796090656E+04  0.10100000352E+00 0. -1.
       -3    1    3    3    0  502 -0.25861548236E+03  0.16697711461E+04  0.89001974449E+03  0.19097520268E+04  0.10100000352E+00 0.  1.
</event>
<event>
 5   0  0.1073271E-07  0.3952522E+04  0.7818609E-02  0.8014194E-01
        2   -1    0    0  501    0  0.00000000000E+00  0.00000000000E+00  0.18633522896E+04  0.18633522896E+04  0.25500000920E-02 0.  1.
       -2   -1    0    0    0  501  0.00000000000E+00  0.00000000000E+00 -0.20960109048E+04  0.20960109048E+04  0.25500000920E-02 0. -1.
    10030    2    1    2    0    0  0.00000000000E+00  0.00000000000E+00 -0.23265861520E+03  0.39593631943E+04  0.39525215842E+04 0.  0.
        1    1    3    3  502    0  0.35085223567E+03  0.17423946447E+03 -0.20567289656E+04  0.20937026342E+04  0.50400001928E-02 0. -1.
       -1    1    3    3    0  502 -0.35085223567E+03 -0.17423946447E+03  0.18240703504E+04  0.18656605601E+04  0.50400001928E-02 0.  1.
</event>
<event>
 5   0  0.3399500E-08  0.4016484E+04  0.7818609E-02  0.8001229E-01
       -1   -1    0    0    0  501  0.00000000000E+00  0.00000000000E+00  0.17130194701E+04  0.17130194701E+04  0.50400001928E-02 0.  1.
        1   -1    0    0  501    0  0.00000000000E+00  0.00000000000E+00 -0.23543436261E+04  0.23543436261E+04  0.50400001928E-02 0. -1.
    10030    2    1    2    0    0  0.00000000000E+00  0.00000000000E+00 -0.64132415600E+03  0.40673630962E+04  0.40164842691E+04 0.  0.
        4    1    3    3  502    0  0.23799512312E+03 -0.17341531111E+04  0.67624011664E+03  0.18764943378E+04  0.12699999809E+01 0.  1.
       -4    1    3    3    0  502 -0.23799512312E+03  0.17341531111E+04 -0.13175642726E+04  0.21908687585E+04  0.12699999809E+01 0. -1.
</event>
<event>
 5   0  0.1073271E-07  0.4008690E+04  0.7818609E-02  0.8002796E-01
        2   -1    0    0  501    0  0.00000000000E+00  0.00000000000E+00  0.23209587430E+04  0.23209587430E+04  0.25500000920E-02 0.  1.
       -2   -1    0    0    0  501  0.00000000000E+00  0.00000000000E+00 -0.17309224041E+04  0.17309224041E+04  0.25500000920E-02 0. -1.
    10030    2    1    2    0    0  0.00000000000E+00  0.00000000000E+00  0.59003633892E+03  0.40518811472E+04  0.40086903035E+04 0.  0.
        1    1    3    3  502    0 -0.12729955916E+04 -0.45136754336E+03 -0.12018662447E+04  0.18079637457E+04  0.50400001928E-02 0. -1.
       -1    1    3    3    0  502  0.12729955916E+04  0.45136754336E+03  0.17919025837E+04  0.22439174015E+04  0.50400001928E-02 0.  1.
</event>
<event>
 5   0  0.1095903E-07  0.4004643E+04  0.7818609E-02  0.8003611E-01
        2   -1    0    0  501    0  0.00000000000E+00  0.00000000000E+00  0.15085031504E+04  0.15085031504E+04  0.25500000920E-02 0.  1.
       -2   -1    0    0    0  501  0.00000000000E+00  0.00000000000E+00 -0.26577941392E+04  0.26577941392E+04  0.25500000920E-02 0. -1.
    10030    2    1    2    0    0  0.00000000000E+00  0.00000000000E+00 -0.11492909888E+04  0.41662972896E+04  0.40046427217E+04 0.  0.
        3    1    3    3  502    0 -0.24621862756E+03  0.54962886667E+03  0.14120397863E+04  0.15351129834E+04  0.10100000352E+00 0.  1.
       -3    1    3    3    0  502  0.24621862756E+03 -0.54962886667E+03 -0.25613307751E+04  0.26311843062E+04  0.10100000352E+00 0. -1.
</event>
<event>
 5   0  0.3399500E-08  0.4024555E+04  0.7818609E-02  0.7999611E-01
        1   -1    0    0  501    0  0.00000000000E+00  0.00000000000E+00  0.22242564661E+04  0.22242564661E+04  0.50400001928E-02 0. -1.
       -1   -1    0    0    0  501  0.00000000000E+00  0.00000000000E+00 -0.18205011154E+04  0.18205011154E+04  0.50400001928E-02 0.  1.
    10030    2    1    2    0    0  0.00000000000E+00  0.00000000000E+00  0.40375535077E+03  0.40447575815E+04  0.40245553183E+04 0.  0.
        2    1    3    3  502    0 -0.18401238303E+04 -0.24532062475E+03 -0.57856624128E+03  0.19444734031E+04  0.25500000920E-02 0.  1.
       -2    1    3    3    0  502  0.18401238303E+04  0.24532062475E+03  0.98232159205E+03  0.21002841784E+04  0.25500000920E-02 0. -1.
</event>
<event>
 5   0  0.1073271E-07  0.3981715E+04  0.7818609E-02  0.8008245E-01
        2   -1    0    0  501    0  0.00000000000E+00  0.00000000000E+00  0.23772051550E+04  0.23772051550E+04  0.25500000920E-02 0.  1.
       -2   -1    0    0    0  501  0.00000000000E+00  0.00000000000E+00 -0.16673001650E+04  0.16673001650E+04  0.25500000920E-02 0. -1.
    10030    2    1    2    0    0  0.00000000000E+00  0.00000000000E+00  0.70990498998E+03  0.40445053199E+04  0.39817154831E+04 0.  0.
        1    1    3    3  502    0 -0.18979141546E+04  0.44771613775E+03 -0.52606182116E+02  0.19507166090E+04  0.50400001928E-02 0.  1.
       -1    1    3    3    0  502  0.18979141546E+04 -0.44771613775E+03  0.76251117209E+03  0.20937887109E+04  0.50400001928E-02 0. -1.
</event>
<event>
 5   0  0.3399500E-08  0.3992014E+04  0.7818609E-02  0.8006159E-01
       -1   -1    0    0    0  501  0.00000000000E+00  0.00000000000E+00  0.14614121639E+04  0.14614121639E+04  0.50400001928E-02 0.  1.
        1   -1    0    0  501    0  0.00000000000E+00  0.00000000000E+00 -0.27261609202E+04  0.27261609202E+04  0.50400001928E-02 0. -1.
    10030    2    1    2    0    0  0.00000000000E+00  0.00000000000E+00 -0.12647487564E+04  0.41875730841E+04  0.39920143935E+04 0.  0.
        1    1    3    3  502    0  0.15553074052E+04 -0.64025182240E+02  0.67821546451E+03  0.16979565851E+04  0.50400001928E-02 0.  1.
       -1    1    3    3    0  502 -0.15553074052E+04  0.64025182240E+02 -0.19429642209E+04  0.24896164990E+04  0.50400001928E-02 0. -1.
</event>
<event>
 5   0  0.3399500E-08  0.4050778E+04  0.7818609E-02  0.7994381E-01
       -1   -1    0    0    0  501  0.00000000000E+00  0.00000000000E+00  0.17641389308E+04  0.17641389308E+04  0.50400001928E-02 0. -1.
        1   -1    0    0  501    0  0.00000000000E+00  0.00000000000E+00 -0.23253274022E+04  0.23253274022E+04  0.50400001928E-02 0.  1.
    10030    2    1    2    0    0  0.00000000000E+00  0.00000000000E+00 -0.56118847138E+03  0.40894663331E+04  0.40507779980E+04 0.  0.
        2    1    3    3  502    0  0.10118429482E+04 -0.16485143185E+04  0.32578790893E+03  0.19615206784E+04  0.25500000920E-02 0. -1.
       -2    1    3    3    0  502 -0.10118429482E+04  0.16485143185E+04 -0.88697638031E+03  0.21279456547E+04  0.25500000920E-02 0.  1.
</event>
<event>
 5   0  0.3399500E-08  0.3988886E+04  0.7818609E-02  0.8006792E-01
        1   -1    0    0  501    0  0.00000000000E+00  0.00000000000E+00  0.15566518571E+04  0.15566518571E+04  0.50400001928E-02 0.  1.
       -1   -1    0    0    0  501  0.00000000000E+00  0.00000000000E+00 -0.25553579463E+04  0.25553579463E+04  0.50400001928E-02 0. -1.
    10030    2    1    2    0    0  0.00000000000E+00  0.00000000000E+00 -0.99870608919E+03  0.41120098034E+04  0.39888859059E+04 0.  0.
        1    1    3    3  502    0 -0.84734576280E+03 -0.12768720036E+02 -0.23605300007E+04  0.25080390281E+04  0.50400001928E-02 0. -1.
       -1    1    3    3    0  502  0.84734576280E+03  0.12768720036E+02  0.13618239116E+04  0.16039707753E+04  0.50400001928E-02 0.  1.
</event>
<event>
 5   0  0.1073271E-07  0.4032963E+04  0.7818609E-02  0.7997930E-01
        2   -1    0    0  501    0  0.00000000000E+00  0.00000000000E+00  0.26901927003E+04  0.26901927003E+04  0.25500000920E-02 0. -1.
       -2   -1    0    0    0  501  0.00000000000E+00  0.00000000000E+00 -0.15114894036E+04  0.15114894037E+04  0.25500000920E-02 0.  1.
    10030    2    1    2    0    0  0.00000000000E+00  0.00000000000E+00  0.11787032966E+04  0.42016821039E+04  0.40329630597E+04 0.  0.
        1    1    3    3  502    0 -0.77132530306E+02  0.19870407101E+04  0.93788796970E+03  0.21986163955E+04  0.50400001928E-02 0. -1.
       -1    1    3    3    0  502  0.77132530306E+02 -0.19870407101E+04  0.24081532691E+03  0.20030657084E+04  0.50400001928E-02 0.  1.
</event>
<event>
 5   0  0.3399500E-08  0.3992549E+04  0.7818609E-02  0.8006051E-01
       -1   -1    0    0    0  501  0.00000000000E+00  0.00000000000E+00  0.19340151283E+04  0.19340151283E+04  0.50400001928E-02 0.  1.
        1   -1    0    0  501    0  0.00000000000E+00  0.00000000000E+00 -0.20605384353E+04  0.20605384353E+04  0.50400001928E-02 0. -1.
    10030    2    1    2    0    0  0.00000000000E+00  0.00000000000E+00 -0.12652330701E+03  0.39945535636E+04  0.39925493141E+04 0.  0.
        1    1    3    3  502    0 -0.21004895042E+03  0.93281819695E+03 -0.18165231970E+04  0.20528095078E+04  0.50400001928E-02 0. -1.
       -1    1    3    3    0  502  0.21004895042E+03 -0.93281819695E+03  0.16899998900E+04  0.19417440558E+04  0.50400001928E-02 0.  1.
</event>
<event>
 5   0  0.3399500E-08  0.3936027E+04  0.7818609E-02  0.8017578E-01
       -1   -1    0    0    0  501  0.00000000000E+00  0.00000000000E+00  0.18163105911E+04  0.18163105911E+04  0.50400001928E-02 0. -1.
        1   -1    0    0  501    0  0.00000000000E+00  0.00000000000E+00 -0.21323866456E+04  0.21323866457E+04  0.50400001928E-02 0.  1.
    10030    2    1    2    0    0  0.00000000000E+00  0.00000000000E+00 -0.31607605455E+03  0.39486972368E+04  0.39360266507E+04 0.  0.
        4    1    3    3  502    0 -0.67380662268E+03 -0.69394060350E+02 -0.20117535164E+04  0.21227304879E+04  0.12699999809E+01 0.  1.
       -4    1    3    3    0  502  0.67380662268E+03  0.69394060350E+02  0.16956774619E+04  0.18259667489E+04  0.12699999809E+01 0. -1.
</event>
<event>
 5   0  0.1087688E-07  0.4052241E+04  0.7818609E-02  0.7994090E-01
        2   -1    0    0  501    0  0.00000000000E+00  0.00000000000E+00  0.22625563481E+04  0.22625563481E+04  0.25500000920E-02 0. -1.
       -2   -1    0    0    0  501  0.00000000000E+00  0.00000000000E+00 -0.18143916782E+04  0.18143916782E+04  0.25500000920E-02 0.  1.
    10030    2    1    2    0    0  0.00000000000E+00  0.00000000000E+00  0.44816466991E+03  0.40769480263E+04  0.40522405701E+04 0.  0.
        2    1    3    3  502    0  0.44668050763E+03  0.89320339334E+03 -0.15495696798E+04  0.18435026364E+04  0.25500000920E-02 0.  1.
       -2    1    3    3    0  502 -0.44668050763E+03 -0.89320339334E+03  0.19977343497E+04  0.22334453899E+04  0.25500000920E-02 0. -1.
</event>
<event>
 5   0  0.1087688E-07  0.3940498E+04  0.7818609E-02  0.8016659E-01
        2   -1    0    0  501    0  0.00000000000E+00  0.00000000000E+00  0.18727966919E+04  0.18727966919E+04  0.25500000920E-02 0.  1.
       -2   -1    0    0    0  501  0.00000000000E+00  0.00000000000E+00 -0.20727727839E+04  0.20727727839E+04  0.25500000920E-02 0. -1.
    10030    2    1    2    0    0  0.00000000000E+00  0.00000000000E+00 -0.19997609195E+03  0.39455694758E+04  0.39404984521E+04 0.  0.
        2    1    3    3  502    0 -0.14877005240E+04 -0.34433803506E+03 -0.13466045030E+04  0.20359678827E+04  0.25500000920E-02 0. -1.
       -2    1    3    3    0  502  0.14877005240E+04  0.34433803506E+03  0.11466284111E+04  0.19096015932E+04  0.25500000920E-02 0.  1.
</event>
<event>
 5   0  0.1101474E-07  0.4001251E+04  0.7818609E-02  0.8004294E-01
        2   -1    0    0  501    0  0.00000000000E+00  0.00000000000E+00  0.13187003734E+04  0.13187003734E+04  0.25500000920E-02 0. -1.
       -2   -1    0    0    0  501  0.00000000000E+00  0.00000000000E+00 -0.30351864126E+04  0.30351864126E+04  0.25500000920E-02 0.  1.
    10030    2    1    2    0    0  0.00000000000E+00  0.00000000000E+00 -0.17164860392E+04  0.43538867860E+04  0.40012505324E+04 0.  0.
        5    1    3    3  502    0  0.84559242013E+03 -0.10288650956E+04  0.76627917918E+03  0.15364881374E+04  0.46999998093E+01 0. -1.
       -5    1    3    3    0  502 -0.84559242013E+03  0.10288650956E+04 -0.24827652183E+04  0.28173986486E+04  0.46999998093E+01 0.  1.
</event>
<event>
 5   0  0.1073271E-07  0.3983227E+04  0.7818609E-02  0.8007939E-01
       -2   -1    0    0    0  501  0.00000000000E+00  0.00000000000E+00  0.16358483176E+04  0.16358483176E+04  0.25500000920E-02 0.  1.
        2   -1    0    0  501    0  0.00000000000E+00  0.00000000000E+00 -0.24247505176E+04  0.24247505176E+04  0.25500000920E-02 0. -1.
    10030    2    1    2    0    0  0.00000000000E+00  0.00000000000E+00 -0.78890220002E+03  0.40605988351E+04  0.39832268601E+04 0.  0.
        1    1    3    3  502    0  0.58057078825E+03 -0.67502810890E+03  0.14216696921E+04  0.16774594187E+04  0.50400001928E-02 0.  1.
       -1    1    3    3    0  502 -0.58057078825E+03  0.67502810890E+03 -0.22105718921E+04  0.23831394164E+04  0.50400001928E-02 0. -1.
</event>
<event>
 5   0  0.3399500E-08  0.3952054E+04  0.7818609E-02  0.8014289E-01
       -1   -1    0    0    0  501  0.00000000000E+00  0.00000000000E+00  0.16460292971E+04  0.16460292971E+04  0.50400001928E-02 0.  1.
        1   -1    0    0  501    0  0.00000000000E+00  0.00000000000E+00 -0.23721826064E+04  0.23721826064E+04  0.50400001928E-02 0. -1.
    10030    2    1    2    0    0  0.00000000000E+00  0.00000000000E+00 -0.72615330928E+03  0.40182119035E+04  0.39520536779E+04 0.  0.
        3    1    3    3  502    0  0.54838022886E+03  0.16376403880E+04 -0.13394094288E+04  0.21855444503E+04  0.10100000352E+00 0. -1.
       -3    1    3    3    0  502 -0.54838022886E+03 -0.16376403880E+04  0.61325611955E+03  0.18326674533E+04  0.10100000352E+00 0.  1.
</event>
<event>
 5   0  0.1095109E-07  0.3990621E+04  0.7818609E-02  0.8006441E-01
        2   -1    0    0  501    0  0.00000000000E+00  0.00000000000E+00  0.16584196565E+04  0.16584196565E+04  0.25500000920E-02 0. -1.
       -2   -1    0    0    0  501  0.00000000000E+00  0.00000000000E+00 -0.24006373975E+04  0.24006373975E+04  0.25500000920E-02 0.  1.
    10030    2    1    2    0    0  0.00000000000E+00  0.00000000000E+00 -0.74221774098E+03  0.40590570540E+04  0.39906211287E+04 0.  0.
        4    1    3    3  502    0  0.67191127084E+03 -0.64587663105E+03 -0.21656325481E+04  0.23576656516E+04  0.12699999809E+01 0.  1.
       -4    1    3    3    0  502 -0.67191127084E+03  0.64587663105E+03  0.14234148071E+04  0.17013914024E+04  0.12699999809E+01 0. -1.
</event>
<event>
 5   0  0.1101474E-07  0.4019359E+04  0.7818609E-02  0.8000653E-01
        2   -1    0    0  501    0  0.00000000000E+00  0.00000000000E+00  0.20317829891E+04  0.20317829891E+04  0.25500000920E-02 0.  1.
       -2   -1    0    0    0  501  0.00000000000E+00  0.00000000000E+00 -0.19878163918E+04  0.19878163918E+04  0.25500000920E-02 0. -1.
    10030    2    1    2    0    0  0.00000000000E+00  0.00000000000E+00  0.43966597215E+02  0.40195993809E+04  0.40193589192E+04 0.  0.
        5    1    3    3  502    0  0.11821106844E+04 -0.10692821363E+04 -0.12020341569E+04  0.19964113208E+04  0.46999998093E+01 0. -1.
       -5    1    3    3    0  502 -0.11821106844E+04  0.10692821363E+04  0.12460007541E+04  0.20231880601E+04  0.46999998093E+01 0.  1.
</event>
<event>
 5   0  0.1073271E-07  0.4016078E+04  0.7818609E-02  0.8001311E-01
        2   -1    0    0  501    0  0.00000000000E+00  0.00000000000E+00  0.20240680214E+04  0.20240680214E+04  0.25500000920E-02 0.  1.
       -2   -1    0    0    0  501  0.00000000000E+00  0.00000000000E+00 -0.19921372554E+04  0.19921372554E+04  0.25500000920E-02 0. -1.
    10030    2    1    2    0    0  0.00000000000E+00  0.00000000000E+00  0.31930765969E+02  0.40162052767E+04  0.40160783423E+04 0.  0.
        1    1    3    3  502    0 -0.57089437186E+03  0.19059059889E+04 -0.25574762186E+03  0.20059423891E+04  0.50400001928E-02 0. -1.
       -1    1    3    3    0  502  0.57089437186E+03 -0.19059059889E+04  0.28767838783E+03  0.20102628876E+04  0.50400001928E-02 0.  1.
</event>
<event>
 5   0  0.3399500E-08  0.3965042E+04  0.7818609E-02  0.8011636E-01
       -1   -1    0    0    0  501  0.00000000000E+00  0.00000000000E+00  0.21033010800E+04  0.21033010800E+04  0.50400001928E-02 0. -1.
        1   -1    0    0  501    0  0.00000000000E+00  0.00000000000E+00 -0.18686765024E+04  0.18686765024E+04  0.50400001928E-02 0.  1.
    10030    2    1    2    0    0  0.00000000000E+00  0.00000000000E+00  0.23462457765E+03  0.39719775824E+04  0.39650418942E+04 0.  0.
        1    1    3    3  502    0  0.10842734077E+04 -0.15396218067E+04  0.73832018867E+03  0.20226717062E+04  0.50400001928E-02 0.  1.
       -1    1    3    3    0  502 -0.10842734077E+04  0.15396218067E+04 -0.50369561102E+03  0.19493058761E+04  0.50400001928E-02 0. -1.
</event>
<event>
 5   0  0.3399500E-08  0.3815336E+04  0.7818609E-02  0.8042872E-01
        1   -1    0    0  501    0  0.00000000000E+00  0.00000000000E+00  0.27629894839E+04  0.27629894839E+04  0.50400001928E-02 0. -1.
       -1   -1    0    0    0  501  0.00000000000E+00  0.00000000000E+00 -0.13171230426E+04  0.13171230426E+04  0.50400001928E-02 0.  1.
    10030    2    1    2    0    0  0.00000000000E+00  0.00000000000E+00  0.14458664412E+04  0.40801125265E+04  0.38153359568E+04 0.  0.
        2    1    3    3  502    0 -0.17772809305E+04  0.55475334876E+02 -0.15951979736E+02  0.17782180644E+04  0.25500000920E-02 0.  1.
       -2    1    3    3    0  502  0.17772809305E+04 -0.55475334876E+02  0.14618184210E+04  0.23018944621E+04  0.25500000920E-02 0. -1.
</event>
<event>
 5   0  0.3399500E-08  0.4019285E+04  0.7818609E-02  0.8000667E-01
        1   -1    0    0  501    0  0.00000000000E+00  0.00000000000E+00  0.11975695632E+04  0.11975695633E+04  0.50400001928E-02 0.  1.
       -1   -1    0    0    0  501  0.00000000000E+00  0.00000000000E+00 -0.33723835437E+04  0.33723835437E+04  0.50400001928E-02 0. -1.
    10030    2    1    2    0    0  0.00000000000E+00  0.00000000000E+00 -0.21748139805E+04  0.45699531070E+04  0.40192854527E+04 0.  0.
        2    1    3    3  502    0  0.33396128245E+01  0.16986596616E+04 -0.23084099942E+04  0.28660447485E+04  0.25500000920E-02 0. -1.
       -2    1    3    3    0  502 -0.33396128245E+01 -0.16986596616E+04  0.13359601377E+03  0.17039083584E+04  0.25500000920E-02 0.  1.
</event>
<event>
 5   0  0.1087688E-07  0.4006733E+04  0.7818609E-02  0.8003190E-01
        2   -1    0    0  501    0  0.00000000000E+00  0.00000000000E+00  0.34981351555E+04  0.34981351555E+04  0.25500000920E-02 0.  1.
       -2   -1    0    0    0  501  0.00000000000E+00  0.00000000000E+00 -0.11473189722E+04  0.11473189722E+04  0.25500000920E-02 0. -1.
    10030    2    1    2    0    0  0.00000000000E+00  0.00000000000E+00  0.23508161833E+04  0.46454541277E+04  0.40067327494E+04 0.  0.
        2    1    3    3  502    0 -0.74423351720E+03  0.45261287008E+03  0.32670898555E+04  0.33812154711E+04  0.25500000920E-02 0.  1.
       -2    1    3    3    0  502  0.74423351720E+03 -0.45261287008E+03 -0.91627367225E+03  0.12642386566E+04  0.25500000920E-02 0. -1.
</event>
<event>
 5   0  0.1095109E-07  0.4005055E+04  0.7818609E-02  0.8003528E-01
        2   -1    0    0  501    0  0.00000000000E+00  0.00000000000E+00  0.17027907027E+04  0.17027907027E+04  0.25500000920E-02 0.  1.
       -2   -1    0    0    0  501  0.00000000000E+00  0.00000000000E+00 -0.23550260323E+04  0.23550260323E+04  0.25500000920E-02 0. -1.
    10030    2    1    2    0    0  0.00000000000E+00  0.00000000000E+00 -0.65223532959E+03  0.40578167350E+04  0.40050550220E+04 0.  0.
        4    1    3    3  502    0 -0.19130472652E+04  0.59119209628E+03 -0.29645942136E+03  0.20241412340E+04  0.12699999809E+01 0. -1.
       -4    1    3    3    0  502  0.19130472652E+04 -0.59119209628E+03 -0.35577590823E+03  0.20336755010E+04  0.12699999809E+01 0.  1.
</event>
<event>
 5   0  0.1101474E-07  0.3968638E+04  0.7818609E-02  0.8010903E-01
        2   -1    0    0  501    0  0.00000000000E+00  0.00000000000E+00  0.20344256450E+04  0.20344256451E+04  0.25500000920E-02 0.  1.
       -2   -1    0    0    0  501  0.00000000000E+00  0.00000000000E+00 -0.19354466624E+04  0.19354466624E+04  0.25500000920E-02 0. -1.
    10030    2    1    2    0    0  0.00000000000E+00  0.00000000000E+00  0.98978982668E+02  0.39698723074E+04  0.39686382171E+04 0.  0.
        5    1    3    3  502    0  0.12704241934E+03  0.15858347815E+04  0.12358129570E+04  0.20145142058E+04  0.46999998093E+01 0.  1.
       -5    1    3    3    0  502 -0.12704241934E+03 -0.15858347815E+04 -0.11368339743E+04  0.19553581017E+04  0.46999998093E+01 0. -1.
</event>
<event>
 5   0  0.3399500E-08  0.3980928E+04  0.7818609E-02  0.8008405E-01
        1   -1    0    0  501    0  0.00000000000E+00  0.00000000000E+00  0.27784897524E+04  0.27784897524E+04  0.50400001928E-02 0. -1.
       -1   -1    0    0    0  501  0.00000000000E+00  0.00000000000E+00 -0.14259354471E+04  0.14259354471E+04  0.50400001928E-02 0.  1.
    10030    2    1    2    0    0  0.00000000000E+00  0.00000000000E+00  0.13525543053E+04  0.42044251995E+04  0.39809280463E+04 0.  0.
        1    1    3    3  502    0 -0.13092469206E+04  0.60350892463E+03  0.21257705471E+04  0.25685114250E+04  0.50400001928E-02 0. -1.
       -1    1    3    3    0  502  0.13092469206E+04 -0.60350892463E+03 -0.77321624181E+03  0.16359137746E+04  0.50400001928E-02 0.  1.
</event>
<event>
 5   0  0.3399500E-08  0.4069376E+04  0.7818609E-02  0.7990696E-01
       -1   -1    0    0    0  501  0.00000000000E+00  0.00000000000E+00  0.17447941314E+04  0.17447941314E+04  0.50400001928E-02 0. -1.
        1   -1    0    0  501    0  0.00000000000E+00  0.00000000000E+00 -0.23727467482E+04  0.23727467482E+04  0.50400001928E-02 0.  1.
    10030    2    1    2    0    0  0.00000000000E+00  0.00000000000E+00 -0.62795261676E+03  0.41175408797E+04  0.40693756778E+04 0.  0.
        4    1    3    3  502    0 -0.16304986843E+04 -0.28350577623E+03 -0.15116463462E+04  0.22414231581E+04  0.12699999809E+01 0.  1.
       -4    1    3    3    0  502  0.16304986843E+04  0.28350577623E+03  0.88369372946E+03  0.18761177216E+04  0.12699999809E+01 0. -1.
</event>
<event>
 5   0  0.1087688E-07  0.4011790E+04  0.7818609E-02  0.8002172E-01
       -2   -1    0    0    0  501  0.00000000000E+00  0.00000000000E+00  0.13342935363E+04  0.13342935363E+04  0.25500000920E-02 0. -1.
        2   -1    0    0  501    0  0.00000000000E+00  0.00000000000E+00 -0.30155389151E+04  0.30155389151E+04  0.25500000920E-02 0.  1.
    10030    2    1    2    0    0  0.00000000000E+00  0.00000000000E+00 -0.16812453788E+04  0.43498324514E+04  0.40117896669E+04 0.  0.
        2    1    3    3  502    0 -0.16839704946E+04  0.10321506096E+04 -0.46109590434E+03  0.20282260576E+04  0.25500000920E-02 0. -1.
       -2    1    3    3    0  502  0.16839704946E+04 -0.10321506096E+04 -0.12201494745E+04  0.23216063938E+04  0.25500000920E-02 0.  1.
</event>
<event>
 5   0  0.1073271E-07  0.4055807E+04  0.7818609E-02  0.7993382E-01
       -2   -1    0    0    0  501  0.00000000000E+00  0.00000000000E+00  0.18914053685E+04  0.18914053685E+04  0.25500000920E-02 0. -1.
        2   -1    0    0  501    0  0.00000000000E+00  0.00000000000E+00 -0.21742523980E+04  0.21742523980E+04  0.25500000920E-02 0.  1.
    10030    2    1    2    0    0  0.00000000000E+00  0.00000000000E+00 -0.28284702952E+03  0.40656577664E+04  0.40558070259E+04 0.  0.
        1    1    3    3  502    0 -0.14567891111E+04 -0.12561117997E+04  0.50227417125E+03  0.19880469589E+04  0.50400001928E-02 0. -1.
       -1    1    3    3    0  502  0.14567891111E+04  0.12561117997E+04 -0.78512120077E+03  0.20776108075E+04  0.50400001928E-02 0.  1.
</event>
<event>
 5   0  0.1073271E-07  0.3991981E+04  0.7818609E-02  0.8006166E-01
        2   -1    0    0  501    0  0.00000000000E+00  0.00000000000E+00  0.21552676007E+04  0.21552676007E+04  0.25500000920E-02 0.  1.
       -2   -1    0    0    0  501  0.00000000000E+00  0.00000000000E+00 -0.18484845747E+04  0.18484845747E+04  0.25500000920E-02 0. -1.
    10030    2    1    2    0    0  0.00000000000E+00  0.00000000000E+00  0.30678302599E+03  0.40037521755E+04  0.39919814200E+04 0.  0.
        1    1    3    3  502    0 -0.15046911302E+04  0.24635183563E+03 -0.11385037287E+04  0.19028860618E+04  0.50400001928E-02 0. -1.
       -1    1    3    3    0  502  0.15046911302E+04 -0.24635183563E+03  0.14452867547E+04  0.21008661136E+04  0.50400001928E-02 0.  1.
</event>
<event>
 5   0  0.3399500E-08  0.4045535E+04  0.7818609E-02  0.7995423E-01
       -1   -1    0    0    0  501  0.00000000000E+00  0.00000000000E+00  0.19296832172E+04  0.19296832172E+04  0.50400001928E-02 0.  1.
        1   -1    0    0  501    0  0.00000000000E+00  0.00000000000E+00 -0.21203415703E+04  0.21203415703E+04  0.50400001928E-02 0. -1.
    10030    2    1    2    0    0  0.00000000000E+00  0.00000000000E+00 -0.19065835318E+03  0.40500247875E+04  0.40455345965E+04 0.  0.
        2    1    3    3  502    0 -0.16398167994E+03  0.12469154225E+04  0.14906954487E+04  0.19503489388E+04  0.25500000920E-02 0.  1.
       -2    1    3    3    0  502  0.16398167994E+03 -0.12469154225E+04 -0.16813538019E+04  0.20996758487E+04  0.25500000920E-02 0. -1.
</event>
<event>
 5   0  0.1101474E-07  0.3964230E+04  0.7818609E-02  0.8011802E-01
       -2   -1    0    0    0  501  0.00000000000E+00  0.00000000000E+00  0.21188412407E+04  0.21188412407E+04  0.25500000920E-02 0. -1.
        2   -1    0    0  501    0  0.00000000000E+00  0.00000000000E+00 -0.18542117041E+04  0.18542117041E+04  0.25500000920E-02 0.  1.
    10030    2    1    2    0    0  0.00000000000E+00  0.00000000000E+00  0.26462953658E+03  0.39730529448E+04  0.39642301788E+04 0.  0.
        5    1    3    3  502    0  0.76477893814E+03 -0.15260565879E+04  0.11420403189E+04  0.20537803470E+04  0.46999998093E+01 0. -1.
       -5    1    3    3    0  502 -0.76477893814E+03  0.15260565879E+04 -0.87741078227E+03  0.19192725978E+04  0.46999998093E+01 0.  1.
</event>
<event>
 5   0  0.3399500E-08  0.3997941E+04  0.7818609E-02  0.8004962E-01
        1   -1    0    0  501    0  0.00000000000E+00  0.00000000000E+00  0.13892390898E+04  0.13892390898E+04  0.50400001928E-02 0. -1.
       -1   -1    0    0    0  501  0.00000000000E+00  0.00000000000E+00 -0.28763109933E+04  0.28763109933E+04  0.50400001928E-02 0.  1.
    10030    2    1    2    0    0  0.00000000000E+00  0.00000000000E+00 -0.14870719035E+04  0.42655500832E+04  0.39979413034E+04 0.  0.
        4    1    3    3  502    0  0.16749878867E+04 -0.96710951720E+03 -0.12823091827E+04  0.23206041653E+04  0.12699999809E+01 0.  1.
       -4    1    3    3    0  502 -0.16749878867E+04  0.96710951720E+03 -0.20476272077E+03  0.19449459179E+04  0.12699999809E+01 0. -1.
</event>
<event>
 5   0  0.3399500E-08  0.4046884E+04  0.7818609E-02  0.7995155E-01
        1   -1    0    0  501    0  0.00000000000E+00  0.00000000000E+00  0.24346455147E+04  0.24346455147E+04  0.50400001928E-02 0. -1.
       -1   -1    0    0    0  501  0.00000000000E+00  0.00000000000E+00 -0.16816894859E+04  0.16816894859E+04  0.50400001928E-02 0.  1.
    10030    2    1    2    0    0  0.00000000000E+00  0.00000000000E+00  0.75295602877E+03  0.41163350006E+04  0.40468841170E+04 0.  0.
        1    1    3    3  502    0 -0.64912897584E+03  0.16063943549E+04  0.14396169771E+04  0.22526358542E+04  0.50400001928E-02 0. -1.
       -1    1    3    3    0  502  0.64912897584E+03 -0.16063943549E+04 -0.68666094832E+03  0.18636991465E+04  0.50400001928E-02 0.  1.
</event>
<event>
 5   0  0.3399500E-08  0.3930106E+04  0.7818609E-02  0.8018797E-01
        1   -1    0    0  501    0  0.00000000000E+00  0.00000000000E+00  0.22578502166E+04  0.22578502166E+04  0.50400001928E-02 0. -1.
       -1   -1    0    0    0  501  0.00000000000E+00  0.00000000000E+00 -0.17102254030E+04  0.17102254030E+04  0.50400001928E-02 0.  1.
    10030    2    1    2    0    0  0.00000000000E+00  0.00000000000E+00  0.54762481356E+03  0.39680756196E+04  0.39301057475E+04 0.  0.
        1    1    3    3  502    0 -0.16365290330E+04 -0.68624808775E+03  0.11259265046E+04  0.21016360788E+04  0.50400001928E-02 0. -1.
       -1    1    3    3    0  502  0.16365290330E+04  0.68624808775E+03 -0.57830169100E+03  0.18664395409E+04  0.50400001928E-02 0.  1.
</event>
<event>
 5   0  0.3399500E-08  0.3964481E+04  0.7818609E-02  0.8011750E-01
       -1   -1    0    0    0  501  0.00000000000E+00  0.00000000000E+00  0.21131209117E+04  0.21131209117E+04  0.50400001928E-02 0.  1.
        1   -1    0    0  501    0  0.00000000000E+00  0.00000000000E+00 -0.18594665507E+04  0.18594665507E+04  0.50400001928E-02 0. -1.
    10030    2    1    2    0    0  0.00000000000E+00  0.00000000000E+00  0.25365436098E+03  0.39725874625E+04  0.39644811277E+04 0.  0.
        2    1    3    3  502    0 -0.82450814088E+02  0.19799426542E+04  0.78701878427E+02  0.19832208743E+04  0.25500000920E-02 0.  1.
       -2    1    3    3    0  502  0.82450814088E+02 -0.19799426542E+04  0.17495248255E+03  0.19893665881E+04  0.25500000920E-02 0. -1.
</event>
<event>
 5   0  0.3399500E-08  0.3985834E+04  0.7818609E-02  0.8007410E-01
        1   -1    0    0  501    0  0.00000000000E+00  0.00000000000E+00  0.21800554973E+04  0.21800554973E+04  0.50400001928E-02 0.  1.
       -1   -1    0    0    0  501  0.00000000000E+00  0.00000000000E+00 -0.18218424019E+04  0.18218424019E+04  0.50400001928E-02 0. -1.
    10030    2    1    2    0    0  0.00000000000E+00  0.00000000000E+00  0.35821309540E+03  0.40018978993E+04  0.39858336863E+04 0.  0.
        3    1    3    3  502    0 -0.13476675503E+04 -0.11889033696E+04 -0.68577014418E+03  0.19235331423E+04  0.10100000352E+00 0. -1.
       -3    1    3    3    0  502  0.13476675503E+04  0.11889033696E+04  0.10439832396E+04  0.20783647570E+04  0.10100000352E+00 0.  1.
</event>
<event>
 5   0  0.1095903E-07  0.4007743E+04  0.7818609E-02  0.8002986E-01
        2   -1    0    0  501    0  0.00000000000E+00  0.00000000000E+00  0.14676655553E+04  0.14676655553E+04  0.25500000920E-02 0. -1.
       -2   -1    0    0    0  501  0.00000000000E+00  0.00000000000E+00 -0.27359782682E+04  0.27359782682E+04  0.25500000920E-02 0.  1.
    10030    2    1    2    0    0  0.00000000000E+00  0.00000000000E+00 -0.12683127130E+04  0.42036438235E+04  0.40077430378E+04 0.  0.
        3    1    3    3  502    0  0.28453507968E+03 -0.49070309428E+03  0.13817013306E+04  0.14936024623E+04  0.10100000352E+00 0. -1.
       -3    1    3    3    0  502 -0.28453507968E+03  0.49070309428E+03 -0.26500140435E+04  0.27100413612E+04  0.10100000352E+00 0.  1.
</event>
<event>
 5   0  0.3399500E-08  0.3981988E+04  0.7818609E-02  0.8008190E-01
       -1   -1    0    0    0  501  0.00000000000E+00  0.00000000000E+00  0.22215287563E+04  0.22215287563E+04  0.50400001928E-02 0. -1.
        1   -1    0    0  501    0  0.00000000000E+00  0.00000000000E+00 -0.17843824828E+04  0.17843824828E+04  0.50400001928E-02 0.  1.
    10030    2    1    2    0    0  0.00000000000E+00  0.00000000000E+00  0.43714627348E+03  0.40059112391E+04  0.39819879447E+04 0.  0.
        3    1    3    3  502    0  0.19408605008E+04  0.32884651684E+03 -0.81509877342E+02  0.19702089700E+04  0.10100000352E+00 0. -1.
       -3    1    3    3    0  502 -0.19408605008E+04 -0.32884651684E+03  0.51865615082E+03  0.20357022691E+04  0.10100000352E+00 0.  1.
</event>
<event>
 5   0  0.1095109E-07  0.3998731E+04  0.7818609E-02  0.8004803E-01
       -2   -1    0    0    0  501  0.00000000000E+00  0.00000000000E+00  0.27149490298E+04  0.27149490298E+04  0.25500000920E-02 0. -1.
        2   -1    0    0  501    0  0.00000000000E+00  0.00000000000E+00 -0.14723893812E+04  0.14723893812E+04  0.25500000920E-02 0.  1.
    10030    2    1    2    0    0  0.00000000000E+00  0.00000000000E+00  0.12425596485E+04  0.41873384110E+04  0.39987308597E+04 0.  0.
        4    1    3    3  502    0  0.87904063466E+03 -0.75218703708E+03  0.23288242509E+04  0.26003695470E+04  0.12699999809E+01 0. -1.
       -4    1    3    3    0  502 -0.87904063466E+03  0.75218703708E+03 -0.10862646024E+04  0.15869688641E+04  0.12699999809E+01 0.  1.
</event>
<event>
 5   0  0.1095903E-07  0.4005086E+04  0.7818609E-02  0.8003521E-01
       -2   -1    0    0    0  501  0.00000000000E+00  0.00000000000E+00  0.21117498593E+04  0.21117498593E+04  0.25500000920E-02 0.  1.
        2   -1    0    0  501    0  0.00000000000E+00  0.00000000000E+00 -0.18989840912E+04  0.18989840912E+04  0.25500000920E-02 0. -1.
    10030    2    1    2    0    0  0.00000000000E+00  0.00000000000E+00  0.21276576817E+03  0.40107339505E+04  0.40050864597E+04 0.  0.
        3    1    3    3  502    0 -0.15433862092E+04  0.51560081664E+03  0.12752022797E+04  0.20673717753E+04  0.10100000352E+00 0.  1.
       -3    1    3    3    0  502  0.15433862092E+04 -0.51560081664E+03 -0.10624365115E+04  0.19433621752E+04  0.10100000352E+00 0. -1.
</event>
<event>
 5   0  0.1087688E-07  0.3986711E+04  0.7818609E-02  0.8007233E-01
       -2   -1    0    0    0  501  0.00000000000E+00  0.00000000000E+00  0.15535232808E+04  0.15535232808E+04  0.25500000920E-02 0. -1.
        2   -1    0    0  501    0  0.00000000000E+00  0.00000000000E+00 -0.25577129243E+04  0.25577129243E+04  0.25500000920E-02 0.  1.
    10030    2    1    2    0    0  0.00000000000E+00  0.00000000000E+00 -0.10041896435E+04  0.41112362051E+04  0.39867112128E+04 0.  0.
        2    1    3    3  502    0  0.78573394212E+03 -0.66213700462E+02 -0.23900449259E+04  0.25167591919E+04  0.25500000920E-02 0.  1.
       -2    1    3    3    0  502 -0.78573394212E+03  0.66213700462E+02  0.13858552824E+04  0.15944770132E+04  0.25500000920E-02 0. -1.
</event>
<event>
 5   0  0.3399500E-08  0.4001624E+04  0.7818609E-02  0.8004219E-01
        1   -1    0    0  501    0  0.00000000000E+00  0.00000000000E+00  0.23103705797E+04  0.23103705797E+04  0.50400001928E-02 0. -1.
       -1   -1    0    0    0  501  0.00000000000E+00  0.00000000000E+00 -0.17327298889E+04  0.17327298890E+04  0.50400001928E-02 0.  1.
    10030    2    1    2    0    0  0.00000000000E+00  0.00000000000E+00  0.57764069078E+03  0.40431004687E+04  0.40016237495E+04 0.  0.
        5    1    3    3  502    0  0.94997713627E+03 -0.14977993836E+04  0.12243585779E+04  0.21552112589E+04  0.46999998093E+01 0. -1.
       -5    1    3    3    0  502 -0.94997713627E+03  0.14977993836E+04 -0.64671788716E+03  0.18878892098E+04  0.46999998093E+01 0.  1.
</event>
<event>
 5   0  0.3399500E-08  0.4001758E+04  0.7818609E-02  0.8004192E-01
        1   -1    0    0  501    0  0.00000000000E+00  0.00000000000E+00  0.20137022872E+04  0.20137022872E+04  0.50400001928E-02 0. -1.
       -1   -1    0    0    0  501  0.00000000000E+00  0.00000000000E+00 -0.19881370567E+04  0.19881370568E+04  0.50400001928E-02 0.  1.
    10030    2    1    2    0    0  0.00000000000E+00  0.00000000000E+00  0.25565230466E+02  0.40018393440E+04  0.40017576831E+04 0.  0.
        1    1    3    3  502    0  0.18689690461E+04  0.57020872559E+03  0.44329442257E+03  0.20036699407E+04  0.50400001928E-02 0.  1.
       -1    1    3    3    0  502 -0.18689690461E+04 -0.57020872559E+03 -0.41772919210E+03  0.19981694033E+04  0.50400001928E-02 0. -1.
</event>
<event>
 5   0  0.1095109E-07  0.3673884E+04  0.7818609E-02  0.8073774E-01
       -2   -1    0    0    0  501  0.00000000000E+00  0.00000000000E+00  0.22528798716E+04  0.22528798716E+04  0.25500000920E-02 0.  1.
        2   -1    0    0  501    0  0.00000000000E+00  0.00000000000E+00 -0.14977968916E+04  0.14977968916E+04  0.25500000920E-02 0. -1.
    10030    2    1    2    0    0  0.00000000000E+00  0.00000000000E+00  0.75508298006E+03  0.37506767632E+04  0.36738843034E+04 0.  0.
        4    1    3    3  502    0 -0.16128184938E+04  0.53736633947E+03  0.10880841624E+04  0.20183842137E+04  0.12699999809E+01 0.  1.
       -4    1    3    3    0  502  0.16128184938E+04 -0.53736633947E+03 -0.33300118232E+03  0.17322925495E+04  0.12699999809E+01 0. -1.
</event>
<event>
 5   0  0.1095109E-07  0.3578268E+04  0.7818609E-02  0.8095488E-01
        2   -1    0    0  501    0  0.00000000000E+00  0.00000000000E+00  0.27071593441E+04  0.27071593441E+04  0.25500000920E-02 0. -1.
       -2   -1    0    0    0  501  0.00000000000E+00  0.00000000000E+00 -0.11824204390E+04  0.11824204390E+04  0.25500000920E-02 0.  1.
    10030    2    1    2    0    0  0.00000000000E+00  0.00000000000E+00  0.15247389051E+04  0.38895797832E+04  0.35782680393E+04 0.  0.
        4    1    3    3  502    0 -0.71373580613E+03 -0.14793276412E+04 -0.86886808806E+01  0.16425304189E+04  0.12699999809E+01 0.  1.
       -4    1    3    3    0  502  0.71373580613E+03  0.14793276412E+04  0.15334275860E+04  0.22470493643E+04  0.12699999809E+01 0. -1.
</event>
<event>
 5   0  0.1101474E-07  0.3973722E+04  0.7818609E-02  0.8009869E-01
        2   -1    0    0  501    0  0.00000000000E+00  0.00000000000E+00  0.26730962294E+04  0.26730962294E+04  0.25500000920E-02 0. -1.
       -2   -1    0    0    0  501  0.00000000000E+00  0.00000000000E+00 -0.14767953942E+04  0.14767953942E+04  0.25500000920E-02 0.  1.
    10030    2    1    2    0    0  0.00000000000E+00  0.00000000000E+00  0.11963008352E+04  0.41498916235E+04  0.39737217818E+04 0.  0.
        5    1    3    3  502    0  0.28563871592E+03 -0.98439297896E+03  0.23756588885E+04  0.25873531373E+04  0.46999998093E+01 0. -1.
       -5    1    3    3    0  502 -0.28563871592E+03  0.98439297896E+03 -0.11793580533E+04  0.15625384862E+04  0.46999998093E+01 0.  1.
</event>
<event>
 5   0  0.1095903E-07  0.3987898E+04  0.7818609E-02  0.8006992E-01
        2   -1    0    0  501    0  0.00000000000E+00  0.00000000000E+00  0.20312742032E+04  0.20312742032E+04  0.25500000920E-02 0.  1.
       -2   -1    0    0    0  501  0.00000000000E+00  0.00000000000E+00 -0.19573099020E+04  0.19573099021E+04  0.25500000920E-02 0. -1.
    10030    2    1    2    0    0  0.00000000000E+00  0.00000000000E+00  0.73964301127E+02  0.39885841052E+04  0.39878982493E+04 0.  0.
        3    1    3    3  502    0  0.82494158483E+02 -0.10823983001E+04 -0.16358609533E+04  0.19632708512E+04  0.10100000352E+00 0. -1.
       -3    1    3    3    0  502 -0.82494158483E+02  0.10823983001E+04  0.17098252544E+04  0.20253132541E+04  0.10100000352E+00 0.  1.
</event>
<event>
 5   0  0.1095109E-07  0.4009671E+04  0.7818609E-02  0.8002599E-01
        2   -1    0    0  501    0  0.00000000000E+00  0.00000000000E+00  0.22914691694E+04  0.22914691694E+04  0.25500000920E-02 0.  1.
       -2   -1    0    0    0  501  0.00000000000E+00  0.00000000000E+00 -0.17540557067E+04  0.17540557067E+04  0.25500000920E-02 0. -1.
    10030    2    1    2    0    0  0.00000000000E+00  0.00000000000E+00  0.53741346266E+03  0.40455248761E+04  0.40096705966E+04 0.  0.
        4    1    3    3  502    0  0.96964870871E+02  0.17630675323E+04  0.12266989210E+04  0.21500235267E+04  0.12699999809E+01 0.  1.
       -4    1    3    3    0  502 -0.96964870871E+02 -0.17630675323E+04 -0.68928545833E+03  0.18955013494E+04  0.12699999809E+01 0. -1.
</event>
<event>
 5   0  0.3399500E-08  0.3991481E+04  0.7818609E-02  0.8006267E-01
       -1   -1    0    0    0  501  0.00000000000E+00  0.00000000000E+00  0.15859444898E+04  0.15859444899E+04  0.50400001928E-02 0.  1.
        1   -1    0    0  501    0  0.00000000000E+00  0.00000000000E+00 -0.25114247755E+04  0.25114247755E+04  0.50400001928E-02 0. -1.
    10030    2    1    2    0    0  0.00000000000E+00  0.00000000000E+00 -0.92548028568E+03  0.40973692654E+04  0.39914810707E+04 0.  0.
        5    1    3    3  502    0 -0.19373780268E+03  0.15336816644E+04  0.83298305214E+03  0.17560172662E+04  0.46999998093E+01 0.  1.
       -5    1    3    3    0  502  0.19373780268E+03 -0.15336816644E+04 -0.17584633378E+04  0.23413519992E+04  0.46999998093E+01 0. -1.
</event>
<event>
 5   0  0.3399500E-08  0.4008569E+04  0.7818609E-02  0.8002820E-01
       -1   -1    0    0    0  501  0.00000000000E+00  0.00000000000E+00  0.20663451335E+04  0.20663451335E+04  0.50400001928E-02 0.  1.
        1   -1    0    0  501    0  0.00000000000E+00  0.00000000000E+00 -0.19440877540E+04  0.19440877540E+04  0.50400001928E-02 0. -1.
    10030    2    1    2    0    0  0.00000000000E+00  0.00000000000E+00  0.12225737945E+03  0.40104328875E+04  0.40085689565E+04 0.  0.
        2    1    3    3  502    0 -0.16580283609E+03  0.19645395723E+04 -0.29994071510E+03  0.19942093030E+04  0.25500000920E-02 0. -1.
       -2    1    3    3    0  502  0.16580283609E+03 -0.19645395723E+04  0.42219809456E+03  0.20162235845E+04  0.25500000920E-02 0.  1.
</event>
<event>
 5   0  0.1095109E-07  0.4001243E+04  0.7818609E-02  0.8004296E-01
        2   -1    0    0  501    0  0.00000000000E+00  0.00000000000E+00  0.17777250446E+04  0.17777250446E+04  0.25500000920E-02 0.  1.
       -2   -1    0    0    0  501  0.00000000000E+00  0.00000000000E+00 -0.22514658790E+04  0.22514658790E+04  0.25500000920E-02 0. -1.
    10030    2    1    2    0    0  0.00000000000E+00  0.00000000000E+00 -0.47374083438E+03  0.40291909236E+04  0.40012434468E+04 0.  0.
        4    1    3    3  502    0 -0.87389930650E+03  0.76320150113E+03  0.14043321183E+04  0.18216275252E+04  0.12699999809E+01 0.  1.
       -4    1    3    3    0  502  0.87389930650E+03 -0.76320150113E+03 -0.18780729527E+04  0.22075633984E+04  0.12699999809E+01 0. -1.
</event>
<event>
 5   0  0.1095903E-07  0.3993312E+04  0.7818609E-02  0.8005897E-01
        2   -1    0    0  501    0  0.00000000000E+00  0.00000000000E+00  0.21377865094E+04  0.21377865094E+04  0.25500000920E-02 0. -1.
       -2   -1    0    0    0  501  0.00000000000E+00  0.00000000000E+00 -0.18648423965E+04  0.18648423965E+04  0.25500000920E-02 0.  1.
    10030    2    1    2    0    0  0.00000000000E+00  0.00000000000E+00  0.27294411284E+03  0.40026289059E+04  0.39933118673E+04 0.  0.
        3    1    3    3  502    0  0.17887785292E+04  0.71324196980E+03  0.66514191706E+03  0.20373650910E+04  0.10100000352E+00 0. -1.
       -3    1    3    3    0  502 -0.17887785292E+04 -0.71324196980E+03 -0.39219780422E+03  0.19652638149E+04  0.10100000352E+00 0.  1.
</event>
<event>
 5   0  0.1087688E-07  0.3549414E+04  0.7818609E-02  0.8102178E-01
        2   -1    0    0  501    0  0.00000000000E+00  0.00000000000E+00  0.22084028262E+04  0.22084028262E+04  0.25500000920E-02 0.  1.
       -2   -1    0    0    0  501  0.00000000000E+00  0.00000000000E+00 -0.14261820719E+04  0.14261820719E+04  0.25500000920E-02 0. -1.
    10030    2    1    2    0    0  0.00000000000E+00  0.00000000000E+00  0.78222075426E+03  0.36345848981E+04  0.35494137647E+04 0.  0.
        2    1    3    3  502    0  0.52632312684E+03  0.16923133866E+04  0.29590692294E+03  0.17968031443E+04  0.25500000920E-02 0. -1.
       -2    1    3    3    0  502 -0.52632312684E+03 -0.16923133866E+04  0.48631383132E+03  0.18377817538E+04  0.25500000920E-02 0.  1.
</event>
<event>
 5   0  0.1095109E-07  0.4009043E+04  0.7818609E-02  0.8002725E-01
        2   -1    0    0  501    0  0.00000000000E+00  0.00000000000E+00  0.16481444869E+04  0.16481444869E+04  0.25500000920E-02 0.  1.
       -2   -1    0    0    0  501  0.00000000000E+00  0.00000000000E+00 -0.24379574606E+04  0.24379574606E+04  0.25500000920E-02 0. -1.
    10030    2    1    2    0    0  0.00000000000E+00  0.00000000000E+00 -0.78981297367E+03  0.40861019475E+04  0.40090428523E+04 0.  0.
        4    1    3    3  502    0 -0.18841948565E+04  0.68098860327E+03 -0.32909919249E+03  0.20303309155E+04  0.12699999809E+01 0. -1.
       -4    1    3    3    0  502  0.18841948565E+04 -0.68098860327E+03 -0.46071378118E+03  0.20557710320E+04  0.12699999809E+01 0.  1.
</event>
<event>
 5   0  0.3399500E-08  0.4038330E+04  0.7818609E-02  0.7996858E-01
       -1   -1    0    0    0  501  0.00000000000E+00  0.00000000000E+00  0.16265367259E+04  0.16265367259E+04  0.50400001928E-02 0.  1.
        1   -1    0    0  501    0  0.00000000000E+00  0.00000000000E+00 -0.25065697155E+04  0.25065697155E+04  0.50400001928E-02 0. -1.
    10030    2    1    2    0    0  0.00000000000E+00  0.00000000000E+00 -0.88003298961E+03  0.41331064414E+04  0.40383301987E+04 0.  0.
        1    1    3    3  502    0  0.75938159566E+03 -0.42104243347E+03 -0.23057338511E+04  0.24638071618E+04  0.50400001928E-02 0. -1.
       -1    1    3    3    0  502 -0.75938159566E+03  0.42104243347E+03  0.14257008614E+04  0.16692992796E+04  0.50400001928E-02 0.  1.
</event>
<event>
 5   0  0.1087688E-07  0.3988194E+04  0.7818609E-02  0.8006932E-01
       -2   -1    0    0    0  501  0.00000000000E+00  0.00000000000E+00  0.17924196288E+04  0.17924196288E+04  0.25500000920E-02 0.  1.
        2   -1    0    0  501    0  0.00000000000E+00  0.00000000000E+00 -0.22184665568E+04  0.22184665568E+04  0.25500000920E-02 0. -1.
    10030    2    1    2    0    0  0.00000000000E+00  0.00000000000E+00 -0.42604692793E+03  0.40108861856E+04  0.39881940787E+04 0.  0.
        2    1    3    3  502    0 -0.18191555424E+04  0.65278170933E+03  0.28065875420E+03  0.19530028632E+04  0.25500000920E-02 0. -1.
       -2    1    3    3    0  502  0.18191555424E+04 -0.65278170933E+03 -0.70670568213E+03  0.20578833224E+04  0.25500000920E-02 0.  1.
</event>
<event>
 5   0  0.3399500E-08  0.4002159E+04  0.7818609E-02  0.8004111E-01
       -1   -1    0    0    0  501  0.00000000000E+00  0.00000000000E+00  0.25244614462E+04  0.25244614462E+04  0.50400001928E-02 0. -1.
        1   -1    0    0  501    0  0.00000000000E+00  0.00000000000E+00 -0.15862069833E+04  0.15862069833E+04  0.50400001928E-02 0.  1.
    10030    2    1    2    0    0  0.00000000000E+00  0.00000000000E+00  0.93825446295E+03  0.41106684295E+04  0.40021586051E+04 0.  0.
        5    1    3    3  502    0  0.74534965950E+03  0.18462910455E+04  0.67444589171E+03  0.21021979189E+04  0.46999998093E+01 0. -1.
       -5    1    3    3    0  502 -0.74534965950E+03 -0.18462910455E+04  0.26380857125E+03  0.20084705106E+04  0.46999998093E+01 0.  1.
</event>
<event>
 5   0  0.3399500E-08  0.3976514E+04  0.7818609E-02  0.8009301E-01
        1   -1    0    0  501    0  0.00000000000E+00  0.00000000000E+00  0.23538262775E+04  0.23538262775E+04  0.50400001928E-02 0. -1.
       -1   -1    0    0    0  501  0.00000000000E+00  0.00000000000E+00 -0.16794634404E+04  0.16794634404E+04  0.50400001928E-02 0.  1.
    10030    2    1    2    0    0  0.00000000000E+00  0.00000000000E+00  0.67436283705E+03  0.40332897179E+04  0.39765136380E+04 0.  0.
        3    1    3    3  502    0 -0.78191959278E+03  0.82508079325E+03  0.19917321284E+04  0.22932844234E+04  0.10100000352E+00 0. -1.
       -3    1    3    3    0  502  0.78191959278E+03 -0.82508079325E+03 -0.13173692914E+04  0.17400052945E+04  0.10100000352E+00 0.  1.
</event>
<event>
 5   0  0.1101474E-07  0.4004616E+04  0.7818609E-02  0.8003616E-01
        2   -1    0    0  501    0  0.00000000000E+00  0.00000000000E+00  0.19783860555E+04  0.19783860555E+04  0.25500000920E-02 0.  1.
       -2   -1    0    0    0  501  0.00000000000E+00  0.00000000000E+00 -0.20265187803E+04  0.20265187803E+04  0.25500000920E-02 0. -1.
    10030    2    1    2    0    0  0.00000000000E+00  0.00000000000E+00 -0.48132724795E+02  0.40049048358E+04  0.40046155852E+04 0.  0.
        5    1    3    3  502    0 -0.17405276281E+04 -0.12344933436E+02 -0.10138982194E+04  0.20143486567E+04  0.46999998093E+01 0. -1.
       -5    1    3    3    0  502  0.17405276281E+04  0.12344933436E+02  0.96576549463E+03  0.19905561791E+04  0.46999998093E+01 0.  1.
</event>
<event>
 5   0  0.3399500E-08  0.4011103E+04  0.7818609E-02  0.8002311E-01
        1   -1    0    0  501    0  0.00000000000E+00  0.00000000000E+00  0.15057204616E+04  0.15057204616E+04  0.50400001928E-02 0.  1.
       -1   -1    0    0    0  501  0.00000000000E+00  0.00000000000E+00 -0.26713034744E+04  0.26713034745E+04  0.50400001928E-02 0. -1.
    10030    2    1    2    0    0  0.00000000000E+00  0.00000000000E+00 -0.11655830128E+04  0.41770239361E+04  0.40111027415E+04 0.  0.
        5    1    3    3  502    0  0.15117954267E+04  0.32880428238E+03  0.74615428217E+03  0.17176745824E+04  0.46999998093E+01 0.  1.
       -5    1    3    3    0  502 -0.15117954267E+04 -0.32880428238E+03 -0.19117372950E+04  0.24593493537E+04  0.46999998093E+01 0. -1.
</event>
<event>
 5   0  0.1095903E-07  0.3996258E+04  0.7818609E-02  0.8005302E-01
        2   -1    0    0  501    0  0.00000000000E+00  0.00000000000E+00  0.20923317971E+04  0.20923317971E+04  0.25500000920E-02 0. -1.
       -2   -1    0    0    0  501  0.00000000000E+00  0.00000000000E+00 -0.19081677838E+04  0.19081677838E+04  0.25500000920E-02 0.  1.
    10030    2    1    2    0    0  0.00000000000E+00  0.00000000000E+00  0.18416401332E+03  0.40004995809E+04  0.39962583141E+04 0.  0.
        3    1    3    3  502    0  0.41112866046E+03 -0.17216605146E+04 -0.83592850834E+03  0.19575285909E+04  0.10100000352E+00 0.  1.
       -3    1    3    3    0  502 -0.41112866046E+03  0.17216605146E+04  0.10200925217E+04  0.20429709900E+04  0.10100000352E+00 0. -1.
</event>
<event>
 5   0  0.3399500E-08  0.3974784E+04  0.7818609E-02  0.8009653E-01
       -1   -1    0    0    0  501  0.00000000000E+00  0.00000000000E+00  0.19748464429E+04  0.19748464429E+04  0.50400001928E-02 0. -1.
        1   -1    0    0  501    0  0.00000000000E+00  0.00000000000E+00 -0.20000176480E+04  0.20000176480E+04  0.50400001928E-02 0.  1.
    10030    2    1    2    0    0  0.00000000000E+00  0.00000000000E+00 -0.25171205184E+02  0.39748640909E+04  0.39747843906E+04 0.  0.
        1    1    3    3  502    0  0.18653438492E+04  0.45399438902E+03 -0.52651142266E+03  0.19906865296E+04  0.50400001928E-02 0.  1.
       -1    1    3    3    0  502 -0.18653438492E+04 -0.45399438902E+03  0.50134021748E+03  0.19841775613E+04  0.50400001928E-02 0. -1.
</event>
<event>
 5   0  0.3399500E-08  0.3950236E+04  0.7818609E-02  0.8014661E-01
        1   -1    0    0  501    0  0.00000000000E+00  0.00000000000E+00  0.11147009262E+04  0.11147009262E+04  0.50400001928E-02 0.  1.
       -1   -1    0    0    0  501  0.00000000000E+00  0.00000000000E+00 -0.34996747468E+04  0.34996747468E+04  0.50400001928E-02 0. -1.
    10030    2    1    2    0    0  0.00000000000E+00  0.00000000000E+00 -0.23849738206E+04  0.46143756729E+04  0.39502357811E+04 0.  0.
        5    1    3    3  502    0  0.10922543760E+04  0.15356530873E+04 -0.50159301124E+03  0.19500942709E+04  0.46999998093E+01 0.  1.
       -5    1    3    3    0  502 -0.10922543760E+04 -0.15356530873E+04 -0.18833808094E+04  0.26642814021E+04  0.46999998093E+01 0. -1.
</event>
<event>
 5   0  0.1095903E-07  0.4019915E+04  0.7818609E-02  0.8000541E-01
        2   -1    0    0  501    0  0.00000000000E+00  0.00000000000E+00  0.27190376087E+04  0.27190376087E+04  0.25500000920E-02 0.  1.
       -2   -1    0    0    0  501  0.00000000000E+00  0.00000000000E+00 -0.14857937069E+04  0.14857937069E+04  0.25500000920E-02 0. -1.
    10030    2    1    2    0    0  0.00000000000E+00  0.00000000000E+00  0.12332439018E+04  0.42048313156E+04  0.40199149084E+04 0.  0.
        3    1    3    3  502    0 -0.97461078203E+02 -0.46918074737E+03 -0.14251690589E+04  0.15035744385E+04  0.10100000352E+00 0. -1.
       -3    1    3    3    0  502  0.97461078203E+02  0.46918074737E+03  0.26584129608E+04  0.27012568770E+04  0.10100000352E+00 0.  1.
</event>
<event>
 5   0  0.1101474E-07  0.3935481E+04  0.7818609E-02  0.8017690E-01
       -2   -1    0    0    0  501  0.00000000000E+00  0.00000000000E+00  0.13072395450E+04  0.13072395450E+04  0.25500000920E-02 0.  1.
        2   -1    0    0  501    0  0.00000000000E+00  0.00000000000E+00 -0.29619688406E+04  0.29619688406E+04  0.25500000920E-02 0. -1.
    10030    2    1    2    0    0  0.00000000000E+00  0.00000000000E+00 -0.16547292956E+04  0.42692083857E+04  0.39354810631E+04 0.  0.
        5    1    3    3  502    0  0.14502690744E+04 -0.23945040679E+03 -0.22464898100E+04  0.26846518288E+04  0.46999998093E+01 0. -1.
       -5    1    3    3    0  502 -0.14502690744E+04  0.23945040679E+03  0.59176051434E+03  0.15845565569E+04  0.46999998093E+01 0.  1.
</event>
<event>
 5   0  0.1101474E-07  0.3993142E+04  0.7818609E-02  0.8005931E-01
        2   -1    0    0  501    0  0.00000000000E+00  0.00000000000E+00  0.18647557196E+04  0.18647557196E+04  0.25500000920E-02 0.  1.
       -2   -1    0    0    0  501  0.00000000000E+00  0.00000000000E+00 -0.21377039573E+04  0.21377039573E+04  0.25500000920E-02 0. -1.
    10030    2    1    2    0    0  0.00000000000E+00  0.00000000000E+00 -0.27294823770E+03  0.40024596769E+04  0.39931419615E+04 0.  0.
        5    1    3    3  502    0 -0.75685827690E+03 -0.48687904934E+03 -0.19228752443E+04  0.21230536864E+04  0.46999998093E+01 0. -1.
       -5    1    3    3    0  502  0.75685827690E+03  0.48687904934E+03  0.16499270066E+04  0.18794059905E+04  0.46999998093E+01 0.  1.
</event>
<event>
 5   0  0.3399500E-08  0.3998323E+04  0.7818609E-02  0.8004885E-01
        1   -1    0    0  501    0  0.00000000000E+00  0.00000000000E+00  0.15086519847E+04  0.15086519847E+04  0.50400001928E-02 0. -1.
       -1   -1    0    0    0  501  0.00000000000E+00  0.00000000000E+00 -0.26491509276E+04  0.26491509276E+04  0.50400001928E-02 0.  1.
    10030    2    1    2    0    0  0.00000000000E+00  0.00000000000E+00 -0.11404989429E+04  0.41578029123E+04  0.39983230508E+04 0.  0.
        4    1    3    3  502    0 -0.81574412849E+03  0.64537250354E+01  0.13276975896E+04  0.15582883674E+04  0.12699999809E+01 0. -1.
       -4    1    3    3    0  502  0.81574412849E+03 -0.64537250354E+01 -0.24681965324E+04  0.25995145449E+04  0.12699999809E+01 0.  1.
</event>
<event>
 5   0  0.3399500E-08  0.3949870E+04  0.7818609E-02  0.8014736E-01
       -1   -1    0    0    0  501  0.00000000000E+00  0.00000000000E+00  0.18163273721E+04  0.18163273721E+04  0.50400001928E-02 0. -1.
        1   -1    0    0  501    0  0.00000000000E+00  0.00000000000E+00 -0.21473925882E+04  0.21473925882E+04  0.50400001928E-02 0.  1.
    10030    2    1    2    0    0  0.00000000000E+00  0.00000000000E+00 -0.33106521612E+03  0.39637199604E+04  0.39498698392E+04 0.  0.
        4    1    3    3  502    0 -0.14366216731E+04  0.10257529520E+04  0.72318859794E+03  0.19076305490E+04  0.12699999809E+01 0. -1.
       -4    1    3    3    0  502  0.14366216731E+04 -0.10257529520E+04 -0.10542538141E+04  0.20560894114E+04  0.12699999809E+01 0.  1.
</event>
<event>
 5   0  0.3399500E-08  0.4034006E+04  0.7818609E-02  0.7997721E-01
       -1   -1    0    0    0  501  0.00000000000E+00  0.00000000000E+00  0.14274409013E+04  0.14274409013E+04  0.50400001928E-02 0. -1.
        1   -1    0    0  501    0  0.00000000000E+00  0.00000000000E+00 -0.28500665269E+04  0.28500665269E+04  0.50400001928E-02 0.  1.
    10030    2    1    2    0    0  0.00000000000E+00  0.00000000000E+00 -0.14226256256E+04  0.42775074282E+04  0.40340062131E+04 0.  0.
        3    1    3    3  502    0  0.55829955694E+03  0.16702937793E+04 -0.17538822023E+04  0.24854944165E+04  0.10100000352E+00 0.  1.
       -3    1    3    3    0  502 -0.55829955694E+03 -0.16702937793E+04  0.33125657670E+03  0.17920130117E+04  0.10100000352E+00 0. -1.
</event>
<event>
 5   0  0.3399500E-08  0.4095185E+04  0.7818609E-02  0.7985615E-01
        1   -1    0    0  501    0  0.00000000000E+00  0.00000000000E+00  0.25284583976E+04  0.25284583976E+04  0.50400001928E-02 0. -1.
       -1   -1    0    0    0  501  0.00000000000E+00  0.00000000000E+00 -0.16581783021E+04  0.16581783022E+04  0.50400001928E-02 0.  1.
    10030    2    1    2    0    0  0.00000000000E+00  0.00000000000E+00  0.87028009548E+03  0.41866366998E+04  0.40951849056E+04 0.  0.
        1    1    3    3  502    0  0.80495965962E+03  0.90465400313E+02  0.23576917473E+04  0.24929609739E+04  0.50400001928E-02 0. -1.
       -1    1    3    3    0  502 -0.80495965962E+03 -0.90465400313E+02 -0.14874116518E+04  0.16936757258E+04  0.50400001928E-02 0.  1.
</event>
<event>
 5   0  0.1095903E-07  0.4035606E+04  0.7818609E-02  0.7997402E-01
        2   -1    0    0  501    0  0.00000000000E+00  0.00000000000E+00  0.15005066935E+04  0.15005066935E+04  0.25500000920E-02 0.  1.
       -2   -1    0    0    0  501  0.00000000000E+00  0.00000000000E+00 -0.27134366785E+04  0.27134366785E+04  0.25500000920E-02 0. -1.
    10030    2    1    2    0    0  0.00000000000E+00  0.00000000000E+00 -0.12129299850E+04  0.42139433719E+04  0.40356064716E+04 0.  0.
        3    1    3    3  502    0 -0.10609664632E+03  0.18234790971E+04 -0.15017923571E+04  0.23646802765E+04  0.10100000352E+00 0. -1.
       -3    1    3    3    0  502  0.10609664632E+03 -0.18234790971E+04  0.28886237211E+03  0.18492630954E+04  0.10100000352E+00 0.  1.
</event>
<event>
 5   0  0.1101474E-07  0.3998090E+04  0.7818609E-02  0.8004932E-01
       -2   -1    0    0    0  501  0.00000000000E+00  0.00000000000E+00  0.21918169653E+04  0.21918169653E+04  0.25500000920E-02 0.  1.
        2   -1    0    0  501    0  0.00000000000E+00  0.00000000000E+00 -0.18232275433E+04  0.18232275433E+04  0.25500000920E-02 0. -1.
    10030    2    1    2    0    0  0.00000000000E+00  0.00000000000E+00  0.36858942204E+03  0.40150445086E+04  0.39980900746E+04 0.  0.
        5    1    3    3  502    0  0.14636825649E+04 -0.12413671155E+04 -0.37736227535E+03  0.19559609768E+04  0.46999998093E+01 0. -1.
       -5    1    3    3    0  502 -0.14636825649E+04  0.12413671155E+04  0.74595169739E+03  0.20590835318E+04  0.46999998093E+01 0.  1.
</event>
<event>
 5   0  0.1101474E-07  0.3981145E+04  0.7818609E-02  0.8008361E-01
        2   -1    0    0  501    0  0.00000000000E+00  0.00000000000E+00  0.26702752989E+04  0.26702752989E+04  0.25500000920E-02 0.  1.
       -2   -1    0    0    0  501  0.00000000000E+00  0.00000000000E+00 -0.14838842578E+04  0.14838842578E+04  0.25500000920E-02 0. -1.
    10030    2    1    2    0    0  0.00000000000E+00  0.00000000000E+00  0.11863910410E+04  0.41541595567E+04  0.39811453026E+04 0.  0.
        5    1    3    3  502    0 -0.56700674938E+02  0.15377413050E+04 -0.72441363317E+03  0.17007823169E+04  0.46999998093E+01 0. -1.
       -5    1    3    3    0  502  0.56700674938E+02 -0.15377413050E+04  0.19108046742E+04  0.24533772398E+04  0.46999998093E+01 0.  1.
</event>
<event>
 5   0  0.3399500E-08  0.4002203E+04  0.7818609E-02  0.8004102E-01
        1   -1    0    0  501    0  0.00000000000E+00  0.00000000000E+00  0.25085076670E+04  0.25085076670E+04  0.50400001928E-02 0.  1.
       -1   -1    0    0    0  501  0.00000000000E+00  0.00000000000E+00 -0.15963304774E+04  0.15963304774E+04  0.50400001928E-02 0. -1.
    10030    2    1    2    0    0  0.00000000000E+00  0.00000000000E+00  0.91217718963E+03  0.41048381444E+04  0.40022030141E+04 0.  0.
        1    1    3    3  502    0 -0.11138465914E+04  0.60842101805E+03 -0.11307056368E+04  0.16998016359E+04  0.50400001928E-02 0. -1.
       -1    1    3    3    0  502  0.11138465914E+04 -0.60842101805E+03  0.20428828264E+04  0.24050365084E+04  0.50400001928E-02 0.  1.
</event>
<event>
 5   0  0.1073271E-07  0.4069047E+04  0.7818609E-02  0.7990761E-01
       -2   -1    0    0    0  501  0.00000000000E+00  0.00000000000E+00  0.16048134116E+04  0.16048134116E+04  0.25500000920E-02 0.  1.
        2   -1    0    0  501    0  0.00000000000E+00  0.00000000000E+00 -0.25792940002E+04  0.25792940002E+04  0.25500000920E-02 0. -1.
    10030    2    1    2    0    0  0.00000000000E+00  0.00000000000E+00 -0.97448058862E+03  0.41841074118E+04  0.40690468682E+04 0.  0.
        1    1    3    3  502    0 -0.47273028527E+03  0.19645686439E+04 -0.24329422076E+03  0.20352385504E+04  0.50400001928E-02 0.  1.
       -1    1    3    3    0  502  0.47273028527E+03 -0.19645686439E+04 -0.73118636786E+03  0.21488688614E+04  0.50400001928E-02 0. -1.
</event>
<event>
 5   0  0.1073271E-07  0.3995205E+04  0.7818609E-02  0.8005515E-01
        2   -1    0    0  501    0  0.00000000000E+00  0.00000000000E+00  0.14859076568E+04  0.14859076568E+04  0.25500000920E-02 0.  1.
       -2   -1    0    0    0  501  0.00000000000E+00  0.00000000000E+00 -0.26855069428E+04  0.26855069428E+04  0.25500000920E-02 0. -1.
    10030    2    1    2    0    0  0.00000000000E+00  0.00000000000E+00 -0.11995992860E+04  0.41714145995E+04  0.39952047900E+04 0.  0.
        1    1    3    3  502    0  0.27182442113E+03  0.69242004852E+03 -0.25355048258E+04  0.26423699138E+04  0.50400001928E-02 0. -1.
       -1    1    3    3    0  502 -0.27182442113E+03 -0.69242004852E+03  0.13359055399E+04  0.15290446857E+04  0.50400001928E-02 0.  1.
</event>
<event>
 5   0  0.3399500E-08  0.3998813E+04  0.7818609E-02  0.8004786E-01
        1   -1    0    0  501    0  0.00000000000E+00  0.00000000000E+00  0.16831893444E+04  0.16831893444E+04  0.50400001928E-02 0. -1.
       -1   -1    0    0    0  501  0.00000000000E+00  0.00000000000E+00 -0.23750312260E+04  0.23750312260E+04  0.50400001928E-02 0.  1.
    10030    2    1    2    0    0  0.00000000000E+00  0.00000000000E+00 -0.69184188160E+03  0.40582205703E+04  0.39988134500E+04 0.  0.
        3    1    3    3  502    0 -0.17590779192E+04  0.81981160415E+03 -0.83387689251E+03  0.21122965876E+04  0.10100000352E+00 0.  1.
       -3    1    3    3    0  502  0.17590779192E+04 -0.81981160415E+03  0.14203501091E+03  0.19459239827E+04  0.10100000352E+00 0. -1.
</event>
<event>
 5   0  0.1095109E-07  0.3869303E+04  0.7818609E-02  0.8031444E-01
        2   -1    0    0  501    0  0.00000000000E+00  0.00000000000E+00  0.33217349139E+04  0.33217349139E+04  0.25500000920E-02 0. -1.
       -2   -1    0    0    0  501  0.00000000000E+00  0.00000000000E+00 -0.11267836713E+04  0.11267836713E+04  0.25500000920E-02 0.  1.
    10030    2    1    2    0    0  0.00000000000E+00  0.00000000000E+00  0.21949512427E+04  0.44485185852E+04  0.38693031214E+04 0.  0.
        4    1    3    3  502    0  0.26660304723E+03 -0.25479173284E+03  0.32809517309E+04  0.33016120131E+04  0.12699999809E+01 0. -1.
       -4    1    3    3    0  502 -0.26660304723E+03  0.25479173284E+03 -0.10860004882E+04  0.11469065721E+04  0.12699999809E+01 0.  1.
</event>
<event>
 5   0  0.3399500E-08  0.3858876E+04  0.7818609E-02  0.8033637E-01
       -1   -1    0    0    0  501  0.00000000000E+00  0.00000000000E+00  0.12866224104E+04  0.12866224104E+04  0.50400001928E-02 0. -1.
        1   -1    0    0  501    0  0.00000000000E+00  0.00000000000E+00 -0.28934139939E+04  0.28934139939E+04  0.50400001928E-02 0.  1.
    10030    2    1    2    0    0  0.00000000000E+00  0.00000000000E+00 -0.16067915835E+04  0.41800364042E+04  0.38588761509E+04 0.  0.
        2    1    3    3  502    0  0.17131235834E+04  0.85930996115E+03 -0.56233164062E+03  0.19973539735E+04  0.25500000920E-02 0.  1.
       -2    1    3    3    0  502 -0.17131235834E+04 -0.85930996115E+03 -0.10444599429E+04  0.21826824308E+04  0.25500000920E-02 0. -1.
</event>
<event>
 5   0  0.1087688E-07  0.3982674E+04  0.7818609E-02  0.8008051E-01
        2   -1    0    0  501    0  0.00000000000E+00  0.00000000000E+00  0.25105478225E+04  0.25105478225E+04  0.25500000920E-02 0.  1.
       -2   -1    0    0    0  501  0.00000000000E+00  0.00000000000E+00 -0.15795047222E+04  0.15795047223E+04  0.25500000920E-02 0. -1.
    10030    2    1    2    0    0  0.00000000000E+00  0.00000000000E+00  0.93104310024E+03  0.40900525447E+04  0.39826735448E+04 0.  0.
        2    1    3    3  502    0  0.10476205559E+03  0.91318331562E+03  0.22796552195E+04  0.24579883596E+04  0.25500000920E-02 0.  1.
       -2    1    3    3    0  502 -0.10476205559E+03 -0.91318331562E+03 -0.13486121192E+04  0.16320641851E+04  0.25500000920E-02 0. -1.
</event>
<event>
 5   0  0.3399500E-08  0.3901081E+04  0.7818609E-02  0.8024804E-01
        1   -1    0    0  501    0  0.00000000000E+00  0.00000000000E+00  0.16880773525E+04  0.16880773525E+04  0.50400001928E-02 0.  1.
       -1   -1    0    0    0  501  0.00000000000E+00  0.00000000000E+00 -0.22538115556E+04  0.22538115556E+04  0.50400001928E-02 0. -1.
    10030    2    1    2    0    0  0.00000000000E+00  0.00000000000E+00 -0.56573420310E+03  0.39418889082E+04  0.39010810009E+04 0.  0.
        3    1    3    3  502    0 -0.23660685447E+03  0.80628146243E+03 -0.20615464397E+04  0.22262179439E+04  0.10100000352E+00 0. -1.
       -3    1    3    3    0  502  0.23660685447E+03 -0.80628146243E+03  0.14958122366E+04  0.17156709643E+04  0.10100000352E+00 0.  1.
</event>
<event>
 5   0  0.1087688E-07  0.4021066E+04  0.7818609E-02  0.8000310E-01
        2   -1    0    0  501    0  0.00000000000E+00  0.00000000000E+00  0.12963771730E+04  0.12963771730E+04  0.25500000920E-02 0.  1.
       -2   -1    0    0    0  501  0.00000000000E+00  0.00000000000E+00 -0.31181073237E+04  0.31181073237E+04  0.25500000920E-02 0. -1.
    10030    2    1    2    0    0  0.00000000000E+00  0.00000000000E+00 -0.18217301507E+04  0.44144844967E+04  0.40210661061E+04 0.  0.
        2    1    3    3  502    0  0.13254633683E+04 -0.17689892415E+03  0.73739243398E+03  0.15270540173E+04  0.25500000920E-02 0.  1.
       -2    1    3    3    0  502 -0.13254633683E+04  0.17689892415E+03 -0.25591225847E+04  0.28874304794E+04  0.25500000920E-02 0. -1.
</event>
<event>
 5   0  0.1101474E-07  0.3967891E+04  0.7818609E-02  0.8011055E-01
       -2   -1    0    0    0  501  0.00000000000E+00  0.00000000000E+00  0.17239621148E+04  0.17239621148E+04  0.25500000920E-02 0. -1.
        2   -1    0    0  501    0  0.00000000000E+00  0.00000000000E+00 -0.22831360299E+04  0.22831360299E+04  0.25500000920E-02 0.  1.
    10030    2    1    2    0    0  0.00000000000E+00  0.00000000000E+00 -0.55917391512E+03  0.40070981447E+04  0.39678911368E+04 0.  0.
        5    1    3    3  502    0  0.17264898412E+04 -0.93827436705E+03 -0.32188943922E+01  0.19649830561E+04  0.46999998093E+01 0. -1.
       -5    1    3    3    0  502 -0.17264898412E+04  0.93827436705E+03 -0.55595502073E+03  0.20421150885E+04  0.46999998093E+01 0.  1.
</event>
<event>
 5   0  0.1101474E-07  0.4015224E+04  0.7818609E-02  0.8001482E-01
       -2   -1    0    0    0  501  0.00000000000E+00  0.00000000000E+00  0.23421781087E+04  0.23421781087E+04  0.25500000920E-02 0.  1.
        2   -1    0    0  501    0  0.00000000000E+00  0.00000000000E+00 -0.17208368684E+04  0.17208368684E+04  0.25500000920E-02 0. -1.
    10030    2    1    2    0    0  0.00000000000E+00  0.00000000000E+00  0.62134124034E+03  0.40630149771E+04  0.40152242487E+04 0.  0.
        5    1    3    3  502    0  0.11035673733E+04 -0.20604733408E+03 -0.13735216278E+04  0.17739504512E+04  0.46999998093E+01 0. -1.
       -5    1    3    3    0  502 -0.11035673733E+04  0.20604733408E+03  0.19948628681E+04  0.22890645259E+04  0.46999998093E+01 0.  1.
</event>
<event>
 5   0  0.1101474E-07  0.4001130E+04  0.7818609E-02  0.8004319E-01
        2   -1    0    0  501    0  0.00000000000E+00  0.00000000000E+00  0.23818611999E+04  0.23818611999E+04  0.25500000920E-02 0.  1.
       -2   -1    0    0    0  501  0.00000000000E+00  0.00000000000E+00 -0.16803081612E+04  0.16803081612E+04  0.25500000920E-02 0. -1.
    10030    2    1    2    0    0  0.00000000000E+00  0.00000000000E+00  0.70155303868E+03  0.40621693611E+04  0.40011302468E+04 0.  0.
        5    1    3    3  502    0  0.13387048557E+04 -0.11128441922E+03  0.18558645219E+04  0.22910194513E+04  0.46999998093E+01 0.  1.
       -5    1    3    3    0  502 -0.13387048557E+04  0.11128441922E+03 -0.11543114832E+04  0.17711499098E+04  0.46999998093E+01 0. -1.
</event>
<event>
 5   0  0.3399500E-08  0.3796546E+04  0.7818609E-02  0.8046896E-01
        1   -1    0    0  501    0  0.00000000000E+00  0.00000000000E+00  0.14049021953E+04  0.14049021953E+04  0.50400001928E-02 0.  1.
       -1   -1    0    0    0  501  0.00000000000E+00  0.00000000000E+00 -0.25649052949E+04  0.25649052949E+04  0.50400001928E-02 0. -1.
    10030    2    1    2    0    0  0.00000000000E+00  0.00000000000E+00 -0.11600030996E+04  0.39698074902E+04  0.37965463671E+04 0.  0.
        3    1    3    3  502    0 -0.55110181251E+03  0.63548632500E+03 -0.23593925663E+04  0.25048531632E+04  0.10100000352E+00 0. -1.
       -3    1    3    3    0  502  0.55110181251E+03 -0.63548632500E+03  0.11993894667E+04  0.14649543269E+04  0.10100000352E+00 0.  1.
</event>
<event>
 5   0  0.3399500E-08  0.4002395E+04  0.7818609E-02  0.8004064E-01
        1   -1    0    0  501    0  0.00000000000E+00  0.00000000000E+00  0.22919333409E+04  0.22919333409E+04  0.50400001928E-02 0. -1.
       -1   -1    0    0    0  501  0.00000000000E+00  0.00000000000E+00 -0.17473422272E+04  0.17473422272E+04  0.50400001928E-02 0.  1.
    10030    2    1    2    0    0  0.00000000000E+00  0.00000000000E+00  0.54459111366E+03  0.40392755681E+04  0.40023952371E+04 0.  0.
        3    1    3    3  502    0 -0.16612894819E+04  0.89527836858E+03  0.94430348829E+03  0.21102405522E+04  0.10100000352E+00 0. -1.
       -3    1    3    3    0  502  0.16612894819E+04 -0.89527836858E+03 -0.39971237463E+03  0.19290350159E+04  0.10100000352E+00 0.  1.
</event>
<event>
 5   0  0.3399500E-08  0.3544542E+04  0.7818609E-02  0.8103314E-01
        1   -1    0    0  501    0  0.00000000000E+00  0.00000000000E+00  0.13909506769E+04  0.13909506769E+04  0.50400001928E-02 0.  1.
       -1   -1    0    0    0  501  0.00000000000E+00  0.00000000000E+00 -0.22581280334E+04  0.22581280334E+04  0.50400001928E-02 0. -1.
    10030    2    1    2    0    0  0.00000000000E+00  0.00000000000E+00 -0.86717735653E+03  0.36490787103E+04  0.35445421237E+04 0.  0.
        5    1    3    3  502    0 -0.21501598229E+03  0.11604207975E+04  0.92756764586E+03  0.15010703273E+04  0.46999998093E+01 0.  1.
       -5    1    3    3    0  502  0.21501598229E+03 -0.11604207975E+04 -0.17947450024E+04  0.21480083830E+04  0.46999998093E+01 0. -1.
</event>
<event>
 5   0  0.1073271E-07  0.3589550E+04  0.7818609E-02  0.8092890E-01
       -2   -1    0    0    0  501  0.00000000000E+00  0.00000000000E+00  0.20427286541E+04  0.20427286541E+04  0.25500000920E-02 0. -1.
        2   -1    0    0  501    0  0.00000000000E+00  0.00000000000E+00 -0.15769190879E+04  0.15769190879E+04  0.25500000920E-02 0.  1.
    10030    2    1    2    0    0  0.00000000000E+00  0.00000000000E+00  0.46580956618E+03  0.36196477421E+04  0.35895502817E+04 0.  0.
        1    1    3    3  502    0  0.70951448472E+03 -0.36503788102E+03  0.18540394799E+04  0.20184463956E+04  0.50400001928E-02 0. -1.
       -1    1    3    3    0  502 -0.70951448472E+03  0.36503788102E+03 -0.13882299137E+04  0.16012013465E+04  0.50400001928E-02 0.  1.
</event>
<event>
 5   0  0.3399500E-08  0.4027210E+04  0.7818609E-02  0.7999080E-01
        1   -1    0    0  501    0  0.00000000000E+00  0.00000000000E+00  0.26610532005E+04  0.26610532005E+04  0.50400001928E-02 0.  1.
       -1   -1    0    0    0  501  0.00000000000E+00  0.00000000000E+00 -0.15236840178E+04  0.15236840178E+04  0.50400001928E-02 0. -1.
    10030    2    1    2    0    0  0.00000000000E+00  0.00000000000E+00  0.11373691827E+04  0.41847372183E+04  0.40272095709E+04 0.  0.
        5    1    3    3  502    0 -0.13837547578E+04  0.35746348521E+03  0.20426273664E+04  0.24929713237E+04  0.46999998093E+01 0.  1.
       -5    1    3    3    0  502  0.13837547578E+04 -0.35746348521E+03 -0.90525818365E+03  0.16917658946E+04  0.46999998093E+01 0. -1.
</event>
<event>
 5   0  0.1073271E-07  0.4003741E+04  0.7818609E-02  0.8003792E-01
        2   -1    0    0  501    0  0.00000000000E+00  0.00000000000E+00  0.22110417305E+04  0.22110417305E+04  0.25500000920E-02 0.  1.
       -2   -1    0    0    0  501  0.00000000000E+00  0.00000000000E+00 -0.18124870601E+04  0.18124870601E+04  0.25500000920E-02 0. -1.
    10030    2    1    2    0    0  0.00000000000E+00  0.00000000000E+00  0.39855467048E+03  0.40235287906E+04  0.40037405140E+04 0.  0.
        1    1    3    3  502    0 -0.10146982627E+04 -0.11450118522E+03 -0.15310810719E+04  0.18403620118E+04  0.50400001928E-02 0. -1.
       -1    1    3    3    0  502  0.10146982627E+04  0.11450118522E+03  0.19296357424E+04  0.21831667788E+04  0.50400001928E-02 0.  1.
</event>
<event>
 5   0  0.1095903E-07  0.4013567E+04  0.7818609E-02  0.8001815E-01
        2   -1    0    0  501    0  0.00000000000E+00  0.00000000000E+00  0.15307165716E+04  0.15307165716E+04  0.25500000920E-02 0.  1.
       -2   -1    0    0    0  501  0.00000000000E+00  0.00000000000E+00 -0.26309114286E+04  0.26309114286E+04  0.25500000920E-02 0. -1.
    10030    2    1    2    0    0  0.00000000000E+00  0.00000000000E+00 -0.11001948571E+04  0.41616280002E+04  0.40135668536E+04 0.  0.
        3    1    3    3  502    0  0.10514048080E+04  0.68425046472E+03 -0.21742557001E+04  0.25101869708E+04  0.10100000352E+00 0. -1.
       -3    1    3    3    0  502 -0.10514048080E+04 -0.68425046472E+03  0.10740608431E+04  0.16514410294E+04  0.10100000352E+00 0.  1.
</event>
<event>
 5   0  0.1087688E-07  0.3972735E+04  0.7818609E-02  0.8010070E-01
        2   -1    0    0  501    0  0.00000000000E+00  0.00000000000E+00  0.26163351333E+04  0.26163351333E+04  0.25500000920E-02 0.  1.
       -2   -1    0    0    0  501  0.00000000000E+00  0.00000000000E+00 -0.15080847402E+04  0.15080847403E+04  0.25500000920E-02 0. -1.
    10030    2    1    2    0    0  0.00000000000E+00  0.00000000000E+00  0.11082503931E+04  0.41244198736E+04  0.39727346199E+04 0.  0.
        2    1    3    3  502    0  0.83936716299E+03 -0.13151735350E+04 -0.72222032396E+03  0.17192500859E+04  0.25500000920E-02 0. -1.
       -2    1    3    3    0  502 -0.83936716299E+03  0.13151735350E+04  0.18304707171E+04  0.24051697877E+04  0.25500000920E-02 0.  1.
</event>
<event>
 5   0  0.3399500E-08  0.4002917E+04  0.7818609E-02  0.8003958E-01
       -1   -1    0    0    0  501  0.00000000000E+00  0.00000000000E+00  0.13703419418E+04  0.13703419418E+04  0.50400001928E-02 0. -1.
        1   -1    0    0  501    0  0.00000000000E+00  0.00000000000E+00 -0.29232381053E+04  0.29232381053E+04  0.50400001928E-02 0.  1.
    10030    2    1    2    0    0  0.00000000000E+00  0.00000000000E+00 -0.15528961635E+04  0.42935800471E+04  0.40029168273E+04 0.  0.
        2    1    3    3  502    0  0.12950797288E+04  0.28279223241E+03  0.83198231230E+03  0.15650551168E+04  0.25500000920E-02 0. -1.
       -2    1    3    3    0  502 -0.12950797288E+04 -0.28279223241E+03 -0.23848784758E+04  0.27285249302E+04  0.25500000920E-02 0.  1.
</event>
<event>
 5   0  0.1101474E-07  0.3982807E+04  0.7818609E-02  0.8008024E-01
        2   -1    0    0  501    0  0.00000000000E+00  0.00000000000E+00  0.24240051626E+04  0.24240051626E+04  0.25500000920E-02 0. -1.
       -2   -1    0    0    0  501  0.00000000000E+00  0.00000000000E+00 -0.16360064138E+04  0.16360064138E+04  0.25500000920E-02 0.  1.
    10030    2    1    2    0    0  0.00000000000E+00  0.00000000000E+00  0.78799874881E+03  0.40600115764E+04  0.39828070469E+04 0.  0.
        5    1    3    3  502    0  0.37351420219E+03 -0.19119392290E+04  0.81509452897E+03  0.21117352239E+04  0.46999998093E+01 0. -1.
       -5    1    3    3    0  502 -0.37351420219E+03  0.19119392290E+04 -0.27095780160E+02  0.19482763526E+04  0.46999998093E+01 0.  1.
</event>
<event>
 5   0  0.1101474E-07  0.3971044E+04  0.7818609E-02  0.8010413E-01
       -2   -1    0    0    0  501  0.00000000000E+00  0.00000000000E+00  0.34060386693E+04  0.34060386693E+04  0.25500000920E-02 0.  1.
        2   -1    0    0  501    0  0.00000000000E+00  0.00000000000E+00 -0.11574437855E+04  0.11574437855E+04  0.25500000920E-02 0. -1.
    10030    2    1    2    0    0  0.00000000000E+00  0.00000000000E+00  0.22485948838E+04  0.45634824548E+04  0.39710443417E+04 0.  0.
        5    1    3    3  502    0 -0.66411472825E+03 -0.97463575122E+03 -0.71128340721E+03  0.13772833388E+04  0.46999998093E+01 0. -1.
       -5    1    3    3    0  502  0.66411472825E+03  0.97463575122E+03  0.29598782910E+04  0.31861991161E+04  0.46999998093E+01 0.  1.
</event>
<event>
 5   0  0.1073271E-07  0.4006464E+04  0.7818609E-02  0.8003244E-01
       -2   -1    0    0    0  501  0.00000000000E+00  0.00000000000E+00  0.18298484122E+04  0.18298484122E+04  0.25500000920E-02 0. -1.
        2   -1    0    0  501    0  0.00000000000E+00  0.00000000000E+00 -0.21930436617E+04  0.21930436617E+04  0.25500000920E-02 0.  1.
    10030    2    1    2    0    0  0.00000000000E+00  0.00000000000E+00 -0.36319524955E+03  0.40228920739E+04  0.40064635090E+04 0.  0.
        1    1    3    3  502    0 -0.35250992403E+03  0.64490330726E+03  0.16895818582E+04  0.18425119749E+04  0.50400001928E-02 0. -1.
       -1    1    3    3    0  502  0.35250992403E+03 -0.64490330726E+03 -0.20527771077E+04  0.21803800990E+04  0.50400001928E-02 0.  1.
</event>
<event>
 5   0  0.1095109E-07  0.3975491E+04  0.7818609E-02  0.8009509E-01
       -2   -1    0    0    0  501  0.00000000000E+00  0.00000000000E+00  0.16618010526E+04  0.16618010526E+04  0.25500000920E-02 0. -1.
        2   -1    0    0  501    0  0.00000000000E+00  0.00000000000E+00 -0.23776207611E+04  0.23776207611E+04  0.25500000920E-02 0.  1.
    10030    2    1    2    0    0  0.00000000000E+00  0.00000000000E+00 -0.71581970857E+03  0.40394218137E+04  0.39754912569E+04 0.  0.
        4    1    3    3  502    0  0.99133696132E+03 -0.13097441570E+04  0.77944419988E+03  0.18181621494E+04  0.12699999809E+01 0. -1.
       -4    1    3    3    0  502 -0.99133696132E+03  0.13097441570E+04 -0.14952639085E+04  0.22212596644E+04  0.12699999809E+01 0.  1.
</event>
<event>
 5   0  0.3399500E-08  0.3992491E+04  0.7818609E-02  0.8006063E-01
       -1   -1    0    0    0  501  0.00000000000E+00  0.00000000000E+00  0.21223063495E+04  0.21223063496E+04  0.50400001928E-02 0. -1.
        1   -1    0    0  501    0  0.00000000000E+00  0.00000000000E+00 -0.18776725609E+04  0.18776725609E+04  0.50400001928E-02 0.  1.
    10030    2    1    2    0    0  0.00000000000E+00  0.00000000000E+00  0.24463378866E+03  0.39999789105E+04  0.39924911513E+04 0.  0.
        2    1    3    3  502    0  0.73420207647E+03  0.10903822512E+04  0.16274693986E+04  0.20920427305E+04  0.25500000920E-02 0. -1.
       -2    1    3    3    0  502 -0.73420207647E+03 -0.10903822512E+04 -0.13828356099E+04  0.19079361800E+04  0.25500000920E-02 0.  1.
</event>
<event>
 5   0  0.3399500E-08  0.4008547E+04  0.7818609E-02  0.8002825E-01
       -1   -1    0    0    0  501  0.00000000000E+00  0.00000000000E+00  0.24989457815E+04  0.24989457815E+04  0.50400001928E-02 0.  1.
        1   -1    0    0  501    0  0.00000000000E+00  0.00000000000E+00 -0.16075228773E+04  0.16075228773E+04  0.50400001928E-02 0. -1.
    10030    2    1    2    0    0  0.00000000000E+00  0.00000000000E+00  0.89142290418E+03  0.41064686588E+04  0.40085471248E+04 0.  0.
        2    1    3    3  502    0  0.19412720824E+04  0.46062452015E+03  0.64116060910E+03  0.20956619892E+04  0.25500000920E-02 0. -1.
       -2    1    3    3    0  502 -0.19412720824E+04 -0.46062452015E+03  0.25026229508E+03  0.20108066696E+04  0.25500000920E-02 0.  1.
</event>
<event>
 5   0  0.1101474E-07  0.4010275E+04  0.7818609E-02  0.8002477E-01
       -2   -1    0    0    0  501  0.00000000000E+00  0.00000000000E+00  0.17262712572E+04  0.17262712572E+04  0.25500000920E-02 0. -1.
        2   -1    0    0  501    0  0.00000000000E+00  0.00000000000E+00 -0.23290523366E+04  0.23290523366E+04  0.25500000920E-02 0.  1.
    10030    2    1    2    0    0  0.00000000000E+00  0.00000000000E+00 -0.60278107942E+03  0.40553235938E+04  0.40102748560E+04 0.  0.
        5    1    3    3  502    0 -0.74387410397E+03 -0.73705277332E+02 -0.21828751042E+04  0.23073246328E+04  0.46999998093E+01 0.  1.
       -5    1    3    3    0  502  0.74387410397E+03  0.73705277332E+02  0.15800940248E+04  0.17479989610E+04  0.46999998093E+01 0. -1.
</event>
<event>
 5   0  0.1095903E-07  0.4001035E+04  0.7818609E-02  0.8004338E-01
        2   -1    0    0  501    0  0.00000000000E+00  0.00000000000E+00  0.26530498968E+04  0.26530498968E+04  0.25500000920E-02 0. -1.
       -2   -1    0    0    0  501  0.00000000000E+00  0.00000000000E+00 -0.15084788270E+04  0.15084788270E+04  0.25500000920E-02 0.  1.
    10030    2    1    2    0    0  0.00000000000E+00  0.00000000000E+00  0.11445710697E+04  0.41615287238E+04  0.40010346643E+04 0.  0.
        3    1    3    3  502    0  0.42778568457E+03 -0.11548563799E+04  0.22120316460E+04  0.25317539105E+04  0.10100000352E+00 0. -1.
       -3    1    3    3    0  502 -0.42778568457E+03  0.11548563799E+04 -0.10674605762E+04  0.16297748133E+04  0.10100000352E+00 0.  1.
</event>
<event>
 5   0  0.3399500E-08  0.3951356E+04  0.7818609E-02  0.8014432E-01
        1   -1    0    0  501    0  0.00000000000E+00  0.00000000000E+00  0.21660188955E+04  0.21660188955E+04  0.50400001928E-02 0.  1.
       -1   -1    0    0    0  501  0.00000000000E+00  0.00000000000E+00 -0.18020638543E+04  0.18020638543E+04  0.50400001928E-02 0. -1.
    10030    2    1    2    0    0  0.00000000000E+00  0.00000000000E+00  0.36395504121E+03  0.39680827497E+04  0.39513564047E+04 0.  0.
        2    1    3    3  502    0 -0.16459136945E+03 -0.19594826795E+04 -0.10252910751E+02  0.19664098790E+04  0.25500000920E-02 0. -1.
       -2    1    3    3    0  502  0.16459136945E+03  0.19594826795E+04  0.37420795196E+03  0.20016728707E+04  0.25500000920E-02 0.  1.
</event>
<event>
 5   0  0.1095109E-07  0.4039624E+04  0.7818609E-02  0.7996601E-01
        2   -1    0    0  501    0  0.00000000000E+00  0.00000000000E+00  0.12493023353E+04  0.12493023353E+04  0.25500000920E-02 0.  1.
       -2   -1    0    0    0  501  0.00000000000E+00  0.00000000000E+00 -0.32655347153E+04  0.32655347153E+04  0.25500000920E-02 0. -1.
    10030    2    1    2    0    0  0.00000000000E+00  0.00000000000E+00 -0.20162323799E+04  0.45148370506E+04  0.40396238170E+04 0.  0.
        4    1    3    3  502    0  0.63758605056E+03  0.10954437160E+04  0.74950081233E+03  0.14725033064E+04  0.12699999809E+01 0.  1.
       -4    1    3    3    0  502 -0.63758605056E+03 -0.10954437160E+04 -0.27657331923E+04  0.30423337441E+04  0.12699999809E+01 0. -1.
</event>
<event>
 5   0  0.3399500E-08  0.3991723E+04  0.7818609E-02  0.8006218E-01
        1   -1    0    0  501    0  0.00000000000E+00  0.00000000000E+00  0.20277858353E+04  0.20277858353E+04  0.50400001928E-02 0.  1.
       -1   -1    0    0    0  501  0.00000000000E+00  0.00000000000E+00 -0.19644402558E+04  0.19644402558E+04  0.50400001928E-02 0. -1.
    10030    2    1    2    0    0  0.00000000000E+00  0.00000000000E+00  0.63345579476E+02  0.39922260911E+04  0.39917234999E+04 0.  0.
        4    1    3    3  502    0 -0.30416718955E+03 -0.11892890830E+04  0.16055723997E+04  0.20210864765E+04  0.12699999809E+01 0.  1.
       -4    1    3    3    0  502  0.30416718955E+03  0.11892890830E+04 -0.15422268202E+04  0.19711396145E+04  0.12699999809E+01 0. -1.
</event>
<event>
 5   0  0.3399500E-08  0.3936182E+04  0.7818609E-02  0.8017546E-01
       -1   -1    0    0    0  501  0.00000000000E+00  0.00000000000E+00  0.18814157047E+04  0.18814157047E+04  0.50400001928E-02 0. -1.
        1   -1    0    0  501    0  0.00000000000E+00  0.00000000000E+00 -0.20587592611E+04  0.20587592611E+04  0.50400001928E-02 0.  1.
    10030    2    1    2    0    0  0.00000000000E+00  0.00000000000E+00 -0.17734355646E+03  0.39401749658E+04  0.39361819094E+04 0.  0.
        5    1    3    3  502    0  0.80507768369E+03  0.16684468762E+04  0.57645306939E+03  0.19401508412E+04  0.46999998093E+01 0. -1.
       -5    1    3    3    0  502 -0.80507768369E+03 -0.16684468762E+04 -0.75379662585E+03  0.20000241245E+04  0.46999998093E+01 0.  1.
</event>
<event>
 5   0  0.1073271E-07  0.4006433E+04  0.7818609E-02  0.8003250E-01
        2   -1    0    0  501    0  0.00000000000E+00  0.00000000000E+00  0.15325573447E+04  0.15325573447E+04  0.25500000920E-02 0.  1.
       -2   -1    0    0    0  501  0.00000000000E+00  0.00000000000E+00 -0.26184180236E+04  0.26184180236E+04  0.25500000920E-02 0. -1.
    10030    2    1    2    0    0  0.00000000000E+00  0.00000000000E+00 -0.10858606788E+04  0.41509753683E+04  0.40064327143E+04 0.  0.
        1    1    3    3  502    0  0.97831615169E+02 -0.12792362968E+03  0.15258394659E+04  0.15343146860E+04  0.50400001928E-02 0.  1.
       -1    1    3    3    0  502 -0.97831615169E+02  0.12792362968E+03 -0.26117001448E+04  0.26166606823E+04  0.50400001928E-02 0. -1.
</event>
<event>
 5   0  0.3399500E-08  0.4059902E+04  0.7818609E-02  0.7992570E-01
        1   -1    0    0  501    0  0.00000000000E+00  0.00000000000E+00  0.13276788040E+04  0.13276788040E+04  0.50400001928E-02 0.  1.
       -1   -1    0    0    0  501  0.00000000000E+00  0.00000000000E+00 -0.31036888906E+04  0.31036888906E+04  0.50400001928E-02 0. -1.
    10030    2    1    2    0    0  0.00000000000E+00  0.00000000000E+00 -0.17760100867E+04  0.44313676946E+04  0.40599024393E+04 0.  0.
        2    1    3    3  502    0 -0.17119001894E+04 -0.10387872998E+04 -0.12516889270E+04  0.23614416111E+04  0.25500000920E-02 0. -1.
       -2    1    3    3    0  502  0.17119001894E+04  0.10387872998E+04 -0.52432115970E+03  0.20699260835E+04  0.25500000920E-02 0.  1.
</event>
<event>
 5   0  0.1073271E-07  0.3994937E+04  0.7818609E-02  0.8005569E-01
       -2   -1    0    0    0  501  0.00000000000E+00  0.00000000000E+00  0.29508450800E+04  0.29508450800E+04  0.25500000920E-02 0.  1.
        2   -1    0    0  501    0  0.00000000000E+00  0.00000000000E+00 -0.13521148210E+04  0.13521148210E+04  0.25500000920E-02 0. -1.
    10030    2    1    2    0    0  0.00000000000E+00  0.00000000000E+00  0.15987302590E+04  0.43029599010E+04  0.39949374800E+04 0.  0.
        1    1    3    3  502    0  0.19600998992E+04 -0.32438368569E+03  0.10218462017E+04  0.22341410095E+04  0.50400001928E-02 0.  1.
       -1    1    3    3    0  502 -0.19600998992E+04  0.32438368569E+03  0.57688405732E+03  0.20688188915E+04  0.50400001928E-02 0. -1.
</event>
<event>
 5   0  0.1095903E-07  0.4001162E+04  0.7818609E-02  0.8004312E-01
        2   -1    0    0  501    0  0.00000000000E+00  0.00000000000E+00  0.21769926324E+04  0.21769926324E+04  0.25500000920E-02 0. -1.
       -2   -1    0    0    0  501  0.00000000000E+00  0.00000000000E+00 -0.18384647955E+04  0.18384647955E+04  0.25500000920E-02 0.  1.
    10030    2    1    2    0    0  0.00000000000E+00  0.00000000000E+00  0.33852783694E+03  0.40154574279E+04  0.40011619886E+04 0.  0.
        3    1    3    3  502    0  0.16394147544E+04 -0.72709797552E+03  0.10589820824E+04  0.20827374448E+04  0.10100000352E+00 0. -1.
       -3    1    3    3    0  502 -0.16394147544E+04  0.72709797552E+03 -0.72045424549E+03  0.19327199831E+04  0.10100000352E+00 0.  1.
</event>
<event>
 5   0  0.3399500E-08  0.4124652E+04  0.7818609E-02  0.7979862E-01
       -1   -1    0    0    0  501  0.00000000000E+00  0.00000000000E+00  0.18595546464E+04  0.18595546464E+04  0.50400001928E-02 0. -1.
        1   -1    0    0  501    0  0.00000000000E+00  0.00000000000E+00 -0.22872079706E+04  0.22872079706E+04  0.50400001928E-02 0.  1.
    10030    2    1    2    0    0  0.00000000000E+00  0.00000000000E+00 -0.42765332415E+03  0.41467626170E+04  0.41246518442E+04 0.  0.
        3    1    3    3  502    0  0.13219543942E+04  0.31200222894E+03  0.13463555163E+04  0.19124805875E+04  0.10100000352E+00 0. -1.
       -3    1    3    3    0  502 -0.13219543942E+04 -0.31200222894E+03 -0.17740088404E+04  0.22342820295E+04  0.10100000352E+00 0.  1.
</event>
<event>
 5   0  0.3399500E-08  0.4012740E+04  0.7818609E-02  0.8001981E-01
       -1   -1    0    0    0  501  0.00000000000E+00  0.00000000000E+00  0.25543513843E+04  0.25543513843E+04  0.50400001928E-02 0.  1.
        1   -1    0    0  501    0  0.00000000000E+00  0.00000000000E+00 -0.15759465377E+04  0.15759465377E+04  0.50400001928E-02 0. -1.
    10030    2    1    2    0    0  0.00000000000E+00  0.00000000000E+00  0.97840484662E+03  0.41302979220E+04  0.40127403206E+04 0.  0.
        1    1    3    3  502    0  0.18749374492E+04 -0.60203789615E+03  0.93651082714E+02  0.19714488561E+04  0.50400001928E-02 0. -1.
       -1    1    3    3    0  502 -0.18749374492E+04  0.60203789615E+03  0.88475376390E+03  0.21588490659E+04  0.50400001928E-02 0.  1.
</event>
<event>
 5   0  0.1073271E-07  0.3983344E+04  0.7818609E-02  0.8007915E-01
       -2   -1    0    0    0  501  0.00000000000E+00  0.00000000000E+00  0.24730021912E+04  0.24730021912E+04  0.25500000920E-02 0.  1.
        2   -1    0    0  501    0  0.00000000000E+00  0.00000000000E+00 -0.16040248352E+04  0.16040248352E+04  0.25500000920E-02 0. -1.
    10030    2    1    2    0    0  0.00000000000E+00  0.00000000000E+00  0.86897735605E+03  0.40770270264E+04  0.39833437874E+04 0.  0.
        1    1    3    3  502    0  0.18714216335E+04 -0.35450132098E+03 -0.16132479622E+03  0.19115218562E+04  0.50400001928E-02 0. -1.
       -1    1    3    3    0  502 -0.18714216335E+04  0.35450132098E+03  0.10303021523E+04  0.21655051702E+04  0.50400001928E-02 0.  1.
</event>
<event>
 5   0  0.3399500E-08  0.4002754E+04  0.7818609E-02  0.8003991E-01
       -1   -1    0    0    0  501  0.00000000000E+00  0.00000000000E+00  0.27233209861E+04  0.27233209861E+04  0.50400001928E-02 0. -1.
        1   -1    0    0  501    0  0.00000000000E+00  0.00000000000E+00 -0.14708183546E+04  0.14708183546E+04  0.50400001928E-02 0.  1.
    10030    2    1    2    0    0  0.00000000000E+00  0.00000000000E+00  0.12525026316E+04  0.41941393407E+04  0.40027542976E+04 0.  0.
        2    1    3    3  502    0 -0.12550404300E+04  0.36509568748E+03  0.22143330388E+04  0.25713210902E+04  0.25500000920E-02 0. -1.
       -2    1    3    3    0  502  0.12550404300E+04 -0.36509568748E+03 -0.96183040723E+03  0.16228182505E+04  0.25500000920E-02 0.  1.
</event>
<event>
 5   0  0.3399500E-08  0.3966262E+04  0.7818609E-02  0.8011387E-01
       -1   -1    0    0    0  501  0.00000000000E+00  0.00000000000E+00  0.14594171795E+04  0.14594171795E+04  0.50400001928E-02 0.  1.
        1   -1    0    0  501    0  0.00000000000E+00  0.00000000000E+00 -0.26947796169E+04  0.26947796170E+04  0.50400001928E-02 0. -1.
    10030    2    1    2    0    0  0.00000000000E+00  0.00000000000E+00 -0.12353624374E+04  0.41541967965E+04  0.39662615486E+04 0.  0.
        1    1    3    3  502    0  0.21018128516E+03  0.70554506917E+03 -0.25463569477E+04  0.26506421340E+04  0.50400001928E-02 0. -1.
       -1    1    3    3    0  502 -0.21018128516E+03 -0.70554506917E+03  0.13109945103E+04  0.15035546625E+04  0.50400001928E-02 0.  1.
</event>
<event>
 5   0  0.1095903E-07  0.3957812E+04  0.7818609E-02  0.8013112E-01
        2   -1    0    0  501    0  0.00000000000E+00  0.00000000000E+00  0.20672860226E+04  0.20672860226E+04  0.25500000920E-02 0. -1.
       -2   -1    0    0    0  501  0.00000000000E+00  0.00000000000E+00 -0.18943045846E+04  0.18943045846E+04  0.25500000920E-02 0.  1.
    10030    2    1    2    0    0  0.00000000000E+00  0.00000000000E+00  0.17298143799E+03  0.39615906072E+04  0.39578122190E+04 0.  0.
        3    1    3    3  502    0  0.53926512255E+03  0.52601409107E+02  0.19915931957E+04  0.20639809224E+04  0.10100000352E+00 0. -1.
       -3    1    3    3    0  502 -0.53926512255E+03 -0.52601409107E+02 -0.18186117577E+04  0.18976096848E+04  0.10100000352E+00 0.  1.
</event>
<event>
 5   0  0.3399500E-08  0.3989101E+04  0.7818609E-02  0.8006749E-01
        1   -1    0    0  501    0  0.00000000000E+00  0.00000000000E+00  0.24725348674E+04  0.24725348674E+04  0.50400001928E-02 0.  1.
       -1   -1    0    0    0  501  0.00000000000E+00  0.00000000000E+00 -0.16089686049E+04  0.16089686049E+04  0.50400001928E-02 0. -1.
    10030    2    1    2    0    0  0.00000000000E+00  0.00000000000E+00  0.86356626243E+03  0.40815034723E+04  0.39891006386E+04 0.  0.
        4    1    3    3  502    0 -0.10743023092E+04  0.16797615024E+04  0.48299456968E+03  0.20515870744E+04  0.12699999809E+01 0. -1.
       -4    1    3    3    0  502  0.10743023092E+04 -0.16797615024E+04  0.38057169275E+03  0.20299163979E+04  0.12699999809E+01 0.  1.
</event>
<event>
 5   0  0.3399500E-08  0.3950369E+04  0.7818609E-02  0.8014634E-01
        1   -1    0    0  501    0  0.00000000000E+00  0.00000000000E+00  0.30111624927E+04  0.30111624927E+04  0.50400001928E-02 0. -1.
       -1   -1    0    0    0  501  0.00000000000E+00  0.00000000000E+00 -0.12956307663E+04  0.12956307663E+04  0.50400001928E-02 0.  1.
    10030    2    1    2    0    0  0.00000000000E+00  0.00000000000E+00  0.17155317264E+04  0.43067932590E+04  0.39503694854E+04 0.  0.
        1    1    3    3  502    0 -0.11365132806E+04  0.13517105969E+04  0.18222123254E+04  0.25375661043E+04  0.50400001928E-02 0. -1.
       -1    1    3    3    0  502  0.11365132806E+04 -0.13517105969E+04 -0.10668059892E+03  0.17692271547E+04  0.50400001928E-02 0.  1.
</event>
<event>
 5   0  0.3399500E-08  0.3996196E+04  0.7818609E-02  0.8005314E-01
        1   -1    0    0  501    0  0.00000000000E+00  0.00000000000E+00  0.14729846130E+04  0.14729846130E+04  0.50400001928E-02 0. -1.
       -1   -1    0    0    0  501  0.00000000000E+00  0.00000000000E+00 -0.27104128290E+04  0.27104128290E+04  0.50400001928E-02 0.  1.
    10030    2    1    2    0    0  0.00000000000E+00  0.00000000000E+00 -0.12374282160E+04  0.41833974420E+04  0.39961963875E+04 0.  0.
        1    1    3    3  502    0 -0.11950708213E+04 -0.82244133181E+03  0.81961880355E+03  0.16662469791E+04  0.50400001928E-02 0. -1.
       -1    1    3    3    0  502  0.11950708213E+04  0.82244133181E+03 -0.20570470195E+04  0.25171504629E+04  0.50400001928E-02 0.  1.
</event>
<event>
 5   0  0.1087688E-07  0.3994290E+04  0.7818609E-02  0.8005699E-01
        2   -1    0    0  501    0  0.00000000000E+00  0.00000000000E+00  0.14783200242E+04  0.14783200242E+04  0.25500000920E-02 0.  1.
       -2   -1    0    0    0  501  0.00000000000E+00  0.00000000000E+00 -0.26980542773E+04  0.26980542773E+04  0.25500000920E-02 0. -1.
    10030    2    1    2    0    0  0.00000000000E+00  0.00000000000E+00 -0.12197342531E+04  0.41763743015E+04  0.39942897564E+04 0.  0.
        2    1    3    3  502    0  0.98884055606E+03 -0.13325894131E+04  0.55209273144E+03  0.17488300584E+04  0.25500000920E-02 0.  1.
       -2    1    3    3    0  502 -0.98884055606E+03  0.13325894131E+04 -0.17718269845E+04  0.24275442431E+04  0.25500000920E-02 0. -1.
</event>
<event>
 5   0  0.1095109E-07  0.3998284E+04  0.7818609E-02  0.8004893E-01
        2   -1    0    0  501    0  0.00000000000E+00  0.00000000000E+00  0.18678394617E+04  0.18678394617E+04  0.25500000920E-02 0.  1.
       -2   -1    0    0    0  501  0.00000000000E+00  0.00000000000E+00 -0.21396746588E+04  0.21396746588E+04  0.25500000920E-02 0. -1.
    10030    2    1    2    0    0  0.00000000000E+00  0.00000000000E+00 -0.27183519711E+03  0.40075141205E+04  0.39982840134E+04 0.  0.
        4    1    3    3  502    0  0.16190927614E+04 -0.92454048705E+03  0.58708712162E+03  0.19547146552E+04  0.12699999809E+01 0.  1.
       -4    1    3    3    0  502 -0.16190927614E+04  0.92454048705E+03 -0.85892231873E+03  0.20527994653E+04  0.12699999809E+01 0. -1.
</event>
<event>
 5   0  0.1095903E-07  0.3677078E+04  0.7818609E-02  0.8073061E-01
       -2   -1    0    0    0  501  0.00000000000E+00  0.00000000000E+00  0.16096495579E+04  0.16096495579E+04  0.25500000920E-02 0.  1.
        2   -1    0    0  501    0  0.00000000000E+00  0.00000000000E+00 -0.20999756386E+04  0.20999756386E+04  0.25500000920E-02 0. -1.
    10030    2    1    2    0    0  0.00000000000E+00  0.00000000000E+00 -0.49032608070E+03  0.37096251965E+04  0.36770775669E+04 0.  0.
        3    1    3    3  502    0 -0.10863980332E+04  0.22358988936E+02 -0.17413494095E+04  0.20525736009E+04  0.10100000352E+00 0. -1.
       -3    1    3    3    0  502  0.10863980332E+04 -0.22358988936E+02  0.12510233288E+04  0.16570515956E+04  0.10100000352E+00 0.  1.
</event>
<event>
 5   0  0.3399500E-08  0.3959020E+04  0.7818609E-02  0.8012865E-01
        1   -1    0    0  501    0  0.00000000000E+00  0.00000000000E+00  0.13787245207E+04  0.13787245207E+04  0.50400001928E-02 0. -1.
       -1   -1    0    0    0  501  0.00000000000E+00  0.00000000000E+00 -0.28420908555E+04  0.28420908555E+04  0.50400001928E-02 0.  1.
    10030    2    1    2    0    0  0.00000000000E+00  0.00000000000E+00 -0.14633663348E+04  0.42208153762E+04  0.39590202589E+04 0.  0.
        5    1    3    3  502    0  0.34840717555E+02  0.12746007085E+04  0.88258032840E+03  0.15507388458E+04  0.46999998093E+01 0. -1.
       -5    1    3    3    0  502 -0.34840717555E+02 -0.12746007085E+04 -0.23459466632E+04  0.26700765304E+04  0.46999998093E+01 0.  1.
</event>
<event>
 5   0  0.1101474E-07  0.4023362E+04  0.7818609E-02  0.7999850E-01
       -2   -1    0    0    0  501  0.00000000000E+00  0.00000000000E+00  0.17498514731E+04  0.17498514731E+04  0.25500000920E-02 0.  1.
        2   -1    0    0  501    0  0.00000000000E+00  0.00000000000E+00 -0.23126876180E+04  0.23126876180E+04  0.25500000920E-02 0. -1.
    10030    2    1    2    0    0  0.00000000000E+00  0.00000000000E+00 -0.56283614494E+03  0.40625390911E+04  0.40233616964E+04 0.  0.
        5    1    3    3  502    0  0.99922547213E+02  0.34199285131E+03 -0.22805692825E+04  0.23082378491E+04  0.46999998093E+01 0. -1.
       -5    1    3    3    0  502 -0.99922547213E+02 -0.34199285131E+03  0.17177331375E+04  0.17543012420E+04  0.46999998093E+01 0.  1.
</event>
<event>
 5   0  0.1087688E-07  0.3973210E+04  0.7818609E-02  0.8009973E-01
        2   -1    0    0  501    0  0.00000000000E+00  0.00000000000E+00  0.19850083635E+04  0.19850083635E+04  0.25500000920E-02 0.  1.
       -2   -1    0    0    0  501  0.00000000000E+00  0.00000000000E+00 -0.19882030403E+04  0.19882030403E+04  0.25500000920E-02 0. -1.
    10030    2    1    2    0    0  0.00000000000E+00  0.00000000000E+00 -0.31946768690E+01  0.39732114038E+04  0.39732101194E+04 0.  0.
        2    1    3    3  502    0 -0.90082454554E+03  0.17714478688E+03 -0.17633398090E+04  0.19880222381E+04  0.25500000920E-02 0. -1.
       -2    1    3    3    0  502  0.90082454554E+03 -0.17714478688E+03  0.17601451321E+04  0.19851891657E+04  0.25500000920E-02 0.  1.
</event>
<event>
 5   0  0.3399500E-08  0.3988902E+04  0.7818609E-02  0.8006789E-01
       -1   -1    0    0    0  501  0.00000000000E+00  0.00000000000E+00  0.28282539207E+04  0.28282539207E+04  0.50400001928E-02 0.  1.
        1   -1    0    0  501    0  0.00000000000E+00  0.00000000000E+00 -0.14064631010E+04  0.14064631010E+04  0.50400001928E-02 0. -1.
    10030    2    1    2    0    0  0.00000000000E+00  0.00000000000E+00  0.14217908197E+04  0.42347170217E+04  0.39889019942E+04 0.  0.
        3    1    3    3  502    0  0.18105773858E+04  0.47160211532E+03  0.14442896769E+04  0.23635929654E+04  0.10100000352E+00 0. -1.
       -3    1    3    3    0  502 -0.18105773858E+04 -0.47160211532E+03 -0.22498857157E+02  0.18711240563E+04  0.10100000352E+00 0.  1.
</event>
<event>
 5   0  0.1101474E-07  0.3973508E+04  0.7818609E-02  0.8009912E-01
        2   -1    0    0  501    0  0.00000000000E+00  0.00000000000E+00  0.19411982922E+04  0.19411982922E+04  0.25500000920E-02 0. -1.
       -2   -1    0    0    0  501  0.00000000000E+00  0.00000000000E+00 -0.20333791844E+04  0.20333791844E+04  0.25500000920E-02 0.  1.
    10030    2    1    2    0    0  0.00000000000E+00  0.00000000000E+00 -0.92180892181E+02  0.39745774767E+04  0.39735083744E+04 0.  0.
        5    1    3    3  502    0 -0.24109951158E+03 -0.19671948253E+04 -0.18464000625E+03  0.19905020666E+04  0.46999998093E+01 0.  1.
       -5    1    3    3    0  502  0.24109951158E+03  0.19671948253E+04  0.92459114064E+02  0.19840754101E+04  0.46999998093E+01 0. -1.
</event>
<event>
 5   0  0.1101474E-07  0.4024675E+04  0.7818609E-02  0.7999587E-01
        2   -1    0    0  501    0  0.00000000000E+00  0.00000000000E+00  0.25181449454E+04  0.25181449454E+04  0.25500000920E-02 0. -1.
       -2   -1    0    0    0  501  0.00000000000E+00  0.00000000000E+00 -0.16081293990E+04  0.16081293990E+04  0.25500000920E-02 0.  1.
    10030    2    1    2    0    0  0.00000000000E+00  0.00000000000E+00  0.91001554643E+03  0.41262743444E+04  0.40246753497E+04 0.  0.
        5    1    3    3  502    0  0.38399103190E+03 -0.16484187428E+04  0.15709459141E+04  0.23092480636E+04  0.46999998093E+01 0. -1.
       -5    1    3    3    0  502 -0.38399103190E+03  0.16484187428E+04 -0.66093036770E+03  0.18170262808E+04  0.46999998093E+01 0.  1.
</event>
<event>
 5   0  0.1073271E-07  0.3998978E+04  0.7818609E-02  0.8004753E-01
        2   -1    0    0  501    0  0.00000000000E+00  0.00000000000E+00  0.27789449392E+04  0.27789449392E+04  0.25500000920E-02 0.  1.
       -2   -1    0    0    0  501  0.00000000000E+00  0.00000000000E+00 -0.14386594411E+04  0.14386594411E+04  0.25500000920E-02 0. -1.
    10030    2    1    2    0    0  0.00000000000E+00  0.00000000000E+00  0.13402854981E+04  0.42176043803E+04  0.39989775558E+04 0.  0.
        1    1    3    3  502    0 -0.77924536700E+03  0.18131853541E+04  0.10087740071E+04  0.22164136500E+04  0.50400001928E-02 0.  1.
       -1    1    3    3    0  502  0.77924536700E+03 -0.18131853541E+04  0.33151149102E+03  0.20011907303E+04  0.50400001928E-02 0. -1.
</event>
<event>
 5   0  0.1095109E-07  0.3957390E+04  0.7818609E-02  0.8013198E-01
       -2   -1    0    0    0  501  0.00000000000E+00  0.00000000000E+00  0.20261786009E+04  0.20261786009E+04  0.25500000920E-02 0. -1.
        2   -1    0    0  501    0  0.00000000000E+00  0.00000000000E+00 -0.19323239385E+04  0.19323239385E+04  0.25500000920E-02 0.  1.
    10030    2    1    2    0    0  0.00000000000E+00  0.00000000000E+00  0.93854662388E+02  0.39585025393E+04  0.39573897529E+04 0.  0.
        4    1    3    3  502    0  0.10141668189E+03  0.76623056401E+03  0.18689326390E+04  0.20224503560E+04  0.12699999809E+01 0. -1.
       -4    1    3    3    0  502 -0.10141668189E+03 -0.76623056401E+03 -0.17750779766E+04  0.19360521833E+04  0.12699999809E+01 0.  1.
</event>
<event>
 5   0  0.3399500E-08  0.3940110E+04  0.7818609E-02  0.8016738E-01
       -1   -1    0    0    0  501  0.00000000000E+00  0.00000000000E+00  0.19085651812E+04  0.19085651812E+04  0.50400001928E-02 0. -1.
        1   -1    0    0  501    0  0.00000000000E+00  0.00000000000E+00 -0.20335255647E+04  0.20335255647E+04  0.50400001928E-02 0.  1.
    10030    2    1    2    0    0  0.00000000000E+00  0.00000000000E+00 -0.12496038349E+03  0.39420907459E+04  0.39401096878E+04 0.  0.
        3    1    3    3  502    0 -0.18981012721E+04 -0.48537625942E+03 -0.26931469702E+03  0.19776018225E+04  0.10100000352E+00 0. -1.
       -3    1    3    3    0  502  0.18981012721E+04  0.48537625942E+03  0.14435431353E+03  0.19644889234E+04  0.10100000352E+00 0.  1.
</event>
<event>
 5   0  0.3399500E-08  0.4053107E+04  0.7818609E-02  0.7993918E-01
        1   -1    0    0  501    0  0.00000000000E+00  0.00000000000E+00  0.13984494090E+04  0.13984494091E+04  0.50400001928E-02 0.  1.
       -1   -1    0    0    0  501  0.00000000000E+00  0.00000000000E+00 -0.29367665313E+04  0.29367665313E+04  0.50400001928E-02 0. -1.
    10030    2    1    2    0    0  0.00000000000E+00  0.00000000000E+00 -0.15383171222E+04  0.43352159403E+04  0.40531071638E+04 0.  0.
        4    1    3    3  502    0  0.24523799604E+02  0.15442996998E+04  0.63420586625E+03  0.16696351916E+04  0.12699999809E+01 0.  1.
       -4    1    3    3    0  502 -0.24523799604E+02 -0.15442996998E+04 -0.21725229885E+04  0.26655807487E+04  0.12699999809E+01 0. -1.
</event>
<event>
 5   0  0.1073271E-07  0.4044217E+04  0.7818609E-02  0.7995685E-01
       -2   -1    0    0    0  501  0.00000000000E+00  0.00000000000E+00  0.35804328391E+04  0.35804328391E+04  0.25500000920E-02 0. -1.
        2   -1    0    0  501    0  0.00000000000E+00  0.00000000000E+00 -0.11420193791E+04  0.11420193791E+04  0.25500000920E-02 0.  1.
    10030    2    1    2    0    0  0.00000000000E+00  0.00000000000E+00  0.24384134600E+04  0.47224522183E+04  0.40442174462E+04 0.  0.
        1    1    3    3  502    0  0.17968748646E+04 -0.43362614605E+03  0.21765343975E+04  0.28555372344E+04  0.50400001928E-02 0. -1.
       -1    1    3    3    0  502 -0.17968748646E+04  0.43362614605E+03  0.26187906245E+03  0.18669149838E+04  0.50400001928E-02 0.  1.
</event>
<event>
 5   0  0.3399500E-08  0.3966688E+04  0.7818609E-02  0.8011300E-01
       -1   -1    0    0    0  501  0.00000000000E+00  0.00000000000E+00  0.14691506637E+04  0.14691506637E+04  0.50400001928E-02 0. -1.
        1   -1    0    0  501    0  0.00000000000E+00  0.00000000000E+00 -0.26775021227E+04  0.26775021227E+04  0.50400001928E-02 0.  1.
    10030    2    1    2    0    0  0.00000000000E+00  0.00000000000E+00 -0.12083514591E+04  0.41466527864E+04  0.39666883017E+04 0.  0.
        1    1    3    3  502    0  0.45328479911E+03  0.12745489196E+04 -0.21203975234E+04  0.25151595804E+04  0.50400001928E-02 0.  1.
       -1    1    3    3    0  502 -0.45328479911E+03 -0.12745489196E+04  0.91204606439E+03  0.16314932060E+04  0.50400001928E-02 0. -1.
</event>
<event>
 5   0  0.1095109E-07  0.3974829E+04  0.7818609E-02  0.8009644E-01
        2   -1    0    0  501    0  0.00000000000E+00  0.00000000000E+00  0.13712817433E+04  0.13712817433E+04  0.25500000920E-02 0. -1.
       -2   -1    0    0    0  501  0.00000000000E+00  0.00000000000E+00 -0.28803831431E+04  0.28803831431E+04  0.25500000920E-02 0.  1.
    10030    2    1    2    0    0  0.00000000000E+00  0.00000000000E+00 -0.15091013998E+04  0.42516648864E+04  0.39748292129E+04 0.  0.
        4    1    3    3  502    0 -0.10865802153E+04 -0.16414719432E+04 -0.10469549542E+04  0.22296194728E+04  0.12699999809E+01 0.  1.
       -4    1    3    3    0  502  0.10865802153E+04  0.16414719432E+04 -0.46214644558E+03  0.20220454136E+04  0.12699999809E+01 0. -1.
</event>
<event>
 5   0  0.1101474E-07  0.3976379E+04  0.7818609E-02  0.8009329E-01
        2   -1    0    0  501    0  0.00000000000E+00  0.00000000000E+00  0.21083310514E+04  0.21083310514E+04  0.25500000920E-02 0. -1.
       -2   -1    0    0    0  501  0.00000000000E+00  0.00000000000E+00 -0.18748943931E+04  0.18748943931E+04  0.25500000920E-02 0.  1.
    10030    2    1    2    0    0  0.00000000000E+00  0.00000000000E+00  0.23343665835E+03  0.39832254445E+04  0.39763792913E+04 0.  0.
        5    1    3    3  502    0 -0.15423147547E+04 -0.12080188999E+04 -0.22273308754E+03  0.19717191949E+04  0.46999998093E+01 0. -1.
       -5    1    3    3    0  502  0.15423147547E+04  0.12080188999E+04  0.45616974589E+03  0.20115062496E+04  0.46999998093E+01 0.  1.
</event>
<event>
 5   0  0.1101474E-07  0.4006117E+04  0.7818609E-02  0.8003314E-01
       -2   -1    0    0    0  501  0.00000000000E+00  0.00000000000E+00  0.17567886245E+04  0.17567886245E+04  0.25500000920E-02 0. -1.
        2   -1    0    0  501    0  0.00000000000E+00  0.00000000000E+00 -0.22838508990E+04  0.22838508990E+04  0.25500000920E-02 0.  1.
    10030    2    1    2    0    0  0.00000000000E+00  0.00000000000E+00 -0.52706227448E+03  0.40406395235E+04  0.40061169625E+04 0.  0.
        5    1    3    3  502    0  0.14856574673E+04  0.13419404169E+04 -0.32919977597E+03  0.20288855994E+04  0.46999998093E+01 0.  1.
       -5    1    3    3    0  502 -0.14856574673E+04 -0.13419404169E+04 -0.19786249851E+03  0.20117539241E+04  0.46999998093E+01 0. -1.
</event>
<event>
 5   0  0.3399500E-08  0.4017777E+04  0.7818609E-02  0.8000970E-01
       -1   -1    0    0    0  501  0.00000000000E+00  0.00000000000E+00  0.20027492660E+04  0.20027492660E+04  0.50400001928E-02 0.  1.
        1   -1    0    0  501    0  0.00000000000E+00  0.00000000000E+00 -0.20150468188E+04  0.20150468188E+04  0.50400001928E-02 0. -1.
    10030    2    1    2    0    0  0.00000000000E+00  0.00000000000E+00 -0.12297552751E+02  0.40177960848E+04  0.40177772648E+04 0.  0.
        4    1    3    3  502    0 -0.91588679152E+03  0.14695371531E+04 -0.10246052470E+04  0.20120153042E+04  0.12699999809E+01 0. -1.
       -4    1    3    3    0  502  0.91588679152E+03 -0.14695371531E+04  0.10123076942E+04  0.20057807806E+04  0.12699999809E+01 0.  1.
</event>
<event>
 5   0  0.3399500E-08  0.4021266E+04  0.7818609E-02  0.8000270E-01
        1   -1    0    0  501    0  0.00000000000E+00  0.00000000000E+00  0.20767898642E+04  0.20767898642E+04  0.50400001928E-02 0.  1.
       -1   -1    0    0    0  501  0.00000000000E+00  0.00000000000E+00 -0.19465836925E+04  0.19465836926E+04  0.50400001928E-02 0. -1.
    10030    2    1    2    0    0  0.00000000000E+00  0.00000000000E+00  0.13020617164E+03  0.40233735567E+04  0.40212661103E+04 0.  0.
        4    1    3    3  502    0 -0.17738586563E+04 -0.37448307502E+03 -0.80473827709E+03  0.19835365924E+04  0.12699999809E+01 0. -1.
       -4    1    3    3    0  502  0.17738586563E+04  0.37448307502E+03  0.93494444873E+03  0.20398369643E+04  0.12699999809E+01 0.  1.
</event>
<event>
 5   0  0.3399500E-08  0.3991624E+04  0.7818609E-02  0.8006238E-01
       -1   -1    0    0    0  501  0.00000000000E+00  0.00000000000E+00  0.19121658380E+04  0.19121658380E+04  0.50400001928E-02 0. -1.
        1   -1    0    0  501    0  0.00000000000E+00  0.00000000000E+00 -0.20831172864E+04  0.20831172864E+04  0.50400001928E-02 0.  1.
    10030    2    1    2    0    0  0.00000000000E+00  0.00000000000E+00 -0.17095144833E+03  0.39952831244E+04  0.39916240863E+04 0.  0.
        1    1    3    3  502    0  0.95272208822E+03  0.68680511740E+03  0.15296592877E+04  0.19285326503E+04  0.50400001928E-02 0. -1.
       -1    1    3    3    0  502 -0.95272208822E+03 -0.68680511740E+03 -0.17006107361E+04  0.20667504741E+04  0.50400001928E-02 0.  1.
</event>
<event>
 5   0  0.1101474E-07  0.4014778E+04  0.7818609E-02  0.8001572E-01
        2   -1    0    0  501    0  0.00000000000E+00  0.00000000000E+00  0.14333737558E+04  0.14333737558E+04  0.25500000920E-02 0. -1.
       -2   -1    0    0    0  501  0.00000000000E+00  0.00000000000E+00 -0.28112766251E+04  0.28112766251E+04  0.25500000920E-02 0.  1.
    10030    2    1    2    0    0  0.00000000000E+00  0.00000000000E+00 -0.13779028693E+04  0.42446503810E+04  0.40147777696E+04 0.  0.
        5    1    3    3  502    0  0.11765935282E+04  0.11711589148E+04 -0.18821078125E+04  0.25096488683E+04  0.46999998093E+01 0.  1.
       -5    1    3    3    0  502 -0.11765935282E+04 -0.11711589148E+04  0.50420494317E+03  0.17350015127E+04  0.46999998093E+01 0. -1.
</event>
<event>
 5   0  0.1095109E-07  0.3984559E+04  0.7818609E-02  0.8007669E-01
        2   -1    0    0  501    0  0.00000000000E+00  0.00000000000E+00  0.23472541416E+04  0.23472541416E+04  0.25500000920E-02 0. -1.
       -2   -1    0    0    0  501  0.00000000000E+00  0.00000000000E+00 -0.16909873652E+04  0.16909873652E+04  0.25500000920E-02 0.  1.
    10030    2    1    2    0    0  0.00000000000E+00  0.00000000000E+00  0.65626677637E+03  0.40382415068E+04  0.39845587442E+04 0.  0.
        4    1    3    3  502    0 -0.93475979150E+02 -0.19623381549E+04  0.66375461750E+03  0.20736635691E+04  0.12699999809E+01 0. -1.
       -4    1    3    3    0  502  0.93475979150E+02  0.19623381549E+04 -0.74878411291E+01  0.19645779377E+04  0.12699999809E+01 0.  1.
</event>
<event>
 5   0  0.1073271E-07  0.4014058E+04  0.7818609E-02  0.8001717E-01
        2   -1    0    0  501    0  0.00000000000E+00  0.00000000000E+00  0.32532256354E+04  0.32532256354E+04  0.25500000920E-02 0. -1.
       -2   -1    0    0    0  501  0.00000000000E+00  0.00000000000E+00 -0.12382065764E+04  0.12382065764E+04  0.25500000920E-02 0.  1.
    10030    2    1    2    0    0  0.00000000000E+00  0.00000000000E+00  0.20150190590E+04  0.44914322118E+04  0.40140579848E+04 0.  0.
        1    1    3    3  502    0  0.11792315079E+04 -0.90166967506E+03  0.25189167727E+04  0.29237881010E+04  0.50400001928E-02 0. -1.
       -1    1    3    3    0  502 -0.11792315079E+04  0.90166967506E+03 -0.50389771367E+03  0.15676441108E+04  0.50400001928E-02 0.  1.
</event>
<event>
 5   0  0.1073271E-07  0.3998443E+04  0.7818609E-02  0.8004861E-01
       -2   -1    0    0    0  501  0.00000000000E+00  0.00000000000E+00  0.13842142405E+04  0.13842142405E+04  0.25500000920E-02 0. -1.
        2   -1    0    0  501    0  0.00000000000E+00  0.00000000000E+00 -0.28874774500E+04  0.28874774500E+04  0.25500000920E-02 0.  1.
    10030    2    1    2    0    0  0.00000000000E+00  0.00000000000E+00 -0.15032632095E+04  0.42716916906E+04  0.39984433999E+04 0.  0.
        1    1    3    3  502    0 -0.12002893737E+04 -0.26038085249E+03  0.93363484721E+03  0.15427789203E+04  0.50400001928E-02 0. -1.
       -1    1    3    3    0  502  0.12002893737E+04  0.26038085249E+03 -0.24368980567E+04  0.27289127703E+04  0.50400001928E-02 0.  1.
</event>
<event>
 5   0  0.3399500E-08  0.4012348E+04  0.7818609E-02  0.8002060E-01
       -1   -1    0    0    0  501  0.00000000000E+00  0.00000000000E+00  0.24507327102E+04  0.24507327102E+04  0.50400001928E-02 0. -1.
        1   -1    0    0  501    0  0.00000000000E+00  0.00000000000E+00 -0.16422571344E+04  0.16422571344E+04  0.50400001928E-02 0.  1.
    10030    2    1    2    0    0  0.00000000000E+00  0.00000000000E+00  0.80847557573E+03  0.40929898446E+04  0.40123475811E+04 0.  0.
        2    1    3    3  502    0  0.10094280107E+03  0.19686061684E+04  0.23734772470E+02  0.19713353431E+04  0.25500000920E-02 0. -1.
       -2    1    3    3    0  502 -0.10094280107E+03 -0.19686061684E+04  0.78474080326E+03  0.21216545015E+04  0.25500000920E-02 0.  1.
</event>
<event>
 5   0  0.3399500E-08  0.3989313E+04  0.7818609E-02  0.8006706E-01
        3   -1    0    0  501    0  0.00000000000E+00  0.00000000000E+00  0.29084119947E+04  0.29084119965E+04  0.10100000352E+00 0.  1.
       -3   -1    0    0    0  501  0.00000000000E+00  0.00000000000E+00 -0.13679819392E+04  0.13679819430E+04  0.10100000352E+00 0. -1.
    10030    2    1    2    0    0  0.00000000000E+00  0.00000000000E+00  0.15404300555E+04  0.42763939395E+04  0.39893132704E+04 0.  0.
        3    1    3    3  502    0 -0.10232850035E+04 -0.11680137964E+04  0.21122189391E+04  0.26216096742E+04  0.10100000352E+00 0.  1.
       -3    1    3    3    0  502  0.10232850035E+04  0.11680137964E+04 -0.57178888355E+03  0.16547842653E+04  0.10100000352E+00 0. -1.
</event>
<event>
 5   0  0.1101474E-07  0.3959006E+04  0.7818609E-02  0.8012868E-01
       -2   -1    0    0    0  501  0.00000000000E+00  0.00000000000E+00  0.23302415527E+04  0.23302415527E+04  0.25500000920E-02 0. -1.
        2   -1    0    0  501    0  0.00000000000E+00  0.00000000000E+00 -0.16815563556E+04  0.16815563556E+04  0.25500000920E-02 0.  1.
    10030    2    1    2    0    0  0.00000000000E+00  0.00000000000E+00  0.64868519715E+03  0.40117979083E+04  0.39590061849E+04 0.  0.
        5    1    3    3  502    0  0.65014148163E+03 -0.16501711661E+04  0.12150755651E+04  0.21499254737E+04  0.46999998093E+01 0. -1.
       -5    1    3    3    0  502 -0.65014148163E+03  0.16501711661E+04 -0.56639036795E+03  0.18618724345E+04  0.46999998093E+01 0.  1.
</event>
<event>
 5   0  0.3399500E-08  0.4001408E+04  0.7818609E-02  0.8004263E-01
        1   -1    0    0  501    0  0.00000000000E+00  0.00000000000E+00  0.14490675049E+04  0.14490675049E+04  0.50400001928E-02 0.  1.
       -1   -1    0    0    0  501  0.00000000000E+00  0.00000000000E+00 -0.27623397602E+04  0.27623397602E+04  0.50400001928E-02 0. -1.
    10030    2    1    2    0    0  0.00000000000E+00  0.00000000000E+00 -0.13132722553E+04  0.42114072650E+04  0.40014081441E+04 0.  0.
        4    1    3    3  502    0  0.15092644282E+04 -0.69006627928E+03 -0.18327549479E+04  0.24724608988E+04  0.12699999809E+01 0. -1.
       -4    1    3    3    0  502 -0.15092644282E+04  0.69006627928E+03  0.51948269258E+03  0.17389463663E+04  0.12699999809E+01 0.  1.
</event>
<event>
 5   0  0.1087688E-07  0.3981354E+04  0.7818609E-02  0.8008319E-01
       -2   -1    0    0    0  501  0.00000000000E+00  0.00000000000E+00  0.15071550343E+04  0.15071550343E+04  0.25500000920E-02 0.  1.
        2   -1    0    0  501    0  0.00000000000E+00  0.00000000000E+00 -0.26293213182E+04  0.26293213182E+04  0.25500000920E-02 0. -1.
    10030    2    1    2    0    0  0.00000000000E+00  0.00000000000E+00 -0.11221662839E+04  0.41364763525E+04  0.39813539714E+04 0.  0.
        2    1    3    3  502    0 -0.19122354979E+02  0.11128818440E+04  0.11536525346E+04  0.16030551562E+04  0.25500000920E-02 0.  1.
       -2    1    3    3    0  502  0.19122354979E+02 -0.11128818440E+04 -0.22758188185E+04  0.25334211963E+04  0.25500000920E-02 0. -1.
</event>
<event>
 5   0  0.3399500E-08  0.4046297E+04  0.7818609E-02  0.7995272E-01
        1   -1    0    0  501    0  0.00000000000E+00  0.00000000000E+00  0.26385525722E+04  0.26385525722E+04  0.50400001928E-02 0.  1.
       -1   -1    0    0    0  501  0.00000000000E+00  0.00000000000E+00 -0.15512783690E+04  0.15512783690E+04  0.50400001928E-02 0. -1.
    10030    2    1    2    0    0  0.00000000000E+00  0.00000000000E+00  0.10872742032E+04  0.41898309412E+04  0.40462968407E+04 0.  0.
        1    1    3    3  502    0 -0.10114906511E+04 -0.15574879566E+04 -0.28748554590E+03  0.18792365501E+04  0.50400001928E-02 0. -1.
       -1    1    3    3    0  502  0.10114906511E+04  0.15574879566E+04  0.13747597491E+04  0.23105943911E+04  0.50400001928E-02 0.  1.
</event>
<event>
 5   0  0.1095903E-07  0.3984105E+04  0.7818609E-02  0.8007761E-01
       -2   -1    0    0    0  501  0.00000000000E+00  0.00000000000E+00  0.24215689036E+04  0.24215689036E+04  0.25500000920E-02 0.  1.
        2   -1    0    0  501    0  0.00000000000E+00  0.00000000000E+00 -0.16387201082E+04  0.16387201082E+04  0.25500000920E-02 0. -1.
    10030    2    1    2    0    0  0.00000000000E+00  0.00000000000E+00  0.78284879544E+03  0.40602890118E+04  0.39841052475E+04 0.  0.
        3    1    3    3  502    0 -0.10447224711E+04 -0.14061667871E+04  0.13579924116E+04  0.22165047879E+04  0.10100000352E+00 0.  1.
       -3    1    3    3    0  502  0.10447224711E+04  0.14061667871E+04 -0.57514361619E+03  0.18437842239E+04  0.10100000352E+00 0. -1.
</event>
<event>
 5   0  0.1101474E-07  0.4008344E+04  0.7818609E-02  0.8002865E-01
        2   -1    0    0  501    0  0.00000000000E+00  0.00000000000E+00  0.24871221988E+04  0.24871221988E+04  0.25500000920E-02 0.  1.
       -2   -1    0    0    0  501  0.00000000000E+00  0.00000000000E+00 -0.16150010110E+04  0.16150010110E+04  0.25500000920E-02 0. -1.
    10030    2    1    2    0    0  0.00000000000E+00  0.00000000000E+00  0.87212118782E+03  0.41021232099E+04  0.40083437306E+04 0.  0.
        5    1    3    3  502    0 -0.18647557225E+04  0.67167147263E+03  0.74003903696E+03  0.21156881476E+04  0.46999998093E+01 0. -1.
       -5    1    3    3    0  502  0.18647557225E+04 -0.67167147263E+03  0.13208215086E+03  0.19864350622E+04  0.46999998093E+01 0.  1.
</event>
<event>
 5   0  0.3399500E-08  0.4004641E+04  0.7818609E-02  0.8003611E-01
        1   -1    0    0  501    0  0.00000000000E+00  0.00000000000E+00  0.13330724179E+04  0.13330724179E+04  0.50400001928E-02 0.  1.
       -1   -1    0    0    0  501  0.00000000000E+00  0.00000000000E+00 -0.30075533609E+04  0.30075533609E+04  0.50400001928E-02 0. -1.
    10030    2    1    2    0    0  0.00000000000E+00  0.00000000000E+00 -0.16744809431E+04  0.43406257788E+04  0.40046405236E+04 0.  0.
        3    1    3    3  502    0  0.86334524867E+03  0.39071939918E+03  0.10746232975E+04  0.14327742003E+04  0.10100000352E+00 0.  1.
       -3    1    3    3    0  502 -0.86334524867E+03 -0.39071939918E+03 -0.27491042405E+04  0.29078515785E+04  0.10100000352E+00 0. -1.
</event>
<event>
 5   0  0.3399500E-08  0.3997513E+04  0.7818609E-02  0.8005048E-01
       -1   -1    0    0    0  501  0.00000000000E+00  0.00000000000E+00  0.15338953321E+04  0.15338953321E+04  0.50400001928E-02 0.  1.
        1   -1    0    0  501    0  0.00000000000E+00  0.00000000000E+00 -0.26044978209E+04  0.26044978209E+04  0.50400001928E-02 0. -1.
    10030    2    1    2    0    0  0.00000000000E+00  0.00000000000E+00 -0.10706024888E+04  0.41383931531E+04  0.39975127517E+04 0.  0.
        4    1    3    3  502    0  0.14155646373E+04 -0.13808397414E+04 -0.23439678914E+03  0.19913525809E+04  0.12699999809E+01 0.  1.
       -4    1    3    3    0  502 -0.14155646373E+04  0.13808397414E+04 -0.83620569966E+03  0.21470405722E+04  0.12699999809E+01 0. -1.
</event>
<event>
 5   0  0.3399500E-08  0.4039992E+04  0.7818609E-02  0.7996527E-01
       -1   -1    0    0    0  501  0.00000000000E+00  0.00000000000E+00  0.20913836320E+04  0.20913836320E+04  0.50400001928E-02 0.  1.
        1   -1    0    0  501    0  0.00000000000E+00  0.00000000000E+00 -0.19510450852E+04  0.19510450852E+04  0.50400001928E-02 0. -1.
    10030    2    1    2    0    0  0.00000000000E+00  0.00000000000E+00  0.14033854686E+03  0.40424287172E+04  0.40399919586E+04 0.  0.
        5    1    3    3  502    0 -0.48844839101E+03 -0.19216484932E+04 -0.31612951836E+03  0.20078034576E+04  0.46999998093E+01 0. -1.
       -5    1    3    3    0  502  0.48844839101E+03  0.19216484932E+04  0.45646806523E+03  0.20346252595E+04  0.46999998093E+01 0.  1.
</event>
<event>
 5   0  0.1101474E-07  0.3992426E+04  0.7818609E-02  0.8006076E-01
        2   -1    0    0  501    0  0.00000000000E+00  0.00000000000E+00  0.30707405982E+04  0.30707405982E+04  0.25500000920E-02 0. -1.
       -2   -1    0    0    0  501  0.00000000000E+00  0.00000000000E+00 -0.12976890608E+04  0.12976890608E+04  0.25500000920E-02 0.  1.
    10030    2    1    2    0    0  0.00000000000E+00  0.00000000000E+00  0.17730515374E+04  0.43684296589E+04  0.39924260708E+04 0.  0.
        5    1    3    3  502    0  0.12977029125E+03 -0.10848496192E+04 -0.94147586755E+03  0.14422683259E+04  0.46999998093E+01 0.  1.
       -5    1    3    3    0  502 -0.12977029125E+03  0.10848496192E+04  0.27145274049E+04  0.29261613330E+04  0.46999998093E+01 0. -1.
</event>
<event>
 5   0  0.1101474E-07  0.3952373E+04  0.7818609E-02  0.8014224E-01
        2   -1    0    0  501    0  0.00000000000E+00  0.00000000000E+00  0.21117441762E+04  0.21117441762E+04  0.25500000920E-02 0. -1.
       -2   -1    0    0    0  501  0.00000000000E+00  0.00000000000E+00 -0.18493303207E+04  0.18493303207E+04  0.25500000920E-02 0.  1.
    10030    2    1    2    0    0  0.00000000000E+00  0.00000000000E+00  0.26241385544E+03  0.39610744969E+04  0.39523727226E+04 0.  0.
        5    1    3    3  502    0  0.15508423595E+04  0.95286161737E+03  0.90246811531E+03  0.20316318749E+04  0.46999998093E+01 0. -1.
       -5    1    3    3    0  502 -0.15508423595E+04 -0.95286161737E+03 -0.64005425988E+03  0.19294426220E+04  0.46999998093E+01 0.  1.
</event>
<event>
 5   0  0.1095903E-07  0.3999010E+04  0.7818609E-02  0.8004746E-01
        2   -1    0    0  501    0  0.00000000000E+00  0.00000000000E+00  0.32345988441E+04  0.32345988441E+04  0.25500000920E-02 0. -1.
       -2   -1    0    0    0  501  0.00000000000E+00  0.00000000000E+00 -0.12360171388E+04  0.12360171388E+04  0.25500000920E-02 0.  1.
    10030    2    1    2    0    0  0.00000000000E+00  0.00000000000E+00  0.19985817054E+04  0.44706159829E+04  0.39990096816E+04 0.  0.
        3    1    3    3  502    0  0.60475868249E+03 -0.17160544852E+04  0.19261920173E+04  0.26496776706E+04  0.10100000352E+00 0.  1.
       -3    1    3    3    0  502 -0.60475868249E+03  0.17160544852E+04  0.72389688080E+02  0.18209383124E+04  0.10100000352E+00 0. -1.
</event>
<event>
 5   0  0.1101474E-07  0.3970516E+04  0.7818609E-02  0.8010521E-01
       -2   -1    0    0    0  501  0.00000000000E+00  0.00000000000E+00  0.21196171941E+04  0.21196171941E+04  0.25500000920E-02 0. -1.
        2   -1    0    0  501    0  0.00000000000E+00  0.00000000000E+00 -0.18594160665E+04  0.18594160665E+04  0.25500000920E-02 0.  1.
    10030    2    1    2    0    0  0.00000000000E+00  0.00000000000E+00  0.26020112760E+03  0.39790332606E+04  0.39705164730E+04 0.  0.
        5    1    3    3  502    0 -0.14695135746E+02 -0.19281168625E+04 -0.34354161573E+03  0.19585437228E+04  0.46999998093E+01 0. -1.
       -5    1    3    3    0  502  0.14695135746E+02  0.19281168625E+04  0.60374274332E+03  0.20204895378E+04  0.46999998093E+01 0.  1.
</event>
<event>
 5   0  0.3399500E-08  0.3967674E+04  0.7818609E-02  0.8011100E-01
       -1   -1    0    0    0  501  0.00000000000E+00  0.00000000000E+00  0.17151335358E+04  0.17151335359E+04  0.50400001928E-02 0. -1.
        1   -1    0    0  501    0  0.00000000000E+00  0.00000000000E+00 -0.22946369724E+04  0.22946369725E+04  0.50400001928E-02 0.  1.
    10030    2    1    2    0    0  0.00000000000E+00  0.00000000000E+00 -0.57950343660E+03  0.40097705083E+04  0.39676737890E+04 0.  0.
        2    1    3    3  502    0  0.40430319508E+02 -0.57208157905E+02 -0.22933866181E+04  0.22944562677E+04  0.25500000920E-02 0.  1.
       -2    1    3    3    0  502 -0.40430319508E+02  0.57208157905E+02  0.17138831815E+04  0.17153142406E+04  0.25500000920E-02 0. -1.
</event>
<event>
 5   0  0.1095903E-07  0.3994674E+04  0.7818609E-02  0.8005622E-01
       -2   -1    0    0    0  501  0.00000000000E+00  0.00000000000E+00  0.18412532687E+04  0.18412532687E+04  0.25500000920E-02 0. -1.
        2   -1    0    0  501    0  0.00000000000E+00  0.00000000000E+00 -0.21666523638E+04  0.21666523638E+04  0.25500000920E-02 0.  1.
    10030    2    1    2    0    0  0.00000000000E+00  0.00000000000E+00 -0.32539909507E+03  0.40079056325E+04  0.39946743282E+04 0.  0.
        3    1    3    3  502    0 -0.82656160887E+03  0.16056578143E+04 -0.10187634041E+04  0.20734560506E+04  0.10100000352E+00 0.  1.
       -3    1    3    3    0  502  0.82656160887E+03 -0.16056578143E+04  0.69336430900E+03  0.19344495820E+04  0.10100000352E+00 0. -1.
</event>
<event>
 5   0  0.1087688E-07  0.3990242E+04  0.7818609E-02  0.8006518E-01
        2   -1    0    0  501    0  0.00000000000E+00  0.00000000000E+00  0.23859570611E+04  0.23859570611E+04  0.25500000920E-02 0. -1.
       -2   -1    0    0    0  501  0.00000000000E+00  0.00000000000E+00 -0.16683061665E+04  0.16683061665E+04  0.25500000920E-02 0.  1.
    10030    2    1    2    0    0  0.00000000000E+00  0.00000000000E+00  0.71765089460E+03  0.40542632276E+04  0.39902415355E+04 0.  0.
        2    1    3    3  502    0  0.69988040577E+03  0.10894533476E+04  0.19009942425E+04  0.23001131035E+04  0.25500000920E-02 0. -1.
       -2    1    3    3    0  502 -0.69988040577E+03 -0.10894533476E+04 -0.11833433479E+04  0.17541501241E+04  0.25500000920E-02 0.  1.
</event>
<event>
 5   0  0.1095903E-07  0.4016009E+04  0.7818609E-02  0.8001325E-01
       -2   -1    0    0    0  501  0.00000000000E+00  0.00000000000E+00  0.15659463274E+04  0.15659463274E+04  0.25500000920E-02 0.  1.
        2   -1    0    0  501    0  0.00000000000E+00  0.00000000000E+00 -0.25748538151E+04  0.25748538151E+04  0.25500000920E-02 0. -1.
    10030    2    1    2    0    0  0.00000000000E+00  0.00000000000E+00 -0.10089074877E+04  0.41408001425E+04  0.40160094001E+04 0.  0.
        3    1    3    3  502    0  0.98238911588E+03 -0.65347979993E+03  0.11708289821E+04  0.16622168148E+04  0.10100000352E+00 0.  1.
       -3    1    3    3    0  502 -0.98238911588E+03  0.65347979993E+03 -0.21797364699E+04  0.24785833277E+04  0.10100000352E+00 0. -1.
</event>
<event>
 5   0  0.3399500E-08  0.4001887E+04  0.7818609E-02  0.8004166E-01
        1   -1    0    0  501    0  0.00000000000E+00  0.00000000000E+00  0.14172167529E+04  0.14172167529E+04  0.50400001928E-02 0.  1.
       -1   -1    0    0    0  501  0.00000000000E+00  0.00000000000E+00 -0.28250977058E+04  0.28250977059E+04  0.50400001928E-02 0. -1.
    10030    2    1    2    0    0  0.00000000000E+00  0.00000000000E+00 -0.14078809529E+04  0.42423144588E+04  0.40018874534E+04 0.  0.
        2    1    3    3  502    0  0.94250736366E+03  0.21344321717E+03  0.11534359764E+04  0.15047566877E+04  0.25500000920E-02 0.  1.
       -2    1    3    3    0  502 -0.94250736366E+03 -0.21344321717E+03 -0.25613169293E+04  0.27375577711E+04  0.25500000920E-02 0. -1.
</event>
<event>
 5   0  0.1087688E-07  0.4000882E+04  0.7818609E-02  0.8004369E-01
       -2   -1    0    0    0  501  0.00000000000E+00  0.00000000000E+00  0.15156318883E+04  0.15156318883E+04  0.25500000920E-02 0. -1.
        2   -1    0    0  501    0  0.00000000000E+00  0.00000000000E+00 -0.26403278507E+04  0.26403278507E+04  0.25500000920E-02 0.  1.
    10030    2    1    2    0    0  0.00000000000E+00  0.00000000000E+00 -0.11246959624E+04  0.41559597390E+04  0.40008824457E+04 0.  0.
        2    1    3    3  502    0  0.10147232415E+03 -0.25765615949E+03 -0.26203220311E+04  0.26349138270E+04  0.25500000920E-02 0.  1.
       -2    1    3    3    0  502 -0.10147232415E+03  0.25765615949E+03  0.14956260687E+04  0.15210459120E+04  0.25500000920E-02 0. -1.
</event>
<event>
 5   0  0.3399500E-08  0.3522879E+04  0.7818609E-02  0.8108389E-01
        1   -1    0    0  501    0  0.00000000000E+00  0.00000000000E+00  0.23876477946E+04  0.23876477946E+04  0.50400001928E-02 0.  1.
       -1   -1    0    0    0  501  0.00000000000E+00  0.00000000000E+00 -0.12994665407E+04  0.12994665407E+04  0.50400001928E-02 0. -1.
    10030    2    1    2    0    0  0.00000000000E+00  0.00000000000E+00  0.10881812540E+04  0.36871143353E+04  0.35228786071E+04 0.  0.
        4    1    3    3  502    0 -0.11587197299E+03  0.16658667100E+04 -0.42510191329E+02  0.16704331590E+04  0.12699999809E+01 0.  1.
       -4    1    3    3    0  502  0.11587197299E+03 -0.16658667100E+04  0.11306914453E+04  0.20166811763E+04  0.12699999809E+01 0. -1.
</event>
<event>
 5   0  0.3399500E-08  0.3969932E+04  0.7818609E-02  0.8010640E-01
        1   -1    0    0  501    0  0.00000000000E+00  0.00000000000E+00  0.20253087841E+04  0.20253087841E+04  0.50400001928E-02 0. -1.
       -1   -1    0    0    0  501  0.00000000000E+00  0.00000000000E+00 -0.19454266913E+04  0.19454266913E+04  0.50400001928E-02 0.  1.
    10030    2    1    2    0    0  0.00000000000E+00  0.00000000000E+00  0.79882092794E+02  0.39707354753E+04  0.39699318717E+04 0.  0.
        4    1    3    3  502    0 -0.22998150652E+03 -0.81346343017E+03  0.18362650309E+04  0.20215056572E+04  0.12699999809E+01 0. -1.
       -4    1    3    3    0  502  0.22998150652E+03  0.81346343017E+03 -0.17563829381E+04  0.19492298181E+04  0.12699999809E+01 0.  1.
</event>
<event>
 5   0  0.1095109E-07  0.3985613E+04  0.7818609E-02  0.8007455E-01
        2   -1    0    0  501    0  0.00000000000E+00  0.00000000000E+00  0.27023924411E+04  0.27023924411E+04  0.25500000920E-02 0.  1.
       -2   -1    0    0    0  501  0.00000000000E+00  0.00000000000E+00 -0.14695412398E+04  0.14695412398E+04  0.25500000920E-02 0. -1.
    10030    2    1    2    0    0  0.00000000000E+00  0.00000000000E+00  0.12328512013E+04  0.41719336809E+04  0.39856126949E+04 0.  0.
        4    1    3    3  502    0 -0.54528486742E+03 -0.16697206146E+04  0.16016894495E+04  0.23771228877E+04  0.12699999809E+01 0.  1.
       -4    1    3    3    0  502  0.54528486742E+03  0.16697206146E+04 -0.36883824822E+03  0.17948107933E+04  0.12699999809E+01 0. -1.
</event>
<event>
 5   0  0.3399500E-08  0.3982758E+04  0.7818609E-02  0.8008034E-01
        1   -1    0    0  501    0  0.00000000000E+00  0.00000000000E+00  0.19629306180E+04  0.19629306180E+04  0.50400001928E-02 0. -1.
       -1   -1    0    0    0  501  0.00000000000E+00  0.00000000000E+00 -0.20202397558E+04  0.20202397558E+04  0.50400001928E-02 0.  1.
    10030    2    1    2    0    0  0.00000000000E+00  0.00000000000E+00 -0.57309137809E+02  0.39831703739E+04  0.39827580758E+04 0.  0.
        5    1    3    3  502    0  0.61989918928E+03 -0.56058339965E+03  0.17790279468E+04  0.19655765765E+04  0.46999998093E+01 0. -1.
       -5    1    3    3    0  502 -0.61989918928E+03  0.56058339965E+03 -0.18363370846E+04  0.20175937973E+04  0.46999998093E+01 0.  1.
</event>
<event>
 5   0  0.3399500E-08  0.4015918E+04  0.7818609E-02  0.8001343E-01
        1   -1    0    0  501    0  0.00000000000E+00  0.00000000000E+00  0.17315697114E+04  0.17315697115E+04  0.50400001928E-02 0. -1.
       -1   -1    0    0    0  501  0.00000000000E+00  0.00000000000E+00 -0.23284649677E+04  0.23284649677E+04  0.50400001928E-02 0.  1.
    10030    2    1    2    0    0  0.00000000000E+00  0.00000000000E+00 -0.59689525622E+03  0.40600346791E+04  0.40159180331E+04 0.  0.
        2    1    3    3  502    0  0.83440749630E+03  0.19682351196E+03 -0.21341377639E+04  0.22998955107E+04  0.25500000920E-02 0.  1.
       -2    1    3    3    0  502 -0.83440749630E+03 -0.19682351196E+03  0.15372425077E+04  0.17601391684E+04  0.25500000920E-02 0. -1.
</event>
<event>
 5   0  0.1073271E-07  0.3971440E+04  0.7818609E-02  0.8010333E-01
       -2   -1    0    0    0  501  0.00000000000E+00  0.00000000000E+00  0.34597278135E+04  0.34597278135E+04  0.25500000920E-02 0.  1.
        2   -1    0    0  501    0  0.00000000000E+00  0.00000000000E+00 -0.11397091189E+04  0.11397091189E+04  0.25500000920E-02 0. -1.
    10030    2    1    2    0    0  0.00000000000E+00  0.00000000000E+00  0.23200186946E+04  0.45994369324E+04  0.39714397077E+04 0.  0.
        1    1    3    3  502    0  0.47713379786E+03 -0.15741812634E+04  0.24482833571E+04  0.29495414403E+04  0.50400001928E-02 0.  1.
       -1    1    3    3    0  502 -0.47713379786E+03  0.15741812634E+04 -0.12826466254E+03  0.16498954921E+04  0.50400001928E-02 0. -1.
</event>
<event>
 5   0  0.1095903E-07  0.3954799E+04  0.7818609E-02  0.8013728E-01
        2   -1    0    0  501    0  0.00000000000E+00  0.00000000000E+00  0.31156391793E+04  0.31156391793E+04  0.25500000920E-02 0. -1.
       -2   -1    0    0    0  501  0.00000000000E+00  0.00000000000E+00 -0.12549940325E+04  0.12549940325E+04  0.25500000920E-02 0.  1.
    10030    2    1    2    0    0  0.00000000000E+00  0.00000000000E+00  0.18606451468E+04  0.43706332118E+04  0.39547988963E+04 0.  0.
        3    1    3    3  502    0 -0.13278514664E+04  0.11793501090E+04  0.18912617445E+04  0.25944030514E+04  0.10100000352E+00 0. -1.
       -3    1    3    3    0  502  0.13278514664E+04 -0.11793501090E+04 -0.30616597690E+02  0.17762301604E+04  0.10100000352E+00 0.  1.
</event>
<event>
 5   0  0.1095109E-07  0.4004235E+04  0.7818609E-02  0.8003693E-01
       -2   -1    0    0    0  501  0.00000000000E+00  0.00000000000E+00  0.26230900555E+04  0.26230900555E+04  0.25500000920E-02 0.  1.
        2   -1    0    0  501    0  0.00000000000E+00  0.00000000000E+00 -0.15281495773E+04  0.15281495773E+04  0.25500000920E-02 0. -1.
    10030    2    1    2    0    0  0.00000000000E+00  0.00000000000E+00  0.10949404782E+04  0.41512396329E+04  0.40042347382E+04 0.  0.
        4    1    3    3  502    0  0.10645662603E+04  0.60001979570E+03  0.21916147417E+04  0.25092831380E+04  0.12699999809E+01 0.  1.
       -4    1    3    3    0  502 -0.10645662603E+04 -0.60001979570E+03 -0.10966742635E+04  0.16419564948E+04  0.12699999809E+01 0. -1.
</event>
<event>
 5   0  0.3399500E-08  0.3501609E+04  0.7818609E-02  0.8113409E-01
        1   -1    0    0  501    0  0.00000000000E+00  0.00000000000E+00  0.18938454324E+04  0.18938454324E+04  0.50400001928E-02 0. -1.
       -1   -1    0    0    0  501  0.00000000000E+00  0.00000000000E+00 -0.16185672247E+04  0.16185672247E+04  0.50400001928E-02 0.  1.
    10030    2    1    2    0    0  0.00000000000E+00  0.00000000000E+00  0.27527820772E+03  0.35124126571E+04  0.35016088563E+04 0.  0.
        1    1    3    3  502    0 -0.10243685908E+04  0.72416364145E+03  0.13627066509E+04  0.18522185092E+04  0.50400001928E-02 0. -1.
       -1    1    3    3    0  502  0.10243685908E+04 -0.72416364145E+03 -0.10874284432E+04  0.16601941479E+04  0.50400001928E-02 0.  1.
</event>
<event>
 5   0  0.1095109E-07  0.3961389E+04  0.7818609E-02  0.8012381E-01
        2   -1    0    0  501    0  0.00000000000E+00  0.00000000000E+00  0.16849333421E+04  0.16849333421E+04  0.25500000920E-02 0. -1.
       -2   -1    0    0    0  501  0.00000000000E+00  0.00000000000E+00 -0.23283716900E+04  0.23283716900E+04  0.25500000920E-02 0.  1.
    10030    2    1    2    0    0  0.00000000000E+00  0.00000000000E+00 -0.64343834792E+03  0.40133050321E+04  0.39613891974E+04 0.  0.
        4    1    3    3  502    0 -0.14031311474E+04 -0.13968562112E+04 -0.37871649859E+03  0.20157906863E+04  0.12699999809E+01 0.  1.
       -4    1    3    3    0  502  0.14031311474E+04  0.13968562112E+04 -0.26472184932E+03  0.19975143459E+04  0.12699999809E+01 0. -1.
</event>
<event>
 5   0  0.3399500E-08  0.4011900E+04  0.7818609E-02  0.8002150E-01
       -1   -1    0    0    0  501  0.00000000000E+00  0.00000000000E+00  0.22590044460E+04  0.22590044460E+04  0.50400001928E-02 0.  1.
        1   -1    0    0  501    0  0.00000000000E+00  0.00000000000E+00 -0.17812429632E+04  0.17812429632E+04  0.50400001928E-02 0. -1.
    10030    2    1    2    0    0  0.00000000000E+00  0.00000000000E+00  0.47776148283E+03  0.40402474092E+04  0.40119001848E+04 0.  0.
        3    1    3    3  502    0 -0.10060975443E+04 -0.11040432306E+03 -0.15052381081E+04  0.18138806894E+04  0.10100000352E+00 0. -1.
       -3    1    3    3    0  502  0.10060975443E+04  0.11040432306E+03  0.19829995909E+04  0.22263667198E+04  0.10100000352E+00 0.  1.
</event>
<event>
 5   0  0.1095903E-07  0.4162598E+04  0.7818609E-02  0.7972525E-01
        2   -1    0    0  501    0  0.00000000000E+00  0.00000000000E+00  0.22681229010E+04  0.22681229010E+04  0.25500000920E-02 0.  1.
       -2   -1    0    0    0  501  0.00000000000E+00  0.00000000000E+00 -0.19098635192E+04  0.19098635192E+04  0.25500000920E-02 0. -1.
    10030    2    1    2    0    0  0.00000000000E+00  0.00000000000E+00  0.35825938173E+03  0.41779864202E+04  0.41625978358E+04 0.  0.
        3    1    3    3  502    0  0.10399245143E+04  0.68235736642E+03  0.18540560734E+04  0.22326169633E+04  0.10100000352E+00 0.  1.
       -3    1    3    3    0  502 -0.10399245143E+04 -0.68235736642E+03 -0.14957966917E+04  0.19453694570E+04  0.10100000352E+00 0. -1.
</event>
<event>
 5   0  0.1095903E-07  0.3984250E+04  0.7818609E-02  0.8007731E-01
       -2   -1    0    0    0  501  0.00000000000E+00  0.00000000000E+00  0.12622535733E+04  0.12622535733E+04  0.25500000920E-02 0.  1.
        2   -1    0    0  501    0  0.00000000000E+00  0.00000000000E+00 -0.31440293218E+04  0.31440293218E+04  0.25500000920E-02 0. -1.
    10030    2    1    2    0    0  0.00000000000E+00  0.00000000000E+00 -0.18817757485E+04  0.44062828951E+04  0.39842501156E+04 0.  0.
        3    1    3    3  502    0 -0.12766553811E+04  0.97748650878E+03 -0.22415770197E+04  0.27586221891E+04  0.10100000352E+00 0. -1.
       -3    1    3    3    0  502  0.12766553811E+04 -0.97748650878E+03  0.35980127117E+03  0.16476607059E+04  0.10100000352E+00 0.  1.
</event>
<event>
 5   0  0.3399500E-08  0.3880399E+04  0.7818609E-02  0.8029118E-01
        1   -1    0    0  501    0  0.00000000000E+00  0.00000000000E+00  0.10302265372E+04  0.10302265372E+04  0.50400001928E-02 0.  1.
       -1   -1    0    0    0  501  0.00000000000E+00  0.00000000000E+00 -0.36539294354E+04  0.36539294355E+04  0.50400001928E-02 0. -1.
    10030    2    1    2    0    0  0.00000000000E+00  0.00000000000E+00 -0.26237028982E+04  0.46841559727E+04  0.38803994998E+04 0.  0.
        1    1    3    3  502    0  0.57221728535E+03 -0.15716072660E+04 -0.24988948118E+04  0.30069681243E+04  0.50400001928E-02 0. -1.
       -1    1    3    3    0  502 -0.57221728535E+03  0.15716072660E+04 -0.12480808643E+03  0.16771878483E+04  0.50400001928E-02 0.  1.
</event>
<event>
 5   0  0.3399500E-08  0.3983767E+04  0.7818609E-02  0.8007829E-01
       -1   -1    0    0    0  501  0.00000000000E+00  0.00000000000E+00  0.19308413763E+04  0.19308413763E+04  0.50400001928E-02 0.  1.
        1   -1    0    0  501    0  0.00000000000E+00  0.00000000000E+00 -0.20548549804E+04  0.20548549804E+04  0.50400001928E-02 0. -1.
    10030    2    1    2    0    0  0.00000000000E+00  0.00000000000E+00 -0.12401360411E+03  0.39856963567E+04  0.39837665687E+04 0.  0.
        1    1    3    3  502    0 -0.80393768251E+03  0.10528326014E+04  0.14262710945E+04  0.19465409112E+04  0.50400001928E-02 0.  1.
       -1    1    3    3    0  502  0.80393768251E+03 -0.10528326014E+04 -0.15502846986E+04  0.20391554455E+04  0.50400001928E-02 0. -1.
</event>
<event>
 5   0  0.1073271E-07  0.3969001E+04  0.7818609E-02  0.8010829E-01
       -2   -1    0    0    0  501  0.00000000000E+00  0.00000000000E+00  0.15521313409E+04  0.15521313409E+04  0.25500000920E-02 0. -1.
        2   -1    0    0  501    0  0.00000000000E+00  0.00000000000E+00 -0.25373129378E+04  0.25373129379E+04  0.25500000920E-02 0.  1.
    10030    2    1    2    0    0  0.00000000000E+00  0.00000000000E+00 -0.98518159697E+03  0.40894442787E+04  0.39690013517E+04 0.  0.
        1    1    3    3  502    0 -0.11095116112E+04 -0.38968156957E+03 -0.21396544587E+04  0.24415136583E+04  0.50400001928E-02 0.  1.
       -1    1    3    3    0  502  0.11095116112E+04  0.38968156957E+03  0.11544728618E+04  0.16479306204E+04  0.50400001928E-02 0. -1.
</event>
<event>
 5   0  0.3399500E-08  0.4018631E+04  0.7818609E-02  0.8000799E-01
       -1   -1    0    0    0  501  0.00000000000E+00  0.00000000000E+00  0.20516749908E+04  0.20516749908E+04  0.50400001928E-02 0.  1.
        1   -1    0    0  501    0  0.00000000000E+00  0.00000000000E+00 -0.19678305488E+04  0.19678305488E+04  0.50400001928E-02 0. -1.
    10030    2    1    2    0    0  0.00000000000E+00  0.00000000000E+00  0.83844442001E+02  0.40195055396E+04  0.40186309724E+04 0.  0.
        4    1    3    3  502    0  0.41070347349E+03 -0.18072151780E+04 -0.73454761118E+03  0.19935560811E+04  0.12699999809E+01 0. -1.
       -4    1    3    3    0  502 -0.41070347349E+03  0.18072151780E+04  0.81839205318E+03  0.20259494585E+04  0.12699999809E+01 0.  1.
</event>
<event>
 5   0  0.1101474E-07  0.4019383E+04  0.7818609E-02  0.8000648E-01
       -2   -1    0    0    0  501  0.00000000000E+00  0.00000000000E+00  0.14896068238E+04  0.14896068238E+04  0.25500000920E-02 0.  1.
        2   -1    0    0  501    0  0.00000000000E+00  0.00000000000E+00 -0.27113597661E+04  0.27113597661E+04  0.25500000920E-02 0. -1.
    10030    2    1    2    0    0  0.00000000000E+00  0.00000000000E+00 -0.12217529423E+04  0.42009665898E+04  0.40193830418E+04 0.  0.
        5    1    3    3  502    0  0.14382768742E+04  0.13920513204E+04 -0.42277169554E+03  0.20457774176E+04  0.46999998093E+01 0.  1.
       -5    1    3    3    0  502 -0.14382768742E+04 -0.13920513204E+04 -0.79898124678E+03  0.21551891723E+04  0.46999998093E+01 0. -1.
</event>
<event>
 5   0  0.3399500E-08  0.4045383E+04  0.7818609E-02  0.7995453E-01
       -1   -1    0    0    0  501  0.00000000000E+00  0.00000000000E+00  0.27419327760E+04  0.27419327760E+04  0.50400001928E-02 0. -1.
        1   -1    0    0  501    0  0.00000000000E+00  0.00000000000E+00 -0.14921158184E+04  0.14921158184E+04  0.50400001928E-02 0.  1.
    10030    2    1    2    0    0  0.00000000000E+00  0.00000000000E+00  0.12498169576E+04  0.42340485945E+04  0.40453831800E+04 0.  0.
        2    1    3    3  502    0  0.32556694600E+03  0.16812257297E+04  0.17515722322E+04  0.24495956962E+04  0.25500000920E-02 0. -1.
       -2    1    3    3    0  502 -0.32556694600E+03 -0.16812257297E+04 -0.50175527462E+03  0.17844528982E+04  0.25500000920E-02 0.  1.
</event>
<event>
 5   0  0.3399500E-08  0.3994142E+04  0.7818609E-02  0.8005729E-01
        1   -1    0    0  501    0  0.00000000000E+00  0.00000000000E+00  0.19310568863E+04  0.19310568863E+04  0.50400001928E-02 0.  1.
       -1   -1    0    0    0  501  0.00000000000E+00  0.00000000000E+00 -0.20653415366E+04  0.20653415366E+04  0.50400001928E-02 0. -1.
    10030    2    1    2    0    0  0.00000000000E+00  0.00000000000E+00 -0.13428465027E+03  0.39963984229E+04  0.39941417084E+04 0.  0.
        5    1    3    3  502    0 -0.17870080547E+04 -0.45530400537E+03  0.69982216627E+03  0.19724281177E+04  0.46999998093E+01 0.  1.
       -5    1    3    3    0  502  0.17870080547E+04  0.45530400537E+03 -0.83410681655E+03  0.20239703052E+04  0.46999998093E+01 0. -1.
</event>
<event>
 5   0  0.3399500E-08  0.4003497E+04  0.7818609E-02  0.8003841E-01
       -1   -1    0    0    0  501  0.00000000000E+00  0.00000000000E+00  0.17453939078E+04  0.17453939078E+04  0.50400001928E-02 0. -1.
        1   -1    0    0  501    0  0.00000000000E+00  0.00000000000E+00 -0.22957555887E+04  0.22957555887E+04  0.50400001928E-02 0.  1.
    10030    2    1    2    0    0  0.00000000000E+00  0.00000000000E+00 -0.55036168089E+03  0.40411494965E+04  0.40034973802E+04 0.  0.
        3    1    3    3  502    0 -0.13094562794E+04 -0.12402845119E+04 -0.11516885921E+04  0.21399458034E+04  0.10100000352E+00 0.  1.
       -3    1    3    3    0  502  0.13094562794E+04  0.12402845119E+04  0.60132691124E+03  0.19012036931E+04  0.10100000352E+00 0. -1.
</event>
<event>
 5   0  0.1101474E-07  0.3997668E+04  0.7818609E-02  0.8005017E-01
        2   -1    0    0  501    0  0.00000000000E+00  0.00000000000E+00  0.20000752565E+04  0.20000752565E+04  0.25500000920E-02 0.  1.
       -2   -1    0    0    0  501  0.00000000000E+00  0.00000000000E+00 -0.19975938029E+04  0.19975938029E+04  0.25500000920E-02 0. -1.
    10030    2    1    2    0    0  0.00000000000E+00  0.00000000000E+00  0.24814535781E+01  0.39976690593E+04  0.39976682892E+04 0.  0.
        5    1    3    3  502    0  0.72927853460E+03  0.55129795907E+03  0.17787503454E+04  0.19999378745E+04  0.46999998093E+01 0.  1.
       -5    1    3    3    0  502 -0.72927853460E+03 -0.55129795907E+03 -0.17762688918E+04  0.19977311848E+04  0.46999998093E+01 0. -1.
</event>
<event>
 5   0  0.3399500E-08  0.4011458E+04  0.7818609E-02  0.8002239E-01
       -1   -1    0    0    0  501  0.00000000000E+00  0.00000000000E+00  0.34176765628E+04  0.34176765628E+04  0.50400001928E-02 0. -1.
        1   -1    0    0  501    0  0.00000000000E+00  0.00000000000E+00 -0.11771003639E+04  0.11771003639E+04  0.50400001928E-02 0.  1.
    10030    2    1    2    0    0  0.00000000000E+00  0.00000000000E+00  0.22405761990E+04  0.45947769267E+04  0.40114577529E+04 0.  0.
        2    1    3    3  502    0 -0.10305600120E+04 -0.13020966009E+04 -0.16820704708E+03  0.16690725290E+04  0.25500000920E-02 0.  1.
       -2    1    3    3    0  502  0.10305600120E+04  0.13020966009E+04  0.24087832460E+04  0.29257043977E+04  0.25500000920E-02 0. -1.
</event>
<event>
 5   0  0.3399500E-08  0.4020143E+04  0.7818609E-02  0.8000495E-01
       -1   -1    0    0    0  501  0.00000000000E+00  0.00000000000E+00  0.15167754468E+04  0.15167754468E+04  0.50400001928E-02 0.  1.
        1   -1    0    0  501    0  0.00000000000E+00  0.00000000000E+00 -0.26638009101E+04  0.26638009101E+04  0.50400001928E-02 0. -1.
    10030    2    1    2    0    0  0.00000000000E+00  0.00000000000E+00 -0.11470254633E+04  0.41805763569E+04  0.40201431893E+04 0.  0.
        3    1    3    3  502    0 -0.11386041139E+04 -0.10540221653E+04  0.75537562209E+03  0.17256808494E+04  0.10100000352E+00 0.  1.
       -3    1    3    3    0  502  0.11386041139E+04  0.10540221653E+04 -0.19024010854E+04  0.24548955076E+04  0.10100000352E+00 0. -1.
</event>
<event>
 5   0  0.1095903E-07  0.3526395E+04  0.7818609E-02  0.8107563E-01
       -2   -1    0    0    0  501  0.00000000000E+00  0.00000000000E+00  0.12199471778E+04  0.12199471778E+04  0.25500000920E-02 0. -1.
        2   -1    0    0  501    0  0.00000000000E+00  0.00000000000E+00 -0.25483613980E+04  0.25483613980E+04  0.25500000920E-02 0.  1.
    10030    2    1    2    0    0  0.00000000000E+00  0.00000000000E+00 -0.13284142202E+04  0.37683085758E+04  0.35263954942E+04 0.  0.
        3    1    3    3  502    0 -0.53242829518E+03 -0.14820312023E+04 -0.15116889012E+04  0.21829108361E+04  0.10100000352E+00 0.  1.
       -3    1    3    3    0  502  0.53242829518E+03  0.14820312023E+04  0.18327468092E+03  0.15853977397E+04  0.10100000352E+00 0. -1.
</event>
<event>
 5   0  0.1101474E-07  0.4019437E+04  0.7818609E-02  0.8000637E-01
       -2   -1    0    0    0  501  0.00000000000E+00  0.00000000000E+00  0.30415053361E+04  0.30415053361E+04  0.25500000920E-02 0. -1.
        2   -1    0    0  501    0  0.00000000000E+00  0.00000000000E+00 -0.13279507001E+04  0.13279507001E+04  0.25500000920E-02 0.  1.
    10030    2    1    2    0    0  0.00000000000E+00  0.00000000000E+00  0.17135546360E+04  0.43694560362E+04  0.40194373439E+04 0.  0.
        5    1    3    3  502    0  0.13775971653E+04  0.43781305373E+03 -0.66105198164E+03  0.15894860906E+04  0.46999998093E+01 0.  1.
       -5    1    3    3    0  502 -0.13775971653E+04 -0.43781305373E+03  0.23746066176E+04  0.27799699456E+04  0.46999998093E+01 0. -1.
</event>
<event>
 5   0  0.1073271E-07  0.3902160E+04  0.7818609E-02  0.8024580E-01
       -2   -1    0    0    0  501  0.00000000000E+00  0.00000000000E+00  0.20606341550E+04  0.20606341550E+04  0.25500000920E-02 0. -1.
        2   -1    0    0  501    0  0.00000000000E+00  0.00000000000E+00 -0.18473501668E+04  0.18473501668E+04  0.25500000920E-02 0.  1.
    10030    2    1    2    0    0  0.00000000000E+00  0.00000000000E+00  0.21328398817E+03  0.39079843218E+04  0.39021598378E+04 0.  0.
        1    1    3    3  502    0 -0.12959998653E+04 -0.14568014969E+04  0.37064575553E+02  0.19501948710E+04  0.50400001928E-02 0. -1.
       -1    1    3    3    0  502  0.12959998653E+04  0.14568014969E+04  0.17621941262E+03  0.19577894508E+04  0.50400001928E-02 0.  1.
</event>
<event>
 5   0  0.3399500E-08  0.3967483E+04  0.7818609E-02  0.8011139E-01
        1   -1    0    0  501    0  0.00000000000E+00  0.00000000000E+00  0.24401058998E+04  0.24401058998E+04  0.50400001928E-02 0.  1.
       -1   -1    0    0    0  501  0.00000000000E+00  0.00000000000E+00 -0.16127293691E+04  0.16127293691E+04  0.50400001928E-02 0. -1.
    10030    2    1    2    0    0  0.00000000000E+00  0.00000000000E+00  0.82737653074E+03  0.40528352689E+04  0.39674830552E+04 0.  0.
        4    1    3    3  502    0  0.16062865818E+04 -0.10520723343E+04 -0.95242618566E+02  0.19225206238E+04  0.12699999809E+01 0. -1.
       -4    1    3    3    0  502 -0.16062865818E+04  0.10520723343E+04  0.92261914931E+03  0.21303146451E+04  0.12699999809E+01 0.  1.
</event>
<event>
 5   0  0.3399500E-08  0.4047600E+04  0.7818609E-02  0.7995012E-01
        1   -1    0    0  501    0  0.00000000000E+00  0.00000000000E+00  0.31874231729E+04  0.31874231729E+04  0.50400001928E-02 0. -1.
       -1   -1    0    0    0  501  0.00000000000E+00  0.00000000000E+00 -0.12849775973E+04  0.12849775973E+04  0.50400001928E-02 0.  1.
    10030    2    1    2    0    0  0.00000000000E+00  0.00000000000E+00  0.19024455756E+04  0.44724007702E+04  0.40476004597E+04 0.  0.
        5    1    3    3  502    0  0.34761127343E+03 -0.48205052167E+03  0.30888218147E+04  0.31454806621E+04  0.46999998093E+01 0. -1.
       -5    1    3    3    0  502 -0.34761127343E+03  0.48205052167E+03 -0.11863762390E+04  0.13269201081E+04  0.46999998093E+01 0.  1.
</event>
<event>
 5   0  0.3399500E-08  0.4003804E+04  0.7818609E-02  0.8003780E-01
       -1   -1    0    0    0  501  0.00000000000E+00  0.00000000000E+00  0.16641300116E+04  0.16641300116E+04  0.50400001928E-02 0. -1.
        1   -1    0    0  501    0  0.00000000000E+00  0.00000000000E+00 -0.24082320033E+04  0.24082320033E+04  0.50400001928E-02 0.  1.
    10030    2    1    2    0    0  0.00000000000E+00  0.00000000000E+00 -0.74410199171E+03  0.40723620149E+04  0.40038037673E+04 0.  0.
        3    1    3    3  502    0  0.84568812220E+03 -0.13189408031E+04 -0.16395098170E+04  0.22677710846E+04  0.10100000352E+00 0.  1.
       -3    1    3    3    0  502 -0.84568812220E+03  0.13189408031E+04  0.89540782524E+03  0.18045909303E+04  0.10100000352E+00 0. -1.
</event>
<event>
 5   0  0.1087688E-07  0.4012057E+04  0.7818609E-02  0.8002119E-01
        2   -1    0    0  501    0  0.00000000000E+00  0.00000000000E+00  0.28796879993E+04  0.28796879993E+04  0.25500000920E-02 0. -1.
       -2   -1    0    0    0  501  0.00000000000E+00  0.00000000000E+00 -0.13974255206E+04  0.13974255206E+04  0.25500000920E-02 0.  1.
    10030    2    1    2    0    0  0.00000000000E+00  0.00000000000E+00  0.14822624786E+04  0.42771135199E+04  0.40120565807E+04 0.  0.
        2    1    3    3  502    0 -0.98941618229E+03  0.17447921751E+04  0.77320873877E+03  0.21496734333E+04  0.25500000920E-02 0. -1.
       -2    1    3    3    0  502  0.98941618229E+03 -0.17447921751E+04  0.70905373987E+03  0.21274400866E+04  0.25500000920E-02 0.  1.
</event>
<event>
 5   0  0.3399500E-08  0.3976514E+04  0.7818609E-02  0.8009301E-01
        1   -1    0    0  501    0  0.00000000000E+00  0.00000000000E+00  0.26706035677E+04  0.26706035677E+04  0.50400001928E-02 0.  1.
       -1   -1    0    0    0  501  0.00000000000E+00  0.00000000000E+00 -0.14802515448E+04  0.14802515448E+04  0.50400001928E-02 0. -1.
    10030    2    1    2    0    0  0.00000000000E+00  0.00000000000E+00  0.11903520229E+04  0.41508551124E+04  0.39765135767E+04 0.  0.
        3    1    3    3  502    0  0.19525676360E+04 -0.33004371673E+03  0.78107330354E+03  0.21287378288E+04  0.10100000352E+00 0. -1.
       -3    1    3    3    0  502 -0.19525676360E+04  0.33004371673E+03  0.40927871936E+03  0.20221172836E+04  0.10100000352E+00 0.  1.
</event>
<event>
 5   0  0.3399500E-08  0.4014818E+04  0.7818609E-02  0.8001564E-01
        1   -1    0    0  501    0  0.00000000000E+00  0.00000000000E+00  0.26851498975E+04  0.26851498975E+04  0.50400001928E-02 0.  1.
       -1   -1    0    0    0  501  0.00000000000E+00  0.00000000000E+00 -0.15007318991E+04  0.15007318991E+04  0.50400001928E-02 0. -1.
    10030    2    1    2    0    0  0.00000000000E+00  0.00000000000E+00  0.11844179984E+04  0.41858817966E+04  0.40148176073E+04 0.  0.
        2    1    3    3  502    0 -0.13808016517E+04  0.89553875434E+03 -0.60614985655E+03  0.17538587487E+04  0.25500000920E-02 0. -1.
       -2    1    3    3    0  502  0.13808016517E+04 -0.89553875434E+03  0.17905678549E+04  0.24320230478E+04  0.25500000920E-02 0.  1.
</event>
<event>
 5   0  0.3399500E-08  0.3972322E+04  0.7818609E-02  0.8010154E-01
       -1   -1    0    0    0  501  0.00000000000E+00  0.00000000000E+00  0.12587055626E+04  0.12587055626E+04  0.50400001928E-02 0.  1.
        1   -1    0    0  501    0  0.00000000000E+00  0.00000000000E+00 -0.31340412181E+04  0.31340412181E+04  0.50400001928E-02 0. -1.
    10030    2    1    2    0    0  0.00000000000E+00  0.00000000000E+00 -0.18753356555E+04  0.43927467808E+04  0.39723217970E+04 0.  0.
        4    1    3    3  502    0 -0.36243454038E+02  0.18279150274E+04 -0.17958488615E+04  0.25627449505E+04  0.12699999809E+01 0. -1.
       -4    1    3    3    0  502  0.36243454038E+02 -0.18279150274E+04 -0.79486794060E+02  0.18300018302E+04  0.12699999809E+01 0.  1.
</event>
<event>
 5   0  0.1073271E-07  0.3983824E+04  0.7818609E-02  0.8007818E-01
        2   -1    0    0  501    0  0.00000000000E+00  0.00000000000E+00  0.17412863235E+04  0.17412863235E+04  0.25500000920E-02 0.  1.
       -2   -1    0    0    0  501  0.00000000000E+00  0.00000000000E+00 -0.22786100939E+04  0.22786100939E+04  0.25500000920E-02 0. -1.
    10030    2    1    2    0    0  0.00000000000E+00  0.00000000000E+00 -0.53732377039E+03  0.40198964174E+04  0.39838235870E+04 0.  0.
        1    1    3    3  502    0  0.73542207922E+02  0.19109585441E+04  0.29364660744E+03  0.19347866403E+04  0.50400001928E-02 0.  1.
       -1    1    3    3    0  502 -0.73542207922E+02 -0.19109585441E+04 -0.83097037783E+03  0.20851097771E+04  0.50400001928E-02 0. -1.
</event>
<event>
 5   0  0.1095903E-07  0.3989281E+04  0.7818609E-02  0.8006712E-01
       -2   -1    0    0    0  501  0.00000000000E+00  0.00000000000E+00  0.29832355135E+04  0.29832355135E+04  0.25500000920E-02 0.  1.
        2   -1    0    0  501    0  0.00000000000E+00  0.00000000000E+00 -0.13336496937E+04  0.13336496937E+04  0.25500000920E-02 0. -1.
    10030    2    1    2    0    0  0.00000000000E+00  0.00000000000E+00  0.16495858198E+04  0.43168852073E+04  0.39892812029E+04 0.  0.
        3    1    3    3  502    0 -0.42787250612E+03  0.65964651469E+03 -0.11588807223E+04  0.14004331274E+04  0.10100000352E+00 0. -1.
       -3    1    3    3    0  502  0.42787250612E+03 -0.65964651469E+03  0.28084665420E+04  0.29164520798E+04  0.10100000352E+00 0.  1.
</event>
<event>
 5   0  0.3399500E-08  0.3985176E+04  0.7818609E-02  0.8007544E-01
        1   -1    0    0  501    0  0.00000000000E+00  0.00000000000E+00  0.30804563778E+04  0.30804563778E+04  0.50400001928E-02 0. -1.
       -1   -1    0    0    0  501  0.00000000000E+00  0.00000000000E+00 -0.12889024338E+04  0.12889024338E+04  0.50400001928E-02 0.  1.
    10030    2    1    2    0    0  0.00000000000E+00  0.00000000000E+00  0.17915539441E+04  0.43693588116E+04  0.39851763939E+04 0.  0.
        2    1    3    3  502    0 -0.11559668951E+04  0.20688989509E+02  0.26751007430E+04  0.29142497288E+04  0.25500000920E-02 0. -1.
       -2    1    3    3    0  502  0.11559668951E+04 -0.20688989509E+02 -0.88354679894E+03  0.14551090828E+04  0.25500000920E-02 0.  1.
</event>
<event>
 5   0  0.3399500E-08  0.4005022E+04  0.7818609E-02  0.8003534E-01
        3   -1    0    0  501    0  0.00000000000E+00  0.00000000000E+00  0.25853653094E+04  0.25853653114E+04  0.10100000352E+00 0.  1.
       -3   -1    0    0    0  501  0.00000000000E+00  0.00000000000E+00 -0.15510574686E+04  0.15510574719E+04  0.10100000352E+00 0. -1.
    10030    2    1    2    0    0  0.00000000000E+00  0.00000000000E+00  0.10343078408E+04  0.41364227834E+04  0.40050219392E+04 0.  0.
        4    1    3    3  502    0 -0.60932287973E+03 -0.18369571663E+04  0.10481850772E+04  0.22009951321E+04  0.12699999809E+01 0.  1.
       -4    1    3    3    0  502  0.60932287973E+03  0.18369571663E+04 -0.13877236382E+02  0.19354276512E+04  0.12699999809E+01 0. -1.
</event>
<event>
 5   0  0.1101474E-07  0.3985628E+04  0.7818609E-02  0.8007452E-01
        2   -1    0    0  501    0  0.00000000000E+00  0.00000000000E+00  0.17358996226E+04  0.17358996226E+04  0.25500000920E-02 0. -1.
       -2   -1    0    0    0  501  0.00000000000E+00  0.00000000000E+00 -0.22877522692E+04  0.22877522692E+04  0.25500000920E-02 0.  1.
    10030    2    1    2    0    0  0.00000000000E+00  0.00000000000E+00 -0.55185264664E+03  0.40236518918E+04  0.39856283322E+04 0.  0.
        5    1    3    3  502    0  0.97073408422E+02  0.12445999121E+04  0.12922226827E+04  0.17967508841E+04  0.46999998093E+01 0. -1.
       -5    1    3    3    0  502 -0.97073408422E+02 -0.12445999121E+04 -0.18440753293E+04  0.22269010077E+04  0.46999998093E+01 0.  1.
</event>
<event>
 5   0  0.1073271E-07  0.3997689E+04  0.7818609E-02  0.8005013E-01
       -2   -1    0    0    0  501  0.00000000000E+00  0.00000000000E+00  0.17582786113E+04  0.17582786113E+04  0.25500000920E-02 0.  1.
        2   -1    0    0  501    0  0.00000000000E+00  0.00000000000E+00 -0.22723239163E+04  0.22723239163E+04  0.25500000920E-02 0. -1.
    10030    2    1    2    0    0  0.00000000000E+00  0.00000000000E+00 -0.51404530507E+03  0.40306025276E+04  0.39976886021E+04 0.  0.
        1    1    3    3  502    0 -0.14364781474E+04 -0.13669536948E+04 -0.32628082052E+01  0.19829378502E+04  0.50400001928E-02 0.  1.
       -1    1    3    3    0  502  0.14364781474E+04  0.13669536948E+04 -0.51078249686E+03  0.20476646774E+04  0.50400001928E-02 0. -1.
</event>
<event>
 5   0  0.3399500E-08  0.3808571E+04  0.7818609E-02  0.8044318E-01
       -1   -1    0    0    0  501  0.00000000000E+00  0.00000000000E+00  0.16169050329E+04  0.16169050329E+04  0.50400001928E-02 0.  1.
        1   -1    0    0  501    0  0.00000000000E+00  0.00000000000E+00 -0.22427440119E+04  0.22427440119E+04  0.50400001928E-02 0. -1.
    10030    2    1    2    0    0  0.00000000000E+00  0.00000000000E+00 -0.62583897904E+03  0.38596490448E+04  0.38085714279E+04 0.  0.
        4    1    3    3  502    0 -0.21834120054E+03 -0.34382151277E+03  0.15722477734E+04  0.16241461715E+04  0.12699999809E+01 0.  1.
       -4    1    3    3    0  502  0.21834120054E+03  0.34382151277E+03 -0.21980867524E+04  0.22355028733E+04  0.12699999809E+01 0. -1.
</event>
<event>
 5   0  0.1095109E-07  0.4095197E+04  0.7818609E-02  0.7985613E-01
       -2   -1    0    0    0  501  0.00000000000E+00  0.00000000000E+00  0.19275270109E+04  0.19275270109E+04  0.25500000920E-02 0.  1.
        2   -1    0    0  501    0  0.00000000000E+00  0.00000000000E+00 -0.21751492151E+04  0.21751492151E+04  0.25500000920E-02 0. -1.
    10030    2    1    2    0    0  0.00000000000E+00  0.00000000000E+00 -0.24762220419E+03  0.41026762261E+04  0.40951966326E+04 0.  0.
        4    1    3    3  502    0 -0.30794926522E+03  0.53448446393E+03 -0.20798501703E+04  0.21693973209E+04  0.12699999809E+01 0. -1.
       -4    1    3    3    0  502  0.30794926522E+03 -0.53448446393E+03  0.18322279662E+04  0.19332789051E+04  0.12699999809E+01 0.  1.
</event>
<event>
 5   0  0.1073271E-07  0.3948519E+04  0.7818609E-02  0.8015013E-01
       -2   -1    0    0    0  501  0.00000000000E+00  0.00000000000E+00  0.18537487458E+04  0.18537487458E+04  0.25500000920E-02 0. -1.
        2   -1    0    0  501    0  0.00000000000E+00  0.00000000000E+00 -0.21026049167E+04  0.21026049167E+04  0.25500000920E-02 0.  1.
    10030    2    1    2    0    0  0.00000000000E+00  0.00000000000E+00 -0.24885617095E+03  0.39563536625E+04  0.39485193312E+04 0.  0.
        1    1    3    3  502    0 -0.11027262890E+04  0.11672067992E+04  0.10264693176E+04  0.19057849408E+04  0.50400001928E-02 0. -1.
       -1    1    3    3    0  502  0.11027262890E+04 -0.11672067992E+04 -0.12753254886E+04  0.20505687217E+04  0.50400001928E-02 0.  1.
</event>
<event>
 5   0  0.1101474E-07  0.3897010E+04  0.7818609E-02  0.8025651E-01
       -2   -1    0    0    0  501  0.00000000000E+00  0.00000000000E+00  0.14045123864E+04  0.14045123864E+04  0.25500000920E-02 0. -1.
        2   -1    0    0  501    0  0.00000000000E+00  0.00000000000E+00 -0.27031950879E+04  0.27031950879E+04  0.25500000920E-02 0.  1.
    10030    2    1    2    0    0  0.00000000000E+00  0.00000000000E+00 -0.12986827015E+04  0.41077074743E+04  0.38970096145E+04 0.  0.
        5    1    3    3  502    0  0.43166684985E+03  0.51006057360E+03  0.12799606357E+04  0.14438903618E+04  0.46999998093E+01 0. -1.
       -5    1    3    3    0  502 -0.43166684985E+03 -0.51006057360E+03 -0.25786433372E+04  0.26638171124E+04  0.46999998093E+01 0.  1.
</event>
<event>
 5   0  0.1101474E-07  0.3825958E+04  0.7818609E-02  0.8040607E-01
       -2   -1    0    0    0  501  0.00000000000E+00  0.00000000000E+00  0.13664726517E+04  0.13664726517E+04  0.25500000920E-02 0.  1.
        2   -1    0    0  501    0  0.00000000000E+00  0.00000000000E+00 -0.26780554042E+04  0.26780554042E+04  0.25500000920E-02 0. -1.
    10030    2    1    2    0    0  0.00000000000E+00  0.00000000000E+00 -0.13115827525E+04  0.40445280559E+04  0.38259584262E+04 0.  0.
        5    1    3    3  502    0 -0.73329574255E+03  0.26987142244E+03 -0.25016575177E+04  0.26208520860E+04  0.46999998093E+01 0. -1.
       -5    1    3    3    0  502  0.73329574255E+03 -0.26987142244E+03  0.11900747652E+04  0.14236759700E+04  0.46999998093E+01 0.  1.
</event>
<event>
 5   0  0.1101474E-07  0.3993286E+04  0.7818609E-02  0.8005902E-01
        2   -1    0    0  501    0  0.00000000000E+00  0.00000000000E+00  0.22979189726E+04  0.22979189726E+04  0.25500000920E-02 0.  1.
       -2   -1    0    0    0  501  0.00000000000E+00  0.00000000000E+00 -0.17348664333E+04  0.17348664333E+04  0.25500000920E-02 0. -1.
    10030    2    1    2    0    0  0.00000000000E+00  0.00000000000E+00  0.56305253931E+03  0.40327854059E+04  0.39932856106E+04 0.  0.
        5    1    3    3  502    0 -0.13644845018E+04 -0.11377430051E+04 -0.63868572770E+03  0.18879138354E+04  0.46999998093E+01 0. -1.
       -5    1    3    3    0  502  0.13644845018E+04  0.11377430051E+04  0.12017382670E+04  0.21448715704E+04  0.46999998093E+01 0.  1.
</event>
<event>
 5   0  0.3399500E-08  0.3942568E+04  0.7818609E-02  0.8016234E-01
       -1   -1    0    0    0  501  0.00000000000E+00  0.00000000000E+00  0.15549142747E+04  0.15549142747E+04  0.50400001928E-02 0.  1.
        1   -1    0    0  501    0  0.00000000000E+00  0.00000000000E+00 -0.24991481132E+04  0.24991481132E+04  0.50400001928E-02 0. -1.
    10030    2    1    2    0    0  0.00000000000E+00  0.00000000000E+00 -0.94423383858E+03  0.40540623879E+04  0.39425682370E+04 0.  0.
        5    1    3    3  502    0  0.47311464721E+03  0.14310105215E+04 -0.17786028338E+04  0.23313255269E+04  0.46999998093E+01 0. -1.
       -5    1    3    3    0  502 -0.47311464721E+03 -0.14310105215E+04  0.83436899520E+03  0.17227368610E+04  0.46999998093E+01 0.  1.
</event>
<event>
 5   0  0.1073271E-07  0.3965792E+04  0.7818609E-02  0.8011483E-01
        2   -1    0    0  501    0  0.00000000000E+00  0.00000000000E+00  0.14430836117E+04  0.14430836117E+04  0.25500000920E-02 0.  1.
       -2   -1    0    0    0  501  0.00000000000E+00  0.00000000000E+00 -0.27246358759E+04  0.27246358759E+04  0.25500000920E-02 0. -1.
    10030    2    1    2    0    0  0.00000000000E+00  0.00000000000E+00 -0.12815522642E+04  0.41677194876E+04  0.39657924204E+04 0.  0.
        1    1    3    3  502    0  0.31972905843E+03  0.18101040220E+04  0.14085065861E+03  0.18435135338E+04  0.50400001928E-02 0.  1.
       -1    1    3    3    0  502 -0.31972905843E+03 -0.18101040220E+04 -0.14224029228E+04  0.23242059539E+04  0.50400001928E-02 0. -1.
</event>
<event>
 5   0  0.3399500E-08  0.3974866E+04  0.7818609E-02  0.8009636E-01
       -1   -1    0    0    0  501  0.00000000000E+00  0.00000000000E+00  0.28552742490E+04  0.28552742490E+04  0.50400001928E-02 0. -1.
        1   -1    0    0  501    0  0.00000000000E+00  0.00000000000E+00 -0.13833661153E+04  0.13833661153E+04  0.50400001928E-02 0.  1.
    10030    2    1    2    0    0  0.00000000000E+00  0.00000000000E+00  0.14719081337E+04  0.42386403643E+04  0.39748658573E+04 0.  0.
        2    1    3    3  502    0  0.37409655281E+03  0.50600329622E+03  0.27462353148E+04  0.28174094432E+04  0.25500000920E-02 0. -1.
       -2    1    3    3    0  502 -0.37409655281E+03 -0.50600329622E+03 -0.12743271811E+04  0.14212309211E+04  0.25500000920E-02 0.  1.
</event>
<event>
 5   0  0.3399500E-08  0.3994607E+04  0.7818609E-02  0.8005635E-01
        1   -1    0    0  501    0  0.00000000000E+00  0.00000000000E+00  0.14176140650E+04  0.14176140651E+04  0.50400001928E-02 0.  1.
       -1   -1    0    0    0  501  0.00000000000E+00  0.00000000000E+00 -0.28140385572E+04  0.28140385572E+04  0.50400001928E-02 0. -1.
    10030    2    1    2    0    0  0.00000000000E+00  0.00000000000E+00 -0.13964244922E+04  0.42316526223E+04  0.39946066832E+04 0.  0.
        4    1    3    3  502    0  0.85515425687E+03  0.21561768881E+03  0.12001795102E+04  0.14893663956E+04  0.12699999809E+01 0.  1.
       -4    1    3    3    0  502 -0.85515425687E+03 -0.21561768881E+03 -0.25966040024E+04  0.27422862267E+04  0.12699999809E+01 0. -1.
</event>
<event>
 5   0  0.3399500E-08  0.4002256E+04  0.7818609E-02  0.8004092E-01
        1   -1    0    0  501    0  0.00000000000E+00  0.00000000000E+00  0.19661138667E+04  0.19661138667E+04  0.50400001928E-02 0.  1.
       -1   -1    0    0    0  501  0.00000000000E+00  0.00000000000E+00 -0.20367656084E+04  0.20367656084E+04  0.50400001928E-02 0. -1.
    10030    2    1    2    0    0  0.00000000000E+00  0.00000000000E+00 -0.70651741776E+02  0.40028794751E+04  0.40022559168E+04 0.  0.
        3    1    3    3  502    0 -0.13789158595E+04  0.39155521047E+02 -0.14852313509E+04  0.20270309022E+04  0.10100000352E+00 0. -1.
       -3    1    3    3    0  502  0.13789158595E+04 -0.39155521047E+02  0.14145796091E+04  0.19758485729E+04  0.10100000352E+00 0.  1.
</event>
<event>
 5   0  0.1073271E-07  0.3992011E+04  0.7818609E-02  0.8006160E-01
        2   -1    0    0  501    0  0.00000000000E+00  0.00000000000E+00  0.25256656115E+04  0.25256656115E+04  0.25500000920E-02 0. -1.
       -2   -1    0    0    0  501  0.00000000000E+00  0.00000000000E+00 -0.15774207328E+04  0.15774207328E+04  0.25500000920E-02 0.  1.
    10030    2    1    2    0    0  0.00000000000E+00  0.00000000000E+00  0.94824487872E+03  0.41030863443E+04  0.39920106712E+04 0.  0.
        1    1    3    3  502    0 -0.24289525422E+03 -0.11324732460E+03 -0.15588443189E+04  0.15817138400E+04  0.50400001928E-02 0.  1.
       -1    1    3    3    0  502  0.24289525422E+03  0.11324732460E+03  0.25070891976E+04  0.25213725043E+04  0.50400001928E-02 0. -1.
</event>
<event>
 5   0  0.3399500E-08  0.3991073E+04  0.7818609E-02  0.8006350E-01
       -1   -1    0    0    0  501  0.00000000000E+00  0.00000000000E+00  0.15820401844E+04  0.15820401844E+04  0.50400001928E-02 0.  1.
        1   -1    0    0  501    0  0.00000000000E+00  0.00000000000E+00 -0.25171075532E+04  0.25171075532E+04  0.50400001928E-02 0. -1.
    10030    2    1    2    0    0  0.00000000000E+00  0.00000000000E+00 -0.93506736883E+03  0.40991477377E+04  0.39910726867E+04 0.  0.
        4    1    3    3  502    0 -0.28747351659E+03  0.15595709298E+03 -0.24893932965E+04  0.25107855813E+04  0.12699999809E+01 0. -1.
       -4    1    3    3    0  502  0.28747351659E+03 -0.15595709298E+03  0.15543259277E+04  0.15883621564E+04  0.12699999809E+01 0.  1.
</event>
<event>
 5   0  0.3399500E-08  0.4090324E+04  0.7818609E-02  0.7986569E-01
        1   -1    0    0  501    0  0.00000000000E+00  0.00000000000E+00  0.14141051565E+04  0.14141051565E+04  0.50400001928E-02 0. -1.
       -1   -1    0    0    0  501  0.00000000000E+00  0.00000000000E+00 -0.29578331623E+04  0.29578331623E+04  0.50400001928E-02 0.  1.
    10030    2    1    2    0    0  0.00000000000E+00  0.00000000000E+00 -0.15437280058E+04  0.43719383188E+04  0.40903237656E+04 0.  0.
        4    1    3    3  502    0 -0.64782055952E+03 -0.44817080799E+02 -0.28447161363E+04  0.29178916288E+04  0.12699999809E+01 0.  1.
       -4    1    3    3    0  502  0.64782055952E+03  0.44817080799E+02  0.13009881305E+04  0.14540466900E+04  0.12699999809E+01 0. -1.
</event>
<event>
 5   0  0.3399500E-08  0.3983301E+04  0.7818609E-02  0.8007924E-01
       -1   -1    0    0    0  501  0.00000000000E+00  0.00000000000E+00  0.14737749980E+04  0.14737749980E+04  0.50400001928E-02 0.  1.
        1   -1    0    0  501    0  0.00000000000E+00  0.00000000000E+00 -0.26915043084E+04  0.26915043084E+04  0.50400001928E-02 0. -1.
    10030    2    1    2    0    0  0.00000000000E+00  0.00000000000E+00 -0.12177293104E+04  0.41652793064E+04  0.39833010214E+04 0.  0.
        5    1    3    3  502    0 -0.68665776572E+03 -0.34915156857E+03 -0.25294113771E+04  0.26441160545E+04  0.46999998093E+01 0. -1.
       -5    1    3    3    0  502  0.68665776572E+03  0.34915156857E+03  0.13116820667E+04  0.15211632520E+04  0.46999998093E+01 0.  1.
</event>
<event>
 5   0  0.1087688E-07  0.3931724E+04  0.7818609E-02  0.8018463E-01
       -2   -1    0    0    0  501  0.00000000000E+00  0.00000000000E+00  0.27984852151E+04  0.27984852151E+04  0.25500000920E-02 0. -1.
        2   -1    0    0  501    0  0.00000000000E+00  0.00000000000E+00 -0.13809658723E+04  0.13809658724E+04  0.25500000920E-02 0.  1.
    10030    2    1    2    0    0  0.00000000000E+00  0.00000000000E+00  0.14175193427E+04  0.41794510874E+04  0.39317235795E+04 0.  0.
        2    1    3    3  502    0 -0.16186678990E+04  0.11149787023E+04  0.66971237682E+03  0.20764821072E+04  0.25500000920E-02 0.  1.
       -2    1    3    3    0  502  0.16186678990E+04 -0.11149787023E+04  0.74780696591E+03  0.21029689803E+04  0.25500000920E-02 0. -1.
</event>
<event>
 5   0  0.1095109E-07  0.3959538E+04  0.7818609E-02  0.8012759E-01
       -2   -1    0    0    0  501  0.00000000000E+00  0.00000000000E+00  0.29346524310E+04  0.29346524310E+04  0.25500000920E-02 0. -1.
        2   -1    0    0  501    0  0.00000000000E+00  0.00000000000E+00 -0.13355873311E+04  0.13355873311E+04  0.25500000920E-02 0.  1.
    10030    2    1    2    0    0  0.00000000000E+00  0.00000000000E+00  0.15990650999E+04  0.42702397621E+04  0.39595376538E+04 0.  0.
        4    1    3    3  502    0 -0.66692328284E+03  0.13079988217E+04 -0.63277674955E+03  0.15987669031E+04  0.12699999809E+01 0.  1.
       -4    1    3    3    0  502  0.66692328284E+03 -0.13079988217E+04  0.22318418494E+04  0.26714728590E+04  0.12699999809E+01 0. -1.
</event>
<event>
 5   0  0.1101474E-07  0.4009430E+04  0.7818609E-02  0.8002647E-01
        2   -1    0    0  501    0  0.00000000000E+00  0.00000000000E+00  0.19297860465E+04  0.19297860465E+04  0.25500000920E-02 0. -1.
       -2   -1    0    0    0  501  0.00000000000E+00  0.00000000000E+00 -0.20825536584E+04  0.20825536584E+04  0.25500000920E-02 0.  1.
    10030    2    1    2    0    0  0.00000000000E+00  0.00000000000E+00 -0.15276761192E+03  0.40123397048E+04  0.40094303790E+04 0.  0.
        5    1    3    3  502    0  0.15440078319E+03  0.19162309248E+04  0.49243020546E+03  0.19845125740E+04  0.46999998093E+01 0.  1.
       -5    1    3    3    0  502 -0.15440078319E+03 -0.19162309248E+04 -0.64519781738E+03  0.20278271308E+04  0.46999998093E+01 0. -1.
</event>
<event>
 5   0  0.1095903E-07  0.3988939E+04  0.7818609E-02  0.8006782E-01
       -2   -1    0    0    0  501  0.00000000000E+00  0.00000000000E+00  0.25189503516E+04  0.25189503516E+04  0.25500000920E-02 0. -1.
        2   -1    0    0  501    0  0.00000000000E+00  0.00000000000E+00 -0.15791928277E+04  0.15791928277E+04  0.25500000920E-02 0.  1.
    10030    2    1    2    0    0  0.00000000000E+00  0.00000000000E+00  0.93975752395E+03  0.40981431793E+04  0.39889388707E+04 0.  0.
        3    1    3    3  502    0  0.53305463599E+03  0.17945403276E+04  0.11767454101E+04  0.22111653043E+04  0.10100000352E+00 0. -1.
       -3    1    3    3    0  502 -0.53305463599E+03 -0.17945403276E+04 -0.23698788612E+03  0.18869778750E+04  0.10100000352E+00 0.  1.
</event>
<event>
 5   0  0.1101474E-07  0.3971178E+04  0.7818609E-02  0.8010386E-01
       -2   -1    0    0    0  501  0.00000000000E+00  0.00000000000E+00  0.19436600123E+04  0.19436600123E+04  0.25500000920E-02 0. -1.
        2   -1    0    0  501    0  0.00000000000E+00  0.00000000000E+00 -0.20284222990E+04  0.20284222990E+04  0.25500000920E-02 0.  1.
    10030    2    1    2    0    0  0.00000000000E+00  0.00000000000E+00 -0.84762286684E+02  0.39720823113E+04  0.39711778155E+04 0.  0.
        5    1    3    3  502    0  0.26028149435E+02  0.19833571756E+04 -0.13272375176E+03  0.19879690226E+04  0.46999998093E+01 0.  1.
       -5    1    3    3    0  502 -0.26028149435E+02 -0.19833571756E+04  0.47961465076E+02  0.19841132887E+04  0.46999998093E+01 0. -1.
</event>
<event>
 5   0  0.1087688E-07  0.3993932E+04  0.7818609E-02  0.8005772E-01
        2   -1    0    0  501    0  0.00000000000E+00  0.00000000000E+00  0.22431800531E+04  0.22431800531E+04  0.25500000920E-02 0. -1.
       -2   -1    0    0    0  501  0.00000000000E+00  0.00000000000E+00 -0.17777768872E+04  0.17777768872E+04  0.25500000920E-02 0.  1.
    10030    2    1    2    0    0  0.00000000000E+00  0.00000000000E+00  0.46540316589E+03  0.40209569402E+04  0.39939322238E+04 0.  0.
        2    1    3    3  502    0 -0.22793208292E+03 -0.50584250441E+02  0.22293917643E+04  0.22415841361E+04  0.25500000920E-02 0. -1.
       -2    1    3    3    0  502  0.22793208292E+03  0.50584250441E+02 -0.17639885984E+04  0.17793728041E+04  0.25500000920E-02 0.  1.
</event>
<event>
 5   0  0.3399500E-08  0.4016786E+04  0.7818609E-02  0.8001169E-01
        1   -1    0    0  501    0  0.00000000000E+00  0.00000000000E+00  0.12368236634E+04  0.12368236634E+04  0.50400001928E-02 0. -1.
       -1   -1    0    0    0  501  0.00000000000E+00  0.00000000000E+00 -0.32612914496E+04  0.32612914496E+04  0.50400001928E-02 0.  1.
    10030    2    1    2    0    0  0.00000000000E+00  0.00000000000E+00 -0.20244677862E+04  0.44981151131E+04  0.40167859979E+04 0.  0.
        1    1    3    3  502    0  0.19927825320E+04 -0.18164435510E+03 -0.12044585617E+04  0.23355721609E+04  0.50400001928E-02 0.  1.
       -1    1    3    3    0  502 -0.19927825320E+04  0.18164435510E+03 -0.82000922452E+03  0.21625429522E+04  0.50400001928E-02 0. -1.
</event>
<event>
 5   0  0.3399500E-08  0.4012889E+04  0.7818609E-02  0.8001951E-01
       -1   -1    0    0    0  501  0.00000000000E+00  0.00000000000E+00  0.17839830561E+04  0.17839830561E+04  0.50400001928E-02 0.  1.
        1   -1    0    0  501    0  0.00000000000E+00  0.00000000000E+00 -0.22566466569E+04  0.22566466569E+04  0.50400001928E-02 0. -1.
    10030    2    1    2    0    0  0.00000000000E+00  0.00000000000E+00 -0.47266360076E+03  0.40406297130E+04  0.40128889342E+04 0.  0.
        4    1    3    3  502    0  0.11606307863E+04  0.16064685240E+04  0.78902461653E+02  0.19834394752E+04  0.12699999809E+01 0. -1.
       -4    1    3    3    0  502 -0.11606307863E+04 -0.16064685240E+04 -0.55156606242E+03  0.20571902378E+04  0.12699999809E+01 0.  1.
</event>
<event>
 5   0  0.1095109E-07  0.3991769E+04  0.7818609E-02  0.8006209E-01
       -2   -1    0    0    0  501  0.00000000000E+00  0.00000000000E+00  0.27602667380E+04  0.27602667380E+04  0.25500000920E-02 0. -1.
        2   -1    0    0  501    0  0.00000000000E+00  0.00000000000E+00 -0.14431777884E+04  0.14431777884E+04  0.25500000920E-02 0.  1.
    10030    2    1    2    0    0  0.00000000000E+00  0.00000000000E+00  0.13170889496E+04  0.42034445264E+04  0.39917693552E+04 0.  0.
        4    1    3    3  502    0 -0.17117226838E+04 -0.83867883081E+03  0.12816819628E+04  0.22969734422E+04  0.12699999809E+01 0. -1.
       -4    1    3    3    0  502  0.17117226838E+04  0.83867883081E+03  0.35406986773E+02  0.19064710842E+04  0.12699999809E+01 0.  1.
</event>
<event>
 5   0  0.1095109E-07  0.3995868E+04  0.7818609E-02  0.8005381E-01
       -2   -1    0    0    0  501  0.00000000000E+00  0.00000000000E+00  0.31049103003E+04  0.31049103003E+04  0.25500000920E-02 0.  1.
        2   -1    0    0  501    0  0.00000000000E+00  0.00000000000E+00 -0.12856218145E+04  0.12856218145E+04  0.25500000920E-02 0. -1.
    10030    2    1    2    0    0  0.00000000000E+00  0.00000000000E+00  0.18192884858E+04  0.43905321148E+04  0.39958680730E+04 0.  0.
        4    1    3    3  502    0 -0.18946085659E+03  0.25693157986E+03 -0.12574175863E+04  0.12973086958E+04  0.12699999809E+01 0. -1.
       -4    1    3    3    0  502  0.18946085659E+03 -0.25693157986E+03  0.30767060721E+04  0.30932234190E+04  0.12699999809E+01 0.  1.
</event>
<event>
 5   0  0.3399500E-08  0.4002565E+04  0.7818609E-02  0.8004029E-01
        1   -1    0    0  501    0  0.00000000000E+00  0.00000000000E+00  0.16757828705E+04  0.16757828705E+04  0.50400001928E-02 0. -1.
       -1   -1    0    0    0  501  0.00000000000E+00  0.00000000000E+00 -0.23900062017E+04  0.23900062017E+04  0.50400001928E-02 0.  1.
    10030    2    1    2    0    0  0.00000000000E+00  0.00000000000E+00 -0.71422333127E+03  0.40657890722E+04  0.40025649042E+04 0.  0.
        2    1    3    3  502    0  0.11528563305E+04  0.31053209252E+03 -0.19886024618E+04  0.23194929726E+04  0.25500000920E-02 0.  1.
       -2    1    3    3    0  502 -0.11528563305E+04 -0.31053209252E+03  0.12743791305E+04  0.17462960996E+04  0.25500000920E-02 0. -1.
</event>
<event>
 5   0  0.3399500E-08  0.4040121E+04  0.7818609E-02  0.7996501E-01
        1   -1    0    0  501    0  0.00000000000E+00  0.00000000000E+00  0.32972346142E+04  0.32972346142E+04  0.50400001928E-02 0. -1.
       -1   -1    0    0    0  501  0.00000000000E+00  0.00000000000E+00 -0.12375962299E+04  0.12375962299E+04  0.50400001928E-02 0.  1.
    10030    2    1    2    0    0  0.00000000000E+00  0.00000000000E+00  0.20596383843E+04  0.45348308441E+04  0.40401213485E+04 0.  0.
        2    1    3    3  502    0  0.34679636780E+03 -0.81500112639E+03  0.30676597589E+04  0.31929658553E+04  0.25500000920E-02 0. -1.
       -2    1    3    3    0  502 -0.34679636780E+03  0.81500112639E+03 -0.10080213746E+04  0.13418649889E+04  0.25500000920E-02 0.  1.
</event>
<event>
 5   0  0.1087688E-07  0.4008672E+04  0.7818609E-02  0.8002799E-01
        2   -1    0    0  501    0  0.00000000000E+00  0.00000000000E+00  0.27905817302E+04  0.27905817302E+04  0.25500000920E-02 0. -1.
       -2   -1    0    0    0  501  0.00000000000E+00  0.00000000000E+00 -0.14396148681E+04  0.14396148681E+04  0.25500000920E-02 0.  1.
    10030    2    1    2    0    0  0.00000000000E+00  0.00000000000E+00  0.13509668621E+04  0.42301965984E+04  0.40086720742E+04 0.  0.
        2    1    3    3  502    0 -0.16770296543E+04  0.10468864047E+04  0.10238209327E+04  0.22263442923E+04  0.25500000920E-02 0. -1.
       -2    1    3    3    0  502  0.16770296543E+04 -0.10468864047E+04  0.32714592945E+03  0.20038523061E+04  0.25500000920E-02 0.  1.
</event>
<event>
 5   0  0.1095903E-07  0.4001340E+04  0.7818609E-02  0.8004276E-01
        2   -1    0    0  501    0  0.00000000000E+00  0.00000000000E+00  0.25406554281E+04  0.25406554281E+04  0.25500000920E-02 0.  1.
       -2   -1    0    0    0  501  0.00000000000E+00  0.00000000000E+00 -0.15754515446E+04  0.15754515446E+04  0.25500000920E-02 0. -1.
    10030    2    1    2    0    0  0.00000000000E+00  0.00000000000E+00  0.96520388356E+03  0.41161069727E+04  0.40013395349E+04 0.  0.
        3    1    3    3  502    0  0.13337391309E+04  0.11682153897E+04  0.14360590186E+04  0.22816337964E+04  0.10100000352E+00 0.  1.
       -3    1    3    3    0  502 -0.13337391309E+04 -0.11682153897E+04 -0.47085513503E+03  0.18344731762E+04  0.10100000352E+00 0. -1.
</event>
<event>
 5   0  0.1087688E-07  0.3995207E+04  0.7818609E-02  0.8005514E-01
        2   -1    0    0  501    0  0.00000000000E+00  0.00000000000E+00  0.15142334864E+04  0.15142334864E+04  0.25500000920E-02 0.  1.
       -2   -1    0    0    0  501  0.00000000000E+00  0.00000000000E+00 -0.26352741397E+04  0.26352741397E+04  0.25500000920E-02 0. -1.
    10030    2    1    2    0    0  0.00000000000E+00  0.00000000000E+00 -0.11210406533E+04  0.41495076261E+04  0.39952073029E+04 0.  0.
        2    1    3    3  502    0  0.10945878788E+04  0.15542284097E+04 -0.11979595554E+04  0.22469658811E+04  0.25500000920E-02 0. -1.
       -2    1    3    3    0  502 -0.10945878788E+04 -0.15542284097E+04  0.76918902111E+02  0.19025417451E+04  0.25500000920E-02 0.  1.
</event>
<event>
 5   0  0.1073271E-07  0.3954527E+04  0.7818609E-02  0.8013783E-01
        2   -1    0    0  501    0  0.00000000000E+00  0.00000000000E+00  0.13665532487E+04  0.13665532487E+04  0.25500000920E-02 0. -1.
       -2   -1    0    0    0  501  0.00000000000E+00  0.00000000000E+00 -0.28608995375E+04  0.28608995375E+04  0.25500000920E-02 0.  1.
    10030    2    1    2    0    0  0.00000000000E+00  0.00000000000E+00 -0.14943462888E+04  0.42274527862E+04  0.39545273078E+04 0.  0.
        1    1    3    3  502    0  0.97051407602E+03  0.16086896830E+04 -0.88368274011E+02  0.18808479523E+04  0.50400001928E-02 0. -1.
       -1    1    3    3    0  502 -0.97051407602E+03 -0.16086896830E+04 -0.14059780148E+04  0.23466048338E+04  0.50400001928E-02 0.  1.
</event>
<event>
 5   0  0.3399500E-08  0.3540790E+04  0.7818609E-02  0.8104191E-01
        1   -1    0    0  501    0  0.00000000000E+00  0.00000000000E+00  0.24577412548E+04  0.24577412548E+04  0.50400001928E-02 0.  1.
       -1   -1    0    0    0  501  0.00000000000E+00  0.00000000000E+00 -0.12752759346E+04  0.12752759346E+04  0.50400001928E-02 0. -1.
    10030    2    1    2    0    0  0.00000000000E+00  0.00000000000E+00  0.11824653202E+04  0.37330171893E+04  0.35407898981E+04 0.  0.
        5    1    3    3  502    0 -0.56625634604E+03  0.23685073803E+03 -0.11595010182E+04  0.13119486357E+04  0.46999998093E+01 0. -1.
       -5    1    3    3    0  502  0.56625634604E+03 -0.23685073803E+03  0.23419663384E+04  0.24210685537E+04  0.46999998093E+01 0.  1.
</event>
<event>
 5   0  0.1101474E-07  0.3964783E+04  0.7818609E-02  0.8011689E-01
        2   -1    0    0  501    0  0.00000000000E+00  0.00000000000E+00  0.15604441613E+04  0.15604441613E+04  0.25500000920E-02 0. -1.
       -2   -1    0    0    0  501  0.00000000000E+00  0.00000000000E+00 -0.25184338370E+04  0.25184338370E+04  0.25500000920E-02 0.  1.
    10030    2    1    2    0    0  0.00000000000E+00  0.00000000000E+00 -0.95798967572E+03  0.40788779983E+04  0.39647826556E+04 0.  0.
        5    1    3    3  502    0  0.16341142015E+04 -0.37275857588E+03 -0.15680297837E+04  0.22952162582E+04  0.46999998093E+01 0.  1.
       -5    1    3    3    0  502 -0.16341142015E+04  0.37275857588E+03  0.61004010798E+03  0.17836617400E+04  0.46999998093E+01 0. -1.
</event>
<event>
 5   0  0.1095109E-07  0.4010440E+04  0.7818609E-02  0.8002444E-01
       -2   -1    0    0    0  501  0.00000000000E+00  0.00000000000E+00  0.25649660387E+04  0.25649660387E+04  0.25500000920E-02 0.  1.
        2   -1    0    0  501    0  0.00000000000E+00  0.00000000000E+00 -0.15676255927E+04  0.15676255927E+04  0.25500000920E-02 0. -1.
    10030    2    1    2    0    0  0.00000000000E+00  0.00000000000E+00  0.99734044601E+03  0.41325916315E+04  0.40104395803E+04 0.  0.
        4    1    3    3  502    0  0.61051754347E+03 -0.15242261841E+04 -0.68743527784E+03  0.17800466301E+04  0.12699999809E+01 0. -1.
       -4    1    3    3    0  502 -0.61051754347E+03  0.15242261841E+04  0.16847757238E+04  0.23525450014E+04  0.12699999809E+01 0.  1.
</event>
<event>
 5   0  0.1087688E-07  0.4011410E+04  0.7818609E-02  0.8002249E-01
        2   -1    0    0  501    0  0.00000000000E+00  0.00000000000E+00  0.22499749167E+04  0.22499749167E+04  0.25500000920E-02 0.  1.
       -2   -1    0    0    0  501  0.00000000000E+00  0.00000000000E+00 -0.17879548230E+04  0.17879548230E+04  0.25500000920E-02 0. -1.
    10030    2    1    2    0    0  0.00000000000E+00  0.00000000000E+00  0.46202009377E+03  0.40379297397E+04  0.40114104771E+04 0.  0.
        2    1    3    3  502    0  0.14571479769E+04 -0.12982804848E+04 -0.23469420180E+03  0.19656789698E+04  0.25500000920E-02 0. -1.
       -2    1    3    3    0  502 -0.14571479769E+04  0.12982804848E+04  0.69671429557E+03  0.20722507699E+04  0.25500000920E-02 0.  1.
</event>
<event>
 5   0  0.3399500E-08  0.3994881E+04  0.7818609E-02  0.8005580E-01
       -1   -1    0    0    0  501  0.00000000000E+00  0.00000000000E+00  0.16458075052E+04  0.16458075052E+04  0.50400001928E-02 0.  1.
        1   -1    0    0  501    0  0.00000000000E+00  0.00000000000E+00 -0.24242011516E+04  0.24242011516E+04  0.50400001928E-02 0. -1.
    10030    2    1    2    0    0  0.00000000000E+00  0.00000000000E+00 -0.77839364637E+03  0.40700086568E+04  0.39948809492E+04 0.  0.
        5    1    3    3  502    0  0.23506502179E+03  0.14910108346E+03 -0.24043373040E+04  0.24204021688E+04  0.46999998093E+01 0. -1.
       -5    1    3    3    0  502 -0.23506502179E+03 -0.14910108346E+03  0.16259436576E+04  0.16496064880E+04  0.46999998093E+01 0.  1.
</event>
<event>
 5   0  0.3399500E-08  0.3946143E+04  0.7818609E-02  0.8015500E-01
        1   -1    0    0  501    0  0.00000000000E+00  0.00000000000E+00  0.24008923234E+04  0.24008923234E+04  0.50400001928E-02 0.  1.
       -1   -1    0    0    0  501  0.00000000000E+00  0.00000000000E+00 -0.16214854287E+04  0.16214854287E+04  0.50400001928E-02 0. -1.
    10030    2    1    2    0    0  0.00000000000E+00  0.00000000000E+00  0.77940689478E+03  0.40223777521E+04  0.39461433923E+04 0.  0.
        5    1    3    3  502    0 -0.44382099486E+03 -0.10854884021E+04  0.20070920151E+04  0.23245865425E+04  0.46999998093E+01 0.  1.
       -5    1    3    3    0  502  0.44382099486E+03  0.10854884021E+04 -0.12276851203E+04  0.16977912096E+04  0.46999998093E+01 0. -1.
</event>
<event>
 5   0  0.1073271E-07  0.4016860E+04  0.7818609E-02  0.8001154E-01
        2   -1    0    0  501    0  0.00000000000E+00  0.00000000000E+00  0.27390300028E+04  0.27390300028E+04  0.25500000920E-02 0. -1.
       -2   -1    0    0    0  501  0.00000000000E+00  0.00000000000E+00 -0.14727075390E+04  0.14727075390E+04  0.25500000920E-02 0.  1.
    10030    2    1    2    0    0  0.00000000000E+00  0.00000000000E+00  0.12663224638E+04  0.42117375419E+04  0.40168595369E+04 0.  0.
        1    1    3    3  502    0  0.14858292632E+04 -0.13508449209E+04  0.67124896360E+03  0.21173204224E+04  0.50400001928E-02 0. -1.
       -1    1    3    3    0  502 -0.14858292632E+04  0.13508449209E+04  0.59507350020E+03  0.20944171195E+04  0.50400001928E-02 0.  1.
</event>
<event>
 5   0  0.1101474E-07  0.3991638E+04  0.7818609E-02  0.8006236E-01
       -2   -1    0    0    0  501  0.00000000000E+00  0.00000000000E+00  0.25684216884E+04  0.25684216884E+04  0.25500000920E-02 0. -1.
        2   -1    0    0  501    0  0.00000000000E+00  0.00000000000E+00 -0.15508718278E+04  0.15508718278E+04  0.25500000920E-02 0.  1.
    10030    2    1    2    0    0  0.00000000000E+00  0.00000000000E+00  0.10175498606E+04  0.41192935162E+04  0.39916376782E+04 0.  0.
        5    1    3    3  502    0  0.18002278976E+04  0.20571024368E+03 -0.35472453477E+03  0.18463447060E+04  0.46999998093E+01 0.  1.
       -5    1    3    3    0  502 -0.18002278976E+04 -0.20571024368E+03  0.13722743954E+04  0.22729488102E+04  0.46999998093E+01 0. -1.
</event>
<event>
 5   0  0.1101474E-07  0.4001166E+04  0.7818609E-02  0.8004311E-01
       -2   -1    0    0    0  501  0.00000000000E+00  0.00000000000E+00  0.13669743029E+04  0.13669743029E+04  0.25500000920E-02 0. -1.
        2   -1    0    0  501    0  0.00000000000E+00  0.00000000000E+00 -0.29278772813E+04  0.29278772813E+04  0.25500000920E-02 0.  1.
    10030    2    1    2    0    0  0.00000000000E+00  0.00000000000E+00 -0.15609029785E+04  0.42948515842E+04  0.40011663327E+04 0.  0.
        5    1    3    3  502    0  0.51194750664E+03 -0.80433668551E+03  0.11074094014E+04  0.14613094900E+04  0.46999998093E+01 0. -1.
       -5    1    3    3    0  502 -0.51194750664E+03  0.80433668551E+03 -0.26683123798E+04  0.28335420942E+04  0.46999998093E+01 0.  1.
</event>
<event>
 5   0  0.3399500E-08  0.4008421E+04  0.7818609E-02  0.8002850E-01
        1   -1    0    0  501    0  0.00000000000E+00  0.00000000000E+00  0.15536722605E+04  0.15536722605E+04  0.50400001928E-02 0.  1.
       -1   -1    0    0    0  501  0.00000000000E+00  0.00000000000E+00 -0.25853967268E+04  0.25853967268E+04  0.50400001928E-02 0. -1.
    10030    2    1    2    0    0  0.00000000000E+00  0.00000000000E+00 -0.10317244663E+04  0.41390689873E+04  0.40084207248E+04 0.  0.
        4    1    3    3  502    0 -0.65463062808E+03 -0.18793534053E+04 -0.76097452116E+03  0.21306323747E+04  0.12699999809E+01 0.  1.
       -4    1    3    3    0  502  0.65463062808E+03  0.18793534053E+04 -0.27074994518E+03  0.20084366126E+04  0.12699999809E+01 0. -1.
</event>
<event>
 5   0  0.3399500E-08  0.4021450E+04  0.7818609E-02  0.8000233E-01
       -1   -1    0    0    0  501  0.00000000000E+00  0.00000000000E+00  0.15301174412E+04  0.15301174412E+04  0.50400001928E-02 0.  1.
        1   -1    0    0  501    0  0.00000000000E+00  0.00000000000E+00 -0.26422910416E+04  0.26422910416E+04  0.50400001928E-02 0. -1.
    10030    2    1    2    0    0  0.00000000000E+00  0.00000000000E+00 -0.11121736004E+04  0.41724084828E+04  0.40214502894E+04 0.  0.
        4    1    3    3  502    0  0.47298804699E+03  0.49714917420E+03 -0.25170447915E+04  0.26089061097E+04  0.12699999809E+01 0. -1.
       -4    1    3    3    0  502 -0.47298804699E+03 -0.49714917420E+03  0.14048711911E+04  0.15635023731E+04  0.12699999809E+01 0.  1.
</event>
<event>
 5   0  0.3399500E-08  0.3809751E+04  0.7818609E-02  0.8044066E-01
        1   -1    0    0  501    0  0.00000000000E+00  0.00000000000E+00  0.18829883814E+04  0.18829883814E+04  0.50400001928E-02 0. -1.
       -1   -1    0    0    0  501  0.00000000000E+00  0.00000000000E+00 -0.19270169187E+04  0.19270169187E+04  0.50400001928E-02 0.  1.
    10030    2    1    2    0    0  0.00000000000E+00  0.00000000000E+00 -0.44028537348E+02  0.38100053001E+04  0.38097508941E+04 0.  0.
        2    1    3    3  502    0 -0.15552268477E+04  0.10448792730E+04 -0.36561722565E+03  0.19089733363E+04  0.25500000920E-02 0.  1.
       -2    1    3    3    0  502  0.15552268477E+04 -0.10448792730E+04  0.32158868830E+03  0.19010319638E+04  0.25500000920E-02 0. -1.
</event>
<event>
 5   0  0.1073271E-07  0.4001520E+04  0.7818609E-02  0.8004240E-01
       -2   -1    0    0    0  501  0.00000000000E+00  0.00000000000E+00  0.14336012802E+04  0.14336012802E+04  0.25500000920E-02 0. -1.
        2   -1    0    0  501    0  0.00000000000E+00  0.00000000000E+00 -0.27922965785E+04  0.27922965785E+04  0.25500000920E-02 0.  1.
    10030    2    1    2    0    0  0.00000000000E+00  0.00000000000E+00 -0.13586952982E+04  0.42258978587E+04  0.40015196862E+04 0.  0.
        1    1    3    3  502    0  0.15697136712E+04 -0.95416444287E+03 -0.15166540076E+04  0.23821566221E+04  0.50400001928E-02 0.  1.
       -1    1    3    3    0  502 -0.15697136712E+04  0.95416444287E+03  0.15795870944E+03  0.18437412366E+04  0.50400001928E-02 0. -1.
</event>
<event>
 5   0  0.1101474E-07  0.3994982E+04  0.7818609E-02  0.8005560E-01
       -2   -1    0    0    0  501  0.00000000000E+00  0.00000000000E+00  0.18147384799E+04  0.18147384799E+04  0.25500000920E-02 0. -1.
        2   -1    0    0  501    0  0.00000000000E+00  0.00000000000E+00 -0.21986471343E+04  0.21986471343E+04  0.25500000920E-02 0.  1.
    10030    2    1    2    0    0  0.00000000000E+00  0.00000000000E+00 -0.38390865440E+03  0.40133856143E+04  0.39949816313E+04 0.  0.
        5    1    3    3  502    0 -0.18695149287E+04 -0.75698629767E+02  0.51064664927E+03  0.19394840659E+04  0.46999998093E+01 0. -1.
       -5    1    3    3    0  502  0.18695149287E+04  0.75698629767E+02 -0.89455530367E+03  0.20739015484E+04  0.46999998093E+01 0.  1.
</event>
<event>
 5   0  0.1095903E-07  0.3888700E+04  0.7818609E-02  0.8027383E-01
        2   -1    0    0  501    0  0.00000000000E+00  0.00000000000E+00  0.22788562487E+04  0.22788562487E+04  0.25500000920E-02 0. -1.
       -2   -1    0    0    0  501  0.00000000000E+00  0.00000000000E+00 -0.16589450836E+04  0.16589450836E+04  0.25500000920E-02 0.  1.
    10030    2    1    2    0    0  0.00000000000E+00  0.00000000000E+00  0.61991116502E+03  0.39378013323E+04  0.38887002302E+04 0.  0.
        3    1    3    3  502    0 -0.18209294345E+04  0.68163226245E+03  0.30030566740E+03  0.19673815214E+04  0.10100000352E+00 0.  1.
       -3    1    3    3    0  502  0.18209294345E+04 -0.68163226245E+03  0.31960549762E+03  0.19704198109E+04  0.10100000352E+00 0. -1.
</event>
<event>
 5   0  0.3399500E-08  0.3984433E+04  0.7818609E-02  0.8007694E-01
        1   -1    0    0  501    0  0.00000000000E+00  0.00000000000E+00  0.18936949275E+04  0.18936949276E+04  0.50400001928E-02 0.  1.
       -1   -1    0    0    0  501  0.00000000000E+00  0.00000000000E+00 -0.20958634080E+04  0.20958634080E+04  0.50400001928E-02 0. -1.
    10030    2    1    2    0    0  0.00000000000E+00  0.00000000000E+00 -0.20216848045E+03  0.39895583356E+04  0.39844326595E+04 0.  0.
        1    1    3    3  502    0  0.17487437020E+04 -0.75879432161E+03 -0.68066610808E+03  0.20241491320E+04  0.50400001928E-02 0. -1.
       -1    1    3    3    0  502 -0.17487437020E+04  0.75879432161E+03  0.47849762763E+03  0.19654092036E+04  0.50400001928E-02 0.  1.
</event>
<event>
 5   0  0.1073271E-07  0.3958830E+04  0.7818609E-02  0.8012904E-01
       -2   -1    0    0    0  501  0.00000000000E+00  0.00000000000E+00  0.19555558141E+04  0.19555558141E+04  0.25500000920E-02 0.  1.
        2   -1    0    0  501    0  0.00000000000E+00  0.00000000000E+00 -0.20035657819E+04  0.20035657819E+04  0.25500000920E-02 0. -1.
    10030    2    1    2    0    0  0.00000000000E+00  0.00000000000E+00 -0.48009967824E+02  0.39591215961E+04  0.39588304909E+04 0.  0.
        1    1    3    3  502    0 -0.12473980977E+04  0.11261129776E+04  0.10219936541E+04  0.19668765801E+04  0.50400001928E-02 0.  1.
       -1    1    3    3    0  502  0.12473980977E+04 -0.11261129776E+04 -0.10700036219E+04  0.19922450159E+04  0.50400001928E-02 0. -1.
</event>
<event>
 5   0  0.3399500E-08  0.3896375E+04  0.7818609E-02  0.8025784E-01
       -1   -1    0    0    0  501  0.00000000000E+00  0.00000000000E+00  0.20302848621E+04  0.20302848621E+04  0.50400001928E-02 0.  1.
        1   -1    0    0  501    0  0.00000000000E+00  0.00000000000E+00 -0.18694099266E+04  0.18694099266E+04  0.50400001928E-02 0. -1.
    10030    2    1    2    0    0  0.00000000000E+00  0.00000000000E+00  0.16087493553E+03  0.38996947887E+04  0.38963750718E+04 0.  0.
        4    1    3    3  502    0  0.61039030231E+03 -0.46971005177E+03 -0.17105645256E+04  0.18759628096E+04  0.12699999809E+01 0. -1.
       -4    1    3    3    0  502 -0.61039030231E+03  0.46971005177E+03  0.18714394611E+04  0.20237319791E+04  0.12699999809E+01 0.  1.
</event>
<event>
 5   0  0.1095903E-07  0.3884139E+04  0.7818609E-02  0.8028336E-01
       -2   -1    0    0    0  501  0.00000000000E+00  0.00000000000E+00  0.22182119022E+04  0.22182119022E+04  0.25500000920E-02 0. -1.
        2   -1    0    0  501    0  0.00000000000E+00  0.00000000000E+00 -0.17003033382E+04  0.17003033382E+04  0.25500000920E-02 0.  1.
    10030    2    1    2    0    0  0.00000000000E+00  0.00000000000E+00  0.51790856407E+03  0.39185152404E+04  0.38841385671E+04 0.  0.
        3    1    3    3  502    0 -0.74853248409E+03  0.10486792447E+04 -0.12070426747E+04  0.17654973993E+04  0.10100000352E+00 0.  1.
       -3    1    3    3    0  502  0.74853248409E+03 -0.10486792447E+04  0.17249512388E+04  0.21530178412E+04  0.10100000352E+00 0. -1.
</event>
<event>
 5   0  0.1095109E-07  0.3978588E+04  0.7818609E-02  0.8008880E-01
       -2   -1    0    0    0  501  0.00000000000E+00  0.00000000000E+00  0.19607855805E+04  0.19607855805E+04  0.25500000920E-02 0. -1.
        2   -1    0    0  501    0  0.00000000000E+00  0.00000000000E+00 -0.20182167077E+04  0.20182167077E+04  0.25500000920E-02 0.  1.
    10030    2    1    2    0    0  0.00000000000E+00  0.00000000000E+00 -0.57431127225E+02  0.39790022881E+04  0.39785877990E+04 0.  0.
        4    1    3    3  502    0  0.15903253815E+04 -0.41373816714E+02 -0.12231774604E+04  0.20067414692E+04  0.12699999809E+01 0.  1.
       -4    1    3    3    0  502 -0.15903253815E+04  0.41373816714E+02  0.11657463332E+04  0.19722608189E+04  0.12699999809E+01 0. -1.
</event>
<event>
 5   0  0.3399500E-08  0.4019415E+04  0.7818609E-02  0.8000641E-01
        1   -1    0    0  501    0  0.00000000000E+00  0.00000000000E+00  0.21302978630E+04  0.21302978630E+04  0.50400001928E-02 0. -1.
       -1   -1    0    0    0  501  0.00000000000E+00  0.00000000000E+00 -0.18959430763E+04  0.18959430763E+04  0.50400001928E-02 0.  1.
    10030    2    1    2    0    0  0.00000000000E+00  0.00000000000E+00  0.23435478676E+03  0.40262409393E+04  0.40194146259E+04 0.  0.
        3    1    3    3  502    0 -0.55754034611E+03  0.19208248723E+04  0.31373512678E+03  0.20245614754E+04  0.10100000352E+00 0. -1.
       -3    1    3    3    0  502  0.55754034611E+03 -0.19208248723E+04 -0.79380340023E+02  0.20016794639E+04  0.10100000352E+00 0.  1.
</event>
<event>
 5   0  0.1073271E-07  0.3979692E+04  0.7818609E-02  0.8008656E-01
       -2   -1    0    0    0  501  0.00000000000E+00  0.00000000000E+00  0.23201465672E+04  0.23201465672E+04  0.25500000920E-02 0. -1.
        2   -1    0    0  501    0  0.00000000000E+00  0.00000000000E+00 -0.17065678358E+04  0.17065678358E+04  0.25500000920E-02 0.  1.
    10030    2    1    2    0    0  0.00000000000E+00  0.00000000000E+00  0.61357873132E+03  0.40267144030E+04  0.39796922021E+04 0.  0.
        1    1    3    3  502    0 -0.88489461678E+03  0.88034100287E+03 -0.12611815569E+04  0.17744344687E+04  0.50400001928E-02 0.  1.
       -1    1    3    3    0  502  0.88489461678E+03 -0.88034100287E+03  0.18747602882E+04  0.22522799343E+04  0.50400001928E-02 0. -1.
</event>
<event>
 5   0  0.3399500E-08  0.3978464E+04  0.7818609E-02  0.8008905E-01
        1   -1    0    0  501    0  0.00000000000E+00  0.00000000000E+00  0.21468189054E+04  0.21468189054E+04  0.50400001928E-02 0. -1.
       -1   -1    0    0    0  501  0.00000000000E+00  0.00000000000E+00 -0.18432125933E+04  0.18432125933E+04  0.50400001928E-02 0.  1.
    10030    2    1    2    0    0  0.00000000000E+00  0.00000000000E+00  0.30360631203E+03  0.39900314987E+04  0.39784638453E+04 0.  0.
        5    1    3    3  502    0  0.80406641705E+03 -0.17539382166E+04  0.63715185867E+03  0.20319465179E+04  0.46999998093E+01 0. -1.
       -5    1    3    3    0  502 -0.80406641705E+03  0.17539382166E+04 -0.33354554664E+03  0.19580849808E+04  0.46999998093E+01 0.  1.
</event>
<event>
 5   0  0.3399500E-08  0.3979296E+04  0.7818609E-02  0.8008736E-01
       -1   -1    0    0    0  501  0.00000000000E+00  0.00000000000E+00  0.14084815777E+04  0.14084815777E+04  0.50400001928E-02 0.  1.
        1   -1    0    0  501    0  0.00000000000E+00  0.00000000000E+00 -0.28106148888E+04  0.28106148888E+04  0.50400001928E-02 0. -1.
    10030    2    1    2    0    0  0.00000000000E+00  0.00000000000E+00 -0.14021333111E+04  0.42190964665E+04  0.39792960648E+04 0.  0.
        5    1    3    3  502    0 -0.72868662985E+03 -0.18269138423E+04 -0.38284881392E+03  0.20037948238E+04  0.46999998093E+01 0.  1.
       -5    1    3    3    0  502  0.72868662985E+03  0.18269138423E+04 -0.10192844971E+04  0.22153016426E+04  0.46999998093E+01 0. -1.
</event>
<event>
 5   0  0.3399500E-08  0.3994416E+04  0.7818609E-02  0.8005674E-01
        1   -1    0    0  501    0  0.00000000000E+00  0.00000000000E+00  0.22434326709E+04  0.22434326709E+04  0.50400001928E-02 0.  1.
       -1   -1    0    0    0  501  0.00000000000E+00  0.00000000000E+00 -0.17780070723E+04  0.17780070723E+04  0.50400001928E-02 0. -1.
    10030    2    1    2    0    0  0.00000000000E+00  0.00000000000E+00  0.46542559864E+03  0.40214397432E+04  0.39944156795E+04 0.  0.
        1    1    3    3  502    0 -0.10383856100E+04  0.29313356614E+03  0.19247579622E+04  0.22065505151E+04  0.50400001928E-02 0.  1.
       -1    1    3    3    0  502  0.10383856100E+04 -0.29313356614E+03 -0.14593323636E+04  0.18148892281E+04  0.50400001928E-02 0. -1.
</event>
<event>
 5   0  0.3399500E-08  0.3927829E+04  0.7818609E-02  0.8019266E-01
        1   -1    0    0  501    0  0.00000000000E+00  0.00000000000E+00  0.17978738951E+04  0.17978738951E+04  0.50400001928E-02 0.  1.
       -1   -1    0    0    0  501  0.00000000000E+00  0.00000000000E+00 -0.21452894525E+04  0.21452894525E+04  0.50400001928E-02 0. -1.
    10030    2    1    2    0    0  0.00000000000E+00  0.00000000000E+00 -0.34741555739E+03  0.39431633477E+04  0.39278288681E+04 0.  0.
        3    1    3    3  502    0 -0.11946576893E+04  0.11487329664E+04  0.88404961192E+03  0.18783871138E+04  0.10100000352E+00 0. -1.
       -3    1    3    3    0  502  0.11946576893E+04 -0.11487329664E+04 -0.12314651693E+04  0.20647762339E+04  0.10100000352E+00 0.  1.
</event>
<event>
 5   0  0.3399500E-08  0.4047537E+04  0.7818609E-02  0.7995025E-01
       -1   -1    0    0    0  501  0.00000000000E+00  0.00000000000E+00  0.22338923693E+04  0.22338923693E+04  0.50400001928E-02 0.  1.
        1   -1    0    0  501    0  0.00000000000E+00  0.00000000000E+00 -0.18334089177E+04  0.18334089177E+04  0.50400001928E-02 0. -1.
    10030    2    1    2    0    0  0.00000000000E+00  0.00000000000E+00  0.40048345161E+03  0.40673012870E+04  0.40475366291E+04 0.  0.
        5    1    3    3  502    0  0.52408526727E+03 -0.28183965298E+03  0.21439873389E+04  0.22250399450E+04  0.46999998093E+01 0.  1.
       -5    1    3    3    0  502 -0.52408526727E+03  0.28183965298E+03 -0.17435038873E+04  0.18422613420E+04  0.46999998093E+01 0. -1.
</event>
<event>
 5   0  0.3399500E-08  0.3989738E+04  0.7818609E-02  0.8006620E-01
        1   -1    0    0  501    0  0.00000000000E+00  0.00000000000E+00  0.12754864554E+04  0.12754864554E+04  0.50400001928E-02 0.  1.
       -1   -1    0    0    0  501  0.00000000000E+00  0.00000000000E+00 -0.31199883591E+04  0.31199883591E+04  0.50400001928E-02 0. -1.
    10030    2    1    2    0    0  0.00000000000E+00  0.00000000000E+00 -0.18445019037E+04  0.43954748144E+04  0.39897382836E+04 0.  0.
        4    1    3    3  502    0  0.13336038678E+04  0.66916448842E+03 -0.23809970467E+04  0.28098805914E+04  0.12699999809E+01 0. -1.
       -4    1    3    3    0  502 -0.13336038678E+04 -0.66916448842E+03  0.53649514299E+03  0.15855942230E+04  0.12699999809E+01 0.  1.
</event>
<event>
 5   0  0.3399500E-08  0.4017123E+04  0.7818609E-02  0.8001101E-01
       -1   -1    0    0    0  501  0.00000000000E+00  0.00000000000E+00  0.25734806296E+04  0.25734806297E+04  0.50400001928E-02 0.  1.
        1   -1    0    0  501    0  0.00000000000E+00  0.00000000000E+00 -0.15676511311E+04  0.15676511311E+04  0.50400001928E-02 0. -1.
    10030    2    1    2    0    0  0.00000000000E+00  0.00000000000E+00  0.10058294986E+04  0.41411317607E+04  0.40171232592E+04 0.  0.
        3    1    3    3  502    0  0.20412327800E+03 -0.40354016859E+03 -0.15144872150E+04  0.15805639863E+04  0.10100000352E+00 0. -1.
       -3    1    3    3    0  502 -0.20412327800E+03  0.40354016859E+03  0.25203167136E+04  0.25605677744E+04  0.10100000352E+00 0.  1.
</event>
<event>
 5   0  0.3399500E-08  0.4032802E+04  0.7818609E-02  0.7997962E-01
       -1   -1    0    0    0  501  0.00000000000E+00  0.00000000000E+00  0.20356415706E+04  0.20356415706E+04  0.50400001928E-02 0.  1.
        1   -1    0    0  501    0  0.00000000000E+00  0.00000000000E+00 -0.19973419049E+04  0.19973419049E+04  0.50400001928E-02 0. -1.
    10030    2    1    2    0    0  0.00000000000E+00  0.00000000000E+00  0.38299665682E+02  0.40329834755E+04  0.40328016129E+04 0.  0.
        3    1    3    3  502    0  0.95867724166E+03 -0.17233802353E+04  0.43960988622E+03  0.20204846823E+04  0.10100000352E+00 0.  1.
       -3    1    3    3    0  502 -0.95867724166E+03  0.17233802353E+04 -0.40131022054E+03  0.20124987932E+04  0.10100000352E+00 0. -1.
</event>
<event>
 5   0  0.3399500E-08  0.4095602E+04  0.7818609E-02  0.7985533E-01
        1   -1    0    0  501    0  0.00000000000E+00  0.00000000000E+00  0.30265001161E+04  0.30265001161E+04  0.50400001928E-02 0. -1.
       -1   -1    0    0    0  501  0.00000000000E+00  0.00000000000E+00 -0.13855902663E+04  0.13855902663E+04  0.50400001928E-02 0.  1.
    10030    2    1    2    0    0  0.00000000000E+00  0.00000000000E+00  0.16409098497E+04  0.44120903824E+04  0.40956020812E+04 0.  0.
        5    1    3    3  502    0 -0.16315167467E+03  0.15136692389E+04 -0.65492206785E+03  0.16573346188E+04  0.46999998093E+01 0.  1.
       -5    1    3    3    0  502  0.16315167467E+03 -0.15136692389E+04  0.22958319176E+04  0.27547557636E+04  0.46999998093E+01 0. -1.
</event>
<event>
 5   0  0.1095903E-07  0.3999349E+04  0.7818609E-02  0.8004678E-01
       -2   -1    0    0    0  501  0.00000000000E+00  0.00000000000E+00  0.30930591070E+04  0.30930591070E+04  0.25500000920E-02 0. -1.
        2   -1    0    0  501    0  0.00000000000E+00  0.00000000000E+00 -0.12927974329E+04  0.12927974329E+04  0.25500000920E-02 0.  1.
    10030    2    1    2    0    0  0.00000000000E+00  0.00000000000E+00  0.18002616741E+04  0.43858565399E+04  0.39993493838E+04 0.  0.
        3    1    3    3  502    0  0.48591641735E+03  0.12360325101E+04  0.25395316978E+04  0.28658528199E+04  0.10100000352E+00 0. -1.
       -3    1    3    3    0  502 -0.48591641735E+03 -0.12360325101E+04 -0.73927002378E+03  0.15200037200E+04  0.10100000352E+00 0.  1.
</event>
<event>
 5   0  0.1087688E-07  0.3976376E+04  0.7818609E-02  0.8009329E-01
       -2   -1    0    0    0  501  0.00000000000E+00  0.00000000000E+00  0.27413463989E+04  0.27413463989E+04  0.25500000920E-02 0. -1.
        2   -1    0    0  501    0  0.00000000000E+00  0.00000000000E+00 -0.14419526562E+04  0.14419526562E+04  0.25500000920E-02 0.  1.
    10030    2    1    2    0    0  0.00000000000E+00  0.00000000000E+00  0.12993937427E+04  0.41832990551E+04  0.39763760996E+04 0.  0.
        2    1    3    3  502    0 -0.10264825850E+04  0.64082428477E+03 -0.10099142684E+04  0.15761500851E+04  0.25500000920E-02 0.  1.
       -2    1    3    3    0  502  0.10264825850E+04 -0.64082428477E+03  0.23093080111E+04  0.26071489700E+04  0.25500000920E-02 0. -1.
</event>
<event>
 5   0  0.3399500E-08  0.4011064E+04  0.7818609E-02  0.8002318E-01
       -3   -1    0    0    0  501  0.00000000000E+00  0.00000000000E+00  0.21750907635E+04  0.21750907658E+04  0.10100000352E+00 0.  1.
        3   -1    0    0  501    0  0.00000000000E+00  0.00000000000E+00 -0.18491915024E+04  0.18491915051E+04  0.10100000352E+00 0. -1.
    10030    2    1    2    0    0  0.00000000000E+00  0.00000000000E+00  0.32589926112E+03  0.40242822709E+04  0.40110643809E+04 0.  0.
        4    1    3    3  502    0 -0.78357793109E+03 -0.21063776327E+03 -0.16771594571E+04  0.18631232109E+04  0.12699999809E+01 0. -1.
       -4    1    3    3    0  502  0.78357793109E+03  0.21063776327E+03  0.20030587182E+04  0.21611590601E+04  0.12699999809E+01 0.  1.
</event>
<event>
 5   0  0.1095903E-07  0.4030198E+04  0.7818609E-02  0.7998482E-01
       -2   -1    0    0    0  501  0.00000000000E+00  0.00000000000E+00  0.16301693669E+04  0.16301693669E+04  0.25500000920E-02 0.  1.
        2   -1    0    0  501    0  0.00000000000E+00  0.00000000000E+00 -0.24909217705E+04  0.24909217705E+04  0.25500000920E-02 0. -1.
    10030    2    1    2    0    0  0.00000000000E+00  0.00000000000E+00 -0.86075240364E+03  0.41210911374E+04  0.40301981914E+04 0.  0.
        3    1    3    3  502    0  0.99807251115E+03 -0.12242662935E+04 -0.17098542286E+04  0.23277839651E+04  0.10100000352E+00 0. -1.
       -3    1    3    3    0  502 -0.99807251115E+03  0.12242662935E+04  0.84910182492E+03  0.17933071723E+04  0.10100000352E+00 0.  1.
</event>
<event>
 5   0  0.1073271E-07  0.4041004E+04  0.7818609E-02  0.7996326E-01
       -2   -1    0    0    0  501  0.00000000000E+00  0.00000000000E+00  0.31725178023E+04  0.31725178023E+04  0.25500000920E-02 0. -1.
        2   -1    0    0  501    0  0.00000000000E+00  0.00000000000E+00 -0.12868099320E+04  0.12868099320E+04  0.25500000920E-02 0.  1.
    10030    2    1    2    0    0  0.00000000000E+00  0.00000000000E+00  0.18857078702E+04  0.44593277343E+04  0.40410035474E+04 0.  0.
        1    1    3    3  502    0 -0.14734667444E+04 -0.11192650601E+04  0.18383852308E+04  0.26083555698E+04  0.50400001928E-02 0. -1.
       -1    1    3    3    0  502  0.14734667444E+04  0.11192650601E+04  0.47322639410E+02  0.18509721645E+04  0.50400001928E-02 0.  1.
</event>
<event>
 5   0  0.1095109E-07  0.3899020E+04  0.7818609E-02  0.8025233E-01
        2   -1    0    0  501    0  0.00000000000E+00  0.00000000000E+00  0.13110879819E+04  0.13110879819E+04  0.25500000920E-02 0.  1.
       -2   -1    0    0    0  501  0.00000000000E+00  0.00000000000E+00 -0.28988049913E+04  0.28988049913E+04  0.25500000920E-02 0. -1.
    10030    2    1    2    0    0  0.00000000000E+00  0.00000000000E+00 -0.15877170094E+04  0.42098929732E+04  0.38990195619E+04 0.  0.
        4    1    3    3  502    0 -0.15260301151E+04 -0.20519306804E+03 -0.20849003741E+04  0.25918493958E+04  0.12699999809E+01 0. -1.
       -4    1    3    3    0  502  0.15260301151E+04  0.20519306804E+03  0.49718336476E+03  0.16180435775E+04  0.12699999809E+01 0.  1.
</event>
<event>
 5   0  0.1087688E-07  0.3972387E+04  0.7818609E-02  0.8010140E-01
        2   -1    0    0  501    0  0.00000000000E+00  0.00000000000E+00  0.26861465140E+04  0.26861465140E+04  0.25500000920E-02 0. -1.
       -2   -1    0    0    0  501  0.00000000000E+00  0.00000000000E+00 -0.14686331743E+04  0.14686331743E+04  0.25500000920E-02 0.  1.
    10030    2    1    2    0    0  0.00000000000E+00  0.00000000000E+00  0.12175133397E+04  0.41547796884E+04  0.39723866285E+04 0.  0.
        2    1    3    3  502    0 -0.19498565969E+04  0.28287629583E+03  0.34622541617E+03  0.20004578941E+04  0.25500000920E-02 0. -1.
       -2    1    3    3    0  502  0.19498565969E+04 -0.28287629583E+03  0.87128792355E+03  0.21543217942E+04  0.25500000920E-02 0.  1.
</event>
<event>
 5   0  0.3399500E-08  0.3992029E+04  0.7818609E-02  0.8006156E-01
       -1   -1    0    0    0  501  0.00000000000E+00  0.00000000000E+00  0.25134826600E+04  0.25134826600E+04  0.50400001928E-02 0. -1.
        1   -1    0    0  501    0  0.00000000000E+00  0.00000000000E+00 -0.15850811404E+04  0.15850811404E+04  0.50400001928E-02 0.  1.
    10030    2    1    2    0    0  0.00000000000E+00  0.00000000000E+00  0.92840151964E+03  0.40985638004E+04  0.39920290385E+04 0.  0.
        5    1    3    3  502    0 -0.13880990792E+04  0.10825409678E+04 -0.50183350078E+03  0.18304570339E+04  0.46999998093E+01 0.  1.
       -5    1    3    3    0  502  0.13880990792E+04 -0.10825409678E+04  0.14302350204E+04  0.22681067665E+04  0.46999998093E+01 0. -1.
</event>
<event>
 5   0  0.1087688E-07  0.3994482E+04  0.7818609E-02  0.8005661E-01
       -2   -1    0    0    0  501  0.00000000000E+00  0.00000000000E+00  0.21034852017E+04  0.21034852017E+04  0.25500000920E-02 0.  1.
        2   -1    0    0  501    0  0.00000000000E+00  0.00000000000E+00 -0.18963631699E+04  0.18963631699E+04  0.25500000920E-02 0. -1.
    10030    2    1    2    0    0  0.00000000000E+00  0.00000000000E+00  0.20712203186E+03  0.39998483716E+04  0.39944821266E+04 0.  0.
        2    1    3    3  502    0  0.17668283799E+04  0.20351044011E+03 -0.80643530882E+03  0.19528023276E+04  0.25500000920E-02 0. -1.
       -2    1    3    3    0  502 -0.17668283799E+04 -0.20351044011E+03  0.10135573407E+04  0.20470460440E+04  0.25500000920E-02 0.  1.
</event>
<event>
 5   0  0.3399500E-08  0.3994935E+04  0.7818609E-02  0.8005569E-01
       -1   -1    0    0    0  501  0.00000000000E+00  0.00000000000E+00  0.18569997209E+04  0.18569997209E+04  0.50400001928E-02 0.  1.
        1   -1    0    0  501    0  0.00000000000E+00  0.00000000000E+00 -0.21485610588E+04  0.21485610588E+04  0.50400001928E-02 0. -1.
    10030    2    1    2    0    0  0.00000000000E+00  0.00000000000E+00 -0.29156133785E+03  0.40055607797E+04  0.39949354371E+04 0.  0.
        5    1    3    3  502    0  0.24779826822E+03 -0.69664069539E+01 -0.21330721031E+04  0.21474336310E+04  0.46999998093E+01 0. -1.
       -5    1    3    3    0  502 -0.24779826822E+03  0.69664069539E+01  0.18415107652E+04  0.18581271488E+04  0.46999998093E+01 0.  1.
</event>
<event>
 5   0  0.3399500E-08  0.3735323E+04  0.7818609E-02  0.8060179E-01
       -1   -1    0    0    0  501  0.00000000000E+00  0.00000000000E+00  0.21893845211E+04  0.21893845211E+04  0.50400001928E-02 0.  1.
        1   -1    0    0  501    0  0.00000000000E+00  0.00000000000E+00 -0.15932147175E+04  0.15932147176E+04  0.50400001928E-02 0. -1.
    10030    2    1    2    0    0  0.00000000000E+00  0.00000000000E+00  0.59616980360E+03  0.37825992387E+04  0.37353230872E+04 0.  0.
        4    1    3    3  502    0  0.11099535457E+04  0.11743026991E+04 -0.65034473079E+03  0.17418190447E+04  0.12699999809E+01 0. -1.
       -4    1    3    3    0  502 -0.11099535457E+04 -0.11743026991E+04  0.12465145344E+04  0.20407801940E+04  0.12699999809E+01 0.  1.
</event>
<event>
 5   0  0.3399500E-08  0.3960311E+04  0.7818609E-02  0.8012601E-01
       -1   -1    0    0    0  501  0.00000000000E+00  0.00000000000E+00  0.17762022599E+04  0.17762022599E+04  0.50400001928E-02 0. -1.
        1   -1    0    0  501    0  0.00000000000E+00  0.00000000000E+00 -0.22075276714E+04  0.22075276714E+04  0.50400001928E-02 0.  1.
    10030    2    1    2    0    0  0.00000000000E+00  0.00000000000E+00 -0.43132541153E+03  0.39837299313E+04  0.39603109164E+04 0.  0.
        2    1    3    3  502    0 -0.38778593984E+02  0.18887723976E+04 -0.81250996707E+03  0.20564866631E+04  0.25500000920E-02 0.  1.
       -2    1    3    3    0  502  0.38778593984E+02 -0.18887723976E+04  0.38118455554E+03  0.19272432681E+04  0.25500000920E-02 0. -1.
</event>
<event>
 5   0  0.3399500E-08  0.3982539E+04  0.7818609E-02  0.8008078E-01
       -1   -1    0    0    0  501  0.00000000000E+00  0.00000000000E+00  0.24480176073E+04  0.24480176073E+04  0.50400001928E-02 0.  1.
        1   -1    0    0  501    0  0.00000000000E+00  0.00000000000E+00 -0.16197408069E+04  0.16197408070E+04  0.50400001928E-02 0. -1.
    10030    2    1    2    0    0  0.00000000000E+00  0.00000000000E+00  0.82827680036E+03  0.40677584143E+04  0.39825388961E+04 0.  0.
        4    1    3    3  502    0 -0.12349527856E+04  0.13923412464E+04  0.11374080272E+04  0.21811513387E+04  0.12699999809E+01 0.  1.
       -4    1    3    3    0  502  0.12349527856E+04 -0.13923412464E+04 -0.30913122688E+03  0.18866070755E+04  0.12699999809E+01 0. -1.
</event>
<event>
 5   0  0.1073271E-07  0.3610500E+04  0.7818609E-02  0.8088091E-01
        2   -1    0    0  501    0  0.00000000000E+00  0.00000000000E+00  0.12629455545E+04  0.12629455545E+04  0.25500000920E-02 0. -1.
       -2   -1    0    0    0  501  0.00000000000E+00  0.00000000000E+00 -0.25804187733E+04  0.25804187733E+04  0.25500000920E-02 0.  1.
    10030    2    1    2    0    0  0.00000000000E+00  0.00000000000E+00 -0.13174732188E+04  0.38433643278E+04  0.36105004742E+04 0.  0.
        1    1    3    3  502    0  0.13595201012E+04 -0.10413647576E+04 -0.50767607415E+02  0.17132754635E+04  0.50400001928E-02 0. -1.
       -1    1    3    3    0  502 -0.13595201012E+04  0.10413647576E+04 -0.12667056114E+04  0.21300888643E+04  0.50400001928E-02 0.  1.
</event>
<event>
 5   0  0.1095109E-07  0.3995895E+04  0.7818609E-02  0.8005375E-01
       -2   -1    0    0    0  501  0.00000000000E+00  0.00000000000E+00  0.26643773317E+04  0.26643773317E+04  0.25500000920E-02 0.  1.
        2   -1    0    0  501    0  0.00000000000E+00  0.00000000000E+00 -0.14982088634E+04  0.14982088634E+04  0.25500000920E-02 0. -1.
    10030    2    1    2    0    0  0.00000000000E+00  0.00000000000E+00  0.11661684683E+04  0.41625861951E+04  0.39958947603E+04 0.  0.
        4    1    3    3  502    0 -0.54123390595E+03  0.50143028794E+03  0.25172631818E+04  0.26231625977E+04  0.12699999809E+01 0.  1.
       -4    1    3    3    0  502  0.54123390595E+03 -0.50143028794E+03 -0.13510947135E+04  0.15394235974E+04  0.12699999809E+01 0. -1.
</event>
<event>
 5   0  0.3399500E-08  0.3988657E+04  0.7818609E-02  0.8006839E-01
       -1   -1    0    0    0  501  0.00000000000E+00  0.00000000000E+00  0.13832866124E+04  0.13832866124E+04  0.50400001928E-02 0. -1.
        1   -1    0    0  501    0  0.00000000000E+00  0.00000000000E+00 -0.28752871413E+04  0.28752871413E+04  0.50400001928E-02 0.  1.
    10030    2    1    2    0    0  0.00000000000E+00  0.00000000000E+00 -0.14920005289E+04  0.42585737537E+04  0.39886570218E+04 0.  0.
        5    1    3    3  502    0  0.18307124577E+04  0.79096457779E+03 -0.76075783011E+03  0.21344572219E+04  0.46999998093E+01 0. -1.
       -5    1    3    3    0  502 -0.18307124577E+04 -0.79096457779E+03 -0.73124269875E+03  0.21241165318E+04  0.46999998093E+01 0.  1.
</event>
<event>
 5   0  0.1095903E-07  0.3993504E+04  0.7818609E-02  0.8005858E-01
       -2   -1    0    0    0  501  0.00000000000E+00  0.00000000000E+00  0.12823849811E+04  0.12823849811E+04  0.25500000920E-02 0. -1.
        2   -1    0    0  501    0  0.00000000000E+00  0.00000000000E+00 -0.31090656969E+04  0.31090656969E+04  0.25500000920E-02 0.  1.
    10030    2    1    2    0    0  0.00000000000E+00  0.00000000000E+00 -0.18266807158E+04  0.43914506780E+04  0.39935043033E+04 0.  0.
        3    1    3    3  502    0 -0.18682781336E+03 -0.99760925597E+03 -0.28042529671E+04  0.29822748990E+04  0.10100000352E+00 0.  1.
       -3    1    3    3    0  502  0.18682781336E+03  0.99760925597E+03  0.97757225134E+03  0.14091757790E+04  0.10100000352E+00 0. -1.
</event>
<event>
 5   0  0.3399500E-08  0.3948464E+04  0.7818609E-02  0.8015024E-01
        1   -1    0    0  501    0  0.00000000000E+00  0.00000000000E+00  0.14682887833E+04  0.14682887833E+04  0.50400001928E-02 0. -1.
       -1   -1    0    0    0  501  0.00000000000E+00  0.00000000000E+00 -0.26545128488E+04  0.26545128488E+04  0.50400001928E-02 0.  1.
    10030    2    1    2    0    0  0.00000000000E+00  0.00000000000E+00 -0.11862240655E+04  0.41228016322E+04  0.39484637221E+04 0.  0.
        3    1    3    3  502    0  0.12133588134E+04 -0.51896778308E+03 -0.21262848437E+04  0.25025296035E+04  0.10100000352E+00 0.  1.
       -3    1    3    3    0  502 -0.12133588134E+04  0.51896778308E+03  0.94006077821E+03  0.16202720286E+04  0.10100000352E+00 0. -1.
</event>
<event>
 5   0  0.3399500E-08  0.4132337E+04  0.7818609E-02  0.7978369E-01
       -1   -1    0    0    0  501  0.00000000000E+00  0.00000000000E+00  0.15018022901E+04  0.15018022901E+04  0.50400001928E-02 0.  1.
        1   -1    0    0  501    0  0.00000000000E+00  0.00000000000E+00 -0.28426200202E+04  0.28426200202E+04  0.50400001928E-02 0. -1.
    10030    2    1    2    0    0  0.00000000000E+00  0.00000000000E+00 -0.13408177301E+04  0.43444223103E+04  0.41323374771E+04 0.  0.
        2    1    3    3  502    0 -0.19355921527E+04 -0.50201732314E+03 -0.12360467456E+03  0.20034511449E+04  0.25500000920E-02 0.  1.
       -2    1    3    3    0  502  0.19355921527E+04  0.50201732314E+03 -0.12172130555E+04  0.23409711653E+04  0.25500000920E-02 0. -1.
</event>
<event>
 5   0  0.1087688E-07  0.4021132E+04  0.7818609E-02  0.8000297E-01
       -2   -1    0    0    0  501  0.00000000000E+00  0.00000000000E+00  0.19874180602E+04  0.19874180602E+04  0.25500000920E-02 0. -1.
        2   -1    0    0  501    0  0.00000000000E+00  0.00000000000E+00 -0.20339836459E+04  0.20339836460E+04  0.25500000920E-02 0.  1.
    10030    2    1    2    0    0  0.00000000000E+00  0.00000000000E+00 -0.46565585796E+02  0.40214017061E+04  0.40211320953E+04 0.  0.
        2    1    3    3  502    0 -0.79807485796E+03 -0.44601739812E+03 -0.18140789378E+04  0.20314372722E+04  0.25500000920E-02 0.  1.
       -2    1    3    3    0  502  0.79807485796E+03  0.44601739812E+03  0.17675133520E+04  0.19899644339E+04  0.25500000920E-02 0. -1.
</event>
<event>
 5   0  0.3399500E-08  0.3998928E+04  0.7818609E-02  0.8004763E-01
        1   -1    0    0  501    0  0.00000000000E+00  0.00000000000E+00  0.24048597984E+04  0.24048597984E+04  0.50400001928E-02 0.  1.
       -1   -1    0    0    0  501  0.00000000000E+00  0.00000000000E+00 -0.16624073013E+04  0.16624073013E+04  0.50400001928E-02 0. -1.
    10030    2    1    2    0    0  0.00000000000E+00  0.00000000000E+00  0.74245249707E+03  0.40672670996E+04  0.39989281001E+04 0.  0.
        1    1    3    3  502    0 -0.60774310571E+03 -0.15374266783E+04 -0.77263711217E+03  0.18248289182E+04  0.50400001928E-02 0. -1.
       -1    1    3    3    0  502  0.60774310571E+03  0.15374266783E+04  0.15150896092E+04  0.22424381815E+04  0.50400001928E-02 0.  1.
</event>
<event>
 5   0  0.1095109E-07  0.4024149E+04  0.7818609E-02  0.7999693E-01
       -2   -1    0    0    0  501  0.00000000000E+00  0.00000000000E+00  0.21238845512E+04  0.21238845512E+04  0.25500000920E-02 0. -1.
        2   -1    0    0  501    0  0.00000000000E+00  0.00000000000E+00 -0.19061503499E+04  0.19061503499E+04  0.25500000920E-02 0.  1.
    10030    2    1    2    0    0  0.00000000000E+00  0.00000000000E+00  0.21773420121E+03  0.40300349011E+04  0.40241487450E+04 0.  0.
        4    1    3    3  502    0  0.12328647969E+04 -0.12693333022E+04 -0.85028065337E+03  0.19631967405E+04  0.12699999809E+01 0.  1.
       -4    1    3    3    0  502 -0.12328647969E+04  0.12693333022E+04  0.10680148546E+04  0.20668381606E+04  0.12699999809E+01 0. -1.
</event>
<event>
 5   0  0.3399500E-08  0.3998297E+04  0.7818609E-02  0.8004890E-01
        1   -1    0    0  501    0  0.00000000000E+00  0.00000000000E+00  0.23422699499E+04  0.23422699499E+04  0.50400001928E-02 0.  1.
       -1   -1    0    0    0  501  0.00000000000E+00  0.00000000000E+00 -0.17062916486E+04  0.17062916486E+04  0.50400001928E-02 0. -1.
    10030    2    1    2    0    0  0.00000000000E+00  0.00000000000E+00  0.63597830125E+03  0.40485615985E+04  0.39982974649E+04 0.  0.
        1    1    3    3  502    0  0.16851465525E+04  0.10244186687E+04 -0.13916770209E+02  0.19721425377E+04  0.50400001928E-02 0. -1.
       -1    1    3    3    0  502 -0.16851465525E+04 -0.10244186687E+04  0.64989507145E+03  0.20764190609E+04  0.50400001928E-02 0.  1.
</event>
<event>
 5   0  0.1095109E-07  0.4001356E+04  0.7818609E-02  0.8004273E-01
       -2   -1    0    0    0  501  0.00000000000E+00  0.00000000000E+00  0.16274682418E+04  0.16274682418E+04  0.25500000920E-02 0.  1.
        2   -1    0    0  501    0  0.00000000000E+00  0.00000000000E+00 -0.24594724163E+04  0.24594724163E+04  0.25500000920E-02 0. -1.
    10030    2    1    2    0    0  0.00000000000E+00  0.00000000000E+00 -0.83200417450E+03  0.40869406581E+04  0.40013563946E+04 0.  0.
        4    1    3    3  502    0  0.15862293785E+04 -0.96576149085E+03  0.34415602111E+03  0.18887201694E+04  0.12699999809E+01 0.  1.
       -4    1    3    3    0  502 -0.15862293785E+04  0.96576149085E+03 -0.11761601956E+04  0.21982204887E+04  0.12699999809E+01 0. -1.
</event>
<event>
 5   0  0.1101474E-07  0.3831980E+04  0.7818609E-02  0.8039327E-01
        2   -1    0    0  501    0  0.00000000000E+00  0.00000000000E+00  0.16289175268E+04  0.16289175268E+04  0.25500000920E-02 0.  1.
       -2   -1    0    0    0  501  0.00000000000E+00  0.00000000000E+00 -0.22536542984E+04  0.22536542984E+04  0.25500000920E-02 0. -1.
    10030    2    1    2    0    0  0.00000000000E+00  0.00000000000E+00 -0.62473677160E+03  0.38825718253E+04  0.38319796378E+04 0.  0.
        5    1    3    3  502    0 -0.44475930349E+03 -0.12693183844E+04  0.10702040101E+04  0.17188189876E+04  0.46999998093E+01 0.  1.
       -5    1    3    3    0  502  0.44475930349E+03  0.12693183844E+04 -0.16949407817E+04  0.21637528377E+04  0.46999998093E+01 0. -1.
</event>
<event>
 5   0  0.3399500E-08  0.3998527E+04  0.7818609E-02  0.8004844E-01
       -1   -1    0    0    0  501  0.00000000000E+00  0.00000000000E+00  0.15360514989E+04  0.15360514989E+04  0.50400001928E-02 0. -1.
        1   -1    0    0  501    0  0.00000000000E+00  0.00000000000E+00 -0.26021615356E+04  0.26021615356E+04  0.50400001928E-02 0.  1.
    10030    2    1    2    0    0  0.00000000000E+00  0.00000000000E+00 -0.10661100368E+04  0.41382130345E+04  0.39985267923E+04 0.  0.
        4    1    3    3  502    0  0.13804086686E+04  0.13192393059E+03  0.95743758699E+03  0.16851173139E+04  0.12699999809E+01 0. -1.
       -4    1    3    3    0  502 -0.13804086686E+04 -0.13192393059E+03 -0.20235476238E+04  0.24530957206E+04  0.12699999809E+01 0.  1.
</event>
<event>
 5   0  0.1101474E-07  0.3952310E+04  0.7818609E-02  0.8014237E-01
        2   -1    0    0  501    0  0.00000000000E+00  0.00000000000E+00  0.17547246656E+04  0.17547246656E+04  0.25500000920E-02 0.  1.
       -2   -1    0    0    0  501  0.00000000000E+00  0.00000000000E+00 -0.22255279933E+04  0.22255279933E+04  0.25500000920E-02 0. -1.
    10030    2    1    2    0    0  0.00000000000E+00  0.00000000000E+00 -0.47080332766E+03  0.39802526590E+04  0.39523101416E+04 0.  0.
        5    1    3    3  502    0 -0.10017325542E+04  0.95097265247E+03 -0.16586696354E+04  0.21584772746E+04  0.46999998093E+01 0. -1.
       -5    1    3    3    0  502  0.10017325542E+04 -0.95097265247E+03  0.11878663077E+04  0.18217753843E+04  0.46999998093E+01 0.  1.
</event>
<event>
 5   0  0.3399500E-08  0.3999240E+04  0.7818609E-02  0.8004700E-01
       -1   -1    0    0    0  501  0.00000000000E+00  0.00000000000E+00  0.17599595899E+04  0.17599595899E+04  0.50400001928E-02 0. -1.
        1   -1    0    0  501    0  0.00000000000E+00  0.00000000000E+00 -0.22719161083E+04  0.22719161083E+04  0.50400001928E-02 0.  1.
    10030    2    1    2    0    0  0.00000000000E+00  0.00000000000E+00 -0.51195651845E+03  0.40318756982E+04  0.39992401990E+04 0.  0.
        2    1    3    3  502    0  0.15714035150E+04 -0.86448537925E+03  0.63545253791E+03  0.19027464113E+04  0.25500000920E-02 0.  1.
       -2    1    3    3    0  502 -0.15714035150E+04  0.86448537925E+03 -0.11474090564E+04  0.21291292869E+04  0.25500000920E-02 0. -1.
</event>
<event>
 5   0  0.1087688E-07  0.3923531E+04  0.7818609E-02  0.8020153E-01
        2   -1    0    0  501    0  0.00000000000E+00  0.00000000000E+00  0.20623597038E+04  0.20623597038E+04  0.25500000920E-02 0.  1.
       -2   -1    0    0    0  501  0.00000000000E+00  0.00000000000E+00 -0.18660775613E+04  0.18660775613E+04  0.25500000920E-02 0. -1.
    10030    2    1    2    0    0  0.00000000000E+00  0.00000000000E+00  0.19628214246E+03  0.39284372651E+04  0.39235306378E+04 0.  0.
        2    1    3    3  502    0 -0.28438282426E+03  0.24570075661E+03 -0.18296968103E+04  0.18678953049E+04  0.25500000920E-02 0. -1.
       -2    1    3    3    0  502  0.28438282426E+03 -0.24570075661E+03  0.20259789528E+04  0.20605419602E+04  0.25500000920E-02 0.  1.
</event>
<event>
 5   0  0.3399500E-08  0.3998438E+04  0.7818609E-02  0.8004862E-01
       -1   -1    0    0    0  501  0.00000000000E+00  0.00000000000E+00  0.34341396248E+04  0.34341396248E+04  0.50400001928E-02 0.  1.
        1   -1    0    0  501    0  0.00000000000E+00  0.00000000000E+00 -0.11638653562E+04  0.11638653562E+04  0.50400001928E-02 0. -1.
    10030    2    1    2    0    0  0.00000000000E+00  0.00000000000E+00  0.22702742686E+04  0.45980049811E+04  0.39984377639E+04 0.  0.
        5    1    3    3  502    0 -0.12145491860E+03 -0.17987386374E+04  0.21287914516E+04  0.27896213215E+04  0.46999998093E+01 0.  1.
       -5    1    3    3    0  502  0.12145491860E+03  0.17987386374E+04  0.14148281701E+03  0.18083836596E+04  0.46999998093E+01 0. -1.
</event>
</LesHouchesEvents>
